Membrane in water
40155
    1TCq1    O1    1   3.114   3.541  10.975 -0.2974 -0.1275 -0.0026
    1TCq1    C1    2   3.041   3.543  10.860  0.3890  0.3604 -0.2752
    1TCq1    O2    3   3.042   3.635  10.781 -0.2583 -0.2888  0.4893
    1TCq1    C2    4   2.950   3.429  10.861  0.0804  0.2245  0.2247
    1TCq1    C3    5   2.880   3.403  10.744 -0.3092  0.0799 -0.3827
    1TCq1    C4    6   2.779   3.309  10.744 -0.6693 -0.0982  0.0806
    1TCq1    C5    7   2.758   3.230  10.854 -0.6365 -0.8984 -0.2302
    1TCq1    C6    8   2.831   3.251  10.968 -0.4655  0.3371  0.1731
    1TCq1    C7    9   2.927   3.349  10.978 -0.4077  0.0673 -0.6385
    1TCq1    C8   10   2.828   3.162  11.084  0.0315 -0.3100 -0.1112
    1TCq1    O4   11   2.875   3.205  11.194  0.4182 -0.5290  0.2748
    1TCq1    C9   12   2.704   3.282  10.628 -0.8488  0.4106 -0.6736
    1TCq1    O5   13   2.608   3.204  10.635 -0.3075 -0.5335  0.1707
    1TCq1    O6   14   2.743   3.326  10.520  0.5434  0.1244 -0.2547
    1TCq1    H1   15   3.112   3.447  11.004 -0.2633 -0.2959 -0.5447
    1TCq1    H2   16   2.903   3.454  10.651  0.9658  0.3864  0.0889
    1TCq1    H3   17   2.680   3.155  10.854 -2.8026  1.3639 -1.6321
    1TCq1    H4   18   2.986   3.362  11.068 -0.2330 -0.4733 -0.6755
    2MPD2     C   19   2.693   2.717  11.306 -0.1535  0.8069  0.1524
    2MPD2    C1   20   2.753   2.831  11.360  0.1460  0.2548 -0.3218
    2MPD2    C2   21   2.785   2.943  11.281 -0.1309  0.1392 -0.1019
    2MPD2    C3   22   2.761   2.928  11.143 -0.9623 -0.0213  0.2140
    2MPD2    C4   23   2.719   2.812  11.091 -0.3274  0.1523  0.5471
    2MPD2    C5   24   2.676   2.708  11.171  0.6672  0.1411  0.4813
    2MPD2     H   25   2.827   3.029  11.331  0.7550 -0.1593 -0.3462
    2MPD2    H1   26   2.704   2.800  10.984  0.8000  1.5136  0.2500
    2MPD2    H2   27   2.643   2.647  11.372 -0.6933  1.5991  0.5818
    2MPD2    H3   28   2.630   2.622  11.124 -0.5307  0.8038  0.4565
    2MPD2     N   29   2.770   3.040  11.058 -0.7788 -0.2494 -0.1020
    2MPD2    H5   30   2.753   3.021  10.959  2.0174 -0.1070 -0.6310
    2MPD2    N1   31   2.766   2.854  11.496  0.0440 -0.6308 -0.6266
    2MPD2    H7   32   2.798   2.946  11.523  0.0541 -1.0205  0.6779
    3TCq1    O1   33   0.835   1.479  10.890 -0.2331  0.6952 -0.3450
    3TCq1    C1   34   0.954   1.509  10.954 -0.6038  0.2444  0.0612
    3TCq1    O2   35   0.974   1.619  10.999 -0.2498  0.0206  1.0708
    3TCq1    C2   36   1.054   1.413  10.909  1.1533 -0.2474 -0.3788
    3TCq1    C3   37   1.035   1.333  10.794 -0.5191 -0.3098  0.1347
    3TCq1    C4   38   1.131   1.236  10.778 -0.3518 -0.1407 -0.1745
    3TCq1    C5   39   1.239   1.222  10.861  0.1594  0.2906 -0.0070
    3TCq1    C6   40   1.256   1.314  10.966 -0.3859  0.0006  0.2332
    3TCq1    C7   41   1.163   1.412  10.993  0.3773  0.5334 -0.0442
    3TCq1    C8   42   1.377   1.316  11.043 -0.2036  0.4547 -0.7963
    3TCq1    O4   43   1.390   1.400  11.130  0.4062 -0.3126 -0.1179
    3TCq1    C9   44   1.114   1.140  10.670  0.1470 -0.3729 -0.0365
    3TCq1    O5   45   1.009   1.152  10.604  0.6881  0.0287  0.0427
    3TCq1    O6   46   1.214   1.061  10.659 -0.4845 -0.3975  0.0226
    3TCq1    H1   47   0.819   1.383  10.881  1.0907  0.5515 -1.1890
    3TCq1    H2   48   0.952   1.338  10.725 -1.2897 -0.3514  1.0674
    3TCq1    H3   49   1.297   1.134  10.839  1.2343  0.7958  0.7847
    3TCq1    H4   50   1.186   1.495  11.060 -0.4549  0.5990  0.1513
    4MPD2     C   51   1.812   1.077  11.198 -0.7340 -0.1445  0.2219
    4MPD2    C1   52   1.763   1.017  11.082  1.1511  0.9877 -0.3311
    4MPD2    C2   53   1.659   1.071  11.009 -0.2516 -0.1923 -0.1306
    4MPD2    C3   54   1.587   1.181  11.058 -0.4031 -0.2257  0.6358
    4MPD2    C4   55   1.640   1.244  11.177 -0.4324 -0.4420 -0.7655
    4MPD2    C5   56   1.754   1.193  11.242 -0.1954  0.6938 -0.3281
    4MPD2     H   57   1.613   1.010  10.931 -0.6653 -0.5507  0.3967
    4MPD2    H1   58   1.599   1.336  11.218 -0.4678 -1.0670  0.5949
    4MPD2    H2   59   1.898   1.040  11.251 -0.9378 -0.2825  0.4574
    4MPD2    H3   60   1.769   1.242  11.337  0.4214 -0.0122 -0.0613
    4MPD2     N   61   1.471   1.225  10.991 -1.0171 -0.8219 -0.7696
    4MPD2    H5   62   1.447   1.177  10.905  0.1370 -1.2094 -0.8693
    4MPD2    N1   63   1.834   0.906  11.025 -0.1779 -0.3548  0.3880
    4MPD2    H7   64   1.798   0.858  10.943  0.4427  0.5517 -0.4101
    5TCq1    O1   65   1.789   1.632   9.856  0.3335  0.0361  0.7248
    5TCq1    C1   66   1.868   1.659   9.961  0.2791 -0.5260 -0.0092
    5TCq1    O2   67   1.841   1.641  10.076 -0.3875 -0.0768 -0.2099
    5TCq1    C2   68   2.005   1.673   9.914 -0.5781 -0.2174 -0.1333
    5TCq1    C3   69   2.013   1.717   9.789  0.4700  0.5654 -0.0849
    5TCq1    C4   70   2.136   1.709   9.732  0.5263 -0.1328 -0.2323
    5TCq1    C5   71   2.242   1.646   9.791  0.2463  0.8686 -0.5162
    5TCq1    C6   72   2.222   1.585   9.914  0.1664  0.2107  0.2242
    5TCq1    C7   73   2.099   1.587   9.965  0.2154 -0.1707  0.2380
    5TCq1    C8   74   2.332   1.525   9.987  0.1987  0.0923  0.2068
    5TCq1    O4   75   2.317   1.495  10.103 -0.4033 -0.6365 -0.2034
    5TCq1    C9   76   2.151   1.782   9.608  0.3419  0.5419 -0.2358
    5TCq1    O5   77   2.273   1.808   9.574  0.1833 -0.0703 -0.5886
    5TCq1    O6   78   2.044   1.809   9.546 -0.8177  0.3092 -0.0279
    5TCq1    H1   79   1.844   1.609   9.778  2.4122  0.0693  2.1785
    5TCq1    H2   80   1.937   1.782   9.745 -0.9753 -1.6120 -0.8148
    5TCq1    H3   81   2.335   1.642   9.735  0.3732 -2.6350 -0.0403
    5TCq1    H4   82   2.073   1.549  10.063 -0.7477  0.6540  0.3019
    6MPD2     C   83   2.681   1.487   9.867  0.8214 -0.4465  0.0819
    6MPD2    C1   84   2.570   1.467   9.956 -0.0819  0.3952  0.3373
    6MPD2    C2   85   2.590   1.391  10.065 -0.5042  0.1556 -0.3491
    6MPD2    C3   86   2.709   1.330  10.099  0.6348 -0.1996  0.2114
    6MPD2    C4   87   2.815   1.344  10.016  0.7470 -0.0453 -0.3555
    6MPD2    C5   88   2.799   1.423   9.901 -0.3803 -0.4859  0.4818
    6MPD2     H   89   2.511   1.383  10.139 -1.1447  1.5922 -0.8835
    6MPD2    H1   90   2.914   1.303  10.032  0.9453  1.4335  2.2034
    6MPD2    H2   91   2.669   1.532   9.769  0.4320 -0.2317  0.2280
    6MPD2    H3   92   2.884   1.422   9.833 -0.5226 -2.5183  0.3454
    6MPD2     N   93   2.722   1.253  10.218  0.1597  0.0093 -0.9786
    6MPD2    H5   94   2.642   1.244  10.280  0.3343  1.0257 -0.6142
    6MPD2    N1   95   2.445   1.523   9.916 -0.3120 -0.1259 -0.3226
    6MPD2    H7   96   2.446   1.563   9.823  1.0233 -0.0227 -0.2670
    7TCq1    O1   97   4.371   1.144  13.164 -0.3322 -0.0334 -0.2153
    7TCq1    C1   98   4.461   1.160  13.057 -0.3119  0.0891 -0.5355
    7TCq1    O2   99   4.435   1.155  12.937 -0.1963 -0.2379  0.2051
    7TCq1    C2  100   4.582   1.151  13.128  0.3195 -0.9430  0.1629
    7TCq1    C3  101   4.609   1.236  13.236  0.5137 -0.6704 -0.2156
    7TCq1    C4  102   4.719   1.223  13.319  0.1231  0.3295 -0.5555
    7TCq1    C5  103   0.068   1.105  13.312 -0.1246  0.1255 -0.3573
    7TCq1    C6  104   0.036   1.018  13.215  0.0337 -0.1597 -0.0113
    7TCq1    C7  105   4.661   1.037  13.126  0.3569 -0.5655  0.2422
    7TCq1    C8  106   0.101   0.885  13.210 -0.3960 -0.2455 -0.5059
    7TCq1    O4  107   0.055   0.791  13.151  0.1282  0.3123  0.5226
    7TCq1    C9  108   0.016   1.320  13.428 -0.0006 -0.2394 -0.1217
    7TCq1    O5  109   4.636   1.378  13.470 -0.1407  0.6255 -0.0139
    7TCq1    O6  110   0.114   1.295  13.503  0.7803  0.2588 -0.0916
    7TCq1    H1  111   4.417   1.115  13.246 -0.3482  0.4015 -0.0512
    7TCq1    H2  112   4.550   1.326  13.248  0.6265 -0.6474  0.1535
    7TCq1    H3  113   0.134   1.082  13.394 -0.0481 -0.5485 -0.6075
    7TCq1    H4  114   4.649   0.965  13.046 -0.3493 -0.7966  0.5561
    8MPD2     C  115   0.500   0.596  13.408  0.5682  0.0914 -0.1058
    8MPD2    C1  116   0.376   0.558  13.369  0.5455 -0.5870  0.9169
    8MPD2    C2  117   0.283   0.653  13.324  0.0094  0.1356 -0.6088
    8MPD2    C3  118   0.308   0.785  13.322 -0.8655  0.0299 -0.0691
    8MPD2    C4  119   0.435   0.821  13.372  0.3873 -0.0846  0.4080
    8MPD2    C5  120   0.530   0.732  13.411  0.7283 -0.2649 -0.1825
    8MPD2     H  121   0.199   0.610  13.269  0.1733  0.3384 -1.0194
    8MPD2    H1  122   0.455   0.926  13.390 -2.4075  0.3456  0.9309
    8MPD2    H2  123   0.582   0.531  13.434 -0.5252 -1.6058 -0.9370
    8MPD2    H3  124   0.624   0.777  13.440  0.5066 -0.1049  0.2855
    8MPD2     N  125   0.224   0.893  13.283 -0.6550  0.0158 -0.1022
    8MPD2    H5  126   0.243   0.986  13.317  0.4884 -0.8392  1.6108
    8MPD2    N1  127   0.348   0.414  13.366  0.4120  1.0890  0.2109
    8MPD2    H7  128   0.421   0.352  13.398  1.4493  2.2257  0.0378
    9TCq1    O1  129   1.859   4.005  10.912 -0.2308  0.3533 -0.1838
    9TCq1    C1  130   1.952   3.960  10.821 -0.5487 -0.7855 -0.4371
    9TCq1    O2  131   1.916   3.895  10.726 -0.0977  0.4294  0.1146
    9TCq1    C2  132   2.081   3.966  10.891  0.2996  0.2516  0.3060
    9TCq1    C3  133   2.162   3.857  10.885 -0.2207  0.0127  0.0105
    9TCq1    C4  134   2.263   3.842  10.980  0.9238  0.3870  0.1373
    9TCq1    C5  135   2.286   3.936  11.083 -0.4539 -0.0065  0.0058
    9TCq1    C6  136   2.192   4.034  11.086 -0.1878 -0.4481 -0.5454
    9TCq1    C7  137   2.104   4.058  10.986 -0.6676 -0.7280  0.5388
    9TCq1    C8  138   2.199   4.126  11.198 -0.1706  0.1025  0.3872
    9TCq1    O4  139   2.151   4.236  11.174 -0.4802  0.1262 -0.9315
    9TCq1    C9  140   2.360   3.738  10.964 -0.2698  0.3659  0.4910
    9TCq1    O5  141   2.454   3.734  11.051 -0.4389 -1.2404  0.4461
    9TCq1    O6  142   2.345   3.656  10.866 -0.0501  0.1647  0.4509
    9TCq1    H1  143   1.897   4.022  11.001  0.3401  0.8934 -0.5311
    9TCq1    H2  144   2.152   3.790  10.801 -1.8982  0.6239 -0.2783
    9TCq1    H3  145   2.369   3.926  11.152 -0.6939  1.5290  0.5086
    9TCq1    H4  146   2.029   4.137  10.978  1.9078  1.7803  1.2714
   10MPD2     C  147   2.294   4.294  11.422  0.0311  0.1007 -0.9955
   10MPD2    C1  148   2.271   4.159  11.433  0.5226 -0.1864 -0.5925
   10MPD2    C2  149   2.262   4.099  11.566 -0.4468 -0.4607 -0.5460
   10MPD2    C3  150   2.282   4.170  11.680  0.4403 -0.1855  0.3016
   10MPD2    C4  151   2.326   4.303  11.659  0.1233  0.4776  0.2318
   10MPD2    C5  152   2.322   4.360  11.537 -0.2474 -0.2476 -0.1762
   10MPD2     H  153   2.237   3.993  11.570  2.3695 -1.1161  0.2370
   10MPD2    H1  154   2.340   4.369  11.744 -0.0595  2.4168 -1.2616
   10MPD2    H2  155   2.294   4.345  11.327 -1.7400  0.5092 -0.7728
   10MPD2    H3  156   2.342   4.467  11.532 -3.3342  0.4358  2.3424
   10MPD2     N  157   2.285   4.123  11.811 -0.0076 -0.1535  0.3640
   10MPD2    H5  158   2.285   4.187  11.890 -2.4717  0.2911 -0.0249
   10MPD2    N1  159   2.253   4.081  11.322 -0.1416  1.0946  0.2214
   10MPD2    H7  160   2.250   3.980  11.332 -1.8337  1.0086 -1.1298
   11TCq1    O1  161   4.419   4.458  14.519 -0.4010 -0.4049 -0.4714
   11TCq1    C1  162   4.304   4.397  14.545  0.2887  0.1763  0.2523
   11TCq1    O2  163   4.227   4.435  14.636  0.1619  0.3281  0.5924
   11TCq1    C2  164   4.253   4.340  14.422 -0.6243  0.2376 -0.1113
   11TCq1    C3  165   4.314   4.329  14.299  0.7045  0.0518  0.8737
   11TCq1    C4  166   4.244   4.274  14.197 -0.0354  0.0824 -0.7219
   11TCq1    C5  167   4.114   4.238  14.216  0.2466  0.0929 -0.6483
   11TCq1    C6  168   4.054   4.248  14.339  0.4132  0.3615  0.0287
   11TCq1    C7  169   4.121   4.306  14.441 -0.2393  0.0167 -0.1272
   11TCq1    C8  170   3.922   4.183  14.359 -0.6162  0.1024  0.1124
   11TCq1    O4  171   3.864   4.202  14.464 -0.5343  0.0434 -0.5348
   11TCq1    C9  172   4.298   4.275  14.060 -0.0434  0.0912  0.2975
   11TCq1    O5  173   4.410   4.322  14.039 -0.3173  0.0918 -0.3120
   11TCq1    O6  174   4.214   4.234  13.968 -0.5501  0.6725 -0.2453
   11TCq1    H1  175   4.476   4.434  14.443  0.4483 -0.2367  0.1181
   11TCq1    H2  176   4.419   4.357  14.293  0.8733 -1.0581 -1.2760
   11TCq1    H3  177   4.049   4.193  14.142 -0.4354  2.2805 -1.3454
   11TCq1    H4  178   4.075   4.305  14.540  1.0737 -1.4606  0.4559
   12MPD2     C  179   3.647   4.098  14.306 -0.3322 -0.7211  0.1640
   12MPD2    C1  180   3.751   4.043  14.239 -0.3174 -0.2282  0.5190
   12MPD2    C2  181   3.726   3.943  14.154  0.4708  0.0905 -0.1340
   12MPD2    C3  182   3.601   3.883  14.146  0.3044  0.4223  0.3695
   12MPD2    C4  183   3.492   3.946  14.210  0.3744  0.0820 -0.6364
   12MPD2    C5  184   3.521   4.051  14.293  0.1630 -0.0368  0.3352
   12MPD2     H  185   3.813   3.905  14.101  2.2533 -0.4513  3.1636
   12MPD2    H1  186   3.387   3.926  14.193  0.2415 -0.6668  1.1214
   12MPD2    H2  187   3.660   4.183  14.372 -1.8377 -1.1886  1.0747
   12MPD2    H3  188   3.448   4.115  14.342 -0.2405  0.4960 -0.9696
   12MPD2     N  189   3.571   3.794  14.046  0.8142 -0.6806 -0.2150
   12MPD2    H5  190   3.473   3.780  14.022 -0.0915 -0.4059  3.3832
   12MPD2    N1  191   3.881   4.094  14.258  0.6513  1.3787 -0.7251
   12MPD2    H7  192   3.952   4.068  14.191 -0.6429  0.8833 -1.9155
   13TCq1    O1  193   2.381   2.899  11.364 -0.1305 -0.5649  0.3061
   13TCq1    C1  194   2.464   3.009  11.387  0.0762  0.3825  0.7355
   13TCq1    O2  195   2.474   3.064  11.492 -0.1351  0.3392 -0.4789
   13TCq1    C2  196   2.420   3.086  11.273  0.4305 -0.1077 -0.3421
   13TCq1    C3  197   2.439   3.030  11.149 -0.5271  0.3346  0.3462
   13TCq1    C4  198   2.398   3.101  11.041 -0.8039  0.5289  0.6036
   13TCq1    C5  199   2.331   3.218  11.051  0.0529  0.5466 -0.7233
   13TCq1    C6  200   2.316   3.282  11.176  0.3802  0.1271  0.4832
   13TCq1    C7  201   2.351   3.206  11.292 -0.0015 -0.3536 -0.6684
   13TCq1    C8  202   2.228   3.385  11.205 -0.0053  0.4047 -0.2706
   13TCq1    O4  203   2.228   3.433  11.319 -0.4718  0.2864  0.3333
   13TCq1    C9  204   2.437   3.054  10.912  0.3016  0.4019 -0.1194
   13TCq1    O5  205   2.385   3.114  10.816 -0.1908 -0.3080  0.0026
   13TCq1    O6  206   2.525   2.969  10.907  0.1997 -0.0704 -0.0526
   13TCq1    H1  207   2.386   2.856  11.276  3.4852  2.3922 -0.9574
   13TCq1    H2  208   2.501   2.942  11.140 -1.2995 -0.1049 -0.6258
   13TCq1    H3  209   2.300   3.263  10.957  2.0736 -1.4554 -2.3937
   13TCq1    H4  210   2.329   3.246  11.390 -1.4034  0.8013 -1.4674
   14MPD2     C  211   1.965   3.563  11.001 -0.4754  0.4492 -0.2703
   14MPD2    C1  212   2.049   3.542  11.108  1.5263  0.1819  0.7426
   14MPD2    C2  213   2.029   3.630  11.213  0.3298 -0.0675 -0.6111
   14MPD2    C3  214   1.947   3.744  11.198 -0.3893  0.1534 -0.4170
   14MPD2    C4  215   1.870   3.750  11.090 -0.1337 -0.8723 -0.7887
   14MPD2    C5  216   1.877   3.667  10.989 -0.2948 -0.2242 -0.3461
   14MPD2     H  217   2.091   3.633  11.302 -1.0786  0.8615  0.3380
   14MPD2    H1  218   1.799   3.832  11.082  1.1730  0.2810 -0.5742
   14MPD2    H2  219   1.976   3.498  10.915  0.0549 -2.1831  1.7575
   14MPD2    H3  220   1.829   3.685  10.894 -0.3489 -0.5330 -0.3779
   14MPD2     N  221   1.941   3.843  11.299 -0.6106 -0.1740  0.1150
   14MPD2    H5  222   1.984   3.824  11.389  0.5740  1.2807 -0.1376
   14MPD2    N1  223   2.144   3.431  11.104 -0.5514 -0.8152 -0.3301
   14MPD2    H7  224   2.147   3.366  11.025 -0.1088  0.5842 -1.4588
   15TCq1    O1  225   3.948   2.923   1.294  0.0141 -0.4204 -1.2812
   15TCq1    C1  226   3.942   2.890   1.429  0.0999  0.5121  0.3932
   15TCq1    O2  227   3.853   2.901   1.511  0.2274  0.2071  0.4760
   15TCq1    C2  228   4.070   2.836   1.463 -0.4876  0.6662 -0.1409
   15TCq1    C3  229   4.105   2.838   1.596  0.5018 -0.1131  0.4251
   15TCq1    C4  230   4.228   2.791   1.632 -0.2922 -0.0364  1.1537
   15TCq1    C5  231   4.313   2.735   1.540  0.4650 -0.2798  0.1413
   15TCq1    C6  232   4.275   2.742   1.407 -0.1835  0.0704 -0.1196
   15TCq1    C7  233   4.156   2.794   1.361  0.1702 -0.1954 -0.1857
   15TCq1    C8  234   4.373   2.691   1.310 -0.8077  1.0330  0.0161
   15TCq1    O4  235   4.481   2.663   1.355  0.7973 -0.3683 -0.2922
   15TCq1    C9  236   4.255   2.768   1.771 -0.5212 -0.4059  0.0465
   15TCq1    O5  237   4.186   2.818   1.862  0.3538 -0.4668  0.1845
   15TCq1    O6  238   4.365   2.711   1.795 -0.1427 -0.6866 -0.3698
   15TCq1    H1  239   4.037   2.945   1.258  0.2391 -0.2490 -0.6162
   15TCq1    H2  240   4.026   2.852   1.668 -0.4620 -2.1056 -0.2424
   15TCq1    H3  241   4.394   2.671   1.572  2.2201  2.7596  1.7880
   15TCq1    H4  242   4.132   2.801   1.256  3.2397 -0.0704 -0.8930
   16MPD2     C  243   4.333   2.623   0.947 -0.0235  0.7037 -0.4169
   16MPD2    C1  244   4.398   2.625   1.075  0.3321 -0.3833  0.0274
   16MPD2    C2  245   4.526   2.567   1.086 -0.5133 -0.2589 -0.6876
   16MPD2    C3  246   4.582   2.509   0.975 -0.1794  0.6229 -0.2129
   16MPD2    C4  247   4.524   2.514   0.851  0.3603  0.0807  0.7350
   16MPD2    C5  248   4.400   2.570   0.842  0.0663 -0.3050 -0.3350
   16MPD2     H  249   4.576   2.549   1.180  2.3683  1.1250 -1.9742
   16MPD2    H1  250   4.571   2.466   0.766 -0.0248  1.7896 -0.4524
   16MPD2    H2  251   4.239   2.668   0.919 -1.1347 -1.9529 -0.9366
   16MPD2    H3  252   4.360   2.587   0.742 -0.3430 -1.4936 -0.3721
   16MPD2     N  253   4.703   2.441   0.994  0.2445  0.0691 -0.5050
   16MPD2    H5  254   0.022   2.457   1.086 -1.9225 -0.7179  0.5651
   16MPD2    N1  255   4.330   2.682   1.179 -0.0220  0.2372  0.6859
   16MPD2    H7  256   4.238   2.718   1.155  0.7781  1.8781  0.1040
   17TCq1    O1  257   2.351   2.438  10.121  0.1779 -0.1310 -0.3625
   17TCq1    C1  258   2.472   2.387  10.158  0.1153  0.5724 -0.0938
   17TCq1    O2  259   2.580   2.443  10.132 -0.0026  0.4222  0.5952
   17TCq1    C2  260   2.451   2.331  10.293  0.0383 -0.0186 -0.3432
   17TCq1    C3  261   2.355   2.233  10.297  0.2279  0.5833 -0.5475
   17TCq1    C4  262   2.343   2.176  10.418 -0.1616  0.1217  0.3237
   17TCq1    C5  263   2.427   2.205  10.526  0.5585  0.9427  0.4029
   17TCq1    C6  264   2.533   2.289  10.509 -0.1788 -0.0744 -0.1949
   17TCq1    C7  265   2.546   2.359  10.392  0.7725 -0.4784  0.4950
   17TCq1    C8  266   2.610   2.335  10.626 -0.8339  0.2144 -0.5995
   17TCq1    O4  267   2.543   2.337  10.730  0.0918 -0.1334 -0.2426
   17TCq1    C9  268   2.242   2.077  10.440  0.4946  0.1317 -0.2041
   17TCq1    O5  269   2.163   2.059  10.346  0.0104 -0.2571 -0.1043
   17TCq1    O6  270   2.238   2.014  10.549  0.0390  0.3017  0.2674
   17TCq1    H1  271   2.272   2.413  10.173 -0.4679  0.4846 -1.0303
   17TCq1    H2  272   2.278   2.216  10.222  0.1735 -0.0861 -0.3469
   17TCq1    H3  273   2.414   2.168  10.627  2.3104 -3.7816 -1.1278
   17TCq1    H4  274   2.625   2.430  10.372  1.4432 -1.2962  0.2631
   18MPD2     C  275   2.792   2.462  10.809 -0.1670  0.2511  0.1268
   18MPD2    C1  276   2.826   2.445  10.675  0.5845  0.3671 -0.0544
   18MPD2    C2  277   2.957   2.471  10.623 -0.5265  0.3086 -0.4286
   18MPD2    C3  278   3.047   2.534  10.708  0.0687 -0.8859  0.0216
   18MPD2    C4  279   3.010   2.565  10.838  0.6338 -0.3191  0.5132
   18MPD2    C5  280   2.892   2.520  10.886  0.0048  0.5805  0.3784
   18MPD2     H  281   2.980   2.462  10.517  2.9795 -0.6663  0.4127
   18MPD2    H1  282   3.076   2.613  10.909  0.5443 -2.6649  2.1921
   18MPD2    H2  283   2.695   2.447  10.857 -1.2345  0.4755 -1.9722
   18MPD2    H3  284   2.865   2.529  10.991  1.0584  0.2594  0.6783
   18MPD2     N  285   3.172   2.593  10.672 -0.0834  0.3841 -0.9354
   18MPD2    H5  286   3.203   2.671  10.729 -2.0193  0.2958  0.2603
   18MPD2    N1  287   2.739   2.374  10.590  0.2416  0.3946 -0.2650
   18MPD2    H7  288   2.761   2.351  10.494 -5.2374  0.1587 -1.4941
   19TMC2    C1  289   4.460   3.926  13.852 -0.2516 -0.3253 -0.7394
   19TMC2    C2  290   4.335   3.971  13.835  0.0373 -0.2630  0.1889
   19TMC2    C3  291   4.238   3.876  13.837 -0.0728  0.0392  1.0142
   19TMC2    C4  292   4.487   3.790  13.868  0.6249 -0.3332  0.2020
   19TMC2    C5  293   4.390   3.695  13.857 -0.1568  0.1645  0.6368
   19TMC2    C6  294   4.263   3.741  13.836 -0.7883  0.2282  0.3405
   19TMC2     C  295   4.561   4.028  13.839 -0.0182  0.4926  0.0420
   19TMC2     O  296   4.521   4.138  13.789  0.5784  0.2664  0.0148
   19TMC2     H  297   4.321   4.078  13.835  1.2071 -0.0886 -2.6896
   19TMC2    H1  298   4.586   3.749  13.884  0.4041 -1.6865 -1.8916
   19TMC2    H2  299   4.179   3.672  13.833 -0.7841  0.2066  0.7200
   19TMC2    C7  300   4.407   3.592  13.954 -0.7333 -0.2577 -0.4431
   19TMC2    C8  301   4.106   3.925  13.808 -0.0257 -0.6514  0.7322
   19TMC2    O1  302   4.436   3.632  14.066 -0.4366  0.7408 -0.4178
   19TMC2    O2  303   4.037   3.860  13.729 -0.2041 -0.7498  0.1072
   19TMC2    O5  304   4.095   4.060  13.836  0.2162  0.1446 -0.0116
   19TMC2    H5  305   4.163   4.098  13.895  1.0307 -2.0476  0.4558
   20MPD2     C  306   0.076   4.216  13.878 -0.4497  0.1469 -0.5935
   20MPD2    C1  307   0.056   4.093  13.937  0.1529 -0.0218  0.5020
   20MPD2    C2  308   0.154   4.051  14.030  0.0308  0.3886 -0.1482
   20MPD2    C3  309   0.255   4.127  14.083 -0.6665  0.1635  0.4789
   20MPD2    C4  310   0.255   4.257  14.033  0.6841  0.4600 -0.3778
   20MPD2    C5  311   0.178   4.292  13.925  0.2201 -0.0666 -0.1290
   20MPD2     H  312   0.150   3.948  14.065  0.2676  0.5596  0.3804
   20MPD2    H1  313   0.317   4.337  14.073  1.9999 -1.1839  0.9229
   20MPD2    H2  314   0.021   4.257  13.795  0.7178  0.1107 -1.3870
   20MPD2    H3  315   0.188   4.387  13.874 -0.3626 -0.8109 -1.6006
   20MPD2     N  316   0.337   4.086  14.194  0.1094  0.5253 -0.2731
   20MPD2    H5  317   0.401   4.157  14.229 -1.1246  1.9302 -0.8414
   20MPD2    N1  318   4.669   4.003  13.910 -0.1876 -0.0861  0.0325
   20MPD2    H7  319   4.673   3.918  13.966 -0.2024  0.8729  1.5058
   21MPD2     C  320   2.126   4.359  14.236 -0.0154 -0.8022 -0.2034
   21MPD2    C1  321   2.179   4.237  14.275 -0.2526  0.9422 -0.6250
   21MPD2    C2  322   2.108   4.156  14.362  0.0815 -0.6766  0.4428
   21MPD2    C3  323   1.974   4.188  14.402 -0.6377  1.4046 -0.4591
   21MPD2    C4  324   1.914   4.297  14.344 -0.0363  0.0754 -0.6529
   21MPD2    C5  325   1.990   4.382  14.268  0.3428 -0.4707  0.1092
   21MPD2     H  326   2.160   4.065  14.390  2.5852  0.9832  1.1827
   21MPD2    H1  327   1.815   4.334  14.368  0.3146 -0.5640  1.8383
   21MPD2    H2  328   2.180   4.433  14.179  0.9943 -2.4465 -1.3690
   21MPD2    H3  329   1.949   4.471  14.223  0.4530 -0.0151  0.8946
   21MPD2     N  330   1.894   4.104  14.486 -0.6049  0.0258 -0.0285
   21MPD2    H5  331   1.793   4.112  14.485 -0.5896  0.1344 -1.9507
   21MPD2    N1  332   2.303   4.194  14.228  0.3230 -0.3054  0.4679
   21MPD2    H7  333   2.319   4.096  14.250 -0.0322 -0.7086 -1.0264
   22TCq2    C1  334   1.940   4.003  14.567  0.7284  0.1406 -0.2719
   22TCq2    O2  335   2.056   3.976  14.598  0.0109 -0.2043 -0.0688
   22TCq2    C2  336   1.833   3.925  14.629  0.4558  0.8302  0.2076
   22TCq2    C3  337   1.867   3.807  14.688 -0.3674  0.1731 -0.5356
   22TCq2    C4  338   1.781   3.742  14.774  0.7065  1.0351 -0.1791
   22TCq2    C5  339   1.660   3.792  14.789  0.7858  0.0196  0.4116
   22TCq2    C6  340   1.629   3.910  14.728  0.3588 -0.4944  0.5004
   22TCq2    C7  341   1.715   3.989  14.649  0.1749 -0.1046 -0.2062
   22TCq2    C8  342   1.488   3.953  14.756 -0.3877  0.0694 -1.3858
   22TCq2    O4  343   1.428   3.882  14.839  0.0938  0.3979 -0.0897
   22TCq2    C9  344   1.815   3.624  14.848 -0.2552  0.6419  0.0116
   22TCq2    O5  345   1.916   3.559  14.807  0.0514 -0.6543 -1.0944
   22TCq2    O6  346   1.767   3.617  14.966  0.2076 -0.0555 -0.0929
   22TCq2    H2  347   1.965   3.766  14.666  0.3900  2.6272 -1.7591
   22TCq2    H3  348   1.594   3.736  14.855 -0.3052  0.4531 -0.2965
   22TCq2    H4  349   1.692   4.092  14.626 -0.1303 -0.3889 -1.1337
   23MPD2     C  350   3.680   0.089  14.493  0.9380 -0.0830 -0.3097
   23MPD2    C1  351   3.564   0.132  14.547  0.5737  1.0566  0.5211
   23MPD2    C2  352   3.497   0.229  14.477 -0.6322 -0.2855  0.2578
   23MPD2    C3  353   3.545   0.288  14.358  0.5809 -0.3094 -0.4940
   23MPD2    C4  354   3.670   0.262  14.325 -0.0306  0.9102 -0.2700
   23MPD2    C5  355   3.740   0.161  14.393  0.1220  0.5041  0.2629
   23MPD2     H  356   3.404   0.268  14.517 -0.0414  1.6561 -0.2525
   23MPD2    H1  357   3.719   0.298  14.235  0.9878  1.1247  0.3703
   23MPD2    H2  358   3.738   0.012  14.541  0.8933  1.6268  2.4874
   23MPD2    H3  359   3.833   0.121  14.351 -0.8294 -0.9170 -0.5121
   23MPD2     N  360   3.469   0.376  14.282  0.4094  0.3639  0.6275
   23MPD2    H5  361   3.512   0.428  14.206 -1.7547  1.5329  0.1880
   23MPD2    N1  362   3.507   0.085  14.669 -0.0869  0.3373 -0.3275
   23MPD2    H7  363   3.420   0.127  14.701 -0.6488 -1.7747  0.9770
   24TCq2    C1  364   3.334   0.389  14.293 -0.5876  0.3005  0.4188
   24TCq2    O2  365   3.253   0.320  14.350  0.2921  0.4754 -1.3012
   24TCq2    C2  366   3.281   0.479  14.186  0.3596 -0.2474  0.3024
   24TCq2    C3  367   3.365   0.535  14.092 -0.4439  0.2130 -0.0931
   24TCq2    C4  368   3.320   0.578  13.973  0.0834 -0.4206  0.1934
   24TCq2    C5  369   3.191   0.557  13.935  0.7159 -0.0493  0.3812
   24TCq2    C6  370   3.109   0.496  14.028 -0.6763  0.5427  0.4413
   24TCq2    C7  371   3.145   0.479  14.159  0.0357 -0.7106 -0.2862
   24TCq2    C8  372   2.970   0.476  13.989  0.6299  0.7735 -0.8999
   24TCq2    O4  373   2.946   0.480  13.867  0.1462 -0.0024 -0.2540
   24TCq2    C9  374   3.407   0.641  13.886  0.0886 -0.6936  0.6917
   24TCq2    O5  375   3.356   0.713  13.795  0.1737  0.0728  0.1506
   24TCq2    O6  376   3.529   0.613  13.898 -0.1946 -0.1235 -0.2446
   24TCq2    H2  377   3.471   0.543  14.113 -0.3606 -2.9131  0.6355
   24TCq2    H3  378   3.172   0.571  13.830  0.6486 -0.8156  0.2893
   24TCq2    H4  379   3.081   0.427  14.230 -0.3000  4.0378  2.8656
   25TMC2    C1  380   1.829   2.324  11.352 -0.1572  0.6648  0.2795
   25TMC2    C2  381   1.692   2.346  11.363  0.3750 -0.3084 -0.2983
   25TMC2    C3  382   1.658   2.445  11.450  0.0374 -0.6761 -0.1665
   25TMC2    C4  383   1.921   2.400  11.411  0.2424  0.3893  0.7090
   25TMC2    C5  384   1.881   2.483  11.506  0.0858  0.0743  0.6140
   25TMC2    C6  385   1.749   2.508  11.534  0.3005 -0.7092  0.1162
   25TMC2     C  386   1.878   2.220  11.261 -0.5885 -0.5010 -0.6548
   25TMC2     O  387   1.996   2.225  11.226 -0.1733  0.6464  0.3586
   25TMC2     H  388   1.615   2.300  11.303  0.2136  0.2081 -0.4859
   25TMC2    H1  389   2.026   2.371  11.412  0.3202  0.6613  0.4245
   25TMC2    H2  390   1.709   2.570  11.613  0.6603  0.4807 -0.6389
   25TMC2    C7  391   1.964   2.512  11.623 -0.6238 -0.0608 -0.2050
   25TMC2    C8  392   1.513   2.466  11.464  0.8628 -0.4023  0.4935
   25TMC2    O1  393   1.914   2.523  11.734 -0.5462  0.3285  0.4908
   25TMC2    O2  394   1.434   2.376  11.429  0.4783  0.1685 -0.4574
   25TMC2    O5  395   1.489   2.573  11.548 -0.1656 -0.6787  0.5878
   25TMC2    H5  396   1.548   2.650  11.536 -1.3898  0.1665 -0.0057
   26MPD2     C  397   1.782   1.879  10.885 -0.0903  0.0371 -0.4006
   26MPD2    C1  398   1.663   1.927  10.939 -0.4345 -0.3038 -0.4277
   26MPD2    C2  399   1.669   2.011  11.044  0.0649 -0.6609  0.0149
   26MPD2    C3  400   1.791   2.049  11.094 -0.2183 -0.5221 -0.1266
   26MPD2    C4  401   1.908   2.005  11.042  0.5531  0.1834 -0.9982
   26MPD2    C5  402   1.901   1.916  10.941 -0.2172 -0.0472 -0.0132
   26MPD2     H  403   1.577   2.048  11.088  1.1733  1.1637  0.8018
   26MPD2    H1  404   2.002   2.021  11.094  0.4100  1.2890 -1.0818
   26MPD2    H2  405   1.781   1.800  10.811  3.4984  0.3542 -0.7929
   26MPD2    H3  406   1.991   1.862  10.915 -0.6935 -0.4488 -0.8110
   26MPD2     N  407   1.784   2.136  11.209  0.4695 -0.2495 -0.5878
   26MPD2    H5  408   1.691   2.155  11.245  0.3028 -0.0522 -1.1199
   26MPD2    N1  409   1.532   1.897  10.894  0.7466  0.7185 -0.4216
   26MPD2    H7  410   1.460   1.956  10.935 -1.3891 -1.1163 -1.4636
   27TMC2    C1  411   1.143   4.390  11.967  0.1994  0.8277 -0.2717
   27TMC2    C2  412   1.252   4.384  11.886  0.0832 -0.4888  0.2638
   27TMC2    C3  413   1.341   4.483  11.894  0.1437  0.3897  0.1774
   27TMC2    C4  414   1.123   4.494  12.050  0.7367 -0.1129  0.0288
   27TMC2    C5  415   1.213   4.594  12.054 -0.4498  0.4330  0.6689
   27TMC2    C6  416   1.325   4.594  11.978  0.3039  0.2895  0.3573
   27TMC2     C  417   1.041   4.281  11.959 -0.2779  0.8775  0.4803
   27TMC2     O  418   1.067   4.193  11.879 -0.6603  0.3149  1.2347
   27TMC2     H  419   1.278   4.299  11.823  1.5712 -0.1393  0.3898
   27TMC2    H1  420   1.035   4.501  12.112  0.5369 -0.8826 -0.1637
   27TMC2    H2  421   1.400   4.671  11.989 -2.5194  3.3098 -1.8564
   27TMC2    C7  422   1.207   4.690  12.159  0.6221  0.6910  1.1873
   27TMC2    C8  423   1.450   4.493  11.798 -0.0139 -0.2104  0.0708
   27TMC2    O1  424   1.279   0.067  12.148  0.3080 -0.3439  0.6079
   27TMC2    O2  425   1.536   4.403  11.795 -0.0899  0.4379  0.6711
   27TMC2    O5  426   1.374   4.532  11.692  0.1411 -0.2978  0.5226
   27TMC2    H5  427   1.285   4.569  11.710  0.4527  0.2147  1.0039
   28MPD2     C  428   0.573   4.147  12.060 -0.5970  0.6593  0.3498
   28MPD2    C1  429   0.616   4.217  12.175 -0.1622 -0.0879 -0.6465
   28MPD2    C2  430   0.742   4.272  12.168  0.1929  0.1842  0.0588
   28MPD2    C3  431   0.828   4.232  12.069 -0.4227 -0.6612  1.1483
   28MPD2    C4  432   0.790   4.149  11.964 -0.5818  0.7758  1.0772
   28MPD2    C5  433   0.658   4.109  11.963 -0.2424  0.0784 -0.3959
   28MPD2     H  434   0.779   4.339  12.245 -0.0769 -2.6068  2.5772
   28MPD2    H1  435   0.858   4.111  11.888 -0.3191  4.0597 -0.3368
   28MPD2    H2  436   0.470   4.116  12.046  0.5234 -2.6516 -0.7037
   28MPD2    H3  437   0.621   4.053  11.878  4.3728 -4.4850  0.6162
   28MPD2     N  438   0.956   4.291  12.067 -0.0789 -0.1160  0.2127
   28MPD2    H5  439   0.986   4.348  12.146 -0.4493  2.2713 -1.3934
   28MPD2    N1  440   0.520   4.248  12.277 -0.0723  0.9162  0.3128
   28MPD2    H7  441   0.427   4.210  12.269  0.9686 -1.1167 -2.2325
   29MPD2     C  442   0.736   2.167  14.045  1.2102 -0.1751 -0.3525
   29MPD2    C1  443   0.860   2.140  13.995 -0.3299 -0.6401 -0.0695
   29MPD2    C2  444   0.958   2.236  14.004 -0.1777 -0.6972  0.3688
   29MPD2    C3  445   0.921   2.363  14.047  0.6142 -0.1451  0.2486
   29MPD2    C4  446   0.796   2.385  14.103 -0.1655  0.0466  0.6274
   29MPD2    C5  447   0.701   2.290  14.099  0.2359  0.3200  0.1594
   29MPD2     H  448   1.062   2.205  13.995 -0.1916 -0.6953  0.2074
   29MPD2    H1  449   0.768   2.486  14.130 -0.8549 -0.0728  0.3481
   29MPD2    H2  450   0.659   2.094  14.027  0.5358  0.7551 -1.2639
   29MPD2    H3  451   0.598   2.302  14.130 -0.2556 -1.9212 -0.6064
   29MPD2     N  452   1.006   2.480  14.044  0.1176 -0.3481 -0.2135
   29MPD2    H5  453   0.972   2.562  14.095 -0.5250 -0.1478 -0.9682
   29MPD2    N1  454   0.898   2.013  13.958 -0.5277  0.4893  0.2669
   29MPD2    H7  455   0.997   2.001  13.938 -0.6547  2.1390 -1.3022
   30TCq2    C1  456   1.138   2.482  14.004  0.1577 -0.9588 -0.1914
   30TCq2    O2  457   1.206   2.391  13.949 -0.2428  0.1703 -0.6872
   30TCq2    C2  458   1.195   2.612  14.024  0.6229  0.1779 -0.0624
   30TCq2    C3  459   1.124   2.708  14.099  0.0285  0.2249  0.4402
   30TCq2    C4  460   1.144   2.839  14.067 -0.2067  0.5369 -0.1502
   30TCq2    C5  461   1.252   2.876  13.987  0.3512  1.1437  0.1163
   30TCq2    C6  462   1.315   2.775  13.916 -0.1645  0.3787 -0.7445
   30TCq2    C7  463   1.292   2.642  13.936  0.3231 -0.7061  0.5267
   30TCq2    C8  464   1.445   2.804  13.856  0.0350 -0.4802  0.3167
   30TCq2    O4  465   1.497   2.708  13.803 -0.1636 -0.3970 -0.7825
   30TCq2    C9  466   1.087   2.942  14.148 -0.0675 -0.1719  0.5127
   30TCq2    O5  467   1.110   3.060  14.106  0.5656 -0.1491 -0.0772
   30TCq2    O6  468   1.000   2.915  14.237  0.2873 -0.0443  0.5671
   30TCq2    H2  469   1.049   2.693  14.176 -1.3802 -1.0870 -1.1944
   30TCq2    H3  470   1.278   2.979  13.966 -0.5052  1.0858 -1.1684
   30TCq2    H4  471   1.342   2.560  13.885 -0.3005 -0.5409 -0.3513
   31MPD2     C  472   3.862   1.446  14.891  0.0662 -0.2513 -0.5904
   31MPD2    C1  473   3.732   1.429  14.849 -0.0215  0.4119 -1.0073
   31MPD2    C2  474   3.655   1.320  14.889 -0.3966 -0.0181 -0.3502
   31MPD2    C3  475   3.712   1.218  14.956  0.0101  0.0151  0.2194
   31MPD2    C4  476   3.845   1.228  14.994  0.3614  0.3261 -0.3838
   31MPD2    C5  477   3.912   1.346  14.969 -0.2812 -0.1875 -0.2053
   31MPD2     H  478   3.549   1.329  14.866 -0.2449  1.9224 -0.2504
   31MPD2    H1  479   3.896   1.143  15.038 -0.7568  0.4670  1.1815
   31MPD2    H2  480   3.923   1.529  14.858  0.1090  0.7831  2.1093
   31MPD2    H3  481   4.008   1.355  15.018  0.1577 -0.4790 -1.0180
   31MPD2     N  482   3.636   1.099  14.989  0.9449  0.2030 -0.6207
   31MPD2    H5  483   3.680   1.030  15.048  1.0971 -1.5119 -2.7496
   31MPD2    N1  484   3.680   1.537  14.780 -0.3045 -0.1162 -0.2218
   31MPD2    H7  485   3.749   1.612  14.784 -0.1746 -0.1027 -2.6538
   32TCq2    C1  486   3.512   1.068  14.944 -0.6849 -0.3482 -0.2341
   32TCq2    O2  487   3.449   1.116  14.855 -0.3362  0.3626 -0.0439
   32TCq2    C2  488   3.456   0.948  15.007  0.0677 -0.6503 -0.0865
   32TCq2    C3  489   3.368   0.868  14.938 -0.7593  0.6191 -0.1723
   32TCq2    C4  490   3.288   0.791  15.012 -0.1918  0.0603  0.4713
   32TCq2    C5  491   3.296   0.784  15.146 -0.2395  0.3069 -0.3015
   32TCq2    C6  492   3.397   0.853  15.206  0.2394 -0.4403  0.3618
   32TCq2    C7  493   3.490   0.932  15.145 -0.5502  0.0917  0.1282
   32TCq2    C8  494   3.413   0.845  15.349 -0.3561  0.3892 -0.5080
   32TCq2    O4  495   3.520   0.825  15.400 -0.6815  0.1901 -0.1279
   32TCq2    C9  496   3.201   0.689  14.949  0.2452  0.6332 -0.4905
   32TCq2    O5  497   3.120   0.626  15.019  0.0423 -0.0855 -0.0684
   32TCq2    O6  498   3.188   0.696  14.826 -0.2107 -0.1095  0.5139
   32TCq2    H2  499   3.364   0.866  14.829  1.1666 -0.9488 -0.2192
   32TCq2    H3  500   3.235   0.710  15.198  1.9467 -1.6106 -0.4759
   32TCq2    H4  501   3.571   0.987  15.192  2.1014 -1.9689 -2.0488
   33MPD2     C  502   3.814   3.098  10.709  0.0563 -0.4159  0.0576
   33MPD2    C1  503   3.687   3.114  10.660  0.4488  0.5686  0.1460
   33MPD2    C2  504   3.611   3.222  10.693 -0.7361 -0.4357  0.0469
   33MPD2    C3  505   3.672   3.336  10.747 -0.5148  0.9376 -0.5942
   33MPD2    C4  506   3.805   3.323  10.796 -0.4424 -0.3869  0.4467
   33MPD2    C5  507   3.868   3.206  10.773 -0.3269 -0.4682  0.1023
   33MPD2     H  508   3.505   3.225  10.669 -1.0200  0.4426  1.4186
   33MPD2    H1  509   3.848   3.403  10.854  2.4591  0.3434 -2.6711
   33MPD2    H2  510   3.871   3.007  10.722 -0.9406 -0.9085  1.0506
   33MPD2    H3  511   3.962   3.182  10.820  0.2027 -1.1090 -1.2750
   33MPD2     N  512   3.603   3.457  10.779  0.0323  0.3990 -0.1528
   33MPD2    H5  513   3.656   3.533  10.821  1.0877 -0.7659  0.6375
   33MPD2    N1  514   3.636   2.990  10.609  1.0376  0.4591 -0.4719
   33MPD2    H7  515   3.706   2.919  10.589  0.5432 -1.1219  3.2970
   34TCq2    C1  516   3.471   3.481  10.762 -0.4465  0.6906  0.9999
   34TCq2    O2  517   3.382   3.409  10.720 -0.4252 -0.1061  0.1336
   34TCq2    C2  518   3.444   3.624  10.784  0.2402 -0.1062  0.0252
   34TCq2    C3  519   3.453   3.677  10.907  0.2520 -0.5064 -0.0909
   34TCq2    C4  520   3.400   3.804  10.926  1.0677  0.2888 -0.0076
   34TCq2    C5  521   3.329   3.871  10.830 -0.2318  0.1616  0.1917
   34TCq2    C6  522   3.314   3.808  10.709 -0.1985 -0.1690  0.7871
   34TCq2    C7  523   3.373   3.685  10.689  0.6076  0.6039  0.8071
   34TCq2    C8  524   3.264   3.872  10.590  0.1161  0.7976  0.2647
   34TCq2    O4  525   3.265   3.801  10.491  0.1385  0.2887 -0.6883
   34TCq2    C9  526   3.407   3.869  11.061  0.5080 -0.1881  0.4746
   34TCq2    O5  527   3.479   3.810  11.151 -0.8085  0.5051  0.0073
   34TCq2    O6  528   3.337   3.969  11.086 -0.5427 -0.0916 -0.2446
   34TCq2    H2  529   3.504   3.624  10.986 -0.0409  1.8217  1.6801
   34TCq2    H3  530   3.285   3.968  10.847 -1.2694 -0.4941  1.2692
   34TCq2    H4  531   3.376   3.640  10.590 -1.5119 -1.2403  1.5694
   35MPD2     C  532   4.605   0.024  11.406 -0.3802 -0.0902 -0.1696
   35MPD2    C1  533   4.550   4.667  11.509 -0.0168 -0.0369 -0.8438
   35MPD2    C2  534   4.412   4.641  11.503  0.3497  0.9647  0.0033
   35MPD2    C3  535   4.336   4.695  11.399  0.2682 -0.4467  0.1793
   35MPD2    C4  536   4.393   0.069  11.309  0.4995  0.2867  0.3315
   35MPD2    C5  537   4.527   0.092  11.319 -0.1880 -0.4375  0.2712
   35MPD2     H  538   4.367   4.572  11.573 -3.2698  1.7639 -1.5547
   35MPD2    H1  539   4.339   0.117  11.229 -0.3699  0.2400  0.8915
   35MPD2    H2  540   4.709   0.056  11.409 -1.6373  3.9682 -0.2120
   35MPD2    H3  541   4.575   0.159  11.249 -0.6641 -1.2703 -0.8592
   35MPD2     N  542   4.200   4.656  11.389 -0.8238  0.2096 -0.2779
   35MPD2    H5  543   4.175   4.588  11.460 -0.6785  0.1914 -0.2442
   35MPD2    N1  544   4.629   4.622  11.618 -0.1600  0.3396  0.0425
   35MPD2    H7  545   0.007   4.648  11.614  0.5415 -1.9633  1.8941
   36TCq2    C1  546   4.109   4.700  11.297 -0.1280  0.6472  0.2054
   36TCq2    O2  547   4.107   0.070  11.212 -0.2382 -0.2687  0.1492
   36TCq2    C2  548   3.986   4.624  11.300 -0.4013  0.2013 -0.8896
   36TCq2    C3  549   3.862   4.682  11.274 -0.0664 -0.3253  0.2747
   36TCq2    C4  550   3.744   4.607  11.278 -0.2893  0.1691 -0.1734
   36TCq2    C5  551   3.759   4.474  11.304  0.1441 -0.0108 -0.4363
   36TCq2    C6  552   3.879   4.417  11.336 -0.2267 -0.4386  0.1701
   36TCq2    C7  553   3.992   4.487  11.328  0.0600 -0.2684 -0.2153
   36TCq2    C8  554   3.881   4.282  11.377  0.0628 -0.6106 -0.4804
   36TCq2    O4  555   3.807   4.197  11.327 -0.8157 -0.2280  0.2082
   36TCq2    C9  556   3.615   4.667  11.272 -0.4884  0.1067 -0.1642
   36TCq2    O5  557   3.511   4.595  11.264  0.0435  0.5427  0.6282
   36TCq2    O6  558   3.611   0.072  11.273  0.1017  0.1514 -0.2827
   36TCq2    H2  559   3.854   0.069  11.263  0.8172 -0.2987 -0.1315
   36TCq2    H3  560   3.669   4.415  11.318 -0.4812  0.9941 -0.1734
   36TCq2    H4  561   4.084   4.432  11.344  0.3366  0.2260 -0.0872
   37TMC2    C1  562   2.271   0.341  11.596 -0.1597 -0.3294 -0.1775
   37TMC2    C2  563   2.288   0.304  11.467  0.6189 -0.1103  1.3222
   37TMC2    C3  564   2.418   0.281  11.420 -0.0854  0.4198  0.2273
   37TMC2    C4  565   2.372   0.371  11.680 -0.2839 -0.0393 -0.8146
   37TMC2    C5  566   2.496   0.368  11.627  0.2570  0.2167 -0.0438
   37TMC2    C6  567   2.528   0.316  11.499 -0.5409  0.3410  0.4572
   37TMC2     C  568   2.142   0.407  11.621  1.3083  0.7748 -0.0869
   37TMC2     O  569   2.082   0.448  11.522 -0.2718  0.1230 -0.2981
   37TMC2     H  570   2.202   0.281  11.405  1.5041  1.6277 -0.5732
   37TMC2    H1  571   2.348   0.416  11.776 -1.5345  1.9983 -2.0823
   37TMC2    H2  572   2.632   0.304  11.472 -0.9830 -1.7393 -0.3348
   37TMC2    C7  573   2.602   0.414  11.715  0.1153 -0.4323  0.1058
   37TMC2    C8  574   2.433   0.154  11.346  0.1900 -0.3595 -0.6331
   37TMC2    O1  575   2.561   0.438  11.829  0.2106  0.3173  0.1328
   37TMC2    O2  576   2.513   0.070  11.386 -0.6621  0.4801 -0.2784
   37TMC2    O5  577   2.442   0.202  11.220 -0.3212  0.3843  0.6247
   37TMC2    H5  578   2.367   0.257  11.188 -1.1367 -1.4278 -0.5367
   38MPD2     C  579   1.801   0.591  11.970 -0.5811 -0.0857  0.6838
   38MPD2    C1  580   1.910   0.536  12.035  0.8216 -0.4019  1.4879
   38MPD2    C2  581   2.015   0.483  11.955 -0.1404 -0.1619  0.1760
   38MPD2    C3  582   1.997   0.474  11.821 -0.3913 -0.5578 -0.5913
   38MPD2    C4  583   1.890   0.538  11.760  0.7299  0.0182 -0.2098
   38MPD2    C5  584   1.786   0.595  11.836 -0.3347  0.0929 -0.3592
   38MPD2     H  585   2.103   0.442  12.005 -0.7146  1.0317  2.1734
   38MPD2    H1  586   1.885   0.541  11.652 -0.3426  1.0491 -0.1251
   38MPD2    H2  587   1.727   0.646  12.027 -0.8525 -0.4202  0.6528
   38MPD2    H3  588   1.700   0.649  11.799  0.1838  1.6154  0.6732
   38MPD2     N  589   2.111   0.422  11.759  0.0965  0.5860  0.2025
   38MPD2    H5  590   2.173   0.367  11.819 -0.7696 -0.7570 -0.1440
   38MPD2    N1  591   1.921   0.539  12.174  0.3042  0.0291 -0.3816
   38MPD2    H7  592   2.002   0.487  12.207 -1.5443 -1.3536  1.9737
   39MPD2     C  593   0.418   1.999   1.364 -0.5684  0.0865  0.1442
   39MPD2    C1  594   0.333   2.063   1.448 -0.1042 -0.2447  0.8047
   39MPD2    C2  595   0.208   2.088   1.407  0.5351 -0.4471  0.2316
   39MPD2    C3  596   0.165   2.041   1.283  0.5641  0.9520 -0.0618
   39MPD2    C4  597   0.246   1.962   1.212 -0.1911 -0.2433  0.2755
   39MPD2    C5  598   0.372   1.943   1.245 -0.0497 -0.2946  0.2519
   39MPD2     H  599   0.128   2.131   1.467  1.4125  1.1036  0.2908
   39MPD2    H1  600   0.218   1.913   1.120 -0.1531 -1.1193  0.7299
   39MPD2    H2  601   0.516   1.966   1.398  0.5747  3.6970  0.2886
   39MPD2    H3  602   0.442   1.886   1.185  0.5229  0.4632  0.2007
   39MPD2     N  603   0.028   2.061   1.240  0.5585 -0.0433  0.2395
   39MPD2    H5  604   4.708   1.999   1.170 -0.1048  0.5516  0.0891
   39MPD2    N1  605   0.387   2.114   1.568 -0.5319 -0.3061  0.5605
   39MPD2    H7  606   0.482   2.087   1.594  0.3276  2.9237  0.7963
   40TCq2    C1  607   0.327   2.208   1.644  0.7558 -0.1191 -0.0146
   40TCq2    O2  608   0.219   2.261   1.623 -0.1009 -0.6779 -0.1523
   40TCq2    C2  609   0.386   2.246   1.777  0.6887  0.4764  0.5704
   40TCq2    C3  610   0.322   2.343   1.837 -0.3797  0.0693 -0.4676
   40TCq2    C4  611   0.373   2.431   1.930  1.0633  0.4896 -0.2971
   40TCq2    C5  612   0.502   2.415   1.957 -0.4202 -0.3130 -0.6807
   40TCq2    C6  613   0.575   2.324   1.882 -0.1496 -0.1025  0.3181
   40TCq2    C7  614   0.518   2.231   1.801  0.3903 -0.3069  0.2123
   40TCq2    C8  615   0.717   2.306   1.912  0.2467  0.0106  0.3010
   40TCq2    O4  616   0.764   2.198   1.887  0.7455  0.4325  0.1178
   40TCq2    C9  617   0.293   2.540   1.979 -0.1767  0.0654 -0.4845
   40TCq2    O5  618   0.170   2.535   1.959 -0.2039  0.0725 -0.0523
   40TCq2    O6  619   0.354   2.607   2.067  0.0578  0.4025 -0.1511
   40TCq2    H2  620   0.221   2.369   1.809 -0.1069 -0.2225 -1.7352
   40TCq2    H3  621   0.552   2.474   2.033 -0.2116  0.2769 -1.2750
   40TCq2    H4  622   0.586   2.169   1.743 -0.9750 -0.6351 -1.0147
   41TMC2    C1  623   4.420   0.586  14.120  0.4847 -0.3570  0.1901
   41TMC2    C2  624   4.414   0.712  14.079  0.6232  0.1812 -0.5071
   41TMC2    C3  625   4.410   0.737  13.941 -0.5465 -0.8101 -0.0861
   41TMC2    C4  626   4.408   0.479  14.037 -0.4905 -0.4406  0.3954
   41TMC2    C5  627   4.397   0.504  13.905  0.7900  0.5222  0.3980
   41TMC2    C6  628   4.397   0.636  13.855 -0.1228 -0.9420 -0.0973
   41TMC2     C  629   4.417   0.539  14.258  0.6288 -0.2944  0.1341
   41TMC2     O  630   4.410   0.416  14.278  0.4932 -0.1309 -0.2431
   41TMC2     H  631   4.415   0.793  14.150 -0.1517 -0.5838  0.3855
   41TMC2    H1  632   4.434   0.379  14.070 -1.2990 -0.4294  1.0601
   41TMC2    H2  633   4.395   0.664  13.751 -0.0240 -2.2428 -0.4429
   41TMC2    C7  634   4.333   0.404  13.831 -0.3983  0.2931 -0.2907
   41TMC2    C8  635   4.382   0.874  13.893 -0.4638 -0.1282 -0.5816
   41TMC2    O1  636   4.316   0.291  13.882  0.0100 -0.0129 -0.7409
   41TMC2    O2  637   4.311   0.951  13.952 -0.0848  0.7378 -0.4028
   41TMC2    O5  638   4.456   0.907  13.788 -0.1658  0.2613  0.2085
   41TMC2    H5  639   4.502   0.837  13.737  1.0974  0.3952  1.1689
   42MPD2     C  640   4.364   0.512  14.555 -0.2583  0.2095 -0.2092
   42MPD2    C1  641   4.414   0.622  14.495 -0.7232 -0.6653 -0.7484
   42MPD2    C2  642   4.431   0.729  14.576 -0.1058 -0.1038 -0.2562
   42MPD2    C3  643   4.390   0.737  14.704 -0.8052  0.5443 -0.7366
   42MPD2    C4  644   4.347   0.623  14.772  0.5881  0.1792  0.0013
   42MPD2    C5  645   4.337   0.512  14.689  0.0753  0.1337 -0.4846
   42MPD2     H  646   4.468   0.815  14.523 -0.2113 -0.8554 -1.5320
   42MPD2    H1  647   4.331   0.620  14.879  0.3881  0.0387 -0.0319
   42MPD2    H2  648   4.331   0.418  14.513  0.4875 -1.4717  3.0022
   42MPD2    H3  649   4.295   0.421  14.731 -2.6442  2.3882  1.6724
   42MPD2     N  650   4.404   0.846  14.787 -0.1242 -0.4479 -0.1118
   42MPD2    H5  651   4.372   0.836  14.882 -0.0068  2.9540  0.2943
   42MPD2    N1  652   4.428   0.637  14.352  0.1974  0.4654 -0.4513
   42MPD2    H7  653   4.446   0.731  14.320  1.2143  1.1570  2.1773
   43MPD2     C  654   0.798   3.409   0.956 -0.4890 -0.0238  0.2729
   43MPD2    C1  655   0.859   3.289   0.995  0.8111  0.2233  1.0267
   43MPD2    C2  656   0.809   3.229   1.102  0.2364 -0.2750  0.3951
   43MPD2    C3  657   0.692   3.271   1.163  0.5797 -0.6575  0.3950
   43MPD2    C4  658   0.625   3.384   1.115  0.1015  0.4188 -0.1396
   43MPD2    C5  659   0.684   3.454   1.015 -1.1559  0.2443  0.0045
   43MPD2     H  660   0.865   3.142   1.136 -1.2315 -1.7390 -0.9282
   43MPD2    H1  661   0.531   3.420   1.157  0.0373  1.9877 -1.6282
   43MPD2    H2  662   0.834   3.476   0.878  1.4280 -1.2424  0.1347
   43MPD2    H3  663   0.642   3.549   0.985  0.4189  1.0235  0.2489
   43MPD2     N  664   0.630   3.213   1.269 -0.0195 -0.2405  0.5018
   43MPD2    H5  665   0.550   3.259   1.311  0.7563  0.1716  1.5423
   43MPD2    N1  666   0.976   3.237   0.934  0.1457 -0.4023  0.2142
   43MPD2    H7  667   1.016   3.154   0.977 -0.9201 -1.4371 -0.7926
   44TCq2    C1  668   0.712   3.104   1.817 -0.0160 -0.5624  0.3574
   44TCq2    O2  669   0.833   3.089   1.816 -0.5088 -0.1690  0.4235
   44TCq2    C2  670   0.628   3.083   1.696 -0.1855  0.2238  0.3016
   44TCq2    C3  671   0.490   3.085   1.706  0.0100 -0.0562 -0.2916
   44TCq2    C4  672   0.423   3.104   1.592 -0.5171  0.5075  0.2168
   44TCq2    C5  673   0.483   3.120   1.465  0.1630  0.0900  0.3626
   44TCq2    C6  674   0.616   3.101   1.466 -1.2076  0.7856 -0.3249
   44TCq2    C7  675   0.695   3.080   1.577  0.5540  0.4579  0.1455
   44TCq2    C8  676   0.680   3.107   1.338  0.5881  0.7400 -0.0057
   44TCq2    O4  677   0.781   3.040   1.318 -0.5827  0.2576 -0.7062
   44TCq2    C9  678   0.280   3.125   1.593  0.4795 -0.2492  0.9885
   44TCq2    O5  679   0.222   3.112   1.704  0.0809  0.7522  0.3643
   44TCq2    O6  680   0.238   3.187   1.488  0.1394  0.1285  0.7755
   44TCq2    H2  681   0.432   3.064   1.796 -1.2159  0.9357 -0.8516
   44TCq2    H3  682   0.429   3.140   1.373  0.0367 -1.1358  0.1791
   44TCq2    H4  683   0.801   3.064   1.563 -0.0682 -2.2505 -1.4899
   45TMC2    C1  684   1.389   0.083   9.536  0.3609 -0.7573 -0.0561
   45TMC2    C2  685   1.465   0.103   9.649  0.0249 -0.2793  0.5258
   45TMC2    C3  686   1.467   0.226   9.712 -0.1788 -0.2295 -0.6702
   45TMC2    C4  687   1.315   0.183   9.479 -0.0213 -0.2979 -0.3761
   45TMC2    C5  688   1.310   0.301   9.552  0.1331  0.3331 -0.3927
   45TMC2    C6  689   1.388   0.327   9.665 -0.0159 -0.5073 -0.0334
   45TMC2     C  690   1.399   4.675   9.474 -0.0431 -0.5090 -0.6034
   45TMC2     O  691   1.458   4.588   9.541 -0.1635  0.1648  0.7097
   45TMC2     H  692   1.516   0.022   9.699 -1.3241 -0.8076  1.0571
   45TMC2    H1  693   1.248   0.165   9.396 -1.4746 -1.3260  1.0234
   45TMC2    H2  694   1.391   0.428   9.705  1.5571  0.6749 -3.1075
   45TMC2    C7  695   1.230   0.398   9.483  0.9524 -0.0354 -0.0824
   45TMC2    C8  696   1.509   0.241   9.846 -0.8042 -0.0721  0.0056
   45TMC2    O1  697   1.171   0.367   9.377  0.1303  0.2728 -0.4849
   45TMC2    O2  698   1.549   0.349   9.891  0.3140 -0.6552  0.3519
   45TMC2    O5  699   1.499   0.127   9.918  0.4575  0.3303  0.0443
   45TMC2    H5  700   1.427   0.068   9.886  0.7245 -0.1939  0.3969
   46MPD2     C  701   1.378   4.424   9.325 -0.1529  0.1332  0.4789
   46MPD2    C1  702   1.336   4.549   9.277  0.1622 -0.0206  1.0081
   46MPD2    C2  703   1.245   4.539   9.173  0.6905  0.1995 -0.2845
   46MPD2    C3  704   1.213   4.413   9.112 -0.0578  0.2902 -0.7085
   46MPD2    C4  705   1.266   4.295   9.160 -0.1557 -0.0044 -0.4953
   46MPD2    C5  706   1.341   4.301   9.274 -0.7304  0.2307  1.1342
   46MPD2     H  707   1.193   4.627   9.137 -0.1551  0.1997  0.9347
   46MPD2    H1  708   1.248   4.199   9.115 -0.4140 -0.7977  1.2957
   46MPD2    H2  709   1.450   4.413   9.405 -0.9116  0.7493  1.2450
   46MPD2    H3  710   1.388   4.213   9.315 -1.7506 -0.4687  0.8185
   46MPD2     N  711   1.116   4.420   9.010 -0.8507  0.1546  0.2289
   46MPD2    H5  712   1.071   4.506   8.982  1.0659  1.1887  0.3122
   46MPD2    N1  713   1.352   4.670   9.350  0.3606 -0.0546  0.4510
   46MPD2    H7  714   1.324   0.035   9.303 -0.5975  0.0674  1.2491
   47TMC2    C1  715   4.276   0.729   8.758  0.1380 -0.2484 -0.0568
   47TMC2    C2  716   4.338   0.713   8.638 -0.4704 -0.2597  0.5214
   47TMC2    C3  717   4.295   0.794   8.537  0.8050 -0.1348 -0.3208
   47TMC2    C4  718   4.181   0.830   8.792 -0.3030 -0.2901  0.2416
   47TMC2    C5  719   4.138   0.903   8.682  0.5492 -0.4995  0.5728
   47TMC2    C6  720   4.197   0.885   8.556  0.3289 -0.3986 -0.3013
   47TMC2     C  721   4.329   0.648   8.862  0.0663 -0.3761 -0.3159
   47TMC2     O  722   4.451   0.622   8.853  0.4637  0.2189 -0.0566
   47TMC2     H  723   4.417   0.640   8.623 -0.1854  0.1276  0.1002
   47TMC2    H1  724   4.137   0.849   8.889 -0.5559 -1.4589  0.3507
   47TMC2    H2  725   4.164   0.935   8.465 -0.8413 -0.7251 -0.0576
   47TMC2    C7  726   4.005   0.963   8.681 -0.3335 -0.3562  0.5961
   47TMC2    C8  727   4.367   0.783   8.419 -1.2040  0.5695  0.0576
   47TMC2    O1  728   3.955   0.971   8.570 -0.1672 -0.1509 -0.3088
   47TMC2    O2  729   4.403   0.887   8.367 -0.1243  0.3503  0.3702
   47TMC2    O5  730   4.326   0.673   8.356  0.8250  0.3921 -0.2786
   47TMC2    H5  731   4.284   0.612   8.421  1.4994  0.5233  0.2769
   48MPD2     C  732   4.422   0.517   9.111 -0.1644  0.0299  0.0124
   48MPD2    C1  733   4.290   0.519   9.071 -0.2626 -0.4256 -0.7391
   48MPD2    C2  734   4.196   0.445   9.145 -0.5709  0.9986  0.1176
   48MPD2    C3  735   4.232   0.372   9.253  0.3442  0.6210  1.1059
   48MPD2    C4  736   4.369   0.349   9.283 -0.5199  0.4073  0.3755
   48MPD2    C5  737   4.455   0.427   9.210 -0.2306  0.5198  0.3277
   48MPD2     H  738   4.090   0.450   9.123 -0.5461 -1.0595 -0.5029
   48MPD2    H1  739   4.408   0.288   9.364  0.1729 -0.8347 -0.8908
   48MPD2    H2  740   4.500   0.578   9.068  1.1725 -0.1050  2.2302
   48MPD2    H3  741   4.558   0.413   9.241  0.5374  3.4191 -0.8627
   48MPD2     N  742   4.125   0.310   9.327  0.1448 -0.4959 -0.2111
   48MPD2    H5  743   4.030   0.338   9.302  0.8157  1.1653 -0.9244
   48MPD2    N1  744   4.244   0.598   8.959  0.3120  0.6300  1.3269
   48MPD2    H7  745   4.144   0.615   8.953  0.7425  3.1025  1.3684
   49MPD2     C  746   1.646   3.249   9.800  0.0425 -0.1401  0.0975
   49MPD2    C1  747   1.583   3.193   9.915  0.6883 -0.0983  0.1477
   49MPD2    C2  748   1.640   3.178  10.042  0.3094 -0.4106 -0.2662
   49MPD2    C3  749   1.771   3.218  10.050 -0.1496 -0.2128  0.0479
   49MPD2    C4  750   1.838   3.267   9.937  0.3983  0.1342  0.1292
   49MPD2    C5  751   1.780   3.274   9.817 -0.6703 -0.5458 -0.0772
   49MPD2     H  752   1.579   3.146  10.126  0.5330  2.2768  0.9266
   49MPD2    H1  753   1.943   3.293   9.943  0.5902 -0.8204  1.0221
   49MPD2    H2  754   1.607   3.248   9.699 -1.2130  0.6976  0.5673
   49MPD2    H3  755   1.839   3.293   9.728 -2.3809  1.5394 -0.7773
   49MPD2     N  756   1.847   3.195  10.166  0.1778 -0.6541  0.0647
   49MPD2    H5  757   1.946   3.213  10.162  0.2200 -1.3044 -1.7896
   49MPD2    N1  758   1.456   3.128   9.896 -0.0177  0.1224  0.0859
   49MPD2    H7  759   1.413   3.069   9.966  2.5963 -1.7172  0.0971
   50TCq2    C1  760   1.379   3.158   9.785 -0.2843  0.0066 -0.2973
   50TCq2    O2  761   1.383   3.252   9.708  0.5277 -0.0175 -0.2139
   50TCq2    C2  762   1.267   3.060   9.768  0.1830  0.5882 -0.7967
   50TCq2    C3  763   1.164   3.085   9.676 -0.0979 -0.4704 -0.2679
   50TCq2    C4  764   1.052   3.002   9.678  0.1880  0.9793 -0.4928
   50TCq2    C5  765   1.032   2.905   9.780 -0.0623  0.0498 -0.3561
   50TCq2    C6  766   1.138   2.884   9.864 -0.0947  0.2467  0.3838
   50TCq2    C7  767   1.255   2.953   9.857 -0.2057  0.0339 -0.3544
   50TCq2    C8  768   1.136   2.756   9.943  0.6246  0.0884  0.1220
   50TCq2    O4  769   1.058   2.674   9.901  0.0074 -0.3532 -0.1076
   50TCq2    C9  770   0.950   3.024   9.586  0.3304 -0.0616  0.4175
   50TCq2    O5  771   0.968   3.116   9.505  0.2605  0.2509 -0.0742
   50TCq2    O6  772   0.834   2.975   9.608  0.7275  0.2950  0.0645
   50TCq2    H2  773   1.181   3.166   9.606 -1.1484  0.0659  0.0965
   50TCq2    H3  774   0.951   2.833   9.781 -0.3397  0.4027  2.5134
   50TCq2    H4  775   1.341   2.922   9.916 -0.9734 -3.0534 -0.8381
   51MPD2     C  776   1.870   1.892   0.812  0.1790 -0.3510  0.0412
   51MPD2    C1  777   1.866   1.753   0.838  0.3706 -0.1322 -0.4416
   51MPD2    C2  778   1.847   1.710   0.959  0.2019  0.1742  0.3184
   51MPD2    C3  779   1.842   1.788   1.073  0.2406 -0.0088  0.5914
   51MPD2    C4  780   1.836   1.922   1.055  0.0668 -0.0820  0.6492
   51MPD2    C5  781   1.859   1.974   0.927 -0.3103 -0.0998 -0.1970
   51MPD2     H  782   1.840   1.602   0.968 -0.9146  0.0196 -2.4052
   51MPD2    H1  783   1.822   1.986   1.141  2.3164  1.4340 -0.1093
   51MPD2    H2  784   1.887   1.939   0.716  0.8021 -0.0701  0.2863
   51MPD2    H3  785   1.865   2.081   0.914  0.0521  0.1062  1.6513
   51MPD2     N  786   1.852   1.744   1.203  0.3741  0.0076 -0.7250
   51MPD2    H5  787   1.824   1.812   1.273  0.1292 -1.0184  0.1828
   51MPD2    N1  788   1.846   1.662   0.731  0.0171 -0.4312  0.1198
   51MPD2    H7  789   1.810   1.569   0.752  0.0241 -0.9020 -1.9353
   52TCq2    C1  790   1.861   1.618   1.248 -0.7015  0.3618  0.0332
   52TCq2    O2  791   1.851   1.512   1.185  0.5017 -0.0535 -0.3363
   52TCq2    C2  792   1.917   1.613   1.382 -0.3802  0.4209  0.4878
   52TCq2    C3  793   1.879   1.514   1.466  0.1962  0.2590  0.6753
   52TCq2    C4  794   1.923   1.513   1.596 -0.9618  0.3109  0.5927
   52TCq2    C5  795   2.005   1.606   1.646  0.2226 -0.6419 -0.4865
   52TCq2    C6  796   2.049   1.705   1.561 -0.3411  0.2361  0.4282
   52TCq2    C7  797   2.001   1.709   1.432 -0.2818 -0.4128 -0.2243
   52TCq2    C8  798   2.125   1.824   1.612 -0.0970  0.4564 -0.1242
   52TCq2    O4  799   2.173   1.898   1.524  0.3463 -0.2537 -0.3710
   52TCq2    C9  800   1.884   1.402   1.675  0.0906  0.0539  0.1571
   52TCq2    O5  801   1.942   1.403   1.785 -0.8534  0.0290  0.0452
   52TCq2    O6  802   1.807   1.310   1.630  0.3428  0.3505  0.0869
   52TCq2    H2  803   1.810   1.437   1.432 -0.0772  0.3765  0.9732
   52TCq2    H3  804   2.042   1.599   1.748 -0.9079 -1.3229 -0.1214
   52TCq2    H4  805   2.050   1.780   1.366  2.4850 -2.0035  0.0919
   53TMC2    C1  806   3.049   0.492  12.291 -0.9212  0.1882 -0.1350
   53TMC2    C2  807   3.136   0.412  12.361 -0.4861  0.0380  0.0892
   53TMC2    C3  808   3.091   0.355  12.477 -0.1516 -0.3440 -0.2676
   53TMC2    C4  809   2.916   0.513  12.330 -0.1896 -0.2906 -0.2317
   53TMC2    C5  810   2.881   0.459  12.451  0.3089 -0.5033 -0.0090
   53TMC2    C6  811   2.965   0.377  12.528 -0.6021 -0.1579 -0.4563
   53TMC2     C  812   3.084   0.498  12.143  0.3150 -0.5215 -0.4415
   53TMC2     O  813   3.198   0.475  12.116  0.4585 -0.0310 -0.0489
   53TMC2     H  814   3.239   0.411  12.330 -0.9330  3.0647 -1.5179
   53TMC2    H1  815   2.850   0.576  12.271 -0.1785  0.5879  0.6928
   53TMC2    H2  816   2.932   0.325  12.617  1.0362  0.0107  0.2564
   53TMC2    C7  817   2.745   0.486  12.502  0.0810  0.4995  0.3588
   53TMC2    C8  818   3.182   0.300  12.573 -0.0108  0.1560 -0.1172
   53TMC2    O1  819   2.670   0.545  12.424 -0.1661  0.7366  0.5328
   53TMC2    O2  820   3.176   0.337  12.690  0.0678  0.4312 -0.0436
   53TMC2    O5  821   3.299   0.278  12.506 -0.1501 -0.4447  0.1358
   53TMC2    H5  822   3.270   0.245  12.419 -0.2297  0.7087 -0.2776
   54MPD2     C  823   3.075   0.542  11.854  0.2665 -0.7399  0.3530
   54MPD2    C1  824   2.969   0.513  11.926 -0.1238  0.5249  0.2194
   54MPD2    C2  825   2.847   0.483  11.858 -0.3898 -0.1759  0.4224
   54MPD2    C3  826   2.838   0.479  11.719 -0.4619 -0.2178 -0.6800
   54MPD2    C4  827   2.956   0.507  11.639 -0.5794 -0.2742 -0.6064
   54MPD2    C5  828   3.073   0.528  11.714 -0.1900 -0.2693 -0.0703
   54MPD2     H  829   2.771   0.444  11.924 -0.4018 -1.1342 -0.1646
   54MPD2    H1  830   2.966   0.495  11.532 -1.4374  1.7484 -0.8968
   54MPD2    H2  831   3.175   0.534  11.896  0.7622  1.2220 -0.4305
   54MPD2    H3  832   3.166   0.544  11.660 -1.2543 -1.3657 -2.2195
   54MPD2     N  833   2.720   0.444  11.650 -0.3693 -0.0729 -0.3904
   54MPD2    H5  834   2.714   0.428  11.550 -0.1537 -1.3820 -0.1962
   54MPD2    N1  835   2.974   0.501  12.064 -0.1428 -0.0043 -0.0726
   54MPD2    H7  836   2.881   0.499  12.105 -0.4738  2.5826 -0.7167
   55MPD2     C  837   3.008   3.225   0.758 -0.1801 -0.7271  0.1640
   55MPD2    C1  838   2.950   3.101   0.734  0.1672 -0.5803 -0.4396
   55MPD2    C2  839   2.815   3.090   0.773 -0.1491  0.1137 -0.4216
   55MPD2    C3  840   2.736   3.201   0.812  0.4487  0.1458  0.4789
   55MPD2    C4  841   2.805   3.322   0.830  0.4066 -0.4366 -0.2040
   55MPD2    C5  842   2.940   3.333   0.803 -0.1955  0.7091 -0.3872
   55MPD2     H  843   2.765   2.994   0.765  0.3077 -0.3258  1.7528
   55MPD2    H1  844   2.755   3.411   0.865  0.9808 -0.0096 -0.4823
   55MPD2    H2  845   3.115   3.244   0.751 -0.2775  0.9026  3.1707
   55MPD2    H3  846   2.981   3.432   0.820 -0.7182  0.8908 -0.1762
   55MPD2     N  847   2.595   3.192   0.828  0.0917  0.4853 -0.1719
   55MPD2    H5  848   2.556   3.098   0.822 -0.7281  0.9012 -1.3083
   55MPD2    N1  849   3.016   2.995   0.674 -0.7187 -0.4348  0.3226
   55MPD2    H7  850   2.970   2.905   0.682 -0.2167 -0.4439  3.0124
   56TCq2    C1  851   3.141   3.003   0.619  0.2922 -0.1638 -0.0184
   56TCq2    O2  852   3.191   3.101   0.575  0.3939 -0.6187  0.1884
   56TCq2    C2  853   3.162   2.887   0.524 -0.3489 -0.0073  0.1129
   56TCq2    C3  854   3.245   2.923   0.419  0.6994 -0.0253  0.1294
   56TCq2    C4  855   3.291   2.814   0.354 -0.1567  0.5685  0.6805
   56TCq2    C5  856   3.277   2.681   0.395 -0.0420  0.5417  0.8296
   56TCq2    C6  857   3.197   2.652   0.501 -0.4521  0.4429  0.4556
   56TCq2    C7  858   3.135   2.756   0.570 -0.1701 -0.1321  0.4708
   56TCq2    C8  859   3.163   2.513   0.517 -1.3217 -0.6265 -0.1825
   56TCq2    O4  860   3.225   2.436   0.449 -0.6810 -0.6345 -0.6044
   56TCq2    C9  861   3.356   2.845   0.234  0.0495  0.0741 -0.2818
   56TCq2    O5  862   3.360   2.966   0.198  0.4000  0.4792  0.1485
   56TCq2    O6  863   3.379   2.746   0.156  0.2364  0.6526 -0.6457
   56TCq2    H2  864   3.268   3.021   0.380 -0.4606 -0.1315 -0.8373
   56TCq2    H3  865   3.317   2.597   0.339 -0.5306  1.1536 -0.4325
   56TCq2    H4  866   3.076   2.724   0.656  0.4869 -3.0156 -0.1480
   57TMC2    C1  867   3.054   4.177  13.729 -0.8011 -0.1433 -0.2136
   57TMC2    C2  868   3.087   4.118  13.849 -0.1633 -0.2296  0.1296
   57TMC2    C3  869   3.194   4.029  13.842  0.0281  0.4019 -0.1393
   57TMC2    C4  870   3.109   4.126  13.618 -0.6965  0.0007  0.4161
   57TMC2    C5  871   3.210   4.036  13.614 -0.6041 -0.0436  0.0360
   57TMC2    C6  872   3.263   3.993  13.727  0.1862 -0.3161 -0.7275
   57TMC2     C  873   2.944   4.260  13.708  0.5801 -0.2542  0.3243
   57TMC2     O  874   2.879   4.251  13.604 -0.1449 -0.8925  0.0372
   57TMC2     H  875   3.037   4.131  13.945  1.0031 -0.8920  0.8328
   57TMC2    H1  876   3.081   4.163  13.520  1.9474 -0.4554 -0.5216
   57TMC2    H2  877   3.336   3.914  13.738 -0.4036 -1.2026 -2.9807
   57TMC2    C7  878   3.270   4.010  13.477  0.3129  0.0385  0.2013
   57TMC2    C8  879   3.253   3.980  13.961  0.1650  0.2605  0.1421
   57TMC2    O1  880   3.234   4.074  13.380  0.5951 -0.3805 -0.3208
   57TMC2    O2  881   3.301   3.870  13.981  0.4351  0.2703 -0.3478
   57TMC2    O5  882   3.293   4.086  14.027  0.0583  0.1258 -0.0225
   57TMC2    H5  883   3.263   4.174  13.995 -1.5355  0.1476  1.5181
   58MPD2     C  884   2.605   4.591  13.909 -0.4964  0.7556  0.0074
   58MPD2    C1  885   2.604   4.535  13.787  0.7274  0.0836  0.3441
   58MPD2    C2  886   2.709   4.453  13.757  0.0173  0.2446 -0.5618
   58MPD2    C3  887   2.795   4.411  13.854  0.2019 -0.2618 -0.0576
   58MPD2    C4  888   2.789   4.459  13.981 -0.0026 -0.0374  0.0676
   58MPD2    C5  889   2.692   4.555  14.006 -0.3243 -0.1795 -0.6021
   58MPD2     H  890   2.730   4.425  13.654 -0.7207 -1.8310 -0.1559
   58MPD2    H1  891   2.866   4.437  14.054  0.4829  0.2359 -0.3635
   58MPD2    H2  892   2.530   4.658  13.948  1.1694  2.1633  0.8073
   58MPD2    H3  893   2.675   4.598  14.104  1.1422  0.2205 -0.5256
   58MPD2     N  894   2.913   4.333  13.827  0.0440 -0.1977 -0.4731
   58MPD2    H5  895   2.973   4.312  13.906  0.9279 -2.1113 -1.6702
   58MPD2    N1  896   2.513   4.574  13.686 -0.3331 -0.1608 -0.7514
   58MPD2    H7  897   2.521   4.544  13.589 -0.4740 -1.5465 -0.3303
   59MPD2     C  898   0.066   4.016  13.047 -0.1265 -0.4277  0.2953
   59MPD2    C1  899   0.167   3.974  12.962 -0.2272  0.1654  0.4424
   59MPD2    C2  900   0.295   4.019  12.992  0.2844  0.1576 -0.1688
   59MPD2    C3  901   0.312   4.105  13.095  0.3038 -0.1658  0.1227
   59MPD2    C4  902   0.212   4.156  13.171  0.1546  0.0096  0.2060
   59MPD2    C5  903   0.086   4.112  13.140 -0.1242 -0.5136  0.0706
   59MPD2     H  904   0.376   3.987  12.928  0.8196  0.0650  0.5582
   59MPD2    H1  905   0.224   4.224  13.255  0.5542  1.0456 -0.6906
   59MPD2    H2  906   4.682   3.997  13.028  0.0105 -1.5056  0.6421
   59MPD2    H3  907   4.719   4.156  13.187  2.1593  2.6942  1.3399
   59MPD2     N  908   0.443   4.154  13.126 -0.5848  0.4025 -0.0402
   59MPD2    H5  909   0.446   4.225  13.198  2.9055 -0.3091  0.5053
   59MPD2    N1  910   0.149   3.875  12.862 -0.2479  0.0650 -0.2844
   59MPD2    H7  911   0.228   3.855  12.801 -1.9883  1.3911 -2.9648
   60TCq2    C1  912   0.027   3.815  12.830 -0.2988 -0.1828  0.0160
   60TCq2    O2  913   4.646   3.807  12.897 -0.1984 -0.3680 -0.1617
   60TCq2    C2  914   0.039   3.730  12.711  0.2729 -0.5392 -0.7264
   60TCq2    C3  915   4.687   3.618  12.716  0.3842 -0.0473  0.1227
   60TCq2    C4  916   4.680   3.539  12.606  0.2466 -0.0925  0.5439
   60TCq2    C5  917   0.030   3.576  12.492  0.3469 -0.2157  0.0141
   60TCq2    C6  918   0.107   3.688  12.499 -0.1870 -0.1758  0.7698
   60TCq2    C7  919   0.113   3.772  12.606  0.1716 -0.6562 -0.1869
   60TCq2    C8  920   0.195   3.711  12.382  0.6182  0.0928 -0.4106
   60TCq2    O4  921   0.236   3.615  12.323  0.0545  0.4163  0.5356
   60TCq2    C9  922   4.615   3.417  12.612  0.2679  0.4229 -0.1784
   60TCq2    O5  923   4.607   3.349  12.506  0.5222 -0.6664 -0.2380
   60TCq2    O6  924   4.571   3.380  12.725  0.3628  0.2336 -0.1720
   60TCq2    H2  925   4.616   3.601  12.796 -0.0493  1.0687 -0.0186
   60TCq2    H3  926   0.033   3.510  12.406  1.4169  1.0385 -0.9266
   60TCq2    H4  927   0.169   3.865  12.606 -1.6789  0.4464 -0.3014
   61MPD2     C  928   0.358   0.986  14.734  0.1792  0.2084  0.3509
   61MPD2    C1  929   0.263   1.080  14.767  0.4516  0.6522  0.9485
   61MPD2    C2  930   0.275   1.200  14.692 -0.0223 -0.3156  0.6795
   61MPD2    C3  931   0.383   1.221  14.602  0.6898  0.8580  0.4084
   61MPD2    C4  932   0.477   1.121  14.582  0.3784  0.1654  0.2703
   61MPD2    C5  933   0.468   1.006  14.653  1.4113 -0.3779 -0.4835
   61MPD2     H  934   0.197   1.274  14.709  0.7673  0.9648 -1.2331
   61MPD2    H1  935   0.566   1.133  14.521 -0.9083 -0.1074 -1.6775
   61MPD2    H2  936   0.363   0.889  14.783 -0.5376  0.6216  1.2560
   61MPD2    H3  937   0.552   0.938  14.663  0.8213 -0.9488  0.6912
   61MPD2     N  938   0.412   1.346  14.542 -0.1487  0.3842 -0.3336
   61MPD2    H5  939   0.502   1.346  14.495 -0.5192  0.7161 -1.0507
   61MPD2    N1  940   0.166   1.072  14.869  0.0467  0.7309  0.4894
   61MPD2    H7  941   0.120   1.160  14.887  0.7235  0.6225  2.7237
   62TCq2    C1  942   0.141   0.951  14.939  0.3480 -0.2320  0.2045
   62TCq2    O2  943   0.184   0.841  14.904 -0.1274 -0.0181 -0.3221
   62TCq2    C2  944   0.055   0.972  15.057  0.4050  0.4950 -0.2245
   62TCq2    C3  945   0.006   0.862  15.127  0.3990  0.4190 -0.9408
   62TCq2    C4  946   4.649   0.880  15.241 -0.0424  0.6615 -0.3042
   62TCq2    C5  947   4.624   1.006  15.288 -0.1049  0.1799  0.5394
   62TCq2    C6  948   4.682   1.111  15.224  1.1578 -0.7808 -0.4689
   62TCq2    C7  949   0.039   1.098  15.113 -0.2717  0.7378 -0.7451
   62TCq2    C8  950   4.651   1.252  15.258  0.0132  0.4999  0.2189
   62TCq2    O4  951   4.718   1.332  15.195 -0.6467  0.2906  0.4374
   62TCq2    C9  952   4.594   0.762  15.307  0.1098 -0.2297  0.2092
   62TCq2    O5  953   4.612   0.654  15.251  0.1371  0.1390  0.3434
   62TCq2    O6  954   4.523   0.785  15.414  0.3655  0.6163  0.0275
   62TCq2    H2  955   0.031   0.765  15.087 -2.6487 -0.8649  0.2634
   62TCq2    H3  956   4.553   1.009  15.369 -1.0089 -2.4660 -0.1335
   62TCq2    H4  957   0.084   1.182  15.061  0.8069  1.0233  0.6702
   63TMC2    C1  958   4.361   0.825  11.044 -0.0279 -0.9389 -0.5452
   63TMC2    C2  959   4.481   0.838  11.113  0.2884 -0.3266 -0.1364
   63TMC2    C3  960   4.591   0.878  11.041  0.4172  0.3703 -0.4917
   63TMC2    C4  961   4.342   0.845  10.907 -0.1610 -0.5937  0.2807
   63TMC2    C5  962   4.459   0.882  10.843  0.3873  0.1449  0.6058
   63TMC2    C6  963   4.585   0.901  10.907  0.0549 -0.4183  0.2846
   63TMC2     C  964   4.239   0.794  11.121 -0.1112  0.4966  0.6429
   63TMC2     O  965   4.240   0.796  11.246 -0.1667 -0.1366 -0.3188
   63TMC2     H  966   4.473   0.789  11.209  1.5511 -1.1205 -0.4239
   63TMC2    H1  967   4.248   0.844  10.853  0.0474 -1.2415 -0.0755
   63TMC2    H2  968   4.668   0.934  10.845 -2.4477  1.0750 -2.2572
   63TMC2    C7  969   4.453   0.904  10.704  0.1538 -0.3344 -0.3624
   63TMC2    C8  970   4.696   0.928  11.129 -0.1170  0.5834 -0.1750
   63TMC2    O1  971   4.357   0.847  10.650 -0.5230  0.3541 -0.1731
   63TMC2    O2  972   4.704   0.951  11.247 -0.1220 -0.1564  0.2820
   63TMC2    O5  973   0.074   0.952  11.038  0.2941 -0.2836  0.1662
   63TMC2    H5  974   0.147   1.003  11.081  0.5163  0.9218 -1.6377
   64MPD2     C  975   3.764   0.578  11.117 -0.0554  0.2660  0.0305
   64MPD2    C1  976   3.818   0.572  10.990 -0.2327  1.0288 -0.1200
   64MPD2    C2  977   3.939   0.624  10.962  0.2227  0.3344 -0.2910
   64MPD2    C3  978   4.020   0.679  11.061  0.5494 -0.8732  0.4488
   64MPD2    C4  979   3.973   0.670  11.191  0.8838  0.1364  0.1567
   64MPD2    C5  980   3.842   0.638  11.217  0.1812 -0.1539 -0.1162
   64MPD2     H  981   3.986   0.603  10.866 -2.9392 -0.2419 -1.7224
   64MPD2    H1  982   4.035   0.695  11.277  1.7846 -0.3071 -0.3561
   64MPD2    H2  983   3.672   0.529  11.147  1.4552 -3.2434 -1.0548
   64MPD2    H3  984   3.802   0.635  11.318  3.6589  0.1506  1.2474
   64MPD2     N  985   4.148   0.741  11.033 -0.0316  0.6387  0.0329
   64MPD2    H5  986   4.189   0.736  10.940  1.4677 -2.4722  0.8423
   64MPD2    N1  987   3.757   0.519  10.879 -0.0952  0.4579 -0.4085
   64MPD2    H7  988   3.800   0.521  10.787 -0.6362 -2.4707 -0.7400
   65MPD2     C  989   0.108   0.516  15.959  0.5577 -0.4661 -0.1392
   65MPD2    C1  990   0.161   0.466  15.845  0.5077  0.3551  0.2564
   65MPD2    C2  991   0.189   0.333  15.832  0.4539  0.5815  0.4017
   65MPD2    C3  992   0.167   0.245  15.937 -0.0509 -0.3852 -0.9514
   65MPD2    C4  993   0.112   0.298  16.054 -0.1007  0.2923 -0.2509
   65MPD2    C5  994   0.097   0.433  16.065 -0.0176  0.2386 -0.1351
   65MPD2     H  995   0.234   0.305  15.737  0.9279  1.2165  0.4429
   65MPD2    H1  996   0.070   0.231  16.128  0.5309  0.5614  0.3517
   65MPD2    H2  997   0.078   0.620  15.973 -0.4669 -0.5597 -1.5819
   65MPD2    H3  998   0.060   0.467  16.161 -1.4940 -0.6430 -0.3971
   65MPD2     N  999   0.179   0.105  15.927  0.2839 -0.3271 -0.3483
   65MPD2    H5 1000   0.169   0.050  16.011 -0.1234  0.9831  0.4526
   65MPD2    N1 1001   0.171   0.535  15.722  0.1018  0.2283 -0.1382
   65MPD2    H7 1002   0.202   0.482  15.642  1.2437  0.5944  0.0565
   66TCq2    C1 1003   0.147   0.671  15.700  0.2767  0.2197 -0.7977
   66TCq2    O2 1004   0.115   0.755  15.783 -0.6836  0.2149 -0.4685
   66TCq2    C2 1005   0.190   0.712  15.573 -0.6532  0.3603 -0.7176
   66TCq2    C3 1006   0.192   0.621  15.472 -0.4489  0.8233  0.5598
   66TCq2    C4 1007   0.229   0.670  15.347 -0.2234  1.0048  0.1232
   66TCq2    C5 1008   0.254   0.807  15.333  0.6665 -0.3379  0.1686
   66TCq2    C6 1009   0.255   0.884  15.440 -0.1133 -0.2151  0.0085
   66TCq2    C7 1010   0.222   0.840  15.563  0.5947 -0.7376  0.6901
   66TCq2    C8 1011   0.261   1.028  15.424  0.4096 -0.3752  0.1815
   66TCq2    O4 1012   0.314   1.069  15.322 -0.1596 -0.6675  0.0294
   66TCq2    C9 1013   0.248   0.576  15.239  0.3545 -0.7356  0.0755
   66TCq2    O5 1014   0.336   0.599  15.156 -0.5259 -0.4354 -0.5358
   66TCq2    O6 1015   0.166   0.479  15.232  0.4276  0.1056 -0.0925
   66TCq2    H2 1016   0.173   0.514  15.479 -1.8867  1.1356  1.6937
   66TCq2    H3 1017   0.282   0.842  15.234 -0.5841  2.7076  0.8970
   66TCq2    H4 1018   0.235   0.897  15.654  0.7289 -0.2607  0.3728
   67MPD2     C 1019   0.109   4.628  14.028  0.8718  0.1625  0.2862
   67MPD2    C1 1020   0.155   0.038  14.032  0.0444 -0.3044  0.1642
   67MPD2    C2 1021   0.099   0.137  13.944  0.5465  0.7373 -0.1659
   67MPD2    C3 1022   4.710   0.105  13.864 -0.6461 -0.0682 -0.1790
   67MPD2    C4 1023   4.659   4.700  13.880  0.1881  0.3329 -0.7024
   67MPD2    C5 1024   4.714   4.600  13.956 -0.4332 -0.4020 -0.5471
   67MPD2     H 1025   0.149   0.233  13.944  1.2132  0.3739 -2.4066
   67MPD2    H1 1026   4.578   4.670  13.815  0.7181  3.0993 -2.6404
   67MPD2    H2 1027   0.143   4.547  14.090 -0.1363 -0.8385 -0.4614
   67MPD2    H3 1028   4.675   4.499  13.953  0.2510 -0.7595  2.6688
   67MPD2     N 1029   4.649   0.197  13.767  0.0793  0.7272  0.3880
   67MPD2    H5 1030   4.567   0.162  13.720 -1.0281  0.6419  2.3949
   67MPD2    N1 1031   0.262   0.077  14.117  0.2676  0.0015 -0.7345
   67MPD2    H7 1032   0.296   0.173  14.120  0.1031  0.0293  0.0254
   68TCq2    C1 1033   0.339   4.716  14.197  0.1448  0.7333 -0.6295
   68TCq2    O2 1034   0.352   4.595  14.198 -0.1600  0.1215 -0.1743
   68TCq2    C2 1035   0.407   0.082  14.288 -0.3127 -0.1752 -0.1170
   68TCq2    C3 1036   0.392   0.222  14.282 -0.0129 -0.3873 -0.7828
   68TCq2    C4 1037   0.438   0.296  14.386  0.2043 -0.6152 -0.5663
   68TCq2    C5 1038   0.521   0.238  14.482 -0.1557  0.0716  0.0937
   68TCq2    C6 1039   0.538   0.103  14.477  0.2085 -0.1123 -0.9709
   68TCq2    C7 1040   0.488   0.029  14.378 -0.0956  0.0113  0.1986
   68TCq2    C8 1041   0.649   0.044  14.563  0.0601  0.1645  0.3094
   68TCq2    O4 1042   0.709   4.669  14.523  0.1319 -0.1194 -0.2414
   68TCq2    C9 1043   0.445   0.441  14.379  0.0594  0.0717 -0.2374
   68TCq2    O5 1044   0.438   0.488  14.260 -0.0148  0.2499  0.1442
   68TCq2    O6 1045   0.472   0.497  14.487  0.1186  0.4119  0.1953
   68TCq2    H2 1046   0.344   0.282  14.206 -0.4593 -1.3440 -1.2616
   68TCq2    H3 1047   0.576   0.304  14.548  0.6044  0.9716 -1.4403
   68TCq2    H4 1048   0.481   4.642  14.388  0.4139 -0.1334 -1.0987
   69TMC2    C1 1049   2.032   1.271  12.171  0.0474  0.0478  0.0939
   69TMC2    C2 1050   1.938   1.176  12.158  0.9879 -0.3995  0.8439
   69TMC2    C3 1051   1.891   1.139  12.033 -0.7678 -0.6682 -0.1458
   69TMC2    C4 1052   2.088   1.332  12.062 -0.1157 -0.0298 -0.0831
   69TMC2    C5 1053   2.028   1.308  11.941  0.3647 -0.1591  1.3579
   69TMC2    C6 1054   1.933   1.207  11.924  1.0133 -0.3665  0.2070
   69TMC2     C 1055   2.096   1.277  12.307 -0.0217  0.0630  1.1161
   69TMC2     O 1056   2.031   1.243  12.405 -0.8434  0.0911 -0.5873
   69TMC2     H 1057   1.905   1.121  12.246 -0.9135  3.5968  2.6293
   69TMC2    H1 1058   2.147   1.423  12.064  2.0546 -1.4584  0.1117
   69TMC2    H2 1059   1.885   1.191  11.828  0.2471  0.4309  0.4599
   69TMC2    C7 1060   2.119   1.330  11.833  0.0116 -1.1340 -0.3353
   69TMC2    C8 1061   1.787   1.043  12.004  0.5062  0.6816  0.5419
   69TMC2    O1 1062   2.233   1.355  11.868 -0.6605 -0.3001  0.3514
   69TMC2    O2 1063   1.677   1.073  11.958 -0.3114  0.2971  0.1286
   69TMC2    O5 1064   1.797   0.966  12.115  0.0671 -0.4740 -0.3569
   69TMC2    H5 1065   1.889   0.938  12.135  0.3956 -0.1069 -1.3493
   70MPD2     C 1066   2.404   1.435  12.421  0.4016  0.0524 -0.2231
   70MPD2    C1 1067   2.300   1.345  12.433  0.1900 -0.1613  0.3678
   70MPD2    C2 1068   2.272   1.277  12.552  0.1422  0.2787 -0.1983
   70MPD2    C3 1069   2.369   1.298  12.655 -0.1143  0.3020  0.2984
   70MPD2    C4 1070   2.471   1.378  12.640 -0.1311 -0.4372  0.3460
   70MPD2    C5 1071   2.493   1.454  12.524 -0.2039  0.1427  0.2706
   70MPD2     H 1072   2.189   1.209  12.564  0.4913  0.6620  4.7562
   70MPD2    H1 1073   2.552   1.391  12.711 -0.8548 -2.8577  1.5734
   70MPD2    H2 1074   2.430   1.491  12.332  0.2424 -0.7537 -0.7773
   70MPD2    H3 1075   2.591   1.497  12.507 -0.1414 -0.2909 -0.4682
   70MPD2     N 1076   2.372   1.214  12.773 -0.6912  0.0621  0.4879
   70MPD2    H5 1077   2.455   1.216  12.831  0.9249 -0.5408 -1.8108
   70MPD2    N1 1078   2.222   1.336  12.314  0.3295 -0.1053 -0.0589
   70MPD2    H7 1079   2.254   1.375  12.226  0.3072 -0.3542 -0.1777
   71TMC2    C1 1080   1.192   1.471   1.573 -1.1472  0.1804 -0.3507
   71TMC2    C2 1081   1.244   1.374   1.655  0.0476 -0.5756  0.4114
   71TMC2    C3 1082   1.214   1.389   1.786  0.4017  0.4246 -0.1277
   71TMC2    C4 1083   1.135   1.587   1.619 -0.2572 -0.1258 -0.1936
   71TMC2    C5 1084   1.125   1.608   1.754 -0.1458 -0.8790 -0.3415
   71TMC2    C6 1085   1.162   1.509   1.838  0.5089  0.4740  0.3746
   71TMC2     C 1086   1.171   1.434   1.439 -0.5796 -0.1039 -0.4302
   71TMC2     O 1087   1.127   1.521   1.360  0.1619 -0.1336  0.0682
   71TMC2     H 1088   1.301   1.286   1.627 -0.3328 -0.7194  0.1025
   71TMC2    H1 1089   1.104   1.669   1.555  0.6507 -0.0517 -0.5434
   71TMC2    H2 1090   1.153   1.531   1.944 -2.4463 -1.3973  0.5381
   71TMC2    C7 1091   1.018   1.689   1.803  0.4414 -0.2226 -0.8396
   71TMC2    C8 1092   1.329   1.340   1.860 -0.0016  0.5305  0.1159
   71TMC2    O1 1093   1.038   1.736   1.914  1.4380 -0.6217 -0.1831
   71TMC2    O2 1094   1.446   1.364   1.829 -0.7969  0.0044  0.4266
   71TMC2    O5 1095   1.287   1.339   1.987 -0.1750 -0.3168  0.1904
   71TMC2    H5 1096   1.190   1.334   1.979 -0.0381 -1.0554 -1.1107
   72MPD2     C 1097   1.071   1.059   1.096  0.6019 -0.1365  0.5015
   72MPD2    C1 1098   1.035   1.192   1.100  0.4849 -0.2122  0.5033
   72MPD2    C2 1099   1.076   1.268   1.212  0.1966  0.4069 -0.3714
   72MPD2    C3 1100   1.153   1.217   1.312 -0.2409 -0.2117 -0.4253
   72MPD2    C4 1101   1.183   1.079   1.308 -0.3243 -0.4672 -0.3747
   72MPD2    C5 1102   1.144   1.007   1.196  0.4558 -0.5220  0.2178
   72MPD2     H 1103   1.050   1.373   1.205  0.0491  0.2375 -2.3562
   72MPD2    H1 1104   1.233   1.028   1.389  1.9184  2.1222 -0.1347
   72MPD2    H2 1105   1.045   0.985   1.022  3.5887  0.8817 -1.5874
   72MPD2    H3 1106   1.174   0.903   1.192  3.4773  0.4292 -1.5007
   72MPD2     N 1107   1.190   1.299   1.423 -0.3109  0.4458 -0.3671
   72MPD2    H5 1108   1.236   1.253   1.501 -0.2060 -1.1287 -1.3562
   72MPD2    N1 1109   0.971   1.256   0.990 -0.3492 -0.1639 -0.4589
   72MPD2    H7 1110   0.965   1.356   0.999  2.4535 -0.0939  0.8453
   73TMC2    C1 1111   0.096   3.447  14.124  0.1383 -0.0251 -0.9609
   73TMC2    C2 1112   0.110   3.314  14.154  0.3534  0.6117  0.3458
   73TMC2    C3 1113   0.232   3.261  14.199 -0.2929 -0.0041  0.4494
   73TMC2    C4 1114   0.203   3.531  14.143  0.5945 -0.1902 -0.6719
   73TMC2    C5 1115   0.324   3.480  14.175 -0.0630 -0.5738 -0.3157
   73TMC2    C6 1116   0.341   3.349  14.205 -0.0630  0.7736 -0.7278
   73TMC2     C 1117   0.019   3.486  14.012 -0.3012 -0.0135  0.1119
   73TMC2     O 1118   0.016   3.612  14.002 -0.3440 -0.1314 -0.2538
   73TMC2     H 1119   0.026   3.246  14.147  0.2686  0.8982 -1.4925
   73TMC2    H1 1120   0.183   3.638  14.149  1.1886 -0.1087 -0.0005
   73TMC2    H2 1121   0.440   3.317  14.236 -0.4049  1.1963  0.7939
   73TMC2    C7 1122   0.423   3.546  14.095  0.1606 -0.1018 -0.6787
   73TMC2    C8 1123   0.223   3.129  14.251  0.0227  0.5939 -0.1433
   73TMC2    O1 1124   0.537   3.503  14.099  0.5492  0.2658  0.7246
   73TMC2    O2 1125   0.117   3.080  14.298  0.0379 -0.7973  0.3882
   73TMC2    O5 1126   0.345   3.071  14.232 -0.5303  0.6293 -0.3499
   73TMC2    H5 1127   0.417   3.114  14.179 -0.3840  0.7326 -0.0669
   74MPD2     C 1128   4.579   3.454  13.523 -0.4487  0.1579 -0.5206
   74MPD2    C1 1129   4.638   3.562  13.584  0.5034  1.1105 -0.5214
   74MPD2    C2 1130   4.677   3.544  13.718  0.6758 -0.4214 -0.1939
   74MPD2    C3 1131   4.678   3.417  13.780  0.3008  0.0184  0.7914
   74MPD2    C4 1132   4.629   3.310  13.711 -0.5698  0.5422 -0.1575
   74MPD2    C5 1133   4.577   3.334  13.584  0.5016  0.0586  1.3567
   74MPD2     H 1134   0.005   3.617  13.781 -2.7166  1.4385  0.2426
   74MPD2    H1 1135   4.636   3.209  13.750 -2.9912  0.2778 -0.3769
   74MPD2    H2 1136   4.540   3.462  13.422  1.5523  2.5454 -1.1023
   74MPD2    H3 1137   4.542   3.250  13.524 -0.2083  2.3713 -1.4867
   74MPD2     N 1138   0.003   3.392  13.916 -0.5017  0.5250 -0.5222
   74MPD2    H5 1139   4.716   3.297  13.952  0.2860  0.8983  0.5803
   74MPD2    N1 1140   4.643   3.686  13.514 -0.8735  1.1434 -0.3423
   74MPD2    H7 1141   4.599   3.683  13.422 -1.8498  1.5668  0.1077
   75TCq2    C1 1142   4.696   0.320  13.744 -0.0975  0.0401 -0.1881
   75TCq2    O2 1143   0.051   0.395  13.801 -0.0054 -0.2316 -0.1323
   75TCq2    C2 1144   4.650   0.374  13.617 -0.1428  0.4445 -0.5877
   75TCq2    C3 1145   4.635   0.510  13.614  0.3237 -0.4738  0.0765
   75TCq2    C4 1146   4.580   0.573  13.508 -0.1800 -0.3018 -0.3321
   75TCq2    C5 1147   4.512   0.494  13.414 -0.9950  0.0900  0.2778
   75TCq2    C6 1148   4.516   0.358  13.425 -0.2634  0.4467  0.4328
   75TCq2    C7 1149   4.583   0.296  13.526  0.2967 -0.4074  0.6724
   75TCq2    C8 1150   4.447   0.269  13.332  0.6595  0.6705  0.0191
   75TCq2    O4 1151   4.424   0.151  13.356  0.9770  0.1881  0.0836
   75TCq2    C9 1152   4.562   0.718  13.502  0.2110 -0.1372  0.7418
   75TCq2    O5 1153   4.508   0.762  13.399 -0.4917 -0.3264  0.0181
   75TCq2    O6 1154   4.570   0.782  13.612 -0.4214  0.1712 -0.2083
   75TCq2    H2 1155   4.684   0.565  13.694  1.5766 -0.4795 -0.6817
   75TCq2    H3 1156   4.453   0.550  13.341 -0.6891  0.4738  0.3283
   75TCq2    H4 1157   4.583   0.188  13.535  0.1514 -0.7232 -3.0059
   76MPD2     C 1158   3.277   1.077  11.800 -0.6572  0.0279  0.5621
   76MPD2    C1 1159   3.225   0.964  11.740 -0.7748 -0.4656 -0.0976
   76MPD2    C2 1160   3.290   0.848  11.756  0.6842 -0.5199  0.3272
   76MPD2    C3 1161   3.387   0.836  11.858  0.4988  0.1499  0.1551
   76MPD2    C4 1162   3.428   0.953  11.920  0.1752 -1.0865  0.1929
   76MPD2    C5 1163   3.380   1.076  11.883 -0.3963  0.0571 -0.6517
   76MPD2     H 1164   3.258   0.754  11.710  1.5843 -1.1724  1.0403
   76MPD2    H1 1165   3.505   0.951  11.997  0.3943 -0.9196 -0.0225
   76MPD2    H2 1166   3.248   1.178  11.775  1.1764  0.2996 -0.4715
   76MPD2    H3 1167   3.419   1.168  11.925  1.7478 -1.2564  0.2409
   76MPD2     N 1168   3.452   0.718  11.902  0.6048 -0.1513 -0.0557
   76MPD2    H5 1169   3.519   0.722  11.978 -0.1857  0.7172  0.6000
   76MPD2    N1 1170   3.112   0.965  11.654  0.8484 -0.3707  0.2566
   76MPD2    H7 1171   3.092   0.879  11.605 -0.6372 -0.4588  1.0083
   77TCq2    C1 1172   3.455   0.605  11.820 -0.4629 -0.5156  0.2356
   77TCq2    O2 1173   3.415   0.587  11.707 -0.2761  0.0588  0.1123
   77TCq2    C2 1174   3.548   0.506  11.877  0.4515  0.7320 -1.0650
   77TCq2    C3 1175   3.632   0.450  11.798 -0.4467 -0.0649 -0.4878
   77TCq2    C4 1176   3.740   0.378  11.849  0.1866 -0.4066  0.3278
   77TCq2    C5 1177   3.756   0.373  11.979 -0.2147 -1.3848  0.1619
   77TCq2    C6 1178   3.656   0.420  12.062 -0.3002  0.5316  0.2648
   77TCq2    C7 1179   3.551   0.487  12.015  0.1236  1.1801 -0.3091
   77TCq2    C8 1180   3.632   0.335  12.177 -0.0968  0.0310  0.0638
   77TCq2    O4 1181   3.513   0.297  12.194  0.0346 -0.2450 -0.3932
   77TCq2    C9 1182   3.829   0.317  11.752 -0.7384 -0.5503  0.3623
   77TCq2    O5 1183   3.787   0.276  11.643  0.6572  1.1152  0.7486
   77TCq2    O6 1184   3.924   0.261  11.808  0.1345 -0.4576 -0.0489
   77TCq2    H2 1185   3.621   0.463  11.691  2.1828 -0.3335 -0.7898
   77TCq2    H3 1186   3.835   0.310  12.018  0.9787  0.0309  0.0032
   77TCq2    H4 1187   3.468   0.515  12.079 -0.0581  0.6482 -0.3165
   78MPD1     C 1188   4.711   1.543   1.711 -0.6331 -0.1523 -0.3231
   78MPD1    C1 1189   0.062   1.593   1.816 -0.2285 -0.6035 -0.0456
   78MPD1    C2 1190   0.192   1.538   1.838  0.0525 -0.6952 -1.2392
   78MPD1    C3 1191   0.245   1.442   1.759 -0.2914  0.0431 -0.5388
   78MPD1    C4 1192   0.165   1.392   1.656  0.5460  0.4454 -0.9345
   78MPD1    C5 1193   0.037   1.434   1.643  0.5123  0.1779 -0.0080
   78MPD1     H 1194   0.252   1.588   1.913  2.0170 -1.0407 -2.6047
   78MPD1    H1 1195   0.195   1.312   1.590  0.2027  0.4714 -1.1252
   78MPD1    H2 1196   4.613   1.579   1.680 -0.0352  1.0691 -0.7798
   78MPD1    H3 1197   4.690   1.385   1.574 -1.1768  1.5990  0.6115
   78MPD1     N 1198   0.373   1.394   1.772  0.6518  0.0886 -0.1309
   78MPD1    H5 1199   0.410   1.336   1.698  0.9418 -0.3803  0.3859
   78MPD1    N1 1200   0.035   1.717   1.874  0.0848  0.0795  0.3667
   78MPD1    H6 1201   4.656   1.738   1.879 -0.5814 -2.9256 -0.1630
   78MPD1    H7 1202   0.088   1.729   1.960  0.1773 -0.3797  0.3762
   79TCq2    C1 1203   0.455   1.416   1.876  0.1207  0.4163  0.5419
   79TCq2    O2 1204   0.444   1.486   1.973 -0.2227  0.5070  0.1382
   79TCq2    C2 1205   0.593   1.392   1.848 -0.2988 -0.0019 -0.4620
   79TCq2    C3 1206   0.681   1.388   1.948 -0.0884  0.0357 -0.1293
   79TCq2    C4 1207   0.810   1.339   1.922 -0.4505  0.5064 -0.0720
   79TCq2    C5 1208   0.843   1.310   1.793  0.1682 -0.6263  0.6693
   79TCq2    C6 1209   0.760   1.342   1.688  0.2207  0.5843  0.2764
   79TCq2    C7 1210   0.630   1.382   1.714 -0.3364  0.2092 -0.6871
   79TCq2    C8 1211   0.782   1.281   1.565 -0.1563  0.2908 -0.6847
   79TCq2    O4 1212   0.860   1.188   1.557  0.6292  0.1343 -0.1571
   79TCq2    C9 1213   0.901   1.341   2.032  0.8461 -0.3214 -0.0553
   79TCq2    O5 1214   1.022   1.314   2.008 -0.7954 -0.3653  0.1361
   79TCq2    O6 1215   0.849   1.359   2.145  0.0523 -0.3480  0.2026
   79TCq2    H2 1216   0.654   1.416   2.049 -1.9883 -0.3936 -0.5267
   79TCq2    H3 1217   0.942   1.278   1.763  0.8295  2.6984 -0.6867
   79TCq2    H4 1218   0.562   1.403   1.633  1.6696  0.3345 -2.3398
   80MPD2     C 1219   2.606   0.145  12.600 -0.2541  0.8682 -0.1680
   80MPD2    C1 1220   2.564   0.198  12.480 -0.0713 -0.5445  0.0049
   80MPD2    C2 1221   2.436   0.259  12.482 -0.3650 -0.2142  0.0079
   80MPD2    C3 1222   2.367   0.277  12.600 -0.2870  0.1146 -0.4469
   80MPD2    C4 1223   2.414   0.220  12.719 -0.0393 -0.2979 -0.3365
   80MPD2    C5 1224   2.535   0.153  12.719  0.0172 -0.6307 -0.1543
   80MPD2     H 1225   2.393   0.283  12.386  2.0493  3.4351 -0.1506
   80MPD2    H1 1226   2.361   0.229  12.813  1.1432  0.6257  0.2523
   80MPD2    H2 1227   2.703   0.096  12.606 -0.1680  0.8363 -1.6364
   80MPD2    H3 1228   2.570   0.120  12.817 -1.3952 -0.4314  0.4155
   80MPD2     N 1229   2.237   0.337  12.609 -0.3011 -0.0168 -0.0748
   80MPD2    H5 1230   2.181   0.320  12.692  0.0683 -3.8410 -0.6096
   80MPD2    N1 1231   2.618   0.171  12.354  0.1462 -1.1478  0.2166
   80MPD2    H7 1232   2.562   0.196  12.273  2.0779 -1.1288 -1.1338
   81TCq2    C1 1233   2.742   0.107  12.342  0.0102 -1.0390 -0.7546
   81TCq2    O2 1234   2.825   0.078  12.425 -0.1506  0.3574 -0.1209
   81TCq2    C2 1235   2.774   0.084  12.205  0.3140 -0.2000  1.2002
   81TCq2    C3 1236   2.905   0.101  12.164 -0.4122 -1.1815  0.3978
   81TCq2    C4 1237   2.923   0.105  12.029  0.2327 -0.3327 -0.1884
   81TCq2    C5 1238   2.826   0.092  11.932 -0.3960 -0.0088 -0.9700
   81TCq2    C6 1239   2.704   0.056  11.983 -0.6522 -0.9959 -0.1679
   81TCq2    C7 1240   2.671   0.061  12.116  0.1852  0.4235  0.1539
   81TCq2    C8 1241   2.593   0.055  11.886  0.3671  0.8665 -0.5337
   81TCq2    O4 1242   2.621   0.098  11.777  0.0097  0.1214 -1.0849
   81TCq2    C9 1243   3.062   0.102  11.981  0.6310  0.4968  0.2259
   81TCq2    O5 1244   3.080   0.080  11.858  0.2818  0.2271 -0.4417
   81TCq2    O6 1245   3.157   0.107  12.056 -0.0039 -0.1662 -0.3161
   81TCq2    H2 1246   2.980   0.099  12.243  1.2790 -1.6244 -1.2327
   81TCq2    H3 1247   2.843   0.093  11.825 -0.7374 -0.3084 -1.0284
   81TCq2    H4 1248   2.566   0.055  12.141  0.4510  0.3297  1.2624
   82MPD2     C 1249   0.636   4.284  10.503 -0.7937  0.1353  0.0807
   82MPD2    C1 1250   0.589   4.156  10.510  0.1068  0.0397 -0.0869
   82MPD2    C2 1251   0.616   4.073  10.618  0.3379  0.2743  0.4639
   82MPD2    C3 1252   0.686   4.132  10.724  0.1197  0.0869 -0.1405
   82MPD2    C4 1253   0.733   4.258  10.716  0.5596 -0.5391  1.1984
   82MPD2    C5 1254   0.705   4.337  10.604 -0.2163  0.0322 -0.1002
   82MPD2     H 1255   0.574   3.973  10.625  0.9491  0.0718  1.2297
   82MPD2    H1 1256   0.787   4.311  10.794  1.6798  0.9054 -0.5527
   82MPD2    H2 1257   0.618   4.337  10.410  1.4253  0.3348 -0.2234
   82MPD2    H3 1258   0.746   4.436  10.587 -1.3753  0.4879 -0.2319
   82MPD2     N 1259   0.719   4.066  10.844 -0.1211 -0.7862  0.0850
   82MPD2    H5 1260   0.782   4.113  10.908  1.6950 -1.1961 -1.3944
   82MPD2    N1 1261   0.510   4.119  10.398  0.4750  0.0625 -0.4242
   82MPD2    H7 1262   0.485   4.181  10.323  0.2883 -0.8786 -1.1452
   83TCq2    C1 1263   0.665   3.952  10.893  0.0618 -0.0841  0.1844
   83TCq2    O2 1264   0.598   3.867  10.840 -0.1575 -0.0404  0.3625
   83TCq2    C2 1265   0.704   3.933  11.030 -0.4246  0.5081 -0.3957
   83TCq2    C3 1266   0.668   4.031  11.117  0.2768 -0.0302  0.2077
   83TCq2    C4 1267   0.621   3.988  11.239  0.9190  0.3648  0.1518
   83TCq2    C5 1268   0.601   3.859  11.269  0.3467  0.2938  0.1457
   83TCq2    C6 1269   0.644   3.767  11.184 -0.3112 -1.0122 -0.7527
   83TCq2    C7 1270   0.694   3.805  11.066 -0.2421 -0.6145  0.0510
   83TCq2    C8 1271   0.554   3.654  11.170  0.1009  0.1931  0.3847
   83TCq2    O4 1272   0.513   3.610  11.280 -0.4803  0.1991  0.1391
   83TCq2    C9 1273   0.579   4.083  11.340 -0.4441  0.1287 -0.2966
   83TCq2    O5 1274   0.480   4.046  11.407 -0.1701 -0.2342 -0.2629
   83TCq2    O6 1275   0.600   4.203  11.305 -0.6794 -0.4671 -0.9403
   83TCq2    H2 1276   0.660   4.135  11.085  0.2426  0.1623  0.8487
   83TCq2    H3 1277   0.558   3.831  11.365  2.0685 -1.3525  0.4304
   83TCq2    H4 1278   0.726   3.727  10.997  1.2180 -0.7628  0.8987
   84TCq2    C1 1279   1.804   3.153  10.296 -0.0734  0.4224 -0.0319
   84TCq2    O2 1280   1.691   3.147  10.339  1.0171 -0.1950 -0.5690
   84TCq2    C2 1281   1.916   3.134  10.396 -0.2710 -0.1849  0.4797
   84TCq2    C3 1282   2.047   3.163  10.362 -0.1685  0.3449  0.5060
   84TCq2    C4 1283   2.131   3.162  10.470 -0.6639 -0.2503  0.3541
   84TCq2    C5 1284   2.099   3.131  10.600  0.0417 -0.1521 -0.1341
   84TCq2    C6 1285   1.967   3.103  10.622 -0.2979  0.5363  0.0042
   84TCq2    C7 1286   1.872   3.107  10.523  0.0991  0.3472  0.3234
   84TCq2    C8 1287   1.909   3.106  10.753 -0.0239  0.1198  0.0122
   84TCq2    O4 1288   1.792   3.137  10.774 -0.6983 -0.6465 -0.8671
   84TCq2    C9 1289   2.262   3.195  10.443  0.2884  0.4189  0.6028
   84TCq2    O5 1290   2.297   3.224  10.327 -0.3223 -0.6431  0.3494
   84TCq2    O6 1291   2.346   3.188  10.535 -0.1387 -0.3243  0.1960
   84TCq2    H2 1292   2.084   3.195  10.265 -1.0729  0.0940  0.0750
   84TCq2    H3 1293   2.175   3.134  10.677 -1.4174 -0.2967  1.3089
   84TCq2    H4 1294   1.769   3.075  10.535  0.0376  0.4050 -0.0532
   85MPD2     C 1295   2.428   1.326  16.235  0.2576 -1.2000 -0.1724
   85MPD2    C1 1296   2.502   1.250  16.148 -0.4193 -0.0127 -0.4916
   85MPD2    C2 1297   2.578   1.313  16.045  0.0616  0.1668  0.1718
   85MPD2    C3 1298   2.571   1.447  16.024  0.3670 -0.2079  0.4529
   85MPD2    C4 1299   2.498   1.519  16.116  0.2710  0.6360 -0.8911
   85MPD2    C5 1300   2.429   1.459  16.221  0.3756 -0.3155 -0.1803
   85MPD2     H 1301   2.636   1.254  15.976  0.9440  0.3969  0.7245
   85MPD2    H1 1302   2.484   1.626  16.111  1.5642  0.9424  2.2638
   85MPD2    H2 1303   2.356   1.302  16.312  0.3983  0.9865  0.6519
   85MPD2    H3 1304   2.365   1.526  16.278  0.4076  0.9320 -1.6091
   85MPD2     N 1305   2.637   1.509  15.918 -0.1854  0.1396 -0.0940
   85MPD2    H5 1306   2.682   1.446  15.853 -2.3814 -0.3892 -1.1214
   85MPD2    N1 1307   2.497   1.104  16.146 -0.0954 -0.4844 -0.4926
   85MPD2    H7 1308   2.558   1.056  16.081  1.6269 -2.7134  2.7838
   86TCq2    C1 1309   2.659   1.646  15.906  0.5477  0.1372  0.0585
   86TCq2    O2 1310   2.640   1.737  15.986  0.0152 -0.4508  0.3715
   86TCq2    C2 1311   2.724   1.679  15.777  0.5872 -0.5260  0.0277
   86TCq2    C3 1312   2.790   1.802  15.764  0.0684 -0.1632  1.1646
   86TCq2    C4 1313   2.870   1.825  15.655 -0.7331  0.2356  0.1735
   86TCq2    C5 1314   2.879   1.741  15.553  0.8578  0.3796  0.3716
   86TCq2    C6 1315   2.800   1.627  15.565 -0.6551  0.5504 -0.5436
   86TCq2    C7 1316   2.713   1.598  15.664  0.3370 -0.4034  0.1161
   86TCq2    C8 1317   2.808   1.513  15.469  0.4299 -0.0309 -0.0036
   86TCq2    O4 1318   2.745   1.414  15.501 -0.1779  1.0388  0.5594
   86TCq2    C9 1319   2.922   1.956  15.635  0.2177 -0.1146 -0.0350
   86TCq2    O5 1320   2.921   2.028  15.741 -0.3785  0.0799 -0.1928
   86TCq2    O6 1321   2.986   1.975  15.528  0.5226 -0.4837  0.1598
   86TCq2    H2 1322   2.776   1.878  15.840 -1.2276 -0.3987  1.1576
   86TCq2    H3 1323   2.940   1.760  15.466 -0.2658 -0.6656 -0.6426
   86TCq2    H4 1324   2.638   1.519  15.655  0.9115 -0.6109 -2.7505
   87MPD2     C 1325   4.515   0.475   1.350  0.4627  0.1401  0.4935
   87MPD2    C1 1326   4.553   0.360   1.283 -0.6265  1.0758 -0.2928
   87MPD2    C2 1327   4.532   0.353   1.146 -0.1298 -0.9582  0.4247
   87MPD2    C3 1328   4.489   0.465   1.074 -0.3138  0.0163  0.2475
   87MPD2    C4 1329   4.453   0.577   1.143  0.6206  0.0191  0.0945
   87MPD2    C5 1330   4.466   0.581   1.276  0.7822 -0.4918 -0.8985
   87MPD2     H 1331   4.557   0.259   1.097 -1.3553 -0.9137 -0.2901
   87MPD2    H1 1332   4.409   0.662   1.091 -0.1544 -1.8565 -2.3517
   87MPD2    H2 1333   4.532   0.494   1.455 -1.7700  1.8867  0.5394
   87MPD2    H3 1334   4.451   0.678   1.323 -0.4212 -1.2705  0.3300
   87MPD2     N 1335   4.454   0.463   0.938  0.7689 -0.5779  0.1137
   87MPD2    H5 1336   4.438   0.548   0.885  0.3850 -1.3096 -0.9382
   87MPD2    N1 1337   4.616   0.256   1.356 -0.1703  0.1115 -0.0466
   87MPD2    H7 1338   4.626   0.264   1.457  0.0002  0.6226 -0.1048
   88TCq2    C1 1339   4.672   0.139   1.303 -0.2698 -0.4385 -1.0848
   88TCq2    O2 1340   4.663   0.094   1.194  0.1785 -0.1876  0.0496
   88TCq2    C2 1341   0.000   0.048   1.402 -0.0422 -0.1831  0.9654
   88TCq2    C3 1342   4.648   0.032   1.510  0.5902 -0.7704  0.4702
   88TCq2    C4 1343   4.644   4.624   1.565 -0.0022 -0.3073 -0.1934
   88TCq2    C5 1344   4.717   4.520   1.512 -0.2617  0.2251  0.1219
   88TCq2    C6 1345   0.071   4.548   1.402  1.0163  0.2630  0.1868
   88TCq2    C7 1346   0.070   4.667   1.342  0.2567 -0.5620  0.0417
   88TCq2    C8 1347   0.116   4.439   1.321  0.4147 -0.3514  0.1200
   88TCq2    O4 1348   0.172   4.469   1.212 -0.1972 -0.6588  0.5790
   88TCq2    C9 1349   4.557   4.604   1.678  0.2433  0.9488 -1.1191
   88TCq2    O5 1350   4.453   4.678   1.678 -0.3361  1.0450  0.1267
   88TCq2    O6 1351   4.613   4.542   1.768 -0.4413 -0.3220  0.1450
   88TCq2    H2 1352   4.582   0.113   1.540 -0.6283 -1.7868  0.5441
   88TCq2    H3 1353   4.710   4.429   1.571  1.7244 -0.6558 -0.9898
   88TCq2    H4 1354   0.135   4.687   1.258 -0.9848  0.3865 -0.6781
   89MPD2     C 1355   0.978   2.312   2.059  0.3891 -0.7050  0.6539
   89MPD2    C1 1356   0.904   2.423   2.022  0.4046  0.4081  0.4868
   89MPD2    C2 1357   0.965   2.544   2.034  0.0667 -0.2885  1.0844
   89MPD2    C3 1358   1.095   2.563   2.091 -0.4652  0.2767 -0.6392
   89MPD2    C4 1359   1.169   2.451   2.132  0.0362  0.9438 -0.8738
   89MPD2    C5 1360   1.107   2.331   2.114  0.1554 -0.4866 -0.2656
   89MPD2     H 1361   0.910   2.630   1.998 -0.9110 -0.8566  1.2131
   89MPD2    H1 1362   1.274   2.441   2.154 -0.4183  1.1846  1.4616
   89MPD2    H2 1363   0.943   2.210   2.049  0.1413 -0.6400  0.8730
   89MPD2    H3 1364   1.165   2.242   2.138  0.1332  0.0812  1.9055
   89MPD2     N 1365   1.159   2.688   2.101  0.6288 -0.4747 -0.0729
   89MPD2    H5 1366   1.242   2.695   2.158 -0.0393  1.4582  0.6741
   89MPD2    N1 1367   0.769   2.417   1.964  0.2929 -0.6396 -0.0485
   89MPD2    H7 1368   0.721   2.506   1.953  2.8988  0.5503 -1.9703
   90TCq2    C1 1369   1.100   2.801   2.043  0.0312  0.1716 -0.2435
   90TCq2    O2 1370   1.039   2.807   1.940  0.1132  0.1240 -0.2616
   90TCq2    C2 1371   1.150   2.918   2.110 -0.3822 -0.0490  0.7166
   90TCq2    C3 1372   1.202   2.910   2.235 -0.0873 -0.0704  0.2455
   90TCq2    C4 1373   1.222   3.025   2.305 -0.4920  0.0483 -0.4984
   90TCq2    C5 1374   1.210   3.149   2.246 -0.1401  0.0898  0.0909
   90TCq2    C6 1375   1.166   3.151   2.113 -0.2190  0.7318 -0.6769
   90TCq2    C7 1376   1.124   3.036   2.049  0.4755 -0.5196 -0.3571
   90TCq2    C8 1377   1.129   3.279   2.066 -0.3767 -0.7636 -0.5938
   90TCq2    O4 1378   1.126   3.372   2.144 -0.0651 -0.1388  0.3857
   90TCq2    C9 1379   1.289   3.028   2.434 -0.5730 -0.4330 -0.4553
   90TCq2    O5 1380   1.364   3.124   2.460  0.0410  0.0935  0.1761
   90TCq2    O6 1381   1.305   2.917   2.484  0.9050 -0.0611  0.0038
   90TCq2    H2 1382   1.221   2.814   2.284 -1.9617 -0.1078  0.8862
   90TCq2    H3 1383   1.237   3.237   2.303  1.7246 -0.3520 -0.1263
   90TCq2    H4 1384   1.081   3.027   1.950 -0.2012 -1.0491 -0.0154
   91TMC2    C1 1385   2.900   1.994  16.841  0.2128 -0.1313 -0.3031
   91TMC2    C2 1386   2.971   2.083  16.916  0.1753 -0.4143  0.2041
   91TMC2    C3 1387   2.904   2.154  17.012  0.3738  0.2576 -0.2930
   91TMC2    C4 1388   2.768   1.959  16.876 -0.0085 -0.2309 -0.0981
   91TMC2    C5 1389   2.713   2.022  16.991  0.9693 -0.0658  0.3733
   91TMC2    C6 1390   2.780   2.123  17.059  0.2779  0.4889  0.5883
   91TMC2     C 1391   2.951   1.921  16.732  0.0411 -0.0083  0.8558
   91TMC2     O 1392   2.887   1.831  16.686 -0.4856  0.2229  0.1439
   91TMC2     H 1393   3.072   2.109  16.884 -0.3290 -1.2459 -2.0588
   91TMC2    H1 1394   2.706   1.885  16.826 -1.5680  1.1239 -0.1486
   91TMC2    H2 1395   2.730   2.166  17.145  0.9010  0.6277  0.8736
   91TMC2    C7 1396   2.576   1.992  17.035  0.6199  0.3497  1.2415
   91TMC2    C8 1397   2.997   2.233  17.096  0.0757  0.2650  0.7178
   91TMC2    O1 1398   2.539   2.035  17.143 -0.2357  0.1407 -0.2305
   91TMC2    O2 1399   3.111   2.204  17.133  0.5145 -0.6287 -0.1381
   91TMC2    O5 1400   2.915   2.316  17.164  0.0331  0.2015 -0.3743
   91TMC2    H5 1401   2.833   2.353  17.123 -0.3362  0.2635  0.4080
   92MPD2     C 1402   3.122   1.769  16.527  0.3736  0.1528  0.3309
   92MPD2    C1 1403   3.147   1.895  16.577 -0.2050 -0.2143 -0.0742
   92MPD2    C2 1404   3.253   1.959  16.531 -0.4667 -0.3548  0.0231
   92MPD2    C3 1405   3.346   1.905  16.449 -0.8414  0.1922  0.1551
   92MPD2    C4 1406   3.327   1.782  16.398 -0.5658  0.2265 -0.6243
   92MPD2    C5 1407   3.213   1.713  16.438 -0.1675  0.1292  0.4873
   92MPD2     H 1408   3.280   2.061  16.555  0.3748 -0.5725 -0.0129
   92MPD2    H1 1409   3.403   1.741  16.331 -0.0850  1.0217 -0.5611
   92MPD2    H2 1410   3.031   1.717  16.556 -0.3357 -0.3021 -2.6998
   92MPD2    H3 1411   3.192   1.614  16.398  0.7258 -0.8407  2.4139
   92MPD2     N 1412   3.463   1.981  16.434  0.2592 -0.4273  0.9146
   92MPD2    H5 1413   3.452   2.072  16.479  0.3717  0.5161 -0.9546
   92MPD2    N1 1414   3.070   1.964  16.679 -0.5095 -0.1821 -0.3142
   92MPD2    H7 1415   3.102   2.054  16.711  2.5822 -0.8436 -1.5439
   93MPD2     C 1416   4.306   2.220  13.804  0.0457  0.2780 -0.4758
   93MPD2    C1 1417   4.260   2.343  13.842 -0.1454  0.6937 -0.2849
   93MPD2    C2 1418   4.121   2.365  13.858 -0.0198  0.0186  0.2224
   93MPD2    C3 1419   4.027   2.264  13.837 -0.4194  0.0831  0.1656
   93MPD2    C4 1420   4.080   2.148  13.786 -0.4031 -0.3479 -0.2083
   93MPD2    C5 1421   4.216   2.122  13.773  0.5614 -0.0705 -0.2977
   93MPD2     H 1422   4.092   2.463  13.892 -1.8961 -0.8594  1.1581
   93MPD2    H1 1423   4.009   2.074  13.752 -0.0149 -0.5739 -0.5228
   93MPD2    H2 1424   4.412   2.196  13.800  0.7534  3.2345  0.2508
   93MPD2    H3 1425   4.253   2.025  13.740  0.0399 -0.0541 -0.9248
   93MPD2     N 1426   3.886   2.274  13.837  0.3992 -0.2394  0.3431
   93MPD2    H5 1427   3.835   2.200  13.790 -0.7022  0.9853 -0.3871
   93MPD2    N1 1428   4.350   2.452  13.861  0.6700  0.5759 -0.1127
   93MPD2    H7 1429   4.308   2.544  13.865  0.0662  0.2907  0.1108
   94TCq2    C1 1430   4.488   2.447  13.867 -0.7724 -0.1217 -0.2148
   94TCq2    O2 1431   4.564   2.352  13.881  0.5167  0.1888 -0.7836
   94TCq2    C2 1432   4.546   2.578  13.898 -0.1336 -1.0379  0.9985
   94TCq2    C3 1433   4.490   2.657  13.994 -0.3597  1.0402  1.5629
   94TCq2    C4 1434   4.573   2.757  14.047  0.2483 -0.5989  1.0335
   94TCq2    C5 1435   4.707   2.770  14.008 -0.5748  0.1269 -0.3026
   94TCq2    C6 1436   0.039   2.679  13.925  0.1173 -0.1392 -0.0033
   94TCq2    C7 1437   4.677   2.584  13.865  0.6790 -0.1743 -0.3236
   94TCq2    C8 1438   0.182   2.682  13.886  0.5081  0.1059 -0.1124
   94TCq2    O4 1439   0.209   2.630  13.780  0.1714  0.7230 -0.4414
   94TCq2    C9 1440   4.523   2.833  14.157 -0.0450  0.7586 -0.0817
   94TCq2    O5 1441   4.422   2.789  14.209 -0.5416  0.1907 -0.2701
   94TCq2    O6 1442   4.587   2.932  14.201  0.1746  0.3823  0.4058
   94TCq2    H2 1443   4.390   2.645  14.034 -1.7479 -0.8195 -2.5222
   94TCq2    H3 1444   0.044   2.848  14.055 -0.8431 -1.5438  2.8120
   94TCq2    H4 1445   0.003   2.508  13.804  1.3046  0.0726 -0.1506
   95TMC2    C1 1446   4.166   4.669  16.310 -0.0266 -0.0361  1.2316
   95TMC2    C2 1447   4.045   4.616  16.282  0.8373  0.5908  0.5930
   95TMC2    C3 1448   3.933   4.688  16.304  0.2175  0.9896  0.2274
   95TMC2    C4 1449   4.173   0.068  16.372 -0.9007 -0.2884  0.4187
   95TMC2    C5 1450   4.057   0.132  16.409 -0.0328  0.5243 -0.1094
   95TMC2    C6 1451   3.931   0.086  16.370  0.2266  0.2134  0.1613
   95TMC2     C 1452   4.282   4.593  16.290  0.2720  0.5615  0.4384
   95TMC2     O 1453   4.391   4.652  16.296 -0.6489  0.3536  0.0359
   95TMC2     H 1454   4.029   4.528  16.221 -0.0253  0.8928  0.3923
   95TMC2    H1 1455   4.269   0.111  16.399 -0.1682 -2.2840  0.9735
   95TMC2    H2 1456   3.838   0.130  16.403 -0.2693 -0.2485 -0.6074
   95TMC2    C7 1457   4.057   0.225  16.516 -0.8090 -0.5733  0.1556
   95TMC2    C8 1458   3.809   4.643  16.247 -0.1505  0.7892  0.8440
   95TMC2    O1 1459   3.953   0.285  16.524  0.1454  0.9986  0.2622
   95TMC2    O2 1460   3.769   4.528  16.246  0.7265 -0.1894 -0.3784
   95TMC2    O5 1461   3.746   0.033  16.204 -0.0340  0.1996  0.1638
   95TMC2    H5 1462   3.796   0.113  16.232 -0.3902  0.3752  0.2917
   96MPD2     C 1463   4.498   4.164  16.107  0.5649 -0.3009 -0.5221
   96MPD2    C1 1464   4.547   4.292  16.115 -0.5545 -0.4601 -0.6420
   96MPD2    C2 1465   4.472   4.394  16.175 -1.5418 -0.5183 -0.0670
   96MPD2    C3 1466   4.345   4.365  16.215  0.0038  0.2988 -0.1048
   96MPD2    C4 1467   4.292   4.236  16.197 -0.3455  0.6198  0.1811
   96MPD2    C5 1468   4.367   4.137  16.135 -0.5513 -0.3961  1.1270
   96MPD2     H 1469   4.515   4.493  16.191  0.3092 -1.8626  3.2156
   96MPD2    H1 1470   4.191   4.213  16.228 -0.1598  0.0520  0.3640
   96MPD2    H2 1471   4.559   4.079  16.079 -0.0336 -1.5098  1.8424
   96MPD2    H3 1472   4.329   4.035  16.132 -1.9815  0.1522 -0.0124
   96MPD2     N 1473   4.255   4.460  16.261  0.4796 -0.6261 -0.1795
   96MPD2    H5 1474   4.156   4.435  16.257  0.2112  0.6244 -1.2908
   96MPD2    N1 1475   4.668   4.319  16.055  0.4715 -0.1299 -0.8271
   96MPD2    H7 1476   4.714   4.246  16.002  0.6268  0.1394 -1.0611
   97MPD2     C 1477   1.206   1.065   0.696 -0.0208 -0.7667  0.0597
   97MPD2    C1 1478   1.255   1.186   0.722 -0.3262  0.3096  1.2844
   97MPD2    C2 1479   1.255   1.280   0.618  0.5238  0.0939 -0.2487
   97MPD2    C3 1480   1.207   1.253   0.493  0.3497 -0.1418 -0.4139
   97MPD2    C4 1481   1.154   1.129   0.471  0.0117 -0.2795  0.0875
   97MPD2    C5 1482   1.156   1.035   0.577  0.2601  0.4326  0.4260
   97MPD2     H 1483   1.302   1.376   0.636 -3.2879  1.6597  1.4037
   97MPD2    H1 1484   1.111   1.101   0.376  1.4935 -0.6760 -0.4648
   97MPD2    H2 1485   1.200   0.990   0.773  1.4203 -0.3220  0.6183
   97MPD2    H3 1486   1.116   0.935   0.563 -3.0022  1.7712  0.2261
   97MPD2     N 1487   1.208   1.338   0.385  0.5407 -0.2399  0.0297
   97MPD2    H5 1488   1.174   1.304   0.296 -1.3503 -0.2601  0.7521
   97MPD2    N1 1489   1.315   1.212   0.848 -0.7735  0.1031  0.6025
   97MPD2    H7 1490   1.340   1.135   0.911  4.1733  0.3574 -1.0159
   98TCq2    C1 1491   1.243   1.467   0.381 -0.3502 -0.0940  0.6540
   98TCq2    O2 1492   1.267   1.542   0.479 -0.4962  0.0143 -0.3692
   98TCq2    C2 1493   1.261   1.526   0.247  0.6924  0.2102  0.2410
   98TCq2    C3 1494   1.180   1.479   0.149  0.1023 -0.7344 -0.4332
   98TCq2    C4 1495   1.203   1.515   0.017  0.0357 -0.1082  0.1482
   98TCq2    C5 1496   1.309   1.603  17.677  0.1005  0.3587  0.1778
   98TCq2    C6 1497   1.383   1.658   0.091 -0.3696 -0.3042  0.0175
   98TCq2    C7 1498   1.356   1.613   0.218  0.6310 -0.1697 -0.2809
   98TCq2    C8 1499   1.468   1.768   0.061  0.3607 -0.1823 -0.6222
   98TCq2    O4 1500   1.559   1.792   0.136  0.4966  0.2187  0.3088
   98TCq2    C9 1501   1.119   1.469  17.591  0.7460  0.1276  0.1997
   98TCq2    O5 1502   1.056   1.361  17.622  0.4301 -0.2735 -0.5710
   98TCq2    O6 1503   1.117   1.531  17.486 -0.2888 -0.1123  0.8724
   98TCq2    H2 1504   1.097   1.413   0.172 -1.3109  0.5688 -1.7774
   98TCq2    H3 1505   1.332   1.614  17.572  0.7395 -0.5228  0.2305
   98TCq2    H4 1506   1.423   1.642   0.299  0.6366  0.6559 -0.5773
   99MPD2     C 1507   0.687   3.204   2.316 -0.8029 -0.1603  1.0335
   99MPD2    C1 1508   0.559   3.238   2.259  0.4593  0.6030  0.2065
   99MPD2    C2 1509   0.542   3.227   2.121  0.6804  0.3628 -0.4651
   99MPD2    C3 1510   0.649   3.187   2.043  0.1350  0.5643 -0.7526
   99MPD2    C4 1511   0.775   3.159   2.097  0.1101  0.7324  0.5261
   99MPD2    C5 1512   0.794   3.169   2.236 -0.0874  0.0202  0.2819
   99MPD2     H 1513   0.445   3.254   2.081 -0.5111 -0.6339  1.7568
   99MPD2    H1 1514   0.862   3.138   2.037 -0.6244 -0.6132 -0.0684
   99MPD2    H2 1515   0.685   3.189   2.423  0.4581 -0.5768  0.9918
   99MPD2    H3 1516   0.893   3.150   2.276 -0.4909  0.7079  1.5883
   99MPD2     N 1517   0.621   3.159   1.908 -0.0784 -0.1128  0.5454
   99MPD2    H5 1518   0.525   3.168   1.877  0.1561  1.3328  0.2340
   99MPD2    N1 1519   0.447   3.285   2.333 -0.3196 -0.4297 -0.4796
   99MPD2    H7 1520   0.354   3.292   2.291 -1.5862  1.0081  2.5639
  100TCq2    C1 1521   0.454   3.327   2.464  0.2208 -0.1715  0.2382
  100TCq2    O2 1522   0.555   3.342   2.529 -0.2037  0.4218  0.6667
  100TCq2    C2 1523   0.334   3.384   2.511  0.3098 -0.3693 -0.3175
  100TCq2    C3 1524   0.360   3.459   2.623  0.5931  0.3639  0.3725
  100TCq2    C4 1525   0.251   3.508   2.692 -0.3790 -0.5192  0.2188
  100TCq2    C5 1526   0.124   3.480   2.654  0.1114  0.9295  0.0880
  100TCq2    C6 1527   0.094   3.400   2.545 -0.3266  0.3782  0.8136
  100TCq2    C7 1528   0.205   3.352   2.472  0.3267  0.7387  0.3341
  100TCq2    C8 1529   4.679   3.372   2.507 -0.1050  0.1413  0.4693
  100TCq2    O4 1530   4.594   3.411   2.588  0.4182  0.0384  0.2805
  100TCq2    C9 1531   0.280   3.595   2.800  0.0360 -0.8173 -0.0052
  100TCq2    O5 1532   0.187   3.659   2.845  0.0033  0.0055  0.7146
  100TCq2    O6 1533   0.397   3.622   2.825  0.2062  0.8229 -0.0611
  100TCq2    H2 1534   0.459   3.484   2.658 -0.4812  0.7511  3.1459
  100TCq2    H3 1535   0.042   3.531   2.702 -0.3861  0.7486 -0.5692
  100TCq2    H4 1536   0.186   3.292   2.383 -1.3672  1.7284  0.0212
  101MPD2     C 1537   1.223   0.020  12.811 -1.0493  0.5897  0.1729
  101MPD2    C1 1538   1.119   0.077  12.881  0.2619  0.0640 -0.1007
  101MPD2    C2 1539   1.042   4.712  12.964  0.7389 -0.7918  0.4709
  101MPD2    C3 1540   1.055   4.573  12.956 -0.0617  0.0439 -0.2995
  101MPD2    C4 1541   1.155   4.521  12.879 -1.0588  0.2917  0.5528
  101MPD2    C5 1542   1.235   4.607  12.811  0.3495  0.2813 -0.2018
  101MPD2     H 1543   0.972   0.034  13.035 -2.4789 -2.0603 -1.9270
  101MPD2    H1 1544   1.174   4.414  12.876 -0.7744  0.3436  0.4964
  101MPD2    H2 1545   1.290   0.080  12.751 -1.0702  1.7058  1.2822
  101MPD2    H3 1546   1.315   4.557  12.756  0.3122 -0.2117  0.1956
  101MPD2     N 1547   0.969   4.493  13.028  1.0470 -0.2386 -0.3805
  101MPD2    H5 1548   0.904   4.536  13.092  2.0322  2.6702 -1.3534
  101MPD2    N1 1549   1.101   0.217  12.872  0.0516 -0.3049  0.3570
  101MPD2    H7 1550   1.162   0.270  12.811  0.7982  0.2042  1.5417
  102TCq2    C1 1551   1.231   0.653  12.703 -0.5458  0.0254  1.1459
  102TCq2    O2 1552   1.326   0.649  12.778  0.3676  0.6778 -0.1331
  102TCq2    C2 1553   1.109   0.582  12.748 -0.8065 -0.0568 -0.4308
  102TCq2    C3 1554   0.993   0.621  12.704 -0.4362 -0.5439  0.3310
  102TCq2    C4 1555   0.877   0.569  12.750 -0.2386  0.6869 -0.2685
  102TCq2    C5 1556   0.886   0.473  12.846 -0.4718 -0.6789  0.2273
  102TCq2    C6 1557   1.009   0.428  12.890  0.6390  1.0439 -0.2474
  102TCq2    C7 1558   1.125   0.478  12.841  0.6159  0.1717  0.0191
  102TCq2    C8 1559   1.010   0.291  12.944 -0.1142  0.2865  0.3013
  102TCq2    O4 1560   0.941   0.261  13.047 -0.5967 -0.0124 -0.0755
  102TCq2    C9 1561   0.750   0.607  12.698  0.1777  0.7319 -0.0502
  102TCq2    O5 1562   0.751   0.702  12.610  0.1013  0.1705  0.4605
  102TCq2    O6 1563   0.653   0.537  12.736 -0.3552  0.6176  0.2312
  102TCq2    H2 1564   0.978   0.699  12.631 -2.0296 -0.6679  0.5092
  102TCq2    H3 1565   0.797   0.416  12.871 -1.8658  0.3943 -2.2140
  102TCq2    H4 1566   1.227   0.444  12.860  0.2342 -1.7813 -1.4403
  103TMC2    C1 1567   4.073   0.447  12.887 -0.6946 -0.6008  0.5517
  103TMC2    C2 1568   4.133   0.551  12.815  0.3215 -0.2980 -0.0276
  103TMC2    C3 1569   4.198   0.644  12.899 -0.4773 -0.6399 -0.1766
  103TMC2    C4 1570   4.084   0.435  13.024  0.7697  0.2070  0.2988
  103TMC2    C5 1571   4.149   0.535  13.091 -0.1597  0.4198  0.2686
  103TMC2    C6 1572   4.199   0.644  13.032 -0.2289  0.5182  0.0235
  103TMC2     C 1573   3.953   0.389  12.840  0.1354  0.8738  0.7039
  103TMC2     O 1574   3.874   0.356  12.922 -0.3201  0.2343 -0.3842
  103TMC2     H 1575   4.132   0.566  12.708 -1.1842  0.8946  0.1477
  103TMC2    H1 1576   4.045   0.342  13.064  0.0876  0.5513  0.4354
  103TMC2    H2 1577   4.245   0.722  13.091  1.4917 -0.2337 -0.3387
  103TMC2    C7 1578   4.147   0.533  13.236 -0.4591  0.3199 -0.1604
  103TMC2    C8 1579   4.286   0.732  12.826 -0.0957  0.1443  0.2609
  103TMC2    O1 1580   4.212   0.620  13.289 -0.0276 -0.2201  0.4312
  103TMC2    O2 1581   4.278   0.762  12.708 -0.4788  0.1188 -0.0539
  103TMC2    O5 1582   4.380   0.790  12.906  0.3060 -0.0434  0.1837
  103TMC2    H5 1583   4.394   0.762  12.998 -2.0723 -0.2920  0.4655
  104MPD2     C 1584   3.719   0.282  12.684 -0.7819  0.0897  0.6016
  104MPD2    C1 1585   3.822   0.351  12.626 -0.0604 -0.2506 -0.4772
  104MPD2    C2 1586   3.831   0.365  12.487 -0.4256  0.1380  0.5565
  104MPD2    C3 1587   3.730   0.322  12.406  0.2935 -0.7793 -0.5000
  104MPD2    C4 1588   3.616   0.267  12.467  0.1370 -0.2096 -0.3512
  104MPD2    C5 1589   3.615   0.244  12.598  0.5139  0.5639 -0.6438
  104MPD2     H 1590   3.910   0.416  12.433  0.8121 -0.7632  1.5118
  104MPD2    H1 1591   3.534   0.226  12.410 -1.3307  0.8190  1.0308
  104MPD2    H2 1592   3.708   0.261  12.790  1.1910  0.7404  0.9325
  104MPD2    H3 1593   3.532   0.190  12.640  1.9203 -1.1382 -0.0713
  104MPD2     N 1594   3.731   0.351  12.272 -0.8663 -0.2579  0.4014
  104MPD2    H5 1595   3.814   0.402  12.243 -1.6203  1.3998  1.2259
  104MPD2    N1 1596   3.935   0.397  12.698  0.2514  0.6346  0.6529
  104MPD2    H7 1597   4.013   0.443  12.651 -0.4875  2.0949  0.8520
  105MPD2     C 1598   0.793   3.843   0.054 -0.6550  0.3557  0.4505
  105MPD2    C1 1599   0.737   3.966   0.033 -0.4277 -0.3430  0.2655
  105MPD2    C2 1600   0.646   4.012   0.122  0.1628 -0.0469  0.5140
  105MPD2    C3 1601   0.612   3.942   0.229  0.1030  0.5142  0.2909
  105MPD2    C4 1602   0.670   3.821   0.261 -0.8086 -0.2786  0.6451
  105MPD2    C5 1603   0.747   3.765   0.163  0.2362  0.4995 -0.2537
  105MPD2     H 1604   0.604   4.109   0.096  0.8189 -0.0826 -0.6509
  105MPD2    H1 1605   0.644   3.758   0.346  0.0708 -0.9519  0.4247
  105MPD2    H2 1606   0.870   3.796  17.678 -0.9140 -0.4576  0.7549
  105MPD2    H3 1607   0.793   3.669   0.182  0.8176  0.6297 -1.0381
  105MPD2     N 1608   0.504   3.999   0.303  0.0442  0.2005  0.2263
  105MPD2    H5 1609   0.466   4.085   0.264 -2.3667 -0.6826  0.6694
  105MPD2    N1 1610   0.762   4.034  17.595 -0.2950 -0.0569  0.4014
  105MPD2    H7 1611   0.713   4.123  17.588 -0.4642 -0.1378  0.5727
  106TCq2    C1 1612   0.465   3.958   0.430  0.4459 -0.2918  0.0859
  106TCq2    O2 1613   0.530   3.881   0.499 -0.6881 -0.4078  0.1258
  106TCq2    C2 1614   0.340   4.021   0.481 -0.1547  0.3608 -1.1252
  106TCq2    C3 1615   0.284   4.127   0.423 -0.3852  0.4352  0.1996
  106TCq2    C4 1616   0.187   4.195   0.498  0.1182  0.3707 -0.4245
  106TCq2    C5 1617   0.151   4.159   0.622  0.6403  0.1379 -0.3836
  106TCq2    C6 1618   0.201   4.048   0.676  0.1733 -0.2808 -0.6119
  106TCq2    C7 1619   0.309   3.987   0.609 -0.8488 -0.2156  0.0281
  106TCq2    C8 1620   0.180   4.010   0.818 -0.5227  0.6677  0.5367
  106TCq2    O4 1621   0.225   3.901   0.845  0.4021  0.0633 -0.4027
  106TCq2    C9 1622   0.125   4.309   0.434 -0.0653 -0.4556  0.2253
  106TCq2    O5 1623   0.128   4.311   0.308 -0.4098  0.1226  0.2242
  106TCq2    O6 1624   0.055   4.382   0.512  0.3203  0.8387 -0.0838
  106TCq2    H2 1625   0.309   4.162   0.324 -2.0044 -0.4822 -0.5362
  106TCq2    H3 1626   0.067   4.208   0.669  0.7101 -0.9343  0.8466
  106TCq2    H4 1627   0.364   3.904   0.653 -2.7224 -0.6447  1.5433
  107TMC2    C1 1628   1.445   3.497  11.356 -0.7520  0.5216 -0.7796
  107TMC2    C2 1629   1.482   3.601  11.433  0.0516 -0.1877  0.3231
  107TMC2    C3 1630   1.608   3.625  11.466 -1.0285 -0.0452  0.2342
  107TMC2    C4 1631   1.545   3.422  11.302 -0.3684 -0.6515  0.3199
  107TMC2    C5 1632   1.673   3.451  11.336  0.6896 -0.2262 -0.4884
  107TMC2    C6 1633   1.708   3.556  11.410  0.9730 -0.2903 -0.1726
  107TMC2     C 1634   1.319   3.447  11.387  0.2325  0.1189  0.0933
  107TMC2     O 1635   1.241   3.512  11.457 -0.4595 -0.4160  0.4833
  107TMC2     H 1636   1.406   3.652  11.492  0.3658  2.6692 -1.7725
  107TMC2    H1 1637   1.517   3.332  11.249  0.3096 -0.7989  0.2243
  107TMC2    H2 1638   1.811   3.583  11.432  0.8414  1.3834 -1.5565
  107TMC2    C7 1639   1.769   3.339  11.344 -0.5367  0.2778  0.6273
  107TMC2    C8 1640   1.640   3.735  11.546  0.2589  0.4954  0.2477
  107TMC2    O1 1641   1.842   3.330  11.443 -0.0286  0.2830  0.4891
  107TMC2    O2 1642   1.745   3.742  11.614  0.2140 -0.0273 -0.0977
  107TMC2    O5 1643   1.580   3.846  11.491 -0.1097  0.2444  0.1098
  107TMC2    H5 1644   1.512   3.832  11.422 -1.1146 -2.3298  1.6107
  108MPD2     C 1645   1.132   3.168  11.236 -0.3377 -0.4490 -0.1654
  108MPD2    C1 1646   1.169   3.258  11.333 -0.1059 -0.0057 -0.0308
  108MPD2    C2 1647   1.109   3.243  11.460 -0.1365  0.0347 -0.4046
  108MPD2    C3 1648   1.013   3.145  11.489  0.4628 -1.1066  0.6646
  108MPD2    C4 1649   0.966   3.072  11.384  0.0119 -0.3358  0.7559
  108MPD2    C5 1650   1.027   3.083  11.259 -0.3496 -0.8322 -0.5905
  108MPD2     H 1651   1.146   3.309  11.537 -1.0772 -0.0251  0.1089
  108MPD2    H1 1652   0.878   3.012  11.405 -1.0558  0.4381 -1.5456
  108MPD2    H2 1653   1.168   3.165  11.134 -1.9929  0.7696 -0.7823
  108MPD2    H3 1654   0.995   3.018  11.178 -0.8128 -1.8724  0.4222
  108MPD2     N 1655   0.960   3.114  11.617  0.3304  0.4184  0.4974
  108MPD2    H5 1656   0.877   3.057  11.629 -0.6425  1.5857 -0.7254
  108MPD2    N1 1657   1.281   3.337  11.308  0.3729  0.1956  0.7058
  108MPD2    H7 1658   1.337   3.318  11.225  0.2824  0.1891  0.6470
  109MPD2     C 1659   1.201   0.195   1.264 -0.5264 -0.5775  0.3397
  109MPD2    C1 1660   1.199   0.329   1.281  0.8000  0.0925 -0.3178
  109MPD2    C2 1661   1.295   0.397   1.353  0.0362 -0.2126  0.0883
  109MPD2    C3 1662   1.387   0.326   1.425  0.1208  0.5829  0.6670
  109MPD2    C4 1663   1.388   0.185   1.403  0.2016  0.0503  0.0995
  109MPD2    C5 1664   1.299   0.125   1.322 -0.3938  0.6120 -0.2408
  109MPD2     H 1665   1.284   0.504   1.361 -0.3961 -0.3655  1.5281
  109MPD2    H1 1666   1.463   0.123   1.452 -1.0414 -0.7799  0.9287
  109MPD2    H2 1667   1.134   0.150   1.192 -0.6923 -2.8270  1.9081
  109MPD2    H3 1668   1.312   0.019   1.306  0.4808  1.0246 -2.3788
  109MPD2     N 1669   1.504   0.392   1.486 -0.3230 -0.4963 -0.6436
  109MPD2    H5 1670   1.505   0.494   1.489  0.4107 -0.5864  2.3179
  109MPD2    N1 1671   1.089   0.396   1.224 -0.1463  0.3803  0.2054
  109MPD2    H7 1672   1.024   0.347   1.163 -0.4354  0.7222  0.2393
  110TCq2    C1 1673   1.619   0.320   1.541  0.1463  1.0461 -0.7233
  110TCq2    O2 1674   1.637   0.201   1.566  0.2705  0.0252  0.4279
  110TCq2    C2 1675   1.727   0.420   1.566 -0.1951 -0.9058 -0.0105
  110TCq2    C3 1676   1.828   0.385   1.649 -0.7588  0.4480  0.1161
  110TCq2    C4 1677   1.937   0.463   1.653 -0.2530 -0.2702 -0.6767
  110TCq2    C5 1678   1.943   0.573   1.571 -0.3882  0.8584  0.1573
  110TCq2    C6 1679   1.842   0.612   1.495 -0.6367  0.1711 -0.5665
  110TCq2    C7 1680   1.735   0.533   1.495 -0.1129  0.0040  0.3109
  110TCq2    C8 1681   1.846   0.727   1.407  0.2585 -0.0236 -0.5687
  110TCq2    O4 1682   1.743   0.754   1.350  0.3991 -0.1202 -0.2063
  110TCq2    C9 1683   2.045   0.438   1.746  0.3272 -0.3514  0.4894
  110TCq2    O5 1684   2.158   0.482   1.713  0.0456  0.1900 -0.5892
  110TCq2    O6 1685   2.014   0.384   1.857  0.5117 -0.3930 -0.3608
  110TCq2    H2 1686   1.820   0.298   1.712  0.0522 -0.0229 -0.4259
  110TCq2    H3 1687   2.024   0.639   1.601  0.1621  0.8911 -1.3644
  110TCq2    H4 1688   1.647   0.553   1.435 -0.9431 -0.9264  1.2222
  111TMC2    C1 1689   2.068   0.785  11.481 -0.1053 -0.3147  0.4125
  111TMC2    C2 1690   2.188   0.744  11.429 -0.5122 -0.2166  1.5286
  111TMC2    C3 1691   2.306   0.785  11.493 -0.3142  0.4404 -0.2787
  111TMC2    C4 1692   2.058   0.859  11.594 -0.1568  0.5392  0.4200
  111TMC2    C5 1693   2.170   0.911  11.647 -0.0870  0.0969  0.5314
  111TMC2    C6 1694   2.295   0.870  11.602 -0.0268  0.3476 -0.0306
  111TMC2     C 1695   1.941   0.756  11.416  0.1267 -0.0393  0.0022
  111TMC2     O 1696   1.855   0.840  11.433  1.0910  0.0961 -0.1670
  111TMC2     H 1697   2.190   0.665  11.354  0.1224  1.0203  0.2376
  111TMC2    H1 1698   1.962   0.884  11.636  0.0093  0.7594  0.6718
  111TMC2    H2 1699   2.386   0.907  11.648  0.7103  0.5328 -1.6436
  111TMC2    C7 1700   2.166   0.951  11.785  0.0343  0.4657  0.6829
  111TMC2    C8 1701   2.435   0.727  11.470  0.6834 -0.4252  0.1106
  111TMC2    O1 1702   2.057   0.940  11.846 -0.4873 -0.2398 -0.1861
  111TMC2    O2 1703   2.531   0.755  11.540 -0.0709  0.2526 -0.0379
  111TMC2    O5 1704   2.429   0.627  11.383 -0.0049  0.2185 -0.1559
  111TMC2    H5 1705   2.360   0.613  11.316  1.2263  0.7906 -1.5373
  112MPD2     C 1706   1.621   0.430  11.200  0.7925 -0.8354  0.3567
  112MPD2    C1 1707   1.609   0.561  11.208 -0.5108 -0.2501  0.1657
  112MPD2    C2 1708   1.707   0.630  11.276 -0.4853 -0.1389 -0.5022
  112MPD2    C3 1709   1.819   0.560  11.324 -0.0883 -0.3886 -0.5755
  112MPD2    C4 1710   1.831   0.421  11.307 -0.2245  0.7157  0.5031
  112MPD2    C5 1711   1.729   0.355  11.249  0.1294  0.8259  0.8437
  112MPD2     H 1712   1.697   0.735  11.298 -0.9059 -0.3306  0.2433
  112MPD2    H1 1713   1.912   0.366  11.353 -0.9744 -1.8030 -1.1777
  112MPD2    H2 1714   1.549   0.367  11.148 -1.7072 -0.6098  3.5814
  112MPD2    H3 1715   1.745   0.250  11.226  0.7312  0.8473  1.1673
  112MPD2     N 1716   1.931   0.620  11.383  0.8848 -0.2005  0.0311
  112MPD2    H5 1717   2.006   0.560  11.418 -0.3883 -0.6216  2.0266
  112MPD2    N1 1718   1.507   0.621  11.138  0.1268 -0.3281  0.6840
  112MPD2    H7 1719   1.458   0.563  11.070  1.8433  0.1769 -1.0008
  113MPD2     C 1720   4.525   3.136   1.114  0.1657 -0.4657  0.2367
  113MPD2    C1 1721   4.494   3.263   1.075  0.1892 -0.3927  0.2397
  113MPD2    C2 1722   4.433   3.277   0.951 -0.5702  0.2956 -0.6938
  113MPD2    C3 1723   4.398   3.167   0.876 -0.7938  0.0557  0.5911
  113MPD2    C4 1724   4.415   3.039   0.920  0.4052 -0.2464  0.3654
  113MPD2    C5 1725   4.490   3.028   1.034 -0.7934 -0.4235 -0.6593
  113MPD2     H 1726   4.407   3.375   0.914  2.4414  1.1989 -0.3693
  113MPD2    H1 1727   4.375   2.958   0.861 -0.2641 -0.4294  1.0622
  113MPD2    H2 1728   4.574   3.112   1.208 -0.7931  1.4063  1.2346
  113MPD2    H3 1729   4.517   2.928   1.067 -1.0946 -0.2439  0.1099
  113MPD2     N 1730   4.323   3.178   0.752  0.7402 -0.3548  0.4655
  113MPD2    H5 1731   4.280   3.089   0.728 -0.0783  0.0405  0.4702
  113MPD2    N1 1732   4.521   3.377   1.158  0.1963  0.8192  0.3829
  113MPD2    H7 1733   4.482   3.468   1.137  3.9203  1.9581 -1.6487
  114TCq2    C1 1734   4.298   3.288   0.679  0.0910  0.5928 -0.9866
  114TCq2    O2 1735   4.333   3.407   0.700 -0.0775 -0.5642 -0.3292
  114TCq2    C2 1736   4.236   3.252   0.560 -0.5147 -0.2407 -0.1298
  114TCq2    C3 1737   4.210   3.360   0.478 -0.8185  0.0179 -0.2312
  114TCq2    C4 1738   4.131   3.343   0.366  0.0332 -0.5368 -0.5661
  114TCq2    C5 1739   4.086   3.211   0.338  0.1801  0.4947 -0.0913
  114TCq2    C6 1740   4.107   3.112   0.423  0.0016 -0.4200  0.6429
  114TCq2    C7 1741   4.181   3.128   0.537 -0.0110  0.3772 -0.3085
  114TCq2    C8 1742   4.000   3.016   0.431  0.3188 -0.1675 -0.1612
  114TCq2    O4 1743   3.940   3.007   0.324 -0.3087  0.0784 -0.0708
  114TCq2    C9 1744   4.118   3.443   0.263  0.5214  0.1466 -0.2001
  114TCq2    O5 1745   4.160   3.558   0.276  1.0622 -0.3379 -0.3347
  114TCq2    O6 1746   4.037   3.402   0.178  0.2951 -0.3978 -0.5337
  114TCq2    H2 1747   4.257   3.458   0.483 -2.7144  1.1095 -3.0954
  114TCq2    H3 1748   4.027   3.201   0.247 -3.5423  0.1315  2.3505
  114TCq2    H4 1749   4.186   3.046   0.607 -2.5666 -1.1260 -1.8635
  115TMC2    C1 1750   0.177   2.069  17.139 -0.7177  0.1019 -0.3475
  115TMC2    C2 1751   0.103   2.126  17.041  0.5645 -0.6960 -0.3960
  115TMC2    C3 1752   0.134   2.255  17.011 -0.2866 -0.0816  0.6876
  115TMC2    C4 1753   0.264   2.139  17.217  0.4410 -0.4950 -0.0339
  115TMC2    C5 1754   0.299   2.268  17.177  0.0787 -0.4328  0.9263
  115TMC2    C6 1755   0.229   2.329  17.078 -0.1654  0.2697  0.0758
  115TMC2     C 1756   0.165   1.932  17.158  0.4385 -0.1851 -0.0091
  115TMC2     O 1757   0.104   1.869  17.071 -0.9029 -0.0292  0.1219
  115TMC2     H 1758   0.064   2.063  16.961 -0.1380 -0.4050 -0.2819
  115TMC2    H1 1759   0.309   2.085  17.299 -0.9990 -0.4986  0.7464
  115TMC2    H2 1760   0.242   2.432  17.048 -0.5074  0.3930  0.3479
  115TMC2    C7 1761   0.397   2.339  17.257 -0.9393 -0.4846  0.3742
  115TMC2    C8 1762   0.088   2.323  16.887  0.3411 -0.1818  0.1588
  115TMC2    O1 1763   0.426   2.288  17.364  0.7913 -0.1409 -0.3805
  115TMC2    O2 1764   0.148   2.418  16.831  0.3429 -0.6239 -0.0985
  115TMC2    O5 1765   4.691   2.263  16.860 -0.0614  0.0371 -0.6847
  115TMC2    H5 1766   4.656   2.221  16.942 -0.2407  0.3130 -0.6194
  116MPD2     C 1767   0.255   1.487  17.407 -0.1319 -0.1537 -0.6324
  116MPD2    C1 1768   0.215   1.511  17.283 -0.2458  0.3779  0.5435
  116MPD2    C2 1769   0.203   1.642  17.234  0.0232  0.0099  0.2261
  116MPD2    C3 1770   0.209   1.751  17.322 -0.8555 -0.3190 -0.4220
  116MPD2    C4 1771   0.243   1.720  17.460 -0.1086 -0.0029 -0.6950
  116MPD2    C5 1772   0.265   1.585  17.498 -0.5117  0.4786  0.1946
  116MPD2     H 1773   0.184   1.658  17.128 -0.2908  0.6393  0.3777
  116MPD2    H1 1774   0.256   1.796  17.537  0.3339  0.2376 -1.0068
  116MPD2    H2 1775   0.280   1.387  17.440  1.9543  0.7012  0.4273
  116MPD2    H3 1776   0.291   1.568  17.602  1.7810  0.0292 -0.4461
  116MPD2     N 1777   0.199   1.886  17.284 -0.3724  0.7588 -0.5988
  116MPD2    H5 1778   0.195   1.953  17.360 -1.5026  1.1460 -1.0002
  116MPD2    N1 1779   0.207   1.394  17.201 -0.2692 -0.6211 -0.0907
  116MPD2    H7 1780   0.221   1.311  17.257 -0.1203  0.8563  2.0323
  117TMC2    C1 1781   4.098   2.700  13.715  0.0637 -0.3570  0.3570
  117TMC2    C2 1782   4.163   2.632  13.616 -0.1951  0.2022  0.3965
  117TMC2    C3 1783   4.295   2.673  13.597 -0.4926  0.1689 -0.2731
  117TMC2    C4 1784   4.155   2.805  13.782 -1.3241  0.0015  0.4596
  117TMC2    C5 1785   4.285   2.829  13.763 -0.6520 -0.2207  0.3004
  117TMC2    C6 1786   4.357   2.764  13.673  0.2610 -0.6042  0.2738
  117TMC2     C 1787   3.949   2.687  13.727 -0.1687  0.1806  0.1520
  117TMC2     O 1788   3.900   2.586  13.670 -0.6217  0.1591  0.1070
  117TMC2     H 1789   4.112   2.555  13.559 -0.6086  2.0354 -1.7376
  117TMC2    H1 1790   4.104   2.866  13.856 -1.5118  1.2187 -0.6804
  117TMC2    H2 1791   4.464   2.776  13.660  0.0213  2.1964  0.9130
  117TMC2    C7 1792   4.358   2.948  13.809  0.0091  0.2928  0.1231
  117TMC2    C8 1793   4.380   2.613  13.491 -0.3409  0.1192 -0.2867
  117TMC2    O1 1794   4.439   3.008  13.738  0.4042 -0.2693  0.0951
  117TMC2    O2 1795   4.484   2.660  13.448 -0.3019 -0.3803 -0.2120
  117TMC2    O5 1796   4.305   2.507  13.440 -0.4827  0.3429  0.0387
  117TMC2    H5 1797   4.345   2.486  13.353  2.7561  0.4774  1.4872
  118MPD2     C 1798   4.306   3.115  14.130  0.7465 -0.6626 -0.3165
  118MPD2    C1 1799   4.311   3.106  13.989 -0.1611  0.4597 -0.5776
  118MPD2    C2 1800   4.325   3.229  13.920 -0.0614  0.6548 -0.0381
  118MPD2    C3 1801   4.350   3.348  13.990  0.8205  0.1461 -0.0672
  118MPD2    C4 1802   4.362   3.347  14.129  0.4329  0.0249  0.5396
  118MPD2    C5 1803   4.336   3.231  14.195 -0.0671  0.2036  0.3201
  118MPD2     H 1804   4.301   3.231  13.815  0.4385  0.4610 -0.1592
  118MPD2    H1 1805   4.366   3.439  14.186  2.1151  1.0197 -1.1847
  118MPD2    H2 1806   4.288   3.025  14.189  0.3797  0.3367  1.0927
  118MPD2    H3 1807   4.343   3.234  14.303 -1.5180  1.6907  0.3530
  118MPD2     N 1808   4.366   3.468  13.910 -0.3027  0.1308  0.6324
  118MPD2    H5 1809   4.356   3.470  13.809 -2.6134  1.3460  0.8695
  118MPD2    N1 1810   4.294   2.984  13.925  0.0790 -0.3050  0.4845
  118MPD2    H7 1811   4.256   2.907  13.979  0.7713 -1.9770 -1.4012
  119MPD2     C 1812   2.605   4.606  13.035 -0.1489 -0.8423  0.2027
  119MPD2    C1 1813   2.485   4.552  13.073  0.3832 -0.0504  0.3663
  119MPD2    C2 1814   2.417   4.473  12.978  0.0563 -0.3250 -0.5941
  119MPD2    C3 1815   2.458   4.459  12.844  0.5528 -0.0915 -0.3958
  119MPD2    C4 1816   2.581   4.517  12.814  1.1184 -0.7848 -0.0117
  119MPD2    C5 1817   2.648   4.587  12.905  0.9443  0.5470  0.1814
  119MPD2     H 1818   2.326   4.423  13.008 -0.1208 -0.3159 -1.1084
  119MPD2    H1 1819   2.618   4.495  12.714  0.4255 -1.0363 -0.2193
  119MPD2    H2 1820   2.661   4.672  13.100  0.6080 -0.6607 -0.6291
  119MPD2    H3 1821   2.736   4.639  12.869  0.3369  1.1224 -0.4889
  119MPD2     N 1822   2.392   4.395  12.737 -0.7161 -0.0118  0.4619
  119MPD2    H5 1823   2.425   4.411  12.642 -0.3100  1.9161  0.9218
  119MPD2    N1 1824   2.429   4.574  13.203 -0.1612 -0.0833 -0.0061
  119MPD2    H7 1825   2.483   4.618  13.276 -1.7529  2.1967 -0.1802
  120TCq2    C1 1826   2.288   4.313  12.757 -0.1298  0.6000 -0.3271
  120TCq2    O2 1827   2.253   4.263  12.867  0.0604  0.3032  0.5963
  120TCq2    C2 1828   2.178   4.335  12.670  0.4757  0.3784 -0.3380
  120TCq2    C3 1829   2.208   4.405  12.559  0.6942  0.4328  0.8751
  120TCq2    C4 1830   2.109   4.455  12.482 -0.1810 -0.1074  0.3388
  120TCq2    C5 1831   1.984   4.469  12.534  0.3161 -0.1020  0.3760
  120TCq2    C6 1832   1.957   4.415  12.660 -0.5893 -0.0102  0.5082
  120TCq2    C7 1833   2.049   4.340  12.723  0.1596  1.2666  0.6457
  120TCq2    C8 1834   1.844   4.464  12.734  0.0513 -0.0385  0.2469
  120TCq2    O4 1835   1.768   4.529  12.663 -0.3809  0.5623  0.2180
  120TCq2    C9 1836   2.134   4.521  12.359  0.8935  0.0725  0.1359
  120TCq2    O5 1837   2.256   4.531  12.329 -0.0959  0.2555  0.5157
  120TCq2    O6 1838   2.043   4.581  12.302 -0.1229 -0.8426  0.6784
  120TCq2    H2 1839   2.303   4.394  12.508 -1.7001 -0.3291 -3.4356
  120TCq2    H3 1840   1.915   4.529  12.476 -0.7708 -2.6219 -0.9389
  120TCq2    H4 1841   2.020   4.290  12.815  0.0047  1.6794  0.8192
  121TMC2    C1 1842   3.310   1.162  14.074 -0.0194  0.1352  0.4475
  121TMC2    C2 1843   3.405   1.080  14.130  0.3742  0.0891  0.3733
  121TMC2    C3 1844   3.370   0.949  14.162 -0.4046 -0.5537  0.8272
  121TMC2    C4 1845   3.188   1.107  14.040  0.3982 -0.4630  0.5003
  121TMC2    C5 1846   3.156   0.985  14.085 -0.2778 -0.5403 -0.4411
  121TMC2    C6 1847   3.241   0.900  14.150 -0.3445  0.2798  0.6762
  121TMC2     C 1848   3.330   1.304  14.055 -0.4921 -0.6772 -0.3726
  121TMC2     O 1849   3.247   1.368  13.993 -0.0725 -0.1184  0.8929
  121TMC2     H 1850   3.508   1.109  14.144  0.4785 -0.4322  0.6917
  121TMC2    H1 1851   3.124   1.176  13.987 -0.0041 -1.4991 -0.3735
  121TMC2    H2 1852   3.214   0.798  14.174  1.6121 -0.3042  0.4594
  121TMC2    C7 1853   3.024   0.972  14.140 -0.1599  0.0830  1.0421
  121TMC2    C8 1854   3.481   0.869  14.212  0.8367 -1.0902 -0.5079
  121TMC2    O1 1855   2.979   0.856  14.155  0.1505  0.1793 -0.1894
  121TMC2    O2 1856   3.589   0.874  14.153  0.1151  0.5806 -0.1416
  121TMC2    O5 1857   3.434   0.767  14.280 -0.3100  0.2322  0.2162
  121TMC2    H5 1858   3.351   0.787  14.328 -0.6692  1.5396 -0.9392
  122MPD2     C 1859   3.545   1.527  14.237  0.4800 -0.3043  0.1452
  122MPD2    C1 1860   3.471   1.489  14.127  0.2580 -0.3387 -0.0006
  122MPD2    C2 1861   3.461   1.562  14.008  0.3165 -0.0481  0.1274
  122MPD2    C3 1862   3.527   1.683  14.011  0.5564 -0.2363  0.1380
  122MPD2    C4 1863   3.593   1.730  14.122  0.4752  0.0726  0.0690
  122MPD2    C5 1864   3.610   1.651  14.238  0.0602 -0.0921  0.4426
  122MPD2     H 1865   3.422   1.510  13.921 -1.4969  0.4843  0.6214
  122MPD2    H1 1866   3.658   1.816  14.106 -1.9653  2.0412  0.7588
  122MPD2    H2 1867   3.554   1.455  14.318  0.6297 -1.2035 -0.6693
  122MPD2    H3 1868   3.658   1.694  14.325 -2.8868 -0.7955  2.4301
  122MPD2     N 1869   3.521   1.762  13.894  0.4587  0.4011  0.1404
  122MPD2    H5 1870   3.572   1.850  13.902 -0.5636  1.0832 -0.8291
  122MPD2    N1 1871   3.420   1.357  14.144  0.5531 -0.2481 -0.1553
  122MPD2    H7 1872   3.461   1.299  14.216  0.2747 -0.2830 -0.0247
  123MPD2     C 1873   1.842   4.324  10.795 -0.5994 -0.1838  0.3459
  123MPD2    C1 1874   1.873   4.296  10.664 -0.2908 -0.0107  0.0252
  123MPD2    C2 1875   1.976   4.375  10.614 -0.1871  0.2097  0.3790
  123MPD2    C3 1876   2.048   4.470  10.685 -0.4367 -0.4965  0.9277
  123MPD2    C4 1877   2.008   4.499  10.809  0.2901  0.0544  0.0851
  123MPD2    C5 1878   1.900   4.439  10.862  0.3481  0.5818 -0.1853
  123MPD2     H 1879   2.007   4.356  10.512  0.9061  2.3813  0.2948
  123MPD2    H1 1880   2.058   4.572  10.872  0.0219  0.2483  0.0715
  123MPD2    H2 1881   1.771   4.264  10.850  0.0175  0.0098  1.3503
  123MPD2    H3 1882   1.880   4.457  10.967  1.2901  2.3575 -0.3080
  123MPD2     N 1883   2.157   4.532  10.615 -0.2600 -0.2323  0.6193
  123MPD2    H5 1884   2.185   4.477  10.535 -1.0351 -1.3591  1.1139
  123MPD2    N1 1885   1.800   4.203  10.589  0.1576  0.3832  0.2045
  123MPD2    H7 1886   1.741   4.137  10.639  1.8328 -0.0383  1.6151
  124TCq2    C1 1887   2.229   4.641  10.654  0.5950 -0.4393  0.3295
  124TCq2    O2 1888   2.196   0.011  10.726 -0.4663  0.1054  0.0283
  124TCq2    C2 1889   2.347   4.661  10.578  0.4015  0.4539  1.2042
  124TCq2    C3 1890   2.373   0.062  10.531 -0.0380 -0.4678  0.1004
  124TCq2    C4 1891   2.461   0.087  10.429 -0.2158  0.1386 -0.0440
  124TCq2    C5 1892   2.518   4.701  10.369  0.1070 -0.6105  0.0892
  124TCq2    C6 1893   2.482   4.574  10.411  0.5280 -0.5295 -0.3565
  124TCq2    C7 1894   2.403   4.552  10.521 -0.0873 -0.2569  0.7883
  124TCq2    C8 1895   2.537   4.452  10.350 -0.2878 -0.0425 -0.2547
  124TCq2    O4 1896   2.552   4.362  10.427  0.4965  0.2102  0.0237
  124TCq2    C9 1897   2.487   0.219  10.385 -0.2011  0.3048  1.1063
  124TCq2    O5 1898   2.435   0.315  10.453 -0.5521 -0.6137  0.2222
  124TCq2    O6 1899   2.580   0.233  10.297 -0.0903  0.1877  0.0670
  124TCq2    H2 1900   2.316   0.142  10.577  0.0485  0.1290 -0.8142
  124TCq2    H3 1901   2.601   0.005  10.305  1.2366 -0.6510  1.5419
  124TCq2    H4 1902   2.385   4.449  10.550 -2.2963  0.1032  0.6876
  125TMC2    C1 1903   3.325   1.269   8.333  0.3139  0.4575 -1.3726
  125TMC2    C2 1904   3.217   1.347   8.349 -0.2935 -0.0262 -0.2377
  125TMC2    C3 1905   3.152   1.362   8.466 -0.5444 -0.4865  0.5748
  125TMC2    C4 1906   3.380   1.207   8.442 -0.1381  0.1657 -0.3362
  125TMC2    C5 1907   3.314   1.220   8.564  0.3418  0.5300  0.1522
  125TMC2    C6 1908   3.194   1.295   8.576 -0.6748  0.5919  0.0369
  125TMC2     C 1909   3.388   1.254   8.203 -0.6032  0.1794  0.4894
  125TMC2     O 1910   3.327   1.291   8.102  0.1695 -0.3186 -0.3123
  125TMC2     H 1911   3.165   1.384   8.261 -0.3357  0.3920 -0.0370
  125TMC2    H1 1912   3.454   1.129   8.436  0.0332  0.3230 -0.2639
  125TMC2    H2 1913   3.137   1.305   8.668  0.4985  0.6241  0.7638
  125TMC2    C7 1914   3.390   1.200   8.688  0.6618  0.0123  0.0817
  125TMC2    C8 1915   3.009   1.405   8.458 -0.3051 -0.5066  0.5045
  125TMC2    O1 1916   3.323   1.216   8.787 -0.2504  0.1871 -0.1464
  125TMC2    O2 1917   2.966   1.427   8.348 -0.2211 -0.3592  0.3648
  125TMC2    O5 1918   2.981   1.488   8.559 -0.2315 -0.0218 -0.2525
  125TMC2    H5 1919   3.030   1.490   8.644 -0.1645  0.7227 -0.3040
  126MPD1     C 1920   3.757   1.134   7.858  0.1775  0.2879  0.3068
  126MPD1    C1 1921   3.799   1.087   7.983 -0.1573  0.2578  0.2971
  126MPD1    C2 1922   3.705   1.104   8.088 -0.9188 -0.3144  0.2733
  126MPD1    C3 1923   3.592   1.178   8.080 -0.1031 -0.3429  0.1618
  126MPD1    C4 1924   3.571   1.244   7.959 -0.1812  0.2618  0.0850
  126MPD1    C5 1925   3.649   1.218   7.854 -0.3955  0.3471  0.1869
  126MPD1     H 1926   3.733   1.059   8.183 -0.9544  1.0545  0.9260
  126MPD1    H1 1927   3.489   1.312   7.942 -0.9308 -0.5964  0.2819
  126MPD1    H2 1928   3.814   1.110   7.768  0.1269  0.5515  0.2057
  126MPD1    H3 1929   3.618   1.270   7.764  0.6164 -1.2446 -1.0774
  126MPD1     N 1930   3.506   1.184   8.195 -0.2225  0.7172  0.2995
  126MPD1    H5 1931   3.541   1.140   8.280  1.1895  0.0410 -0.6402
  126MPD1    N1 1932   3.909   1.000   8.000 -0.1471  0.1672  0.1814
  126MPD1    H6 1933   3.988   1.029   7.941 -0.3922  2.4513  1.0047
  126MPD1    H7 1934   3.935   0.986   8.097  1.9126  1.1423 -0.2200
  127MPD2     C 1935   3.375   4.365   9.300 -0.2352  0.0841 -0.1523
  127MPD2    C1 1936   3.407   4.363   9.434  0.1175  0.0001  0.1755
  127MPD2    C2 1937   3.509   4.450   9.480  0.4037 -0.1316 -0.2158
  127MPD2    C3 1938   3.571   4.536   9.396 -0.2459  0.4195 -0.4418
  127MPD2    C4 1939   3.545   4.529   9.266  0.2905 -0.1240  0.2754
  127MPD2    C5 1940   3.446   4.447   9.221 -0.2511 -0.2853  0.0348
  127MPD2     H 1941   3.523   4.472   9.585  3.3728 -2.1876 -0.1986
  127MPD2    H1 1942   3.595   4.582   9.186  0.6941  2.3266  2.1507
  127MPD2    H2 1943   3.301   4.302   9.252  1.5204 -1.7846 -0.4052
  127MPD2    H3 1944   3.421   4.447   9.116 -2.1116 -2.5506  0.4665
  127MPD2     N 1945   3.663   4.627   9.451 -0.1495 -0.2811 -0.2162
  127MPD2    H5 1946   3.669   4.624   9.552  0.0491  1.2590 -0.1846
  127MPD2    N1 1947   3.330   4.299   9.522  0.0135 -0.2734 -0.0107
  127MPD2    H7 1948   3.255   4.241   9.486  0.3499  0.7723 -2.3423
  128TCq2    C1 1949   3.323   4.308   9.656 -0.8833  0.3689  0.6725
  128TCq2    O2 1950   3.382   4.383   9.735 -0.0372  0.4792  0.4640
  128TCq2    C2 1951   3.215   4.232   9.716 -0.3577 -0.3363  0.0397
  128TCq2    C3 1952   3.188   4.101   9.675 -0.0578  0.1868  0.6687
  128TCq2    C4 1953   3.125   4.022   9.768  1.2246 -0.0585  0.1807
  128TCq2    C5 1954   3.105   4.059   9.898  0.8671  0.2796  0.2451
  128TCq2    C6 1955   3.153   4.179   9.945 -0.6647 -0.3877  0.5549
  128TCq2    C7 1956   3.204   4.267   9.851  0.6890  0.8945 -0.3457
  128TCq2    C8 1957   3.102   4.228  10.072  0.0104 -0.4002 -0.3287
  128TCq2    O4 1958   3.110   4.344  10.100  0.1055 -0.1581 -0.0192
  128TCq2    C9 1959   3.074   3.890   9.724  0.1171 -0.6842  0.1142
  128TCq2    O5 1960   3.017   3.818   9.814 -0.1381  0.0317 -0.3030
  128TCq2    O6 1961   3.089   3.859   9.600 -0.3782 -0.2974 -0.0059
  128TCq2    H2 1962   3.195   4.070   9.572  0.6495  0.2095  0.7120
  128TCq2    H3 1963   3.055   3.988   9.963  1.0177 -1.1207 -1.1523
  128TCq2    H4 1964   3.210   4.367   9.892  0.0428  1.4997 -1.7019
  129MPD2     C 1965   1.618   0.801   0.870  0.5332 -0.3911  0.1399
  129MPD2    C1 1966   1.754   0.812   0.881  0.4722  0.1097  0.3435
  129MPD2    C2 1967   1.811   0.927   0.822 -0.5613  0.6080 -0.1999
  129MPD2    C3 1968   1.738   1.014   0.744 -0.1175 -0.4330  0.5965
  129MPD2    C4 1969   1.606   0.992   0.718 -0.3401 -0.5465 -0.2716
  129MPD2    C5 1970   1.549   0.882   0.780 -0.3947  1.0437 -0.1280
  129MPD2     H 1971   1.913   0.936   0.858 -0.3050 -0.3443 -0.6793
  129MPD2    H1 1972   1.554   1.053   0.645 -0.0608  2.4591  2.0058
  129MPD2    H2 1973   1.568   0.723   0.927 -2.2053  0.3985 -1.1402
  129MPD2    H3 1974   1.448   0.858   0.751  0.3642 -1.8640 -0.3889
  129MPD2     N 1975   1.808   1.114   0.676 -0.0676 -0.0936 -0.2452
  129MPD2    H5 1976   1.909   1.123   0.685 -0.1409 -0.5344  1.0749
  129MPD2    N1 1977   1.839   0.731   0.964 -0.3774  0.2268 -0.3590
  129MPD2    H7 1978   1.937   0.759   0.959  0.0370 -1.3301 -0.9585
  130TCq2    C1 1979   1.805   0.612   1.027 -0.7294  0.4978  0.1025
  130TCq2    O2 1980   1.710   0.537   1.024 -0.3143 -0.0913  0.4254
  130TCq2    C2 1981   1.918   0.565   1.099 -0.8547 -0.3574 -0.5067
  130TCq2    C3 1982   2.047   0.620   1.090 -0.0043  0.4049 -0.0631
  130TCq2    C4 1983   2.144   0.577   1.173 -0.4257 -0.4247 -0.1507
  130TCq2    C5 1984   2.121   0.465   1.240  0.5105  0.2487 -0.4708
  130TCq2    C6 1985   2.003   0.403   1.245  0.6742 -0.1447  0.0786
  130TCq2    C7 1986   1.894   0.457   1.182  0.2650  0.2773  0.0737
  130TCq2    C8 1987   1.967   0.274   1.307 -0.2716 -0.7500  0.2729
  130TCq2    O4 1988   1.854   0.234   1.293 -0.1197 -0.5031  0.4324
  130TCq2    C9 1989   2.273   0.647   1.182 -0.4865 -0.8138 -0.3055
  130TCq2    O5 1990   2.271   0.752   1.109  0.3297 -0.6419  0.2389
  130TCq2    O6 1991   2.370   0.604   1.247 -0.0288  0.2757 -0.1874
  130TCq2    H2 1992   2.082   0.681   1.007  2.1485  0.7607  1.1144
  130TCq2    H3 1993   2.211   0.427   1.288 -0.5744  0.5411  1.8264
  130TCq2    H4 1994   1.790   0.431   1.197 -0.0853  0.5520 -1.9773
  131MPD2     C 1995   1.491   4.259   9.641 -0.7259 -0.1557  0.1939
  131MPD2    C1 1996   1.609   4.311   9.687 -0.6173 -0.0011 -0.5092
  131MPD2    C2 1997   1.662   4.245   9.797  0.0422  0.3671  0.0462
  131MPD2    C3 1998   1.591   4.142   9.861 -0.0187  0.1717  0.3613
  131MPD2    C4 1999   1.479   4.091   9.803  0.1548 -0.4201  0.1611
  131MPD2    C5 2000   1.432   4.153   9.692  1.4625 -0.4353 -0.8194
  131MPD2     H 2001   1.754   4.273   9.847 -0.4493 -1.7526  2.1426
  131MPD2    H1 2002   1.414   4.023   9.856 -1.1100  1.0076  0.4228
  131MPD2    H2 2003   1.441   4.295   9.552 -1.1463  1.8659  1.2599
  131MPD2    H3 2004   1.335   4.123   9.655 -0.5485  2.7986  1.8390
  131MPD2     N 2005   1.650   4.093   9.985  0.1718  0.3964  0.4540
  131MPD2    H5 2006   1.736   4.135  10.018  0.5042 -0.2114  0.3707
  131MPD2    N1 2007   1.665   4.420   9.624 -0.6432  0.4231 -0.0024
  131MPD2    H7 2008   1.616   4.446   9.539  1.9008 -0.1169 -1.6381
  132TCq2    C1 2009   1.876   0.264   9.653  0.0451 -0.4406  0.5077
  132TCq2    O2 2010   1.864   0.260   9.775  0.0650 -0.1912  0.0722
  132TCq2    C2 2011   1.831   0.141   9.584  0.3067 -0.1023 -0.6028
  132TCq2    C3 2012   1.789   0.139   9.450 -0.9824  0.3514  0.0621
  132TCq2    C4 2013   1.743   0.027   9.391 -0.1475 -0.1756  0.5540
  132TCq2    C5 2014   1.735   4.631   9.463 -0.4011 -0.2183  0.5979
  132TCq2    C6 2015   1.772   4.628   9.597 -0.3580  0.1626  0.3153
  132TCq2    C7 2016   1.812   0.022   9.658 -0.1143  0.1918  0.5865
  132TCq2    C8 2017   1.751   4.509   9.681  0.3409 -0.9526  0.0258
  132TCq2    O4 2018   1.822   4.501   9.780 -0.2113 -0.1552  0.0269
  132TCq2    C9 2019   1.727   0.037   9.245 -0.8365 -0.3926  0.1630
  132TCq2    O5 2020   1.728   4.653   9.174  0.3914 -0.5760  0.8022
  132TCq2    O6 2021   1.741   0.151   9.196  0.2513  0.6604 -0.1517
  132TCq2    H2 2022   1.775   0.229   9.391 -0.3548 -1.3773 -2.6881
  132TCq2    H3 2023   1.722   4.536   9.412  1.6543 -0.4270  0.4509
  132TCq2    H4 2024   1.842   0.007   9.761  0.8322 -1.2314  0.0881
  133MPD2     C 2025   0.789   0.442   8.859 -0.2803  0.7691  0.3655
  133MPD2    C1 2026   0.919   0.383   8.865  0.2102 -0.0958  0.0439
  133MPD2    C2 2027   0.926   0.244   8.859 -0.2851  0.3286 -0.1188
  133MPD2    C3 2028   0.810   0.167   8.845 -0.0956  0.0028 -1.2289
  133MPD2    C4 2029   0.690   0.232   8.824 -0.9315  0.6090 -0.1403
  133MPD2    C5 2030   0.675   0.365   8.838  0.0653 -0.5519 -0.3594
  133MPD2     H 2031   1.017   0.191   8.885 -0.5632  0.4210  1.0426
  133MPD2    H1 2032   0.604   0.173   8.794  0.4779 -0.9801 -1.0671
  133MPD2    H2 2033   0.778   0.549   8.871 -1.6230  0.6528  0.2474
  133MPD2    H3 2034   0.574   0.402   8.828 -0.0461  0.5449  4.9909
  133MPD2     N 2035   0.829   0.030   8.848  0.2954 -0.0407  0.4513
  133MPD2    H5 2036   0.925   0.011   8.875  0.3304 -2.9416 -1.7389
  133MPD2    N1 2037   1.025   0.475   8.894 -0.1469  0.7174 -0.2102
  133MPD2    H7 2038   0.992   0.571   8.895  0.0709  0.7962 -1.7632
  134TCq2    C1 2039   1.143   0.442   8.935  0.4470 -0.4904 -0.5662
  134TCq2    O2 2040   1.190   0.331   8.948  0.3591 -0.1304 -0.8990
  134TCq2    C2 2041   1.215   0.554   8.986 -0.0673 -0.2825 -0.2106
  134TCq2    C3 2042   1.175   0.682   8.960 -0.1179  0.2438 -0.4939
  134TCq2    C4 2043   1.241   0.778   9.029  0.5328  0.0604  0.9504
  134TCq2    C5 2044   1.344   0.753   9.113 -0.4262 -0.2115  0.5495
  134TCq2    C6 2045   1.379   0.624   9.135 -0.3796 -0.1066 -0.2649
  134TCq2    C7 2046   1.320   0.524   9.069  0.4081 -0.4402  0.2551
  134TCq2    C8 2047   1.471   0.586   9.240  0.4917 -0.9456  0.1652
  134TCq2    O4 2048   1.515   0.472   9.233 -0.4973  0.0857 -0.2770
  134TCq2    C9 2049   1.216   0.923   9.022  0.2615  0.3478 -0.5137
  134TCq2    O5 2050   1.128   0.959   8.948 -0.3777  0.0187  0.2989
  134TCq2    O6 2051   1.275   1.001   9.100 -1.0163 -0.6246 -0.4204
  134TCq2    H2 2052   1.090   0.711   8.899 -0.8650 -1.3734 -0.2090
  134TCq2    H3 2053   1.405   0.838   9.140  0.3747 -1.3426  2.3116
  134TCq2    H4 2054   1.345   0.421   9.093  0.9135 -0.1039  1.1558
  135MPD2     C 2055   3.736   1.419   8.338 -0.0571  0.0882 -0.1989
  135MPD2    C1 2056   3.764   1.413   8.472 -0.9814 -0.0481  0.1029
  135MPD2    C2 2057   3.884   1.351   8.512  0.0909  0.0371  0.2659
  135MPD2    C3 2058   3.984   1.311   8.424  0.0503 -0.1142 -0.2233
  135MPD2    C4 2059   3.948   1.317   8.294  0.1416  0.0607 -0.6859
  135MPD2    C5 2060   3.830   1.372   8.255  0.3061  0.4441  0.2783
  135MPD2     H 2061   3.900   1.344   8.619  2.0757 -0.1507 -0.0297
  135MPD2    H1 2062   4.017   1.280   8.220 -1.1376  0.3937 -2.0626
  135MPD2    H2 2063   3.636   1.441   8.302 -1.8901 -0.4472  4.4869
  135MPD2    H3 2064   3.808   1.384   8.149 -1.4604 -4.1500  0.0946
  135MPD2     N 2065   4.114   1.267   8.461 -0.5756 -0.2695  0.8249
  135MPD2    H5 2066   4.169   1.225   8.387 -1.9865 -0.8182  0.0890
  135MPD2    N1 2067   3.680   1.450   8.580 -0.0938  0.1169 -0.2055
  135MPD2    H7 2068   3.717   1.433   8.672 -0.0877 -3.6922 -0.8873
  136TCq2    C1 2069   3.564   1.515   8.561 -0.0932 -0.2851  0.0105
  136TCq2    O2 2070   3.487   1.527   8.467  0.8737  0.1040 -0.8792
  136TCq2    C2 2071   3.513   1.560   8.689 -0.1916  0.4556  0.2045
  136TCq2    C3 2072   3.380   1.565   8.712 -0.4648  0.2296 -0.0630
  136TCq2    C4 2073   3.335   1.581   8.841 -0.2684 -0.1553 -0.3645
  136TCq2    C5 2074   3.423   1.555   8.944 -1.0966 -0.3111 -0.2649
  136TCq2    C6 2075   3.550   1.558   8.916 -0.4636 -0.2993 -0.7377
  136TCq2    C7 2076   3.598   1.577   8.796  0.6947  0.3771 -0.0244
  136TCq2    C8 2077   3.647   1.493   9.006  0.3156 -0.0499 -0.6252
  136TCq2    O4 2078   3.740   1.446   8.946  0.0163  0.9887  0.4222
  136TCq2    C9 2079   3.194   1.582   8.858  0.8108  0.5147  0.4850
  136TCq2    O5 2080   3.114   1.566   8.759  0.0900 -0.0096  0.2368
  136TCq2    O6 2081   3.155   1.562   8.974 -0.1253 -0.1339  0.2858
  136TCq2    H2 2082   3.318   1.568   8.624  1.5200  0.7463 -1.4415
  136TCq2    H3 2083   3.384   1.559   9.046 -1.8006 -2.6698 -0.4381
  136TCq2    H4 2084   3.705   1.582   8.775  0.7906 -0.2747  0.2999
  137MPD2     C 2085   3.461   0.863   8.243  0.2740  0.2362 -0.4953
  137MPD2    C1 2086   3.365   0.888   8.338 -0.2040 -0.0149  0.2826
  137MPD2    C2 2087   3.389   0.860   8.475  0.1095  0.3922 -0.7648
  137MPD2    C3 2088   3.519   0.825   8.510 -0.0526  0.4663  0.9224
  137MPD2    C4 2089   3.618   0.817   8.417  0.2137 -0.3113  0.6322
  137MPD2    C5 2090   3.583   0.831   8.286 -0.2898 -0.1696  0.1020
  137MPD2     H 2091   3.308   0.877   8.544  0.9025 -2.1504  0.7756
  137MPD2    H1 2092   3.721   0.790   8.437  0.6762 -0.9340 -2.5846
  137MPD2    H2 2093   3.438   0.884   8.139  0.7270  0.7568 -0.4883
  137MPD2    H3 2094   3.665   0.814   8.216 -2.2767 -2.3414 -1.6828
  137MPD2     N 2095   3.541   0.798   8.644  0.0450  0.2370  0.5071
  137MPD2    H5 2096   3.466   0.822   8.708 -0.2072 -0.8268  0.6215
  137MPD2    N1 2097   3.232   0.928   8.292  0.8828  0.4201 -0.0039
  137MPD2    H7 2098   3.223   0.919   8.191 -0.2623 -0.9824  0.2248
  138TCq2    C1 2099   3.125   0.952   8.364  0.0811  0.5817  0.4359
  138TCq2    O2 2100   3.105   0.961   8.485 -0.2172 -0.3492  0.0318
  138TCq2    C2 2101   3.008   0.998   8.295 -0.2509 -0.4283  0.1370
  138TCq2    C3 2102   3.031   1.072   8.182  1.5441 -0.3702 -0.1667
  138TCq2    C4 2103   2.927   1.156   8.136  0.0819 -0.2200  0.2964
  138TCq2    C5 2104   2.811   1.158   8.209  0.5378 -0.1795 -0.1057
  138TCq2    C6 2105   2.795   1.084   8.323 -0.4470  0.1297  0.2481
  138TCq2    C7 2106   2.898   1.012   8.368  0.2584 -0.2745  0.7607
  138TCq2    C8 2107   2.655   1.064   8.371  0.5943 -0.1765  0.9665
  138TCq2    O4 2108   2.572   1.087   8.286  0.0018 -0.1507  0.0582
  138TCq2    C9 2109   2.945   1.228   8.009  0.5390 -0.5504  0.1149
  138TCq2    O5 2110   2.854   1.307   7.979 -0.1175 -0.7954  0.5177
  138TCq2    O6 2111   3.041   1.188   7.941  0.7748  0.2604  0.1801
  138TCq2    H2 2112   3.124   1.078   8.126  1.2507  1.2789 -0.4708
  138TCq2    H3 2113   2.727   1.211   8.164  0.2062 -0.4763  0.1645
  138TCq2    H4 2114   2.885   0.939   8.447 -1.4272 -1.8821 -1.0092
  139TMC2    C1 2115   4.226   3.888  13.441  1.1041 -0.1965  0.1850
  139TMC2    C2 2116   4.344   3.962  13.452  0.1000 -0.5449  0.2693
  139TMC2    C3 2117   4.322   4.097  13.462 -0.2624 -0.4944 -0.1063
  139TMC2    C4 2118   4.096   3.944  13.443  0.1579  0.0802 -0.7912
  139TMC2    C5 2119   4.088   4.073  13.471 -0.7187 -0.3757  0.4597
  139TMC2    C6 2120   4.195   4.156  13.475 -0.4351 -0.3553 -0.1531
  139TMC2     C 2121   4.235   3.745  13.443  0.3775 -0.5657  0.5032
  139TMC2     O 2122   4.344   3.705  13.407 -0.0088  0.0557  0.1713
  139TMC2     H 2123   4.442   3.916  13.455  0.3224 -0.0849  0.1461
  139TMC2    H1 2124   4.006   3.888  13.419  0.6776 -1.3686  0.6609
  139TMC2    H2 2125   4.181   4.263  13.475  2.0028 -0.0505 -4.5545
  139TMC2    C7 2126   3.957   4.130  13.483 -0.1001  0.3787  0.4291
  139TMC2    C8 2127   4.444   4.176  13.459  0.0217  0.1576 -0.3430
  139TMC2    O1 2128   3.934   4.240  13.442  0.6627 -0.1127 -0.3633
  139TMC2    O2 2129   4.539   4.129  13.405  0.1103  0.4046  0.0513
  139TMC2    O5 2130   4.396   4.301  13.434 -0.1288 -0.4866  0.1183
  139TMC2    H5 2131   4.338   4.329  13.508  0.3261  0.1997  0.2212
  140MPD2     C 2132   4.061   3.529  13.677  0.0663  0.6716 -0.1507
  140MPD2    C1 2133   4.142   3.554  13.571  0.9920 -0.0174  0.2448
  140MPD2    C2 2134   4.208   3.453  13.509 -1.0942  0.2118 -0.2809
  140MPD2    C3 2135   4.192   3.321  13.549 -0.2570 -0.1078  0.1723
  140MPD2    C4 2136   4.109   3.294  13.656  0.0199  1.2193 -0.8447
  140MPD2    C5 2137   4.056   3.402  13.717 -0.4823  0.8395  0.1413
  140MPD2     H 2138   4.272   3.465  13.422 -2.0970 -2.3145 -1.3583
  140MPD2    H1 2139   4.088   3.194  13.693 -0.4861  1.4857 -0.4161
  140MPD2    H2 2140   4.010   3.604  13.735 -0.5657  1.6784 -2.0328
  140MPD2    H3 2141   3.987   3.384  13.799 -2.1294 -0.9393 -1.6514
  140MPD2     N 2142   4.271   3.223  13.482 -0.4362  0.2599  0.7047
  140MPD2    H5 2143   4.311   3.261  13.397  0.9497  1.5996  1.9685
  140MPD2    N1 2144   4.143   3.688  13.531  0.0480  0.3647 -0.4386
  140MPD2    H7 2145   4.077   3.754  13.571 -0.1719 -0.2973  0.2923
  141TCq2    C1 2146   4.443   0.974  14.750  0.0960  0.1435  0.1544
  141TCq2    O2 2147   4.435   1.022  14.640  0.2302  0.3232 -0.0888
  141TCq2    C2 2148   4.428   1.072  14.859  0.4140 -0.0625  0.5770
  141TCq2    C3 2149   4.389   1.036  14.985 -0.1844 -0.1927  0.3536
  141TCq2    C4 2150   4.343   1.135  15.079  0.1892  0.2386  0.3164
  141TCq2    C5 2151   4.351   1.267  15.045  0.1031 -0.9749 -0.5549
  141TCq2    C6 2152   4.384   1.298  14.919 -0.1801 -0.2955  0.5481
  141TCq2    C7 2153   4.427   1.201  14.826 -0.0428  0.1695  0.0627
  141TCq2    C8 2154   4.382   1.429  14.878 -0.4286 -0.2796 -0.2374
  141TCq2    O4 2155   4.302   1.496  14.941 -0.2063 -0.5117  0.1120
  141TCq2    C9 2156   4.303   1.104  15.213  0.1846 -0.1155 -0.0478
  141TCq2    O5 2157   4.262   0.985  15.243 -0.6780 -0.0321  0.0149
  141TCq2    O6 2158   4.271   1.199  15.290  0.0427  0.0912  0.6917
  141TCq2    H2 2159   4.390   0.938  15.029  1.3865 -0.8721 -1.1973
  141TCq2    H3 2160   4.332   1.344  15.120 -2.8288 -1.8915 -0.3312
  141TCq2    H4 2161   4.427   1.229  14.721 -1.5118 -1.3367 -0.3479
  142MPD2     C 2162   1.783   3.498  10.484  0.2029 -0.5974 -0.1983
  142MPD2    C1 2163   1.778   3.529  10.351  0.1672 -0.8400  0.9532
  142MPD2    C2 2164   1.901   3.552  10.288 -0.0671 -0.6390 -0.0254
  142MPD2    C3 2165   2.022   3.543  10.355  0.5853 -0.1990  0.1985
  142MPD2    C4 2166   2.017   3.496  10.485  0.1097  0.5979 -0.1519
  142MPD2    C5 2167   1.901   3.483  10.550 -0.5909  0.7608 -0.5030
  142MPD2     H 2168   1.893   3.586  10.185  1.4014 -1.4134 -0.3952
  142MPD2    H1 2169   2.100   3.499  10.555  0.0132 -0.4505  0.0173
  142MPD2    H2 2170   1.689   3.492  10.537  0.1703 -0.1988 -0.2136
  142MPD2    H3 2171   1.913   3.452  10.653 -1.7287 -1.9986 -1.2014
  142MPD2     N 2172   2.146   3.551  10.288 -0.4667 -0.6162 -0.4282
  142MPD2    H5 2173   2.230   3.528  10.340 -0.5263  1.9911  0.8277
  142MPD2    N1 2174   1.655   3.522  10.287  0.5164 -0.3860  0.1683
  142MPD2    H7 2175   1.570   3.508  10.341 -0.6804 -1.5302 -1.9929
  143TCq2    C1 2176   2.166   3.631  10.183  0.0337 -0.1923 -0.9631
  143TCq2    O2 2177   2.085   3.714  10.132  0.0523 -0.7035  0.3003
  143TCq2    C2 2178   2.309   3.649  10.160  0.4296  0.2596  0.3074
  143TCq2    C3 2179   2.400   3.555  10.199  0.0727 -0.3873 -0.5676
  143TCq2    C4 2180   2.530   3.588  10.183  0.1816  0.5698 -0.2186
  143TCq2    C5 2181   2.577   3.716  10.159  0.3267 -0.1715  0.1059
  143TCq2    C6 2182   2.484   3.810  10.128  0.3564  0.7682 -0.4154
  143TCq2    C7 2183   2.346   3.779  10.121 -0.1391 -0.2162  0.2204
  143TCq2    C8 2184   2.520   3.949  10.158  0.1036  0.5285 -0.4583
  143TCq2    O4 2185   2.427   4.014  10.202  0.6778  0.1259 -0.0252
  143TCq2    C9 2186   2.623   3.482  10.215 -0.2450 -0.7148  0.2811
  143TCq2    O5 2187   2.580   3.369  10.248 -0.0909 -0.3009  0.0389
  143TCq2    O6 2188   2.743   3.509  10.214 -0.5609  0.0657 -0.5143
  143TCq2    H2 2189   2.374   3.454  10.230  0.1490 -0.7040 -1.5503
  143TCq2    H3 2190   2.685   3.720  10.146  0.4623 -2.8029  0.2950
  143TCq2    H4 2191   2.267   3.845  10.086 -0.6074 -0.9019  0.0014
  144MPD2     C 2192   4.631   2.957   0.613 -0.9433 -0.5257 -0.1075
  144MPD2    C1 2193   4.637   2.817   0.605 -0.0168  0.9008  0.0379
  144MPD2    C2 2194   0.017   2.753   0.678 -0.3406  0.2928  0.8282
  144MPD2    C3 2195   0.100   2.822   0.767 -0.2090  0.1787  0.1927
  144MPD2    C4 2196   0.063   2.947   0.802  0.1148  0.3702 -0.5421
  144MPD2    C5 2197   4.690   3.015   0.722  0.5433  0.0817 -0.9528
  144MPD2     H 2198   0.042   2.653   0.645  0.0578  0.6161  0.1580
  144MPD2    H1 2199   0.104   3.001   0.886 -1.8289  2.0173 -0.6520
  144MPD2    H2 2200   4.562   3.019   0.556 -0.0589 -0.2308 -0.8521
  144MPD2    H3 2201   4.667   3.119   0.743  0.4279 -0.4666  1.7635
  144MPD2     N 2202   0.214   2.764   0.838  0.4176  0.0434  0.5928
  144MPD2    H5 2203   0.256   2.814   0.915  1.3179 -0.8354  0.6753
  144MPD2    N1 2204   4.563   2.740   0.508 -0.1858 -0.8358 -0.0735
  144MPD2    H7 2205   4.595   2.648   0.480 -1.6618 -1.3097 -0.2119
  145TCq2    C1 2206   0.274   2.646   0.796  0.7627 -0.1859  0.5445
  145TCq2    O2 2207   0.258   2.582   0.692 -0.1263  0.3645 -0.4926
  145TCq2    C2 2208   0.392   2.627   0.874 -0.1773 -0.5316 -1.0078
  145TCq2    C3 2209   0.505   2.571   0.809 -0.8103  0.8161  0.2193
  145TCq2    C4 2210   0.628   2.574   0.878  0.4687  0.3478 -0.6107
  145TCq2    C5 2211   0.637   2.617   1.007  0.3680  0.0237 -0.2766
  145TCq2    C6 2212   0.527   2.670   1.065  0.9685  0.6138  0.9424
  145TCq2    C7 2213   0.402   2.662   1.008 -0.0427 -0.2420 -0.1139
  145TCq2    C8 2214   0.536   2.724   1.203  0.0568 -0.3136 -0.0924
  145TCq2    O4 2215   0.655   2.739   1.233 -0.3581  0.1591  0.2278
  145TCq2    C9 2216   0.742   2.515   0.811  0.0858  0.2077 -0.4220
  145TCq2    O5 2217   0.728   2.498   0.685 -0.1622  0.3433  0.1002
  145TCq2    O6 2218   0.835   2.461   0.878 -0.3520 -0.1791  0.0355
  145TCq2    H2 2219   0.507   2.537   0.706  0.0326 -2.2800  1.2561
  145TCq2    H3 2220   0.730   2.598   1.059  0.7550  2.3726 -0.0781
  145TCq2    H4 2221   0.306   2.683   1.054  1.2321  2.3638  1.3532
  146TMC2    C1 2222   0.917   1.493  12.351 -0.2549  0.1456 -0.6848
  146TMC2    C2 2223   0.836   1.506  12.245  0.0797 -0.1830  0.4049
  146TMC2    C3 2224   0.881   1.466  12.120  0.3231  0.1388 -0.1480
  146TMC2    C4 2225   1.042   1.445  12.333 -0.1831 -0.1732 -0.3440
  146TMC2    C5 2226   1.082   1.399  12.212  0.6326 -0.1704  0.5170
  146TMC2    C6 2227   1.011   1.423  12.098 -0.2213 -0.2147  0.4679
  146TMC2     C 2228   0.854   1.512  12.481 -0.6370  0.4829 -0.2244
  146TMC2     O 2229   0.735   1.545  12.484  0.4638 -0.0321  0.5139
  146TMC2     H 2230   0.743   1.557  12.263  0.0180 -0.6284  1.3452
  146TMC2    H1 2231   1.106   1.443  12.420 -1.4852  3.9453  0.7060
  146TMC2    H2 2232   1.051   1.397  12.000 -2.7036 -0.5361 -0.4692
  146TMC2    C7 2233   1.219   1.359  12.189  0.5187  0.6736 -0.5841
  146TMC2    C8 2234   0.794   1.483  12.003  0.5357  0.0986  0.4911
  146TMC2    O1 2235   1.261   1.378  12.075  0.5695  0.3216 -0.0944
  146TMC2    O2 2236   0.670   1.478  12.019  0.2922  0.2715 -0.5511
  146TMC2    O5 2237   0.868   1.542  11.909  0.4228  1.1030  0.2499
  146TMC2    H5 2238   0.958   1.569  11.939  1.0065 -0.3597 -0.1763
  147MPD2     C 2239   1.685   1.319  12.414 -0.4661  0.3696 -0.7750
  147MPD2    C1 2240   1.584   1.268  12.500  0.1726 -0.6131 -0.1224
  147MPD2    C2 2241   1.447   1.268  12.461 -0.8011  0.1875 -0.1313
  147MPD2    C3 2242   1.406   1.314  12.342 -0.1718 -0.3880 -0.5483
  147MPD2    C4 2243   1.505   1.351  12.252 -0.0199 -0.1948  0.3521
  147MPD2    C5 2244   1.640   1.353  12.289 -0.3284 -0.0615 -0.7328
  147MPD2     H 2245   1.379   1.214  12.526  0.9216 -3.3151 -1.2596
  147MPD2    H1 2246   1.485   1.378  12.148 -0.3599  0.6868  0.6451
  147MPD2    H2 2247   1.789   1.325  12.444 -0.4676 -1.8796 -0.3116
  147MPD2    H3 2248   1.719   1.374  12.217 -0.3334  2.5590 -0.0032
  147MPD2     N 2249   1.271   1.315  12.311 -0.1271 -0.2266  0.2583
  147MPD2    H5 2250   1.216   1.294  12.393 -2.6471 -2.9795 -2.1357
  147MPD2    N1 2251   1.628   1.211  12.620 -0.4954 -0.2376 -0.1868
  147MPD2    H7 2252   1.729   1.222  12.626 -0.4674 -0.4349 -0.3153
  148MPD2     C 2253   1.170   3.717  11.191 -0.7122  0.0231  0.1559
  148MPD2    C1 2254   1.171   3.819  11.106 -0.3118 -0.5484 -0.4339
  148MPD2    C2 2255   1.089   3.816  10.998  0.2799 -0.2853 -0.1229
  148MPD2    C3 2256   1.015   3.707  10.963  0.6712  0.2115  0.0892
  148MPD2    C4 2257   1.013   3.607  11.058  0.0682 -0.1527 -0.4138
  148MPD2    C5 2258   1.080   3.619  11.173 -0.1369 -0.3732  0.2216
  148MPD2     H 2259   1.084   3.909  10.942  2.2931  0.1103  0.3477
  148MPD2    H1 2260   0.937   3.530  11.056 -0.0496 -0.0384 -0.4110
  148MPD2    H2 2261   1.233   3.711  11.279  0.9115 -2.0503 -1.1475
  148MPD2    H3 2262   1.068   3.547  11.253 -1.0023 -0.0448  0.3846
  148MPD2     N 2263   0.959   3.680  10.838 -0.6457  0.2857  0.1945
  148MPD2    H5 2264   0.904   3.595  10.838  0.2844 -0.3170  0.7404
  148MPD2    N1 2265   1.270   3.921  11.118 -0.3404 -0.4810 -0.0092
  148MPD2    H7 2266   1.262   4.000  11.055 -0.4187  0.5475  1.2765
  149TCq2    C1 2267   1.379   3.934  11.198 -0.2064 -0.5162 -0.4963
  149TCq2    O2 2268   1.410   3.863  11.292 -0.5924 -0.3550  0.2354
  149TCq2    C2 2269   1.462   4.046  11.167 -0.4627 -0.3036  0.6776
  149TCq2    C3 2270   1.480   4.145  11.260 -0.9862 -0.0390  0.4889
  149TCq2    C4 2271   1.526   4.266  11.216 -0.3646  0.1387 -0.0278
  149TCq2    C5 2272   1.522   4.295  11.075 -0.0604  0.0750  0.1513
  149TCq2    C6 2273   1.520   4.190  10.985  0.7363 -0.1673  0.7533
  149TCq2    C7 2274   1.486   4.064  11.031  0.0051 -0.3051 -0.1476
  149TCq2    C8 2275   1.527   4.201  10.837 -0.7499  0.4567  0.5656
  149TCq2    O4 2276   1.534   4.097  10.775 -0.0976 -0.6425 -0.3979
  149TCq2    C9 2277   1.513   4.377  11.309  1.1035 -0.5376 -0.0394
  149TCq2    O5 2278   1.487   4.358  11.429  0.2277  0.3983 -0.4319
  149TCq2    O6 2279   1.547   4.485  11.263  0.3948  0.4400 -0.2669
  149TCq2    H2 2280   1.450   4.133  11.364 -1.1984 -1.2658  0.2913
  149TCq2    H3 2281   1.521   4.395  11.034  2.6550 -0.8609 -2.1465
  149TCq2    H4 2282   1.460   3.982  10.965 -0.2963 -1.2472  1.1272
  150MPD2     C 2283   2.814   3.881  12.437  0.0186 -0.0214 -0.3022
  150MPD2    C1 2284   2.773   3.976  12.345 -0.1802  0.1569 -0.1394
  150MPD2    C2 2285   2.859   4.071  12.294 -0.2184  0.0790 -0.0564
  150MPD2    C3 2286   2.989   4.080  12.343  0.5824  0.1331  0.3847
  150MPD2    C4 2287   3.026   3.986  12.436 -0.0187 -0.4326  0.3947
  150MPD2    C5 2288   2.944   3.882  12.477  0.2953  0.3884  0.2719
  150MPD2     H 2289   2.845   4.132  12.206 -0.3227  1.4805  0.9406
  150MPD2    H1 2290   3.124   3.995  12.480  1.6570  1.0810 -3.5748
  150MPD2    H2 2291   2.755   3.792  12.455 -0.1476  0.3722  1.0641
  150MPD2    H3 2292   2.975   3.810  12.552 -0.0614  1.6976  1.6789
  150MPD2     N 2293   3.077   4.179  12.300 -0.0348 -0.3469 -0.4211
  150MPD2    H5 2294   3.034   4.241  12.232  1.7301 -0.4640 -1.6359
  150MPD2    N1 2295   2.654   3.943  12.276  0.3660 -0.5291 -0.5954
  150MPD2    H7 2296   2.607   3.859  12.309 -0.5424  0.0169 -0.5241
  151TCq2    C1 2297   3.215   4.187  12.328  0.4760 -0.3067  0.0089
  151TCq2    O2 2298   3.274   4.108  12.396 -0.3348  0.0212 -0.1336
  151TCq2    C2 2299   3.285   4.288  12.257  0.3581 -0.0428  0.2128
  151TCq2    C3 2300   3.229   4.363  12.160 -0.2865  0.1716  0.2601
  151TCq2    C4 2301   3.298   4.442  12.078 -0.0118 -0.5212  0.7884
  151TCq2    C5 2302   3.427   4.460  12.097 -0.0628 -0.3384 -0.4036
  151TCq2    C6 2303   3.496   4.393  12.199  0.2283  0.0585  0.9979
  151TCq2    C7 2304   3.425   4.306  12.275 -0.8636  0.0064  0.7614
  151TCq2    C8 2305   3.627   4.441  12.233 -0.1234  0.0184  0.0273
  151TCq2    O4 2306   3.653   4.553  12.191 -0.3623 -0.0515  0.9650
  151TCq2    C9 2307   3.238   4.484  11.953 -0.3085 -0.0082 -0.3773
  151TCq2    O5 2308   3.298   4.577  11.887 -0.5113 -0.8738 -0.8720
  151TCq2    O6 2309   3.130   4.428  11.914  0.7346  0.2567  0.1256
  151TCq2    H2 2310   3.130   4.342  12.123 -0.0584  3.1372 -2.0325
  151TCq2    H3 2311   3.480   4.518  12.022  0.1950  0.8879  0.7240
  151TCq2    H4 2312   3.479   4.270  12.362  2.8496  1.2783 -1.0141
  152MPD2     C 2313   2.413   3.897  12.678 -0.3276  0.0750  0.4508
  152MPD2    C1 2314   2.459   4.011  12.616  0.3416 -0.7465  0.3222
  152MPD2    C2 2315   2.382   4.065  12.515  0.7550  0.4958 -0.3149
  152MPD2    C3 2316   2.252   4.028  12.503  0.3093  0.0259  0.1987
  152MPD2    C4 2317   2.205   3.919  12.576 -0.4108 -0.1745 -0.9676
  152MPD2    C5 2318   2.286   3.859  12.662 -0.5225  0.9318 -0.0926
  152MPD2     H 2319   2.423   4.141  12.449  0.5260  0.6816 -0.2436
  152MPD2    H1 2320   2.098   3.907  12.584 -0.3630  0.0490  0.0146
  152MPD2    H2 2321   2.460   3.847  12.763 -0.1424 -0.5292 -0.0090
  152MPD2    H3 2322   2.253   3.778  12.726  1.0370 -2.1351 -3.1376
  152MPD2     N 2323   2.181   4.094  12.408 -0.1626 -0.7165  0.0334
  152MPD2    H5 2324   2.225   4.172  12.360 -3.5226  1.4295  0.4329
  152MPD2    N1 2325   2.593   4.061  12.640 -0.1702  0.2237 -0.0626
  152MPD2    H7 2326   2.661   4.004  12.690 -0.1804  0.6314  0.4164
  153TCq2    C1 2327   2.636   4.186  12.614 -0.1468  0.2287 -0.0602
  153TCq2    O2 2328   2.593   4.276  12.537  0.4466  0.4591 -0.4666
  153TCq2    C2 2329   2.759   4.210  12.678  0.2245  0.4906 -1.0065
  153TCq2    C3 2330   2.779   4.148  12.794 -0.2166  0.7343 -0.2037
  153TCq2    C4 2331   2.906   4.164  12.852  0.0980  0.3959  0.7642
  153TCq2    C5 2332   3.011   4.232  12.790 -0.3122  0.4900 -0.3743
  153TCq2    C6 2333   2.985   4.287  12.667 -0.5400 -0.0477 -0.5006
  153TCq2    C7 2334   2.857   4.277  12.614  0.8552  0.1098 -0.3760
  153TCq2    C8 2335   3.080   4.389  12.619  0.8537 -0.5353  0.0138
  153TCq2    O4 2336   3.030   4.466  12.538  0.0194  0.0990  0.2210
  153TCq2    C9 2337   2.927   4.100  12.981 -0.0125  1.4481 -0.0381
  153TCq2    O5 2338   2.823   4.062  13.043  0.4252 -0.5513  0.3205
  153TCq2    O6 2339   3.045   4.074  13.006 -0.1637 -0.4103 -0.1695
  153TCq2    H2 2340   2.697   4.105  12.851 -0.1756  1.2042  0.2164
  153TCq2    H3 2341   3.104   4.243  12.844 -0.6356  0.2885  0.2290
  153TCq2    H4 2342   2.828   4.332  12.525 -0.0104  0.4635  0.1312
  154MPD2     C 2343   0.454   3.521   0.424 -0.0340  0.6049  0.3781
  154MPD2    C1 2344   0.379   3.516   0.538 -0.1772 -0.3094  0.5357
  154MPD2    C2 2345   0.274   3.610   0.552 -0.0888 -0.1015  0.1044
  154MPD2    C3 2346   0.229   3.687   0.448  0.7109 -0.0044  0.1898
  154MPD2    C4 2347   0.293   3.671   0.333 -0.0714 -0.0089 -0.3627
  154MPD2    C5 2348   0.398   3.582   0.319  0.4277 -0.5537 -0.1006
  154MPD2     H 2349   0.212   3.608   0.641  0.5314 -1.4543  0.5120
  154MPD2    H1 2350   0.269   3.716   0.237  1.0496  0.8662 -0.2219
  154MPD2    H2 2351   0.534   3.453   0.398  1.2785  2.3661 -0.1736
  154MPD2    H3 2352   0.449   3.574   0.223  1.9726 -0.4305  0.7094
  154MPD2     N 2353   0.107   3.762   0.460  0.0705 -0.0781  0.2379
  154MPD2    H5 2354   0.058   3.761   0.548  0.6736  1.4456  0.5870
  154MPD2    N1 2355   0.412   3.412   0.631 -0.2897  0.2261 -0.0723
  154MPD2    H7 2356   0.486   3.350   0.601 -0.8189 -0.2257 -0.4435
  155TCq2    C1 2357   0.352   3.386   0.753  0.3322  0.3098  0.1795
  155TCq2    O2 2358   0.275   3.453   0.817  0.1877 -0.1107 -0.1046
  155TCq2    C2 2359   0.412   3.274   0.827  0.1376  0.4790  0.0989
  155TCq2    C3 2360   0.333   3.234   0.931 -0.2998 -0.0751  0.1701
  155TCq2    C4 2361   0.367   3.115   0.990 -0.5181  0.0576 -0.9468
  155TCq2    C5 2362   0.478   3.048   0.971 -0.4243  0.0202 -0.1684
  155TCq2    C6 2363   0.566   3.099   0.877  0.2266  0.0114 -0.3571
  155TCq2    C7 2364   0.523   3.199   0.788  0.3929 -0.1679 -0.2713
  155TCq2    C8 2365   0.662   3.004   0.813 -0.1453 -0.2920 -0.2503
  155TCq2    O4 2366   0.666   3.006   0.690 -0.1374  0.2166  0.4661
  155TCq2    C9 2367   0.282   3.047   1.084  0.6332 -0.3113 -0.5092
  155TCq2    O5 2368   0.214   3.120   1.154  0.3199  0.9683  0.1980
  155TCq2    O6 2369   0.272   2.921   1.070 -0.2551 -0.5801 -0.4130
  155TCq2    H2 2370   0.241   3.284   0.957  0.3925  0.7293  1.0753
  155TCq2    H3 2371   0.488   2.949   1.014  0.3874 -0.6364 -1.8772
  155TCq2    H4 2372   0.597   3.230   0.715  2.1256 -1.4162  0.9376
  156MPD2     C 2373   3.678   1.355  11.809  0.6611  0.1711  0.3434
  156MPD2    C1 2374   3.548   1.400  11.784  0.3684 -0.2636 -0.2943
  156MPD2    C2 2375   3.480   1.480  11.869  0.1802  0.5036  0.2585
  156MPD2    C3 2376   3.543   1.532  11.980 -0.6053 -0.0035  0.3998
  156MPD2    C4 2377   3.673   1.500  12.007 -0.0179 -0.6077 -0.1999
  156MPD2    C5 2378   3.738   1.410  11.921 -0.8513 -0.3910  0.2800
  156MPD2     H 2379   3.377   1.510  11.851 -0.0147 -0.2656  0.0920
  156MPD2    H1 2380   3.727   1.525  12.097 -0.5310  1.2115 -0.3956
  156MPD2    H2 2381   3.745   1.303  11.743  3.4585  1.5236  2.1242
  156MPD2    H3 2382   3.832   1.367  11.953 -1.4710 -1.2916  0.8753
  156MPD2     N 2383   3.470   1.633  12.052  0.3980  0.2868 -0.1623
  156MPD2    H5 2384   3.373   1.654  12.030  0.5925  2.5894  1.1965
  156MPD2    N1 2385   3.490   1.342  11.668  0.0092  0.5513  0.2608
  156MPD2    H7 2386   3.549   1.273  11.624 -1.6581 -0.7492  0.0492
  157TCq2    C1 2387   3.361   1.369  11.622 -0.7929  0.2514 -0.5512
  157TCq2    O2 2388   3.277   1.450  11.658 -0.5060 -0.1092  0.3110
  157TCq2    C2 2389   3.314   1.289  11.512  0.4461 -1.1361 -0.5793
  157TCq2    C3 2390   3.375   1.167  11.493  0.7915 -0.1091 -0.4168
  157TCq2    C4 2391   3.314   1.073  11.408 -0.6612  0.8516  0.1339
  157TCq2    C5 2392   3.202   1.107  11.333 -0.3985 -0.0087 -0.0732
  157TCq2    C6 2393   3.147   1.237  11.354 -0.4406 -0.0904  0.8547
  157TCq2    C7 2394   3.197   1.327  11.446  0.3332 -0.5713 -0.6189
  157TCq2    C8 2395   3.009   1.263  11.309 -0.0531  0.2726 -0.1603
  157TCq2    O4 2396   2.943   1.167  11.272  0.2790 -0.3216 -0.1881
  157TCq2    C9 2397   3.374   0.945  11.396 -0.0081 -0.7182 -0.4467
  157TCq2    O5 2398   3.492   0.932  11.437  0.0780  0.3261  0.5930
  157TCq2    O6 2399   3.300   0.846  11.361 -0.3174 -0.4952 -0.4931
  157TCq2    H2 2400   3.454   1.131  11.558  0.6182  0.4939  0.1196
  157TCq2    H3 2401   3.161   1.035  11.263  0.1616 -1.0532  0.6771
  157TCq2    H4 2402   3.157   1.423  11.474  2.3750  0.7319 -2.1201
  158TMC2    C1 2403   3.924   0.602  13.768 -0.2079  0.2451  0.1762
  158TMC2    C2 2404   3.996   0.717  13.764 -0.0542 -0.5008  1.3451
  158TMC2    C3 2405   3.994   0.791  13.648 -0.5127  0.4543  0.2532
  158TMC2    C4 2406   3.847   0.560  13.657  0.5775 -0.4551 -0.1174
  158TMC2    C5 2407   3.837   0.650  13.553  0.3997  0.1694 -0.4637
  158TMC2    C6 2408   3.907   0.766  13.544  0.4802  0.4161 -0.2872
  158TMC2     C 2409   3.958   0.512  13.874  0.3182  0.2862 -0.3661
  158TMC2     O 2410   4.065   0.522  13.940  0.4895  0.2613  0.4861
  158TMC2     H 2411   4.070   0.737  13.841  0.8866  1.7203 -0.1429
  158TMC2    H1 2412   3.814   0.458  13.646 -0.2989 -0.1213 -0.6345
  158TMC2    H2 2413   3.936   0.802  13.446 -1.7973 -0.5187 -1.3231
  158TMC2    C7 2414   3.747   0.630  13.443  0.1932  0.3038 -0.2239
  158TMC2    C8 2415   4.133   0.822  13.607  0.0249 -0.4670 -0.2237
  158TMC2    O1 2416   3.745   0.709  13.355  0.0004 -0.5695  0.6523
  158TMC2    O2 2417   4.235   0.756  13.613 -0.2940  0.6974  0.2882
  158TMC2    O5 2418   4.112   0.916  13.509 -0.2327 -0.0370 -0.5130
  158TMC2    H5 2419   4.030   0.968  13.522 -0.0348  0.5441 -1.6025
  159MPD2     C 2420   3.894   0.056  14.098 -0.4005 -0.1272 -0.1508
  159MPD2    C1 2421   3.773   0.102  14.054 -0.2257  0.3007  0.4115
  159MPD2    C2 2422   3.761   0.217  13.986 -0.1067  0.0028 -0.8911
  159MPD2    C3 2423   3.870   0.294  13.969  0.0311  0.0093 -0.3775
  159MPD2    C4 2424   3.994   0.250  14.013 -0.2239  0.5004  0.7811
  159MPD2    C5 2425   4.006   0.134  14.078  0.7690 -0.3005  1.1639
  159MPD2     H 2426   3.662   0.244  13.949 -1.2111 -0.5218  1.6588
  159MPD2    H1 2427   4.093   0.296  14.006 -0.7397  1.7490  1.7103
  159MPD2    H2 2428   3.907   4.688  14.160 -1.2334 -1.1504 -1.4378
  159MPD2    H3 2429   4.103   0.099  14.110  0.5335 -0.0844  2.1096
  159MPD2     N 2430   3.857   0.415  13.884  0.2289  0.2322 -0.6350
  159MPD2    H5 2431   3.769   0.423  13.834 -0.1216  5.8341  0.8774
  159MPD2    N1 2432   3.662   0.030  14.107 -0.4368 -0.3236  0.3904
  159MPD2    H7 2433   3.693   4.668  14.159 -1.1784  0.3563  1.9058
  160TMC2    C1 2434   3.078   3.052   1.051  0.0219 -0.0154 -0.0402
  160TMC2    C2 2435   2.983   2.957   1.050  0.8117 -0.2249 -0.4143
  160TMC2    C3 2436   3.024   2.828   1.013  0.2447 -0.6693  0.4004
  160TMC2    C4 2437   3.204   3.036   1.007  0.3527  0.3096 -0.4180
  160TMC2    C5 2438   3.236   2.915   0.952 -0.3045  0.1175 -0.2417
  160TMC2    C6 2439   3.148   2.805   0.957 -0.1210  0.1193 -0.2403
  160TMC2     C 2440   3.029   3.176   1.107  0.0909 -0.2879 -0.1659
  160TMC2     O 2441   2.916   3.179   1.155  0.3031 -0.6568 -0.0477
  160TMC2     H 2442   2.883   2.977   1.087  0.1115 -0.1509 -2.3639
  160TMC2    H1 2443   3.261   3.123   0.976  0.4250  0.1916 -0.6130
  160TMC2    H2 2444   3.177   2.712   0.910 -0.3963 -0.2141  0.2526
  160TMC2    C7 2445   3.346   2.910   0.861 -0.1620  0.6110 -0.5839
  160TMC2    C8 2446   2.918   2.745   0.962 -0.0730 -0.4347 -0.6571
  160TMC2    O1 2447   3.338   2.822   0.777  0.1531  0.3336  0.3382
  160TMC2    O2 2448   2.919   2.727   0.840  0.4388  0.3788 -0.1252
  160TMC2    O5 2449   2.806   2.757   1.041  0.2233  0.4647  0.3301
  160TMC2    H5 2450   2.826   2.766   1.136  1.3303  1.3626  0.0035
  161MPD2     C 2451   3.207   3.497   1.163  0.0314 -0.0530 -0.1107
  161MPD2    C1 2452   3.096   3.417   1.149  0.3880  0.0652  0.0880
  161MPD2    C2 2453   2.966   3.464   1.164 -0.2138 -1.4162 -0.8976
  161MPD2    C3 2454   2.946   3.602   1.207  0.0966  0.0874 -0.5089
  161MPD2    C4 2455   3.063   3.678   1.213  0.3152  0.8896  0.2464
  161MPD2    C5 2456   3.183   3.632   1.183  0.1786 -0.0819  0.1283
  161MPD2     H 2457   2.877   3.403   1.150  0.3345 -1.3627 -4.6563
  161MPD2    H1 2458   3.065   3.782   1.243  1.1948  1.4621 -1.7920
  161MPD2    H2 2459   3.308   3.462   1.141  0.0319  0.5117 -1.0169
  161MPD2    H3 2460   3.271   3.696   1.182  0.1943 -0.1184 -1.7138
  161MPD2     N 2461   2.819   3.651   1.240  0.4824 -0.0289 -0.0774
  161MPD2    H5 2462   2.816   3.751   1.258  0.0800  0.4513 -2.8304
  161MPD2    N1 2463   3.121   3.279   1.109 -0.8110 -0.3220 -0.4128
  161MPD2    H7 2464   3.215   3.276   1.071 -0.6280 -2.1006  0.1717
  162TMC2    C1 2465   0.669   0.312   1.263 -0.0119  0.1610 -0.1022
  162TMC2    C2 2466   0.561   0.395   1.274 -0.7349  0.1839 -0.2241
  162TMC2    C3 2467   0.555   0.483   1.376  1.0023  0.8076  0.3090
  162TMC2    C4 2468   0.765   0.312   1.363 -0.5391 -0.1904 -0.3823
  162TMC2    C5 2469   0.763   0.411   1.458 -0.1672 -0.4039  0.0897
  162TMC2    C6 2470   0.657   0.500   1.467  0.8485 -0.7387 -0.3890
  162TMC2     C 2471   0.716   0.286   1.129 -0.0974  0.6998  0.0422
  162TMC2     O 2472   0.834   0.258   1.119  0.9424  0.4831  0.1457
  162TMC2     H 2473   0.466   0.378   1.224 -1.6493  1.7175  0.9928
  162TMC2    H1 2474   0.848   0.242   1.360 -0.7539 -0.3936 -1.4447
  162TMC2    H2 2475   0.650   0.573   1.547  1.1268 -1.9159  0.7169
  162TMC2    C7 2476   0.863   0.433   1.566  0.0855 -0.5455 -0.0689
  162TMC2    C8 2477   0.458   0.594   1.378 -0.1269  0.0415  0.0582
  162TMC2    O1 2478   0.847   0.527   1.639  0.1609  0.4715  0.0011
  162TMC2    O2 2479   0.433   0.660   1.280 -0.1462  0.2604 -0.1988
  162TMC2    O5 2480   0.413   0.618   1.504 -0.3989 -0.2348  0.3236
  162TMC2    H5 2481   0.430   0.550   1.573  0.3554  1.5248  1.8798
  163MPD2     C 2482   0.700   0.319   0.606  0.1590 -0.5909 -0.0560
  163MPD2    C1 2483   0.804   0.293   0.697 -0.1019  0.2448  0.2169
  163MPD2    C2 2484   0.776   0.291   0.834 -0.5183  0.7177  0.2751
  163MPD2    C3 2485   0.654   0.330   0.890  0.6653 -0.4533  0.4724
  163MPD2    C4 2486   0.561   0.377   0.797  0.1842  0.0943  0.5804
  163MPD2    C5 2487   0.584   0.363   0.659  0.0586  0.3456  0.1384
  163MPD2     H 2488   0.851   0.261   0.905 -1.5735  1.3864  1.6764
  163MPD2    H1 2489   0.471   0.427   0.832  0.0104 -0.4292  0.8832
  163MPD2    H2 2490   0.719   0.305   0.500  0.6433  2.1031 -0.3062
  163MPD2    H3 2491   0.505   0.379   0.587 -2.4145 -0.6835  2.6194
  163MPD2     N 2492   0.629   0.337   1.029 -0.2365 -0.5045 -0.8604
  163MPD2    H5 2493   0.532   0.352   1.051 -0.3723 -1.5142 -0.7765
  163MPD2    N1 2494   0.930   0.262   0.646  0.1763 -0.2969 -0.0812
  163MPD2    H7 2495   0.931   0.251   0.545  0.7648 -0.6326 -0.0381
  164TCq2    C1 2496   1.953   0.851  11.064 -0.7457  0.2561  0.2108
  164TCq2    O2 2497   2.042   0.908  11.130  0.3848 -0.3041  0.1659
  164TCq2    C2 2498   1.970   0.708  11.036  1.0074 -0.5997  0.2068
  164TCq2    C3 2499   2.086   0.649  11.080 -0.4153  0.2016  0.9770
  164TCq2    C4 2500   2.102   0.515  11.076  0.2772 -0.9783 -0.5004
  164TCq2    C5 2501   2.007   0.435  11.017 -0.6009  0.4466 -0.0510
  164TCq2    C6 2502   1.903   0.499  10.953  0.4910 -0.3581 -0.3523
  164TCq2    C7 2503   1.883   0.633  10.960  0.0736  0.2488 -0.2223
  164TCq2    C8 2504   1.789   0.412  10.912 -0.1217  1.1080  0.9523
  164TCq2    O4 2505   1.694   0.470  10.861 -0.2294 -0.3447  0.3139
  164TCq2    C9 2506   2.219   0.458  11.142  0.2801  0.3742 -0.5734
  164TCq2    O5 2507   2.299   0.541  11.193  0.5932  0.7683  1.0209
  164TCq2    O6 2508   2.237   0.334  11.134  0.3294 -0.4216  0.1005
  164TCq2    H2 2509   2.166   0.704  11.128  1.6827 -0.9436 -1.2201
  164TCq2    H3 2510   2.048   0.341  10.982  0.0275  1.0057 -0.8482
  164TCq2    H4 2511   1.784   0.677  10.950  0.0728  0.4938  0.8970
  165MPD2     C 2512   2.144   1.936   1.963  0.4917  0.0035 -0.2804
  165MPD2    C1 2513   2.166   1.942   1.830  0.1137 -0.3195 -0.4359
  165MPD2    C2 2514   2.245   2.044   1.776 -0.2856 -0.6793  0.3127
  165MPD2    C3 2515   2.291   2.138   1.863 -0.5765  1.0015  0.1842
  165MPD2    C4 2516   2.263   2.138   1.995  0.1069  0.4781 -0.3767
  165MPD2    C5 2517   2.200   2.029   2.046  0.0497 -1.0832 -0.1724
  165MPD2     H 2518   2.267   2.042   1.670  2.2713  1.5589  0.8132
  165MPD2    H1 2519   2.317   2.208   2.057  1.2218 -0.4188 -0.3282
  165MPD2    H2 2520   2.085   1.857   2.008  0.9642 -0.9559 -1.3557
  165MPD2    H3 2521   2.174   2.025   2.151  0.2398  1.1494 -0.0594
  165MPD2     N 2522   2.383   2.238   1.820  0.1439  0.4047 -0.1610
  165MPD2    H5 2523   2.415   2.302   1.892 -1.3269 -1.3804  2.0805
  165MPD2    N1 2524   2.116   1.839   1.748 -0.0865 -0.5722  0.4187
  165MPD2    H7 2525   2.057   1.772   1.795 -2.0588  1.5776  1.0275
  166TCq2    C1 2526   2.435   2.257   1.696  0.4320 -0.1011  0.1649
  166TCq2    O2 2527   2.425   2.192   1.590 -0.0983 -0.6531  0.0167
  166TCq2    C2 2528   2.482   2.391   1.687  0.6763  0.0577  0.5643
  166TCq2    C3 2529   2.438   2.488   1.774  0.5408  0.4462  0.4588
  166TCq2    C4 2530   2.497   2.609   1.762 -0.7600  0.0170  0.1253
  166TCq2    C5 2531   2.606   2.630   1.679 -0.3095  0.7010 -0.4129
  166TCq2    C6 2532   2.645   2.531   1.595 -0.1798  0.2044  0.6953
  166TCq2    C7 2533   2.585   2.411   1.598  0.5920  0.5157  0.2110
  166TCq2    C8 2534   2.762   2.553   1.519  0.1291  0.1422  0.8983
  166TCq2    O4 2535   2.838   2.648   1.544 -0.4289 -0.7333  0.2008
  166TCq2    C9 2536   2.444   2.718   1.834 -0.2271  0.6740 -0.7638
  166TCq2    O5 2537   2.345   2.701   1.910  0.1090 -0.0091  0.0432
  166TCq2    O6 2538   2.488   2.831   1.807 -0.5651  0.3701 -0.5106
  166TCq2    H2 2539   2.351   2.473   1.838  1.7802 -0.8726  1.8337
  166TCq2    H3 2540   2.646   2.731   1.686 -2.1652  1.4344 -0.3934
  166TCq2    H4 2541   2.607   2.324   1.537 -0.2077  0.1350  0.4635
  167TMC2    C1 2542   0.663   4.656  12.809 -0.0963  0.2793  0.4141
  167TMC2    C2 2543   0.603   4.714  12.919  0.2740 -0.1868  0.6263
  167TMC2    C3 2544   0.516   4.629  12.982 -0.7720  0.2259 -0.7177
  167TMC2    C4 2545   0.637   4.535  12.762  0.0573 -0.5894 -0.2876
  167TMC2    C5 2546   0.560   4.453  12.837 -0.8296 -0.1545 -0.3312
  167TMC2    C6 2547   0.495   4.500  12.950  1.0437 -1.7406 -1.3849
  167TMC2     C 2548   0.752   0.022  12.732  0.0139  0.1614 -0.4694
  167TMC2     O 2549   0.731   0.143  12.737 -0.0887 -0.0732 -0.3471
  167TMC2     H 2550   0.647   0.088  12.949  0.8921 -1.3588  3.3478
  167TMC2    H1 2551   0.694   4.513  12.673 -0.7465 -1.3032 -0.6218
  167TMC2    H2 2552   0.432   4.442  13.016 -0.7509 -0.7146 -2.1904
  167TMC2    C7 2553   0.510   4.331  12.778  0.6790  0.2246  0.5933
  167TMC2    C8 2554   0.454   4.678  13.109 -0.6669 -0.9492  0.8479
  167TMC2    O1 2555   0.402   4.290  12.822 -0.7831  0.4899 -0.3498
  167TMC2    O2 2556   0.376   4.616  13.181 -0.2218  0.0819  0.1623
  167TMC2    O5 2557   0.431   0.089  13.077  0.0984 -0.1918 -0.3014
  167TMC2    H5 2558   0.469   0.129  12.996  2.5664  0.2063  1.0805
  168MPD2     C 2559   0.962   0.159  12.560 -0.4262  1.0312  0.8354
  168MPD2    C1 2560   0.935   0.020  12.564 -1.3382  0.5745 -0.2382
  168MPD2    C2 2561   0.997   4.672  12.463  0.1348 -0.1294 -0.4618
  168MPD2    C3 2562   1.081   0.006  12.371 -0.3973 -1.3584 -0.6673
  168MPD2    C4 2563   1.108   0.142  12.377  0.2489 -0.3260 -0.0238
  168MPD2    C5 2564   1.047   0.222  12.468  0.4388 -0.3254  0.5710
  168MPD2     H 2565   0.970   4.567  12.459  2.4334 -0.7102 -0.9043
  168MPD2    H1 2566   1.172   0.183  12.300 -0.9264  1.7692  0.1159
  168MPD2    H2 2567   0.920   0.224  12.636 -1.9228 -0.5017  1.3211
  168MPD2    H3 2568   1.061   0.330  12.463 -0.4123 -0.1329  2.2981
  168MPD2     N 2569   1.133   4.648  12.268  0.3985  0.1408 -0.0505
  168MPD2    H5 2570   1.100   4.553  12.280  2.0726 -0.3032  0.8693
  168MPD2    N1 2571   0.844   4.675  12.651  0.1779 -0.0385  0.3140
  168MPD2    H7 2572   0.848   4.573  12.647  3.0081  0.1574 -1.5653
  169MPD1     C 2573   3.665   3.827  10.532  0.1044  0.1616  1.1242
  169MPD1    C1 2574   3.649   3.718  10.444 -0.7913 -0.5743  0.8309
  169MPD1    C2 2575   3.597   3.736  10.317  0.3363 -0.1219 -0.3082
  169MPD1    C3 2576   3.550   3.854  10.272 -0.2797  1.0304 -0.0370
  169MPD1    C4 2577   3.547   3.962  10.363 -0.3312 -0.0368  0.0186
  169MPD1    C5 2578   3.609   3.941  10.483  0.1980 -0.3408  0.1103
  169MPD1     H 2579   3.581   3.650  10.253  1.2421 -2.3799  2.5176
  169MPD1    H1 2580   3.495   4.057  10.355  0.0842  0.4753  3.1904
  169MPD1    H2 2581   3.713   3.804  10.626  0.2141  1.7023  1.4384
  169MPD1    H3 2582   3.604   4.026  10.550 -0.7469 -1.5295  1.5376
  169MPD1     N 2583   3.491   3.873  10.145 -0.4058  0.3569  0.4167
  169MPD1    H5 2584   3.489   3.788  10.091  0.6733  0.0417  0.8708
  169MPD1    N1 2585   3.704   3.587  10.471  0.3711 -0.4112  0.1877
  169MPD1    H6 2586   3.647   3.510  10.435 -1.7327  0.9715  0.6056
  169MPD1    H7 2587   3.708   3.575  10.572 -0.8025  1.4799  0.4592
  170MPD1     C 2588   1.979   1.676  13.206  0.0389  0.3992 -0.2350
  170MPD1    C1 2589   1.964   1.659  13.340  0.1870 -0.4192 -0.9172
  170MPD1    C2 2590   2.026   1.748  13.428 -0.2276 -0.1190 -0.4408
  170MPD1    C3 2591   2.101   1.855  13.378 -0.3152 -0.0135  0.4914
  170MPD1    C4 2592   2.115   1.865  13.236 -0.3381  0.6846 -0.7287
  170MPD1    C5 2593   2.071   1.765  13.157  0.3067  1.1041  0.0608
  170MPD1     H 2594   2.005   1.745  13.535  0.9476  2.5995 -0.1469
  170MPD1    H1 2595   2.182   1.934  13.185  2.1836  0.6241  2.4880
  170MPD1    H2 2596   1.920   1.622  13.133  0.1516 -0.3999  0.2653
  170MPD1    H3 2597   2.088   1.774  13.050  2.2779 -0.7817  0.2109
  170MPD1     N 2598   2.153   1.950  13.465  0.3486  0.4726  0.2421
  170MPD1    H5 2599   2.136   1.930  13.563 -0.3031 -0.6639 -0.1003
  170MPD1    N1 2600   1.862   1.573  13.387 -0.2626  0.2850  0.2285
  170MPD1    H6 2601   1.855   1.481  13.344  0.8529  0.8133 -1.0850
  170MPD1    H7 2602   1.862   1.570  13.489  0.7682 -0.8326  0.1887
  171MPD1     C 2603   0.817   3.288  15.201 -0.1084 -0.1460  0.5913
  171MPD1    C1 2604   0.840   3.354  15.317  0.1451 -0.1856  0.5272
  171MPD1    C2 2605   0.887   3.298  15.433 -0.3756 -0.0702  0.1255
  171MPD1    C3 2606   0.934   3.165  15.431 -0.9087 -0.0939 -0.5495
  171MPD1    C4 2607   0.918   3.104  15.312 -0.4109  0.3319 -0.2193
  171MPD1    C5 2608   0.865   3.164  15.199  0.2709 -0.0631 -0.2630
  171MPD1     H 2609   0.909   3.367  15.513  0.5772 -0.6609  0.3746
  171MPD1    H1 2610   0.934   2.997  15.302 -2.5909 -0.0195  0.1155
  171MPD1    H2 2611   0.772   3.334  15.113  0.6877  1.5377  1.0598
  171MPD1    H3 2612   0.863   3.111  15.104 -0.8414 -0.0431 -0.2438
  171MPD1     N 2613   0.972   3.093  15.551 -0.3263  0.6687  0.5386
  171MPD1    H5 2614   1.004   2.998  15.534  0.9671  1.4388 -1.2256
  171MPD1    N1 2615   0.792   3.483  15.319 -0.4342  0.2179 -0.0161
  171MPD1    H6 2616   0.799   3.528  15.227 -0.0253  1.1433  0.4613
  171MPD1    H7 2617   0.852   3.542  15.376  1.0270 -0.7054 -0.5850
  172MPD1     C 2618   0.161   2.123   0.169 -0.1638 -0.4035  0.6984
  172MPD1    C1 2619   0.077   2.221   0.134 -0.5804  0.2629  0.4541
  172MPD1    C2 2620   0.111   2.353   0.159 -0.3899  0.1702 -0.0310
  172MPD1    C3 2621   0.224   2.375   0.235  0.2109  0.6002 -0.1786
  172MPD1    C4 2622   0.305   2.270   0.269 -0.0616  0.4747 -0.5514
  172MPD1    C5 2623   0.277   2.147   0.229 -0.3081  0.1934  0.8410
  172MPD1     H 2624   0.044   2.431   0.124 -0.6036  0.2482  0.5545
  172MPD1    H1 2625   0.387   2.285   0.338 -0.8511  1.2453  0.2325
  172MPD1    H2 2626   0.134   2.019   0.154 -0.9663 -0.3614  1.8719
  172MPD1    H3 2627   0.333   2.059   0.260  1.0995  1.3840  1.7089
  172MPD1     N 2628   0.252   2.492   0.307 -0.0066  0.4906  0.5494
  172MPD1    H5 2629   0.325   2.486   0.377  0.1430  0.6417  0.4051
  172MPD1    N1 2630   4.684   2.188   0.049 -0.1032 -0.0257 -0.4330
  172MPD1    H6 2631   4.656   2.091   0.063 -3.0065  1.1182  1.6897
  172MPD1    H7 2632   4.597   2.240   0.058 -1.2402 -2.0661  0.3272
  173MPD1     C 2633   1.833   2.551  13.448 -0.5888  0.1256  0.4261
  173MPD1    C1 2634   1.707   2.551  13.492  0.3498 -0.2638  0.4888
  173MPD1    C2 2635   1.686   2.568  13.627 -0.1969 -0.1184 -0.1922
  173MPD1    C3 2636   1.795   2.582  13.709  0.4105 -0.7323  0.2867
  173MPD1    C4 2637   1.925   2.583  13.661  0.1036 -0.3920  0.5267
  173MPD1    C5 2638   1.941   2.579  13.528  0.2538  0.3398  0.1133
  173MPD1     H 2639   1.590   2.543  13.672  0.4343 -0.6717  0.8487
  173MPD1    H1 2640   2.002   2.599  13.737  0.6629  0.4460 -0.2121
  173MPD1    H2 2641   1.855   2.534  13.343  1.1446 -0.0484  0.8105
  173MPD1    H3 2642   2.039   2.590  13.484  0.4802 -0.8477  0.3192
  173MPD1     N 2643   1.762   2.593  13.845 -0.4323  0.2480  0.1736
  173MPD1    H5 2644   1.662   2.582  13.860 -0.5038 -2.4270 -2.3767
  173MPD1    N1 2645   1.602   2.516  13.406  0.0633  0.4960  0.0510
  173MPD1    H6 2646   1.624   2.560  13.317  0.2703  1.2668  0.4752
  173MPD1    H7 2647   1.510   2.555  13.430 -0.0300 -0.0668  0.6047
  174MPD1     C 2648   2.288   2.234  14.586  0.5198 -0.4090 -0.7623
  174MPD1    C1 2649   2.167   2.229  14.637  0.1037  0.6084  0.6458
  174MPD1    C2 2650   2.068   2.276  14.561 -0.6591  0.5446  0.0215
  174MPD1    C3 2651   2.089   2.335  14.436 -0.4858  0.2137 -0.7666
  174MPD1    C4 2652   2.217   2.336  14.382  0.3308  0.2506  0.4830
  174MPD1    C5 2653   2.317   2.283  14.463 -0.4196 -0.4787  0.0222
  174MPD1     H 2654   1.966   2.281  14.598 -1.4333  0.3717 -2.0793
  174MPD1    H1 2655   2.243   2.360  14.280 -1.1374  0.6000  0.1928
  174MPD1    H2 2656   2.369   2.206  14.654  1.3896 -1.0496 -2.0587
  174MPD1    H3 2657   2.420   2.290  14.430 -0.5702  0.5789 -0.2175
  174MPD1     N 2658   1.981   2.378  14.350 -0.0654 -0.4088  0.5934
  174MPD1    H5 2659   2.027   2.424  14.272  1.2082  0.0007  1.5891
  174MPD1    N1 2660   2.138   2.192  14.773  1.1616  0.0816 -0.2189
  174MPD1    H6 2661   2.067   2.121  14.788  1.6169 -0.2230  0.4838
  174MPD1    H7 2662   2.217   2.170  14.834 -0.0860  0.8874  1.6598
  175MPD1     C 2663   3.949   3.191  15.681 -1.0934  0.3530 -0.2024
  175MPD1    C1 2664   4.078   3.222  15.706 -0.5032 -0.4424  0.1677
  175MPD1    C2 2665   4.120   3.253  15.834 -0.0807  0.2167 -0.3004
  175MPD1    C3 2666   4.028   3.247  15.936  0.3768 -0.0503  0.1109
  175MPD1    C4 2667   3.904   3.190  15.917  0.2928 -0.1864  0.2193
  175MPD1    C5 2668   3.863   3.162  15.788 -0.1439  0.0787  0.4602
  175MPD1     H 2669   4.220   3.290  15.856  0.8407 -1.6820 -1.2169
  175MPD1    H1 2670   3.833   3.183  15.999  2.5345  2.2198  2.3686
  175MPD1    H2 2671   3.912   3.171  15.582  3.3459 -1.3244 -1.5279
  175MPD1    H3 2672   3.759   3.138  15.770  0.6217 -3.1622  0.3825
  175MPD1     N 2673   4.056   3.276  16.071  0.0725  0.4206  0.1054
  175MPD1    H5 2674   3.981   3.258  16.137  0.7315 -0.6396  0.5670
  175MPD1    N1 2675   4.155   3.251  15.588  0.1777 -0.0090 -0.2536
  175MPD1    H6 2676   4.254   3.242  15.608 -0.6907  2.8754  5.3751
  175MPD1    H7 2677   4.122   3.199  15.507 -2.9405 -0.7768  1.5112
  176MPD1     C 2678   1.747   0.463  16.493  0.6909 -0.0872 -0.5374
  176MPD1    C1 2679   1.813   0.563  16.562 -0.8100 -0.4075  0.5048
  176MPD1    C2 2680   1.739   0.638  16.655  0.2894 -0.3361  0.6872
  176MPD1    C3 2681   1.606   0.621  16.660 -0.6348 -0.7025 -0.5772
  176MPD1    C4 2682   1.537   0.532  16.580  0.2316  0.1686  0.3496
  176MPD1    C5 2683   1.613   0.453  16.503 -1.0123 -0.5388 -0.2179
  176MPD1     H 2684   1.792   0.709  16.717  0.5990 -1.5735  1.8389
  176MPD1    H1 2685   1.429   0.541  16.579  0.0269 -2.2441 -0.3440
  176MPD1    H2 2686   1.798   0.394  16.427  1.1350 -0.8626  0.6203
  176MPD1    H3 2687   1.566   0.372  16.448 -1.7653 -2.3560  3.0859
  176MPD1     N 2688   1.545   0.693  16.762 -0.3044  0.5466  0.4316
  176MPD1    H5 2689   1.611   0.761  16.799  0.9197 -0.2012 -0.3752
  176MPD1    N1 2690   1.954   0.558  16.580 -0.1821  0.8948 -0.0760
  176MPD1    H6 2691   2.002   0.644  16.607 -0.8531  0.7435  1.5959
  176MPD1    H7 2692   2.001   0.531  16.493  1.3622  1.5196  0.5633
  177MPD1     C 2693   3.541   0.180  10.246 -0.4392 -0.0011  0.0070
  177MPD1    C1 2694   3.482   0.100  10.148  0.4212 -0.3366 -0.0646
  177MPD1    C2 2695   3.540   0.093  10.022 -0.0791  0.1088  0.6628
  177MPD1    C3 2696   3.670   0.146   9.994  0.1891  0.4441 -0.2136
  177MPD1    C4 2697   3.733   0.215  10.096  0.6453 -0.3842  0.5063
  177MPD1    C5 2698   3.664   0.232  10.215  0.1107  0.2868 -0.4441
  177MPD1     H 2699   3.493   0.043   9.937  1.3611  2.0557 -1.2655
  177MPD1    H1 2700   3.832   0.259  10.093 -0.3167  1.8004  0.2516
  177MPD1    H2 2701   3.492   0.206  10.338  0.5369  0.3535  0.4305
  177MPD1    H3 2702   3.710   0.291  10.293 -0.4867 -0.0451  0.1644
  177MPD1     N 2703   3.724   0.131   9.865 -0.4483 -0.4408 -0.0482
  177MPD1    H5 2704   3.672   0.094   9.786 -1.1651  3.7670 -1.5289
  177MPD1    N1 2705   3.351   0.051  10.176  0.1140 -0.1538  0.0646
  177MPD1    H6 2706   3.339   0.001  10.264 -1.1733 -0.7450 -0.4565
  177MPD1    H7 2707   3.316   4.710  10.103  1.8519  0.0048 -0.9032
  178MPD1     C 2708   1.571   1.355   0.328  1.0035  0.0695  0.3183
  178MPD1    C1 2709   1.554   1.235   0.277 -0.1353  0.4763 -0.3735
  178MPD1    C2 2710   1.618   1.205   0.161 -0.0859 -0.3640  0.3555
  178MPD1    C3 2711   1.705   1.297   0.098  0.3183 -0.1827  0.2181
  178MPD1    C4 2712   1.722   1.420   0.157  0.5734  0.2075 -0.5208
  178MPD1    C5 2713   1.644   1.453   0.271 -0.3899  0.5528 -0.2412
  178MPD1     H 2714   1.615   1.102   0.128  1.5328  0.4940 -2.4972
  178MPD1    H1 2715   1.789   1.492   0.112  1.6161  0.1144  0.8544
  178MPD1    H2 2716   1.510   1.376   0.415 -0.5625 -3.7919  0.1600
  178MPD1    H3 2717   1.652   1.551   0.316  0.1837  0.8729 -1.0419
  178MPD1     N 2718   1.797   1.260  17.678 -0.2356  0.1924  0.6779
  178MPD1    H5 2719   1.868   1.331  17.665 -2.7402  2.7614  0.9803
  178MPD1    N1 2720   1.474   1.141   0.337 -0.8402  0.3388  0.2552
  178MPD1    H6 2721   1.398   1.177   0.394 -0.3940  0.1657  0.9670
  178MPD1    H7 2722   1.431   1.078   0.271 -2.1758 -0.0644  1.5216
  179MPD1     C 2723   1.656   4.536  16.314 -0.0585 -0.6358 -0.8649
  179MPD1    C1 2724   1.636   4.533  16.174  0.4984  0.0595  0.2110
  179MPD1    C2 2725   1.685   4.425  16.104  0.1336  0.5258  0.7629
  179MPD1    C3 2726   1.732   4.312  16.161  0.0339 -0.3821  0.8318
  179MPD1    C4 2727   1.758   4.317  16.297 -0.3587  0.5563 -0.1918
  179MPD1    C5 2728   1.728   4.427  16.375  0.3210  0.0106 -0.0313
  179MPD1     H 2729   1.672   4.425  15.997  2.1857 -0.2499  0.5071
  179MPD1    H1 2730   1.807   4.244  16.360 -0.9723  0.5932  0.3262
  179MPD1    H2 2731   1.627   4.621  16.374 -0.3795 -1.8348  0.6885
  179MPD1    H3 2732   1.737   4.431  16.483 -3.0348  0.0727  0.2433
  179MPD1     N 2733   1.772   4.194  16.091 -0.3377 -0.0132 -0.3211
  179MPD1    H5 2734   1.804   4.117  16.147 -0.0483 -0.4332 -1.0616
  179MPD1    N1 2735   1.559   4.628  16.108 -0.2505 -0.4569 -0.2334
  179MPD1    H6 2736   1.602   4.634  16.016 -0.7127 -1.1102 -0.4967
  179MPD1    H7 2737   1.540   4.717  16.152  1.5990  0.0533 -0.5010
  180MPD1     C 2738   1.539   1.422  15.205  0.5693  0.0332 -0.0308
  180MPD1    C1 2739   1.645   1.429  15.116  0.4521  0.1607 -0.4586
  180MPD1    C2 2740   1.644   1.341  15.009 -0.1408  0.7056  0.1478
  180MPD1    C3 2741   1.530   1.269  14.981 -0.1528 -0.1947  0.2769
  180MPD1    C4 2742   1.423   1.271  15.073 -0.1009  0.4298  0.1403
  180MPD1    C5 2743   1.428   1.347  15.186 -0.0784  0.5735  0.1054
  180MPD1     H 2744   1.732   1.336  14.946 -0.7989 -0.7828 -0.6423
  180MPD1    H1 2745   1.321   1.237  15.057 -0.3090  1.2543 -0.2724
  180MPD1    H2 2746   1.539   1.489  15.290  1.3494 -1.9235  1.5008
  180MPD1    H3 2747   1.335   1.352  15.242 -0.3232 -1.4413 -0.1190
  180MPD1     N 2748   1.521   1.206  14.860 -0.1290  0.4639 -0.4353
  180MPD1    H5 2749   1.608   1.207  14.808  1.3921 -2.0444  2.0231
  180MPD1    N1 2750   1.764   1.501  15.134  0.2007 -0.3381  0.0037
  180MPD1    H6 2751   1.750   1.594  15.174 -1.8676 -1.2511  1.4310
  180MPD1    H7 2752   1.812   1.515  15.046  1.5046 -2.4392  0.3807
  181MPD1     C 2753   2.569   1.778  10.272  0.0860 -0.6362 -0.5054
  181MPD1    C1 2754   2.577   1.888  10.351  0.0758  0.5166  0.7403
  181MPD1    C2 2755   2.685   1.976  10.342 -0.4535 -0.1225 -0.4069
  181MPD1    C3 2756   2.771   1.971  10.241 -0.2044  0.5550  0.3619
  181MPD1    C4 2757   2.757   1.865  10.149  0.2862  0.5832 -0.3454
  181MPD1    C5 2758   2.665   1.762  10.170  0.0289 -0.3008  1.1583
  181MPD1     H 2759   2.691   2.052  10.420  0.7939 -0.1460 -0.4773
  181MPD1    H1 2760   2.835   1.854  10.074 -0.4367 -1.2357 -0.8450
  181MPD1    H2 2761   2.514   1.690  10.301 -2.5026  0.3474 -2.4194
  181MPD1    H3 2762   2.674   1.672  10.110 -1.2494 -0.1596  0.7499
  181MPD1     N 2763   2.873   2.072  10.210  0.3290  0.0470  0.1889
  181MPD1    H5 2764   2.932   2.056  10.128  1.4736 -2.0734  1.4294
  181MPD1    N1 2765   2.510   1.885  10.474 -0.2339  0.0412 -0.1724
  181MPD1    H6 2766   2.419   1.839  10.472 -0.7983  1.1624 -0.4028
  181MPD1    H7 2767   2.498   1.973  10.523  1.2435 -0.3642  0.9083
  182MPD1     C 2768   0.057   1.277   0.659 -0.2361 -0.2036 -0.2300
  182MPD1    C1 2769   0.038   1.297   0.522 -0.5415 -0.3963 -0.8196
  182MPD1    C2 2770   4.674   1.402   0.483 -0.0214  0.2513 -0.1050
  182MPD1    C3 2771   4.622   1.489   0.575  0.2457 -0.3251  0.3128
  182MPD1    C4 2772   4.650   1.475   0.702 -0.3438  0.2827 -0.6454
  182MPD1    C5 2773   0.001   1.363   0.752  0.3304 -0.7511  0.3535
  182MPD1     H 2774   4.659   1.418   0.377 -0.0582  1.1501  0.0322
  182MPD1    H1 2775   4.619   1.551   0.773  0.3986 -0.2056  0.1971
  182MPD1    H2 2776   0.116   1.192   0.691  0.8700  1.0272  1.0769
  182MPD1    H3 2777   0.032   1.360   0.856  2.5390  0.6991 -0.2661
  182MPD1     N 2778   4.536   1.594   0.546 -0.9360 -0.0676 -0.1108
  182MPD1    H5 2779   4.513   1.652   0.626 -1.7315  0.0452 -0.4247
  182MPD1    N1 2780   0.080   1.202   0.429  0.6488  0.3317 -0.2414
  182MPD1    H6 2781   0.160   1.148   0.460  0.2321 -0.2370 -0.1612
  182MPD1    H7 2782   0.086   1.249   0.339 -1.9808 -2.9116 -2.1321
  183MPD1     C 2783   3.925   1.687   8.645 -0.3053 -0.1616 -0.1077
  183MPD1    C1 2784   3.839   1.770   8.706  0.8098  0.4369  0.2638
  183MPD1    C2 2785   3.858   1.789   8.839  0.3804 -0.8367  0.0124
  183MPD1    C3 2786   3.960   1.718   8.910  0.0435  0.3238  0.5023
  183MPD1    C4 2787   4.051   1.643   8.834 -0.6663 -0.4191  0.2549
  183MPD1    C5 2788   4.034   1.626   8.701  0.2600  0.0481  1.5161
  183MPD1     H 2789   3.793   1.859   8.891  0.1883 -0.9103 -0.1293
  183MPD1    H1 2790   4.141   1.599   8.875  0.1898 -1.1769 -2.4370
  183MPD1    H2 2791   3.907   1.675   8.538 -1.0667  3.5674 -0.4061
  183MPD1    H3 2792   4.101   1.568   8.637  1.1889  1.9062  0.8180
  183MPD1     N 2793   3.974   1.741   9.049  0.5770  0.0283 -0.5837
  183MPD1    H5 2794   3.910   1.796   9.106  0.3017  1.0391 -1.8618
  183MPD1    N1 2795   3.761   1.854   8.626  0.3858 -0.0926  0.3901
  183MPD1    H6 2796   3.688   1.900   8.680 -0.9025 -0.6392 -0.8773
  183MPD1    H7 2797   3.720   1.807   8.546  1.0318  0.2955 -0.1664
  184MPD1     C 2798   3.370   0.539  10.601 -0.0538 -0.4186  0.3109
  184MPD1    C1 2799   3.313   0.445  10.515 -0.8676 -0.7020  0.5974
  184MPD1    C2 2800   3.368   0.447  10.388  0.1753  0.1662  0.4215
  184MPD1    C3 2801   3.479   0.530  10.351  0.5473  0.6220  0.0331
  184MPD1    C4 2802   3.534   0.617  10.441  0.2145 -0.1621 -0.1633
  184MPD1    C5 2803   3.465   0.625  10.562  0.4679 -0.1277  0.1741
  184MPD1     H 2804   3.314   0.382  10.320  0.1543 -0.9420  1.4956
  184MPD1    H1 2805   3.616   0.683  10.418  0.0023  0.4578  0.8433
  184MPD1    H2 2806   3.334   0.541  10.703  1.6341  1.6252  0.8684
  184MPD1    H3 2807   3.488   0.710  10.625  0.3403 -1.5842  2.1814
  184MPD1     N 2808   3.526   0.533  10.221 -0.2469 -0.1035  0.2518
  184MPD1    H5 2809   3.619   0.571  10.208 -0.5187 -0.4308 -2.6580
  184MPD1    N1 2810   3.192   0.381  10.554 -0.0305 -1.1152  0.0042
  184MPD1    H6 2811   3.188   0.363  10.654 -1.7217 -1.4361 -0.1195
  184MPD1    H7 2812   3.183   0.292  10.505  0.3526  0.0701 -2.2062
  185MPD1     C 2813   3.225   4.676   9.447 -0.4419  0.1930  0.4427
  185MPD1    C1 2814   3.302   0.054   9.388  0.5641  0.4239 -0.3692
  185MPD1    C2 2815   3.340   0.147   9.477 -0.4872 -0.3804  0.1754
  185MPD1    C3 2816   3.328   0.138   9.611  0.1246  0.0767 -0.0717
  185MPD1    C4 2817   3.257   0.035   9.668  0.3633 -0.1411  0.0668
  185MPD1    C5 2818   3.211   4.663   9.581 -0.0895  0.0502  0.3798
  185MPD1     H 2819   3.395   0.229   9.432  0.1717 -1.3383 -0.7566
  185MPD1    H1 2820   3.225   0.025   9.772  0.4533  1.2145  0.2318
  185MPD1    H2 2821   3.184   4.597   9.384  0.6778  0.8220 -1.0689
  185MPD1    H3 2822   3.160   4.580   9.629  0.4219  0.2383  1.2412
  185MPD1     N 2823   3.388   0.235   9.700  0.2469  0.1448  0.5294
  185MPD1    H5 2824   3.355   0.230   9.796 -3.7983 -1.3750 -0.9517
  185MPD1    N1 2825   3.310   0.059   9.250 -0.6296 -0.3258 -0.2837
  185MPD1    H6 2826   3.295   4.685   9.215 -1.7606 -0.1416 -0.2807
  185MPD1    H7 2827   3.401   0.094   9.219 -0.8598  1.1719  0.7034
  186MPD1     C 2828   1.387   0.262  16.137  0.3095  0.4214 -1.1874
  186MPD1    C1 2829   1.504   0.311  16.074 -0.3444  0.0740  0.1473
  186MPD1    C2 2830   1.624   0.261  16.114  0.1390  0.1134  0.4595
  186MPD1    C3 2831   1.636   0.192  16.233  0.3434  0.1770 -0.0234
  186MPD1    C4 2832   1.522   0.152  16.295 -0.5093 -0.4919 -0.0069
  186MPD1    C5 2833   1.397   0.172  16.243  0.2472  0.5271  0.4034
  186MPD1     H 2834   1.713   0.289  16.059 -0.3778 -0.8002 -0.8416
  186MPD1    H1 2835   1.528   0.118  16.398  1.4660 -0.8378 -0.2453
  186MPD1    H2 2836   1.289   0.291  16.101 -0.0035  0.1846 -0.5342
  186MPD1    H3 2837   1.312   0.128  16.295  1.8868 -0.2904  2.3737
  186MPD1     N 2838   1.764   0.160  16.291  0.3701 -0.4911 -0.1500
  186MPD1    H5 2839   1.768   0.104  16.376 -2.1693  1.0930  1.0125
  186MPD1    N1 2840   1.498   0.382  15.951 -0.1128 -0.2607 -0.4971
  186MPD1    H6 2841   1.418   0.445  15.944  1.6617  2.1091  0.5325
  186MPD1    H7 2842   1.573   0.449  15.939 -1.2395  0.6354 -2.5281
  187MPD1     C 2843   0.919   1.628   0.340 -0.1055  0.0091 -0.2137
  187MPD1    C1 2844   0.986   1.742   0.366  0.2338  0.0216  0.0374
  187MPD1    C2 2845   0.984   1.836   0.264 -0.5305 -0.3704 -0.4586
  187MPD1    C3 2846   0.937   1.803   0.140 -0.2951 -0.8484  0.3658
  187MPD1    C4 2847   0.879   1.684   0.114 -0.1987  0.4904 -0.4466
  187MPD1    C5 2848   0.865   1.599   0.217 -0.0732 -0.1532 -0.5975
  187MPD1     H 2849   1.029   1.934   0.279  1.0949 -0.5899 -3.8955
  187MPD1    H1 2850   0.811   1.658   0.033 -1.6049  1.4071  0.4452
  187MPD1    H2 2851   0.910   1.551   0.416  2.5781 -2.1150 -2.0660
  187MPD1    H3 2852   0.800   1.514   0.198  0.9548 -0.7814 -1.3019
  187MPD1     N 2853   0.955   1.882   0.029 -0.3571  0.0906 -0.0527
  187MPD1    H5 2854   0.918   1.835  17.631  0.9573  0.3422 -0.7957
  187MPD1    N1 2855   1.036   1.763   0.496 -0.4189  0.2953 -0.0875
  187MPD1    H6 2856   1.117   1.824   0.501 -0.7326  0.8632 -2.1981
  187MPD1    H7 2857   1.051   1.673   0.542 -2.2055  0.7186  1.3263
  188MPD1     C 2858   0.340   1.507   9.298 -0.0961 -0.3240 -0.2619
  188MPD1    C1 2859   0.352   1.471   9.430  0.2858 -1.2719  0.3085
  188MPD1    C2 2860   0.428   1.362   9.458 -0.2384  0.1985  0.3514
  188MPD1    C3 2861   0.468   1.272   9.359  0.2263 -0.6835 -0.7814
  188MPD1    C4 2862   0.433   1.306   9.227  0.4544  0.2049  0.3792
  188MPD1    C5 2863   0.372   1.422   9.198  0.0007 -0.3549  0.3550
  188MPD1     H 2864   0.448   1.346   9.563  0.6896  1.1616  0.3230
  188MPD1    H1 2865   0.469   1.236   9.153  0.6436  2.0064 -1.2196
  188MPD1    H2 2866   0.287   1.598   9.273 -0.3085 -0.0869  1.0805
  188MPD1    H3 2867   0.348   1.451   9.097  0.0114 -1.6988 -0.0219
  188MPD1     N 2868   0.525   1.144   9.379 -0.0313 -0.4642 -0.1679
  188MPD1    H5 2869   0.542   1.082   9.300  1.6853  0.2306 -0.3370
  188MPD1    N1 2870   0.319   1.564   9.530  0.0166  1.0028  0.6634
  188MPD1    H6 2871   0.243   1.629   9.509 -2.7666 -2.7584 -1.0543
  188MPD1    H7 2872   0.261   1.506   9.590  1.8731 -1.2514  0.2466
  189MPD1     C 2873   2.552   1.824   0.440  0.0275 -0.4385 -0.8485
  189MPD1    C1 2874   2.429   1.770   0.396 -0.5942 -0.0401 -0.0930
  189MPD1    C2 2875   2.326   1.855   0.362  0.3638  0.1350 -0.9900
  189MPD1    C3 2876   2.343   1.993   0.356  0.0953  0.1864 -0.2163
  189MPD1    C4 2877   2.468   2.051   0.380  0.3703  0.0244 -0.0762
  189MPD1    C5 2878   2.566   1.964   0.424 -0.2309  0.3909  0.6096
  189MPD1     H 2879   2.229   1.817   0.332  0.0243 -0.6017  1.0540
  189MPD1    H1 2880   2.489   2.157   0.372  1.3127 -0.0911  0.9003
  189MPD1    H2 2881   2.619   1.760   0.496  2.5445  1.5213 -1.5897
  189MPD1    H3 2882   2.664   1.996   0.458  0.0636 -1.2808  1.3510
  189MPD1     N 2883   2.233   2.074   0.316 -0.1685  0.0779  0.6149
  189MPD1    H5 2884   2.142   2.030   0.305  0.6381 -2.1481  2.8976
  189MPD1    N1 2885   2.394   1.644   0.442 -0.2219 -0.1877  0.2358
  189MPD1    H6 2886   2.481   1.590   0.446 -0.0859  0.1164  1.5236
  189MPD1    H7 2887   2.328   1.588   0.389  0.3207 -0.5755 -0.0333
  190MPD1     C 2888   1.131   0.587  15.325  0.0049  0.2080 -0.0498
  190MPD1    C1 2889   1.163   0.640  15.443 -0.1441  0.5524  0.5183
  190MPD1    C2 2890   1.298   0.649  15.476 -0.1981  0.0020  0.2337
  190MPD1    C3 2891   1.396   0.618  15.383  0.5762 -0.0831  0.5535
  190MPD1    C4 2892   1.362   0.580  15.252 -0.2449 -0.2795  0.2140
  190MPD1    C5 2893   1.225   0.562  15.226 -0.2496  0.0597  0.2298
  190MPD1     H 2894   1.322   0.693  15.573 -1.4167  0.6259  0.2538
  190MPD1    H1 2895   1.432   0.553  15.174 -1.1248 -1.4993 -0.1545
  190MPD1    H2 2896   1.023   0.580  15.315 -0.3225  0.3398  3.5218
  190MPD1    H3 2897   1.193   0.537  15.126  0.0966  1.9542 -0.3559
  190MPD1     N 2898   1.531   0.635  15.427  0.4570 -0.0493  0.1499
  190MPD1    H5 2899   1.542   0.676  15.519  1.5684  0.1086 -0.0507
  190MPD1    N1 2900   1.059   0.663  15.538  0.3130  0.0069 -0.2129
  190MPD1    H6 2901   1.078   0.717  15.622 -0.8254 -2.2460  1.4946
  190MPD1    H7 2902   0.975   0.702  15.495  1.4128  0.2798 -2.1517
  191MPD1     C 2903   0.802   3.022  12.859  0.2318  0.4873 -0.0151
  191MPD1    C1 2904   0.763   3.038  12.726  0.0766  0.3526 -0.3159
  191MPD1    C2 2905   0.852   3.001  12.626 -0.2828 -0.3636  0.7091
  191MPD1    C3 2906   0.981   2.951  12.660 -0.0246 -0.0835  0.4313
  191MPD1    C4 2907   1.011   2.936  12.796  0.8354 -0.2463  0.2556
  191MPD1    C5 2908   0.923   2.969  12.895 -0.3092  1.2904 -0.7632
  191MPD1     H 2909   0.816   3.000  12.524  0.4813  1.5635  0.4102
  191MPD1    H1 2910   1.107   2.894  12.825  0.5556 -0.3295  1.0503
  191MPD1    H2 2911   0.742   3.063  12.939  2.0563 -0.6327  1.9129
  191MPD1    H3 2912   0.959   2.959  12.997 -0.8002 -0.7760 -0.7825
  191MPD1     N 2913   1.075   2.929  12.554  0.4711  0.1637  0.2665
  191MPD1    H5 2914   1.046   2.929  12.457 -0.3760 -2.1243  0.5232
  191MPD1    N1 2915   0.635   3.088  12.700 -0.5914  0.7051 -0.0736
  191MPD1    H6 2916   0.602   3.072  12.605  1.3648 -0.6502 -0.5294
  191MPD1    H7 2917   0.568   3.058  12.771  0.2491  0.1594  0.4833
  192MPD1     C 2918   0.771   2.706  11.868 -0.0924  0.3407 -0.4631
  192MPD1    C1 2919   0.890   2.730  11.810 -0.1543 -0.3866 -0.2198
  192MPD1    C2 2920   1.005   2.731  11.884  1.0295 -1.1442  0.1390
  192MPD1    C3 2921   0.991   2.701  12.027  0.6128 -0.4828 -0.3176
  192MPD1    C4 2922   0.870   2.666  12.077 -0.0129 -0.1807 -0.1063
  192MPD1    C5 2923   0.763   2.669  11.995  0.1524  0.1038  0.6299
  192MPD1     H 2924   1.094   2.763  11.831  0.1577 -0.6301 -0.9997
  192MPD1    H1 2925   0.851   2.646  12.182  2.1613 -0.2823  0.2864
  192MPD1    H2 2926   0.687   2.713  11.800 -0.4493 -0.4779 -0.1102
  192MPD1    H3 2927   0.665   2.645  12.034 -0.1802  1.5457  0.7007
  192MPD1     N 2928   1.097   2.713  12.118 -0.1748  0.0436  0.0218
  192MPD1    H5 2929   1.083   2.675  12.212  1.2220  0.2043  0.2955
  192MPD1    N1 2930   0.892   2.779  11.680 -0.5384  0.9608 -0.4128
  192MPD1    H6 2931   0.819   2.734  11.626  1.6675 -2.9561 -0.1240
  192MPD1    H7 2932   0.984   2.773  11.636  0.3254  1.5582  1.2896
  193MPD1     C 2933   0.649   3.021  15.862 -0.2020 -0.0273  0.2127
  193MPD1    C1 2934   0.620   3.134  15.938 -0.3649  0.2643  0.6459
  193MPD1    C2 2935   0.684   3.150  16.065 -0.6013 -0.1621  0.1844
  193MPD1    C3 2936   0.776   3.056  16.110  0.1696  0.7791 -0.5456
  193MPD1    C4 2937   0.798   2.943  16.037  0.2600  0.6999 -0.7199
  193MPD1    C5 2938   0.732   2.929  15.916 -0.8008  0.1250  0.2362
  193MPD1     H 2939   0.662   3.243  16.116 -0.8283  1.1253 -2.2969
  193MPD1    H1 2940   0.866   2.866  16.073 -1.9100 -1.6003 -1.5400
  193MPD1    H2 2941   0.608   2.998  15.765 -3.1852 -1.3689  1.7863
  193MPD1    H3 2942   0.749   2.837  15.861 -2.5986  1.4490 -2.4736
  193MPD1     N 2943   0.858   3.082  16.223  0.1390  0.0092 -0.3499
  193MPD1    H5 2944   0.935   3.018  16.242 -0.2242 -0.5950 -0.9049
  193MPD1    N1 2945   0.548   3.240  15.882  0.2732  0.5334 -0.2697
  193MPD1    H6 2946   0.486   3.198  15.813 -0.0537  1.1973 -0.3771
  193MPD1    H7 2947   0.477   3.280  15.944 -1.2561 -0.4655 -1.3793
  194MPD1     C 2948   3.444   0.957  16.600  0.6534 -0.6593  0.0535
  194MPD1    C1 2949   3.470   0.975  16.736  0.0084  0.2864 -0.1997
  194MPD1    C2 2950   3.537   0.871  16.796  0.3197  0.2060 -0.2613
  194MPD1    C3 2951   3.593   0.770  16.722 -1.0459 -0.2676 -0.2726
  194MPD1    C4 2952   3.577   0.756  16.586  0.4242  0.4741 -0.2799
  194MPD1    C5 2953   3.506   0.853  16.524  0.0934 -0.4400  0.6443
  194MPD1     H 2954   3.556   0.882  16.902 -0.8113  0.8616 -0.1288
  194MPD1    H1 2955   3.624   0.677  16.528 -0.1324  0.9968 -1.4333
  194MPD1    H2 2956   3.385   1.030  16.545 -0.2419 -2.0963 -0.8843
  194MPD1    H3 2957   3.484   0.851  16.418  0.0310 -0.8204  0.6635
  194MPD1     N 2958   3.673   0.670  16.779 -0.0375 -0.0926 -0.2360
  194MPD1    H5 2959   3.709   0.609  16.707  0.4718 -0.3462  0.2269
  194MPD1    N1 2960   3.392   1.073  16.806  0.3234 -0.0953  0.3292
  194MPD1    H6 2961   3.427   1.097  16.898 -0.0826  0.3682  0.3598
  194MPD1    H7 2962   3.383   1.154  16.745 -1.6547 -0.5503  0.0177
  195MPD1     C 2963   0.247   2.201  16.577 -0.6563  0.2587 -0.0267
  195MPD1    C1 2964   0.373   2.221  16.631  0.3921 -0.4408  0.2892
  195MPD1    C2 2965   0.416   2.139  16.736 -0.3121 -0.0748  0.9896
  195MPD1    C3 2966   0.336   2.027  16.772  0.7090 -1.1637  0.7375
  195MPD1    C4 2967   0.215   2.006  16.708  0.3979 -0.2093 -0.3662
  195MPD1    C5 2968   0.171   2.094  16.611  0.1292  0.3965  0.7374
  195MPD1     H 2969   0.515   2.151  16.777 -0.2666 -0.7157  1.0688
  195MPD1    H1 2970   0.170   1.910  16.731 -0.6967  0.3669 -0.1181
  195MPD1    H2 2971   0.212   2.261  16.494 -1.2127 -0.2468 -0.1612
  195MPD1    H3 2972   0.072   2.087  16.568 -0.2189  1.9682  1.2851
  195MPD1     N 2973   0.370   1.923  16.866 -0.1192  0.2651  0.2934
  195MPD1    H5 2974   0.318   1.836  16.865  0.2014  0.1353 -3.5057
  195MPD1    N1 2975   0.457   2.335  16.603 -0.4586  0.3828  0.6705
  195MPD1    H6 2976   0.557   2.320  16.620 -0.4842 -1.5344 -0.8445
  195MPD1    H7 2977   0.463   2.365  16.506  1.9466 -1.0173  0.3712
  196MPD1     C 2978   0.727   0.805   0.115 -0.5423  0.3527  0.6179
  196MPD1    C1 2979   0.764   0.935   0.082  0.3050  0.5775  0.0094
  196MPD1    C2 2980   0.800   1.026   0.181  0.7075  0.1244 -0.7240
  196MPD1    C3 2981   0.775   0.998   0.315  0.3584  0.0318 -0.4536
  196MPD1    C4 2982   0.722   0.874   0.349 -0.3359  0.4396 -0.0576
  196MPD1    C5 2983   0.709   0.777   0.248 -0.2558 -0.5907 -0.2240
  196MPD1     H 2984   0.850   1.120   0.160  0.5011  0.8660  1.9683
  196MPD1    H1 2985   0.686   0.847   0.448 -0.5836 -2.4832 -0.9388
  196MPD1    H2 2986   0.715   0.721   0.048 -0.4290  0.9079 -0.0987
  196MPD1    H3 2987   0.656   0.686   0.272 -1.0899 -0.4377 -1.5185
  196MPD1     N 2988   0.785   1.088   0.424  0.2132  0.2847  0.1939
  196MPD1    H5 2989   0.761   1.052   0.516  0.2073  0.9661  0.4593
  196MPD1    N1 2990   0.787   0.979  17.635  0.2191 -0.2314 -0.1164
  196MPD1    H6 2991   0.763   1.077  17.627 -0.3079 -0.2948  0.6945
  196MPD1    H7 2992   0.763   0.919  17.557 -0.7739 -0.8796  0.6831
  197MPD1     C 2993   0.096   3.680  17.554  0.3222  0.6835 -0.0896
  197MPD1    C1 2994   0.076   3.809  17.541 -0.5050  0.8253  0.7414
  197MPD1    C2 2995   4.714   3.853  17.445  0.0435 -0.4420  0.6716
  197MPD1    C3 2996   4.652   3.768  17.363 -0.1455  0.1607  0.0431
  197MPD1    C4 2997   4.673   3.635  17.373 -0.3109  0.1823  0.9344
  197MPD1    C5 2998   0.031   3.590  17.474 -0.0412 -0.3236  0.1274
  197MPD1     H 2999   4.706   3.961  17.435 -0.9624 -0.5804  0.0341
  197MPD1    H1 3000   4.635   3.580  17.288 -1.7142  1.6672  0.5975
  197MPD1    H2 3001   0.162   3.637  17.629  0.1618  0.4401 -0.0864
  197MPD1    H3 3002   0.071   3.490  17.477  1.6006  0.3631  0.9121
  197MPD1     N 3003   4.567   3.819  17.263 -0.4219 -0.2195 -0.4233
  197MPD1    H5 3004   4.533   3.742  17.207 -0.0851 -1.4953  1.1132
  197MPD1    N1 3005   0.154   3.895  17.614 -0.1681  0.5895 -0.0195
  197MPD1    H6 3006   0.099   3.978  17.636 -2.0957 -1.5080  2.9000
  197MPD1    H7 3007   0.170   3.849   0.018  0.3789  0.2329 -0.3001
  198MPD1     C 3008   1.879   1.472  15.892  0.1644 -0.0082  0.1652
  198MPD1    C1 3009   1.875   1.609  15.875 -0.1575  1.2277  0.1636
  198MPD1    C2 3010   1.816   1.677  15.987  0.0515  0.2115  0.0489
  198MPD1    C3 3011   1.787   1.613  16.109 -0.2970 -0.5100  0.3613
  198MPD1    C4 3012   1.804   1.475  16.114 -0.0039 -0.0991  0.6008
  198MPD1    C5 3013   1.845   1.406  16.010 -0.0648 -1.1287 -0.4536
  198MPD1     H 3014   1.798   1.784  15.986 -0.6391  0.1100  1.5787
  198MPD1    H1 3015   1.801   1.414  16.204  0.5298  0.3791  0.9456
  198MPD1    H2 3016   1.905   1.405  15.811  0.0972 -0.3272  0.4086
  198MPD1    H3 3017   1.864   1.299  16.011 -0.5349 -1.2280 -1.9385
  198MPD1     N 3018   1.742   1.701  16.212  0.4647 -0.3044 -0.7368
  198MPD1    H5 3019   1.767   1.797  16.194 -1.6620  0.5528  0.8733
  198MPD1    N1 3020   1.896   1.672  15.750 -0.2826  0.4172  0.4787
  198MPD1    H6 3021   1.957   1.619  15.688  1.6710  0.9819  1.8767
  198MPD1    H7 3022   1.921   1.770  15.762  0.0119  0.5280 -1.1318
  199MPD1     C 3023   3.173   2.161   9.727 -0.0436 -0.0036  0.7728
  199MPD1    C1 3024   3.265   2.261   9.718  0.2806 -0.2248  0.3029
  199MPD1    C2 3025   3.234   2.390   9.751 -0.2522  0.3650  0.6540
  199MPD1    C3 3026   3.106   2.425   9.790 -0.2643  0.4751 -0.0231
  199MPD1    C4 3027   3.015   2.323   9.811 -0.4332 -0.9964 -0.3689
  199MPD1    C5 3028   3.047   2.196   9.775 -0.0039 -0.2357 -0.1279
  199MPD1     H 3029   3.311   2.465   9.741 -0.2580  0.3033  0.1092
  199MPD1    H1 3030   2.921   2.340   9.862  0.3191 -0.9819  1.0406
  199MPD1    H2 3031   3.187   2.055   9.708  0.1991  0.4313 -1.5068
  199MPD1    H3 3032   2.971   2.119   9.783  0.4051 -0.4839  1.4865
  199MPD1     N 3033   3.066   2.549   9.840  0.1982 -0.4768 -0.1617
  199MPD1    H5 3034   2.972   2.553   9.877  0.6189  0.3924  0.8267
  199MPD1    N1 3035   3.383   2.233   9.642  0.3287  0.2993 -0.1562
  199MPD1    H6 3036   3.419   2.141   9.666 -1.8630 -0.9646 -1.7512
  199MPD1    H7 3037   3.460   2.299   9.657  1.0899 -0.5596 -0.2928
  200MPD1     C 3038   2.588   3.185  15.112  0.3053 -0.1104  0.1887
  200MPD1    C1 3039   2.524   3.156  14.989 -0.0129 -0.3000  0.4149
  200MPD1    C2 3040   2.593   3.177  14.874 -0.0854  0.4772 -0.6937
  200MPD1    C3 3041   2.713   3.261  14.876 -0.7396  0.6904  0.8860
  200MPD1    C4 3042   2.768   3.295  14.996 -0.6193 -0.1834 -0.6462
  200MPD1    C5 3043   2.706   3.247  15.108  0.6652  0.4842  0.1680
  200MPD1     H 3044   2.542   3.142  14.785 -1.7410  1.4963 -0.1428
  200MPD1    H1 3045   2.867   3.336  15.009  0.6906 -3.4110 -0.3836
  200MPD1    H2 3046   2.540   3.159  15.206  1.0705  0.7600  0.8148
  200MPD1    H3 3047   2.761   3.276  15.196 -0.3030  2.9055 -0.0109
  200MPD1     N 3048   2.773   3.289  14.753 -0.0212  0.3489 -0.0020
  200MPD1    H5 3049   2.729   3.246  14.672 -1.5001 -0.6423  1.3236
  200MPD1    N1 3050   2.411   3.073  14.986  0.0386 -0.4343  0.1416
  200MPD1    H6 3051   2.364   3.096  14.899 -0.3965 -1.1350  0.1916
  200MPD1    H7 3052   2.354   3.108  15.062 -0.3558  1.4954 -1.0381
  201MPD1     C 3053   4.659   2.310  13.517  0.6592 -0.1341  0.6011
  201MPD1    C1 3054   0.069   2.321  13.467  0.0384 -0.6405 -0.6367
  201MPD1    C2 3055   0.142   2.204  13.453  0.2392  0.1300 -0.5645
  201MPD1    C3 3056   0.080   2.079  13.462 -0.1647  0.0791 -0.0223
  201MPD1    C4 3057   4.668   2.073  13.510  0.2771  0.0777 -0.0734
  201MPD1    C5 3058   4.597   2.186  13.542 -0.0939  0.5092  0.2139
  201MPD1     H 3059   0.248   2.214  13.433  0.6431 -3.1686  0.0197
  201MPD1    H1 3060   4.620   1.977  13.526 -0.0590  0.1953 -0.3569
  201MPD1    H2 3061   4.613   2.403  13.550  0.4328  0.2791 -0.8968
  201MPD1    H3 3062   4.499   2.174  13.586 -0.4466 -2.2311 -1.3468
  201MPD1     N 3063   0.158   1.966  13.427  0.4711 -0.3230  0.8221
  201MPD1    H5 3064   0.256   1.976  13.405 -0.0185  1.5059 -0.5074
  201MPD1    N1 3065   0.129   2.450  13.460  0.0709  0.3972  0.1726
  201MPD1    H6 3066   0.064   2.526  13.448 -0.3976  0.2464  1.7249
  201MPD1    H7 3067   0.194   2.455  13.381 -0.3494 -1.2958 -0.2841
  202MPD1     C 3068   0.198   1.297   8.752  0.8602 -0.5394 -0.1807
  202MPD1    C1 3069   0.247   1.177   8.784 -0.3674 -0.1222 -0.3502
  202MPD1    C2 3070   0.224   1.138   8.915  0.3144 -0.6801 -0.9590
  202MPD1    C3 3071   0.128   1.201   8.999 -0.1027  0.0925 -0.5896
  202MPD1    C4 3072   0.070   1.310   8.942 -0.0681 -0.9900  0.6494
  202MPD1    C5 3073   0.101   1.357   8.817 -0.1664  0.4887 -0.1195
  202MPD1     H 3074   0.270   1.047   8.952  2.0588  0.5082 -0.2266
  202MPD1    H1 3075   0.007   1.370   9.006  0.2537  0.4906 -0.4128
  202MPD1    H2 3076   0.231   1.343   8.660  0.2869 -1.0700 -0.6556
  202MPD1    H3 3077   0.067   1.456   8.786 -2.2198 -0.3734 -0.6231
  202MPD1     N 3078   0.092   1.161   9.125 -0.1510 -0.0529 -0.3365
  202MPD1    H5 3079   0.014   1.209   9.168  1.1902  0.8248  1.1629
  202MPD1    N1 3080   0.368   1.131   8.717  0.1539 -0.4027 -0.1158
  202MPD1    H6 3081   0.364   1.158   8.619 -0.3996  1.2219  0.3623
  202MPD1    H7 3082   0.375   1.031   8.735 -2.7803 -0.4992  0.5338
  203MPD1     C 3083   3.314   2.790  12.614  0.0123  0.5873  0.3099
  203MPD1    C1 3084   3.290   2.659  12.563  0.2919  0.3506  0.1079
  203MPD1    C2 3085   3.393   2.568  12.569  0.1254  0.2682 -0.1136
  203MPD1    C3 3086   3.515   2.605  12.618  0.4534  0.4472  0.5905
  203MPD1    C4 3087   3.533   2.729  12.679 -0.1522  0.1450 -0.2813
  203MPD1    C5 3088   3.431   2.822  12.680 -0.1029 -0.1806  0.7474
  203MPD1     H 3089   3.374   2.466  12.537 -2.7290  0.7993 -0.1412
  203MPD1    H1 3090   3.632   2.760  12.709  0.4149 -1.9819  0.0311
  203MPD1    H2 3091   3.238   2.866  12.628 -0.3862 -0.2479  2.7789
  203MPD1    H3 3092   3.458   2.921  12.714  0.2971  0.3515 -1.1020
  203MPD1     N 3093   3.614   2.508  12.623 -0.9447  0.0695 -0.2672
  203MPD1    H5 3094   3.582   2.418  12.590 -2.1870  0.5048 -0.2450
  203MPD1    N1 3095   3.170   2.635  12.494 -0.1340  0.3041 -0.0612
  203MPD1    H6 3096   3.098   2.703  12.516  2.9307  2.4507  3.2599
  203MPD1    H7 3097   3.141   2.540  12.514 -0.6572  0.5030  0.1241
  204MPD1     C 3098   2.732   3.707   0.454 -0.0168  0.6090  0.1351
  204MPD1    C1 3099   2.773   3.573   0.461 -0.5255  0.3755  0.8138
  204MPD1    C2 3100   2.800   3.509   0.339 -0.0227  0.0764  0.1422
  204MPD1    C3 3101   2.780   3.560   0.218 -0.6427  1.1384 -0.4577
  204MPD1    C4 3102   2.740   3.690   0.214  0.0048 -0.3350 -0.3433
  204MPD1    C5 3103   2.719   3.762   0.327 -0.5148  0.4077 -0.4810
  204MPD1     H 3104   2.836   3.407   0.335 -0.7595 -0.1272 -1.1724
  204MPD1    H1 3105   2.728   3.748   0.124 -2.0853  1.4879  1.1315
  204MPD1    H2 3106   2.713   3.767   0.542  1.9845  1.3635  0.0478
  204MPD1    H3 3107   2.698   3.867   0.319  0.2094  0.5919  0.0280
  204MPD1     N 3108   2.814   3.479   0.106 -0.2612  0.0669 -0.4881
  204MPD1    H5 3109   2.833   3.384   0.137  1.8730  0.0265 -1.9325
  204MPD1    N1 3110   2.785   3.503   0.584  0.2526 -0.1060  0.9274
  204MPD1    H6 3111   2.719   3.528   0.657  0.2084  0.5274  0.6679
  204MPD1    H7 3112   2.781   3.403   0.565 -0.1880  0.1062 -0.0891
  205MPD1     C 3113   2.167   2.377  16.909 -0.4760  0.3784 -1.0627
  205MPD1    C1 3114   2.190   2.252  16.941  0.2503 -0.4618  0.2006
  205MPD1    C2 3115   2.285   2.226  17.042  0.0365  0.1114  0.7077
  205MPD1    C3 3116   2.331   2.325  17.124  0.3288 -0.0097  0.8959
  205MPD1    C4 3117   2.291   2.452  17.100 -0.2381 -0.4335  0.3791
  205MPD1    C5 3118   2.205   2.476  16.996 -0.4396  0.1799  0.0535
  205MPD1     H 3119   2.320   2.125  17.057  1.1112  0.8686  3.3161
  205MPD1    H1 3120   2.330   2.531  17.164 -3.5463  0.8364  0.8154
  205MPD1    H2 3121   2.107   2.402  16.822 -0.1069 -0.7515 -1.6365
  205MPD1    H3 3122   2.170   2.573  16.963 -2.0186 -0.2964  0.3347
  205MPD1     N 3123   2.416   2.282  17.226  0.4245 -0.0443 -0.5736
  205MPD1    H5 3124   2.456   2.188  17.227 -0.1693 -0.3124 -2.2674
  205MPD1    N1 3125   2.160   2.156  16.847 -0.1599 -0.0226 -0.2918
  205MPD1    H6 3126   2.069   2.178  16.808 -0.0343 -1.0680 -1.1566
  205MPD1    H7 3127   2.155   2.066  16.895  1.2030  1.0653  1.9187
  206MPD1     C 3128   4.011   0.736  16.358 -0.1807  0.0315 -0.5496
  206MPD1    C1 3129   4.046   0.609  16.314  0.5420  0.5033  0.0073
  206MPD1    C2 3130   3.939   0.535  16.259  0.1711 -0.5559  0.5357
  206MPD1    C3 3131   3.813   0.589  16.232  0.5213 -0.0722 -0.2450
  206MPD1    C4 3132   3.785   0.716  16.275 -0.0630 -0.0611  0.3498
  206MPD1    C5 3133   3.884   0.789  16.340  0.0363 -0.4636  0.4550
  206MPD1     H 3134   3.964   0.432  16.236 -0.8851 -0.2481 -1.9117
  206MPD1    H1 3135   3.690   0.767  16.264 -1.2503 -1.7361  2.8318
  206MPD1    H2 3136   4.083   0.793  16.415  1.3829 -1.9577 -0.5628
  206MPD1    H3 3137   3.857   0.885  16.382 -0.5553 -0.3350 -0.2147
  206MPD1     N 3138   3.707   0.520  16.178 -0.1682 -0.2115 -0.8477
  206MPD1    H5 3139   3.620   0.571  16.167  1.1485  2.0114 -0.7660
  206MPD1    N1 3140   4.157   0.536  16.357  0.0951 -0.2731 -0.4995
  206MPD1    H6 3141   4.245   0.586  16.371  0.4540 -0.9453 -0.3654
  206MPD1    H7 3142   4.178   0.463  16.289 -0.7606  0.0074 -1.0643
  207MPD1     C 3143   1.376   3.916   9.396 -0.2654  0.1468 -0.2755
  207MPD1    C1 3144   1.255   3.884   9.453  0.7324 -0.7634  0.3089
  207MPD1    C2 3145   1.262   3.816   9.575  0.3523  0.2386  0.0772
  207MPD1    C3 3146   1.381   3.799   9.645  0.6464 -0.2118 -0.3680
  207MPD1    C4 3147   1.494   3.848   9.588  0.5333  0.1674 -0.8685
  207MPD1    C5 3148   1.492   3.903   9.467 -0.1562 -0.1148 -0.2573
  207MPD1     H 3149   1.170   3.770   9.609  1.0908 -1.1243  0.2311
  207MPD1    H1 3150   1.593   3.830   9.627 -1.4152 -2.3717  2.9341
  207MPD1    H2 3151   1.369   3.958   9.297 -1.8097 -0.9171 -0.6129
  207MPD1    H3 3152   1.582   3.941   9.419  0.1960 -0.2338  0.3048
  207MPD1     N 3153   1.395   3.716   9.761  0.5815 -0.3320 -0.4209
  207MPD1    H5 3154   1.488   3.694   9.796  0.1171 -0.3788  0.8079
  207MPD1    N1 3155   1.138   3.889   9.377 -0.6493 -0.0651  0.2136
  207MPD1    H6 3156   1.051   3.894   9.430  1.2504  1.4405  3.1672
  207MPD1    H7 3157   1.128   3.957   9.302  1.4005  0.7932  0.7024
  208MPD1     C 3158   3.406   2.522  16.851  0.0273  1.0174 -0.5094
  208MPD1    C1 3159   3.325   2.437  16.929 -0.3518 -0.0157 -0.5194
  208MPD1    C2 3160   3.384   2.327  16.983 -0.1315  0.2652 -0.2043
  208MPD1    C3 3161   3.525   2.318  16.996 -1.0355 -0.2711  0.5904
  208MPD1    C4 3162   3.601   2.426  16.952 -0.2242  0.0843 -0.1885
  208MPD1    C5 3163   3.539   2.516  16.873  0.2975  0.1650  0.0635
  208MPD1     H 3164   3.318   2.247  17.015  1.4666 -0.8944  0.2013
  208MPD1    H1 3165   3.709   2.424  16.958 -0.2269  0.3486 -0.0633
  208MPD1    H2 3166   3.367   2.598  16.784 -0.1931  0.4246 -1.0540
  208MPD1    H3 3167   3.611   2.585  16.832 -1.5206  1.7933 -0.4009
  208MPD1     N 3168   3.572   2.199  17.059 -0.1211 -0.4110  0.0637
  208MPD1    H5 3169   3.499   2.132  17.079 -0.3048  0.3848  2.1676
  208MPD1    N1 3170   3.183   2.446  16.921  0.2202  0.1835 -0.7146
  208MPD1    H6 3171   3.156   2.413  17.013  3.1039  1.5662  0.6306
  208MPD1    H7 3172   3.156   2.544  16.917 -1.0129 -0.1575 -0.5593
  209MPD1     C 3173   0.642   2.168  10.175  0.2677 -0.8115  0.2692
  209MPD1    C1 3174   0.740   2.247  10.113  0.0253 -0.0373  0.1510
  209MPD1    C2 3175   0.832   2.314  10.193 -0.0937 -0.8557  0.3305
  209MPD1    C3 3176   0.807   2.335  10.329 -0.7060  0.5507 -0.1410
  209MPD1    C4 3177   0.699   2.262  10.383 -0.1114 -0.0998 -0.4698
  209MPD1    C5 3178   0.621   2.181  10.311  0.7131 -0.1140 -0.5578
  209MPD1     H 3179   0.915   2.370  10.151  1.1468 -2.2172  0.9496
  209MPD1    H1 3180   0.679   2.263  10.489 -1.1401  0.6088 -0.6726
  209MPD1    H2 3181   0.574   2.101  10.122 -1.3183  0.2225  0.9937
  209MPD1    H3 3182   0.545   2.124  10.363  0.5599  0.5924 -0.0124
  209MPD1     N 3183   0.902   2.412  10.403  0.5456 -0.5450 -0.2894
  209MPD1    H5 3184   0.975   2.455  10.346 -0.8090  0.9253 -0.9098
  209MPD1    N1 3185   0.760   2.239   9.970  0.4307  0.7565  0.6232
  209MPD1    H6 3186   0.815   2.316   9.935  1.0132  0.1378  0.1787
  209MPD1    H7 3187   0.670   2.232   9.923  0.7582  0.3306  0.0508
  210MPD1     C 3188   1.087   2.604  11.364 -0.1606 -0.0108  0.3154
  210MPD1    C1 3189   1.083   2.480  11.302  0.0372  0.6317 -0.5476
  210MPD1    C2 3190   1.076   2.491  11.162  0.2590  0.5232 -0.5594
  210MPD1    C3 3191   1.107   2.608  11.092 -0.3967 -0.3918 -0.9990
  210MPD1    C4 3192   1.133   2.726  11.166 -0.3848  0.7830 -0.2788
  210MPD1    C5 3193   1.119   2.720  11.299 -0.0822 -0.1061  0.0467
  210MPD1     H 3194   1.059   2.397  11.112  2.4093  1.3639 -2.8833
  210MPD1    H1 3195   1.161   2.820  11.120 -0.4881  1.1858  0.4806
  210MPD1    H2 3196   1.073   2.618  11.471  4.5305 -1.5485  1.0992
  210MPD1    H3 3197   1.139   2.802  11.367 -1.2337  1.4795 -1.5174
  210MPD1     N 3198   1.105   2.601  10.955  0.4201 -0.3761 -0.0897
  210MPD1    H5 3199   1.078   2.513  10.912 -1.4117  0.6283 -1.0060
  210MPD1    N1 3200   1.060   2.361  11.372 -0.6656 -0.0605 -0.1485
  210MPD1    H6 3201   0.988   2.297  11.339 -1.6815  0.5464  0.9229
  210MPD1    H7 3202   1.063   2.364  11.474 -0.2612 -1.2848 -0.1260
  211MPD1     C 3203   4.503   2.054  16.667 -0.0734  0.1707  0.9240
  211MPD1    C1 3204   4.478   2.173  16.595 -0.3812  0.0728 -0.4007
  211MPD1    C2 3205   4.361   2.176  16.525  0.5221 -0.2633 -0.5220
  211MPD1    C3 3206   4.261   2.075  16.538  0.1517  0.0664 -0.3151
  211MPD1    C4 3207   4.283   1.973  16.633 -0.4366 -0.5507 -0.1038
  211MPD1    C5 3208   4.400   1.963  16.699  1.2393  0.0546 -0.2247
  211MPD1     H 3209   4.342   2.254  16.452 -1.7539 -0.1236  0.2326
  211MPD1    H1 3210   4.215   1.893  16.660  0.5586 -1.2081  0.4553
  211MPD1    H2 3211   4.599   2.043  16.715  0.6546  1.0562 -0.3352
  211MPD1    H3 3212   4.429   1.888  16.771 -0.9267  0.6848  1.2957
  211MPD1     N 3213   4.132   2.092  16.482  0.4632  0.1767  0.7330
  211MPD1    H5 3214   4.122   2.173  16.422  1.6411 -0.1539  0.0869
  211MPD1    N1 3215   4.581   2.259  16.569  0.0261  0.7458  0.4134
  211MPD1    H6 3216   4.643   2.262  16.650 -1.9709 -0.8199  2.0043
  211MPD1    H7 3217   4.555   2.352  16.537  0.7085  1.5826  2.2829
  212MPD1     C 3218   3.178   0.387  16.336  0.2878 -0.3153  0.3703
  212MPD1    C1 3219   3.190   0.429  16.468  0.5442 -0.7766 -0.3506
  212MPD1    C2 3220   3.157   0.336  16.568 -0.0000  0.4540  0.2790
  212MPD1    C3 3221   3.095   0.215  16.546 -0.2343 -0.5658  0.5430
  212MPD1    C4 3222   3.070   0.184  16.414 -0.1109 -0.8116  0.8554
  212MPD1    C5 3223   3.119   0.263  16.312 -0.6271 -0.1766  0.5213
  212MPD1     H 3224   3.188   0.364  16.668 -0.2703 -0.0966  0.5208
  212MPD1    H1 3225   3.012   0.097  16.386 -1.2691  0.7333 -1.5034
  212MPD1    H2 3226   3.212   0.447  16.252 -0.2387  0.6243  0.8309
  212MPD1    H3 3227   3.112   0.229  16.209  0.8276 -1.2411  0.7739
  212MPD1     N 3228   3.059   0.134  16.657  0.1857 -0.0726  0.5436
  212MPD1    H5 3229   3.013   0.047  16.633 -1.2597  0.4684  1.3129
  212MPD1    N1 3230   3.252   0.547  16.506 -0.1618 -0.1657 -0.8953
  212MPD1    H6 3231   3.201   0.583  16.587 -0.7938 -2.6665 -0.1718
  212MPD1    H7 3232   3.247   0.615  16.431 -2.8709 -0.3843 -0.9222
  213MPD1     C 3233   0.603   0.736  14.961  0.6043 -0.1063  0.1145
  213MPD1    C1 3234   0.683   0.782  14.856  0.6670  0.1650  0.0353
  213MPD1    C2 3235   0.734   0.910  14.873  0.0590  0.0089  0.5175
  213MPD1    C3 3236   0.705   0.988  14.982  0.4647 -0.6157 -0.2066
  213MPD1    C4 3237   0.630   0.937  15.085 -0.4843  0.1994 -0.2618
  213MPD1    C5 3238   0.581   0.809  15.078  0.1637 -0.6090  0.0516
  213MPD1     H 3239   0.795   0.950  14.793  1.1544 -0.4015  1.1561
  213MPD1    H1 3240   0.614   0.995  15.175 -1.9121  0.2979 -0.5821
  213MPD1    H2 3241   0.584   0.630  14.964  0.5152 -0.1344 -1.6467
  213MPD1    H3 3242   0.508   0.780  15.153  0.4870  1.6683  1.2558
  213MPD1     N 3243   0.766   1.112  14.987 -0.3716  0.1123 -0.3912
  213MPD1    H5 3244   0.837   1.133  14.917  0.1395 -1.5495 -0.3691
  213MPD1    N1 3245   0.755   0.687  14.782  0.0765 -0.6209 -0.0172
  213MPD1    H6 3246   0.790   0.729  14.696  1.3117 -4.0023 -1.1426
  213MPD1    H7 3247   0.703   0.603  14.758 -0.8485 -0.6104  1.9103
  214MPD1     C 3248   0.245   1.885  14.849 -0.6297  0.2293  0.1643
  214MPD1    C1 3249   0.363   1.946  14.872 -0.8074 -0.0324 -0.5921
  214MPD1    C2 3250   0.474   1.871  14.910 -0.1779 -0.2270  1.5394
  214MPD1    C3 3251   0.460   1.730  14.917 -0.1501 -0.0700 -0.0574
  214MPD1    C4 3252   0.337   1.671  14.902 -0.8600  0.3645  0.5677
  214MPD1    C5 3253   0.235   1.745  14.853  0.2364 -0.4689  0.0948
  214MPD1     H 3254   0.564   1.922  14.941  0.8672 -1.0763 -0.1170
  214MPD1    H1 3255   0.328   1.564  14.916 -1.9897  0.3368 -0.3697
  214MPD1    H2 3256   0.155   1.939  14.824 -1.0330  0.2641  1.6720
  214MPD1    H3 3257   0.136   1.705  14.837  0.0955 -1.2443  3.0088
  214MPD1     N 3258   0.562   1.643  14.965  0.0308  0.3052  0.3619
  214MPD1    H5 3259   0.554   1.545  14.938 -0.0640  0.9490 -1.9130
  214MPD1    N1 3260   0.363   2.087  14.889 -0.6293 -0.3059 -0.0164
  214MPD1    H6 3261   0.446   2.131  14.850  1.0242 -1.1671  2.5490
  214MPD1    H7 3262   0.286   2.134  14.842 -1.4607 -2.8303 -1.2179
  215MPD1     C 3263   0.649   2.790   9.898  0.0278 -0.4515  0.1996
  215MPD1    C1 3264   0.529   2.843   9.935  0.1220  0.0535  0.4686
  215MPD1    C2 3265   0.483   2.801  10.058 -0.1229  0.6827 -0.2033
  215MPD1    C3 3266   0.560   2.731  10.146 -0.1036  0.7143  0.2134
  215MPD1    C4 3267   0.685   2.686  10.107  0.7095  0.3069 -0.3400
  215MPD1    C5 3268   0.724   2.714   9.978  0.4822 -0.0928 -0.3628
  215MPD1     H 3269   0.386   2.837  10.090  0.3408  2.4771 -0.7971
  215MPD1    H1 3270   0.744   2.636  10.183 -0.9590 -0.3417  0.5331
  215MPD1    H2 3271   0.689   2.804   9.798  0.9572  0.7038  0.7384
  215MPD1    H3 3272   0.820   2.681   9.941 -0.0428 -2.0691  0.0463
  215MPD1     N 3273   0.515   2.712  10.279  0.1627 -0.2563 -0.1925
  215MPD1    H5 3274   0.424   2.752  10.299  0.7073  1.8481 -1.9985
  215MPD1    N1 3275   0.441   2.904   9.849 -0.0003 -0.4386 -0.2562
  215MPD1    H6 3276   0.376   2.962   9.901 -1.5777 -2.5975  0.1793
  215MPD1    H7 3277   0.493   2.961   9.782 -3.3054  2.5648 -0.2397
  216MPD1     C 3278   3.175   4.529  16.284  0.0447  0.1228 -0.0976
  216MPD1    C1 3279   3.118   4.402  16.288 -0.0385  1.3881 -0.4157
  216MPD1    C2 3280   3.136   4.331  16.402 -0.2129  0.3918  0.2227
  216MPD1    C3 3281   3.189   4.391  16.520 -0.6119  0.6631 -0.4455
  216MPD1    C4 3282   3.230   4.522  16.517  0.5711 -0.7074 -0.5183
  216MPD1    C5 3283   3.228   4.587  16.403 -0.9084  0.4522 -0.2836
  216MPD1     H 3284   3.097   4.230  16.404  1.7960 -0.3892  0.4835
  216MPD1    H1 3285   3.273   4.576  16.601 -2.6078  1.6147 -0.3464
  216MPD1    H2 3286   3.186   4.589  16.195 -1.1385  0.4496 -0.0258
  216MPD1    H3 3287   3.270   4.685  16.388 -0.4891 -0.0212 -2.1647
  216MPD1     N 3288   3.194   4.304  16.633 -1.0190 -0.1430  0.6103
  216MPD1    H5 3289   3.178   4.208  16.606 -0.2088  0.0694 -0.6405
  216MPD1    N1 3290   3.055   4.341  16.175 -0.4838  0.2517  0.7193
  216MPD1    H6 3291   3.011   4.414  16.119  1.2906  1.6846  1.1687
  216MPD1    H7 3292   2.983   4.281  16.213  0.1958 -0.4623  0.8904
  217MPD1     C 3293   0.288   0.994   8.158  0.0078 -0.5023  0.1384
  217MPD1    C1 3294   0.197   1.095   8.130 -0.7297  0.1770 -0.2242
  217MPD1    C2 3295   0.099   1.129   8.233 -0.4772  0.3518 -0.0256
  217MPD1    C3 3296   0.092   1.066   8.351  0.3903 -0.3705 -0.5595
  217MPD1    C4 3297   0.185   0.964   8.371  0.0832  0.5102  0.3679
  217MPD1    C5 3298   0.288   0.935   8.283 -0.7955 -0.8050  0.2364
  217MPD1     H 3299   0.029   1.202   8.194  0.9688  1.6091 -0.2769
  217MPD1    H1 3300   0.198   0.915   8.467 -0.9089  1.2822  0.9046
  217MPD1    H2 3301   0.350   0.946   8.083 -1.2102 -2.4257  0.3363
  217MPD1    H3 3302   0.371   0.871   8.310  0.0287  0.1982  0.1000
  217MPD1     N 3303   4.709   1.087   8.446  0.0631 -0.3519  0.2209
  217MPD1    H5 3304   4.718   1.039   8.535  0.6326 -0.3163  0.1845
  217MPD1    N1 3305   0.206   1.162   8.009  0.2910 -0.2364 -0.0028
  217MPD1    H6 3306   0.114   1.166   7.966 -0.0526 -0.0993  0.7473
  217MPD1    H7 3307   0.257   1.106   7.941  0.6476  0.5009 -0.3408
  218MPD1     C 3308   4.311   1.512  13.141 -0.1053 -0.3854  0.3783
  218MPD1    C1 3309   4.278   1.562  13.016 -0.2378  0.2580  0.6923
  218MPD1    C2 3310   4.379   1.636  12.951 -0.0562  0.2204 -0.1464
  218MPD1    C3 3311   4.494   1.684  13.017 -0.4320  0.0345 -0.0850
  218MPD1    C4 3312   4.518   1.638  13.143  0.2117 -0.0736 -0.4061
  218MPD1    C5 3313   4.425   1.552  13.198  0.2383 -0.1243 -0.1932
  218MPD1     H 3314   4.361   1.662  12.847  0.2443  0.6722 -0.0830
  218MPD1    H1 3315   4.611   1.662  13.195  0.9538 -0.6175 -1.4937
  218MPD1    H2 3316   4.251   1.446  13.202 -0.0414 -0.5416  0.2717
  218MPD1    H3 3317   4.440   1.527  13.303  0.0868  1.1277  0.1269
  218MPD1     N 3318   4.572   1.773  12.948 -0.3587  0.0249  0.1829
  218MPD1    H5 3319   4.551   1.798  12.852  0.9030  1.4475  0.2699
  218MPD1    N1 3320   4.159   1.519  12.955 -0.1280  0.4618  0.1380
  218MPD1    H6 3321   4.096   1.490  13.030 -0.0462 -0.2268 -0.0558
  218MPD1    H7 3322   4.119   1.590  12.895 -1.7669 -0.1752  0.4785
  219MPD1     C 3323   4.505   2.556  12.361 -0.4601  0.0512 -0.9476
  219MPD1    C1 3324   4.440   2.435  12.376  0.4195  0.4288  0.6960
  219MPD1    C2 3325   4.500   2.339  12.460  0.0520 -0.2819 -0.4173
  219MPD1    C3 3326   4.614   2.373  12.533  0.1691  0.2546  0.1781
  219MPD1    C4 3327   4.666   2.503  12.513 -0.7007  0.1497 -0.2276
  219MPD1    C5 3328   4.616   2.595  12.434  0.1608  0.5870  0.4258
  219MPD1     H 3329   4.452   2.243  12.476  1.8071 -0.6049  2.8018
  219MPD1    H1 3330   0.035   2.537  12.564 -2.0095 -0.0148  2.1854
  219MPD1    H2 3331   4.469   2.636  12.298 -0.0556 -1.0439 -2.5708
  219MPD1    H3 3332   4.658   2.695  12.432 -0.1582  0.7316  0.9806
  219MPD1     N 3333   4.686   2.283  12.621  0.3041 -0.2675  0.3626
  219MPD1    H5 3334   0.048   2.328  12.661 -0.9781  0.8240  1.7988
  219MPD1    N1 3335   4.330   2.405  12.290  0.0473  0.5646 -0.1446
  219MPD1    H6 3336   4.260   2.337  12.320 -1.0598  2.2298  1.0610
  219MPD1    H7 3337   4.273   2.486  12.263 -1.3971  0.3474  2.2658
  220MPD1     C 3338   0.182   2.253   9.738  0.8920  1.2398  0.0006
  220MPD1    C1 3339   0.197   2.196   9.859 -0.1032 -0.4114  0.1271
  220MPD1    C2 3340   0.088   2.197   9.945 -0.0078 -0.6765 -0.4446
  220MPD1    C3 3341   4.688   2.266   9.922  0.3639  0.1379  0.1380
  220MPD1    C4 3342   4.677   2.320   9.796  0.3221  0.9741 -0.2015
  220MPD1    C5 3343   0.066   2.314   9.708 -0.3251  0.5936  0.4428
  220MPD1     H 3344   0.101   2.140  10.036 -0.9499  2.3791  1.5657
  220MPD1    H1 3345   4.586   2.357   9.749  0.1467  1.3895  0.4521
  220MPD1    H2 3346   0.268   2.259   9.672  0.4409 -1.3153 -0.7993
  220MPD1    H3 3347   0.051   2.365   9.614 -2.2026 -0.3934  0.2124
  220MPD1     N 3348   4.579   2.260  10.008 -0.2225 -0.0303  0.7257
  220MPD1    H5 3349   4.594   2.221  10.101  0.2377 -0.4481  0.4777
  220MPD1    N1 3350   0.308   2.117   9.889 -0.0059 -0.1433 -0.7791
  220MPD1    H6 3351   0.394   2.145   9.843  0.5852 -0.0634  0.3599
  220MPD1    H7 3352   0.319   2.111   9.991  2.3666 -0.6350 -1.0583
  221MPD1     C 3353   2.728   1.435  16.448 -0.6059  0.8924  0.2049
  221MPD1    C1 3354   2.766   1.563  16.485 -0.6311 -0.0940 -0.3523
  221MPD1    C2 3355   2.826   1.638  16.385  0.5248  0.6813  0.1570
  221MPD1    C3 3356   2.870   1.582  16.261  0.2875 -0.0895  0.6247
  221MPD1    C4 3357   2.854   1.445  16.241 -0.6421  0.1980  0.3571
  221MPD1    C5 3358   2.772   1.381  16.333 -0.0679  0.4530 -0.3544
  221MPD1     H 3359   2.844   1.741  16.412  0.6449  1.5114 -3.0905
  221MPD1    H1 3360   2.880   1.388  16.153 -1.3057 -0.3124  0.4904
  221MPD1    H2 3361   2.664   1.376  16.513 -0.6936 -0.9565 -1.5540
  221MPD1    H3 3362   2.744   1.279  16.311 -0.1379  0.2723  0.6005
  221MPD1     N 3363   2.938   1.655  16.163  0.5859 -0.4483  0.1149
  221MPD1    H5 3364   2.962   1.605  16.079 -0.2200 -0.8213  0.1056
  221MPD1    N1 3365   2.699   1.627  16.587  0.7496  0.2924 -0.3702
  221MPD1    H6 3366   2.683   1.568  16.669 -0.6017  0.3227 -0.6045
  221MPD1    H7 3367   2.762   1.702  16.614 -0.3067  0.3889  1.8963
  222MPD1     C 3368   3.463   4.659  17.017  0.3139  0.7076 -0.5468
  222MPD1    C1 3369   3.491   0.024  17.127 -0.3784 -0.6423  0.0439
  222MPD1    C2 3370   3.481   0.161  17.114  0.0013  1.3045 -0.4756
  222MPD1    C3 3371   3.427   0.215  16.995 -0.1378 -0.0485  0.2973
  222MPD1    C4 3372   3.408   0.130  16.888  0.2402  0.2471  0.4995
  222MPD1    C5 3373   3.421   4.710  16.899  0.3991  0.3125 -0.1406
  222MPD1     H 3374   3.497   0.223  17.202 -0.1893  0.3592  0.2262
  222MPD1    H1 3375   3.374   0.169  16.792  4.4867 -1.9250 -1.8699
  222MPD1    H2 3376   3.473   4.551  17.019 -1.1901  0.5711 -0.6131
  222MPD1    H3 3377   3.392   4.647  16.816 -1.7378  0.9108  0.1666
  222MPD1     N 3378   3.403   0.355  16.969  0.6154  0.4571 -0.1534
  222MPD1    H5 3379   3.368   0.376  16.876  1.2968  0.7262 -0.3454
  222MPD1    N1 3380   3.536   4.685  17.248  0.0560  0.1621 -0.1787
  222MPD1    H6 3381   3.501   4.594  17.279  0.0133 -0.3796 -1.8377
  222MPD1    H7 3382   3.527   0.028  17.327  4.1190 -1.0383  1.2883
  223MPD1     C 3383   2.952   1.035  16.431  0.0151  0.1499  0.1767
  223MPD1    C1 3384   3.041   1.104  16.498 -0.9457 -0.2536 -0.7631
  223MPD1    C2 3385   3.126   1.031  16.578 -0.5893 -0.0391  0.2262
  223MPD1    C3 3386   3.097   0.896  16.616 -0.6602  0.2451 -0.2215
  223MPD1    C4 3387   3.001   0.832  16.543 -0.2417 -0.1338 -0.5520
  223MPD1    C5 3388   2.942   0.900  16.441  0.2542 -0.7494  0.0243
  223MPD1     H 3389   3.203   1.082  16.634  0.0080 -0.3300 -0.3272
  223MPD1    H1 3390   2.998   0.724  16.544  0.9524 -0.1512  0.9590
  223MPD1    H2 3391   2.896   1.093  16.358 -1.8858 -0.1234  1.3892
  223MPD1    H3 3392   2.887   0.834  16.375  0.9275 -0.5024 -0.7767
  223MPD1     N 3393   3.157   0.850  16.735 -0.0927 -0.1815  0.0009
  223MPD1    H5 3394   3.228   0.908  16.779 -2.2515  1.8726  0.7528
  223MPD1    N1 3395   3.080   1.235  16.450 -0.3750  0.0979  0.1735
  223MPD1    H6 3396   3.004   1.283  16.400  0.9226  2.2215  0.2476
  223MPD1    H7 3397   3.141   1.294  16.505  2.2144 -0.9403 -1.6134
  224MPD1     C 3398   3.333   1.924   8.893 -0.0256 -0.0315  0.4019
  224MPD1    C1 3399   3.470   1.945   8.906  0.0640 -0.9621  0.7905
  224MPD1    C2 3400   3.538   1.888   9.016 -0.4533 -0.3862 -0.1428
  224MPD1    C3 3401   3.457   1.828   9.120  0.0808 -0.1946 -0.4219
  224MPD1    C4 3402   3.318   1.826   9.110 -0.2117 -0.8358 -0.1098
  224MPD1    C5 3403   3.256   1.877   8.995  0.1914 -0.2656 -0.1087
  224MPD1     H 3404   3.644   1.904   9.027 -0.6692  2.5297 -2.2544
  224MPD1    H1 3405   3.262   1.797   9.198 -0.2973 -1.1547 -0.2672
  224MPD1    H2 3406   3.280   1.945   8.800 -1.1933 -1.7517  0.6849
  224MPD1    H3 3407   3.149   1.877   8.976  0.2616 -1.4388 -0.4945
  224MPD1     N 3408   3.512   1.780   9.243 -0.1456 -0.7083 -0.1772
  224MPD1    H5 3409   3.443   1.759   9.314  2.2684  0.6550  2.6033
  224MPD1    N1 3410   3.547   1.998   8.802 -0.3149  0.4587 -0.3594
  224MPD1    H6 3411   3.509   2.071   8.743 -0.9232 -0.1991 -0.7827
  224MPD1    H7 3412   3.633   2.030   8.845  0.9042  0.6539 -2.9755
  225MPD1     C 3413   0.786   3.432  12.103  0.6581 -0.0451  0.2156
  225MPD1    C1 3414   0.705   3.341  12.173  0.0884  0.3939  0.4430
  225MPD1    C2 3415   0.577   3.317  12.136 -0.2563 -0.5938  0.2168
  225MPD1    C3 3416   0.513   3.394  12.036  0.5538 -0.0356  0.1927
  225MPD1    C4 3417   0.595   3.474  11.960 -0.2606 -0.5073  0.5115
  225MPD1    C5 3418   0.726   3.491  11.996 -0.2200 -0.6688 -0.4166
  225MPD1     H 3419   0.519   3.245  12.192 -2.0508  1.3432  0.8777
  225MPD1    H1 3420   0.548   3.532  11.882 -0.4000  0.5282  1.3659
  225MPD1    H2 3421   0.885   3.456  12.141  1.0125 -0.0156 -0.7227
  225MPD1    H3 3422   0.790   3.559  11.941  1.0439  0.0788  1.9460
  225MPD1     N 3423   0.380   3.380  11.994 -0.6325 -0.0132  0.0197
  225MPD1    H5 3424   0.344   3.430  11.913  2.9714  2.7363  0.1358
  225MPD1    N1 3425   0.750   3.289  12.302 -0.4687  0.0717  0.3520
  225MPD1    H6 3426   0.848   3.262  12.295 -0.6931 -1.1819  1.9849
  225MPD1    H7 3427   0.692   3.211  12.332  1.2710 -0.9686  0.9876
  226MPD1     C 3428   3.101   1.753   9.414 -0.2340  0.1206 -0.8250
  226MPD1    C1 3429   3.198   1.804   9.495  0.0441 -0.3613 -0.7005
  226MPD1    C2 3430   3.243   1.938   9.476  0.1047 -0.4022 -0.3376
  226MPD1    C3 3431   3.174   2.025   9.397 -0.0787  0.5535 -0.6205
  226MPD1    C4 3432   3.070   1.975   9.323 -0.3590  0.4589  0.3160
  226MPD1    C5 3433   3.038   1.842   9.331 -0.8473  0.0331  0.3382
  226MPD1     H 3434   3.323   1.982   9.534 -0.7821 -0.3071  0.8095
  226MPD1    H1 3435   3.016   2.029   9.247 -0.5060  0.9640  0.7807
  226MPD1    H2 3436   3.068   1.649   9.416  0.2317  0.0088  0.7545
  226MPD1    H3 3437   2.956   1.803   9.271 -0.9597  0.1094  0.4425
  226MPD1     N 3438   3.203   2.161   9.405  0.7253  0.2495 -0.8273
  226MPD1    H5 3439   3.285   2.193   9.454 -0.3347 -0.7313  1.5971
  226MPD1    N1 3440   3.255   1.727   9.596  0.0577  0.1166 -0.5922
  226MPD1    H6 3441   3.198   1.647   9.625 -1.3139  1.2009 -0.2517
  226MPD1    H7 3442   3.273   1.785   9.678 -3.1216 -2.9118  2.2803
  227MPD1     C 3443   2.871   3.200   9.545 -0.1153 -0.3077 -0.1546
  227MPD1    C1 3444   3.005   3.185   9.562  0.5342  0.7958 -0.1711
  227MPD1    C2 3445   3.065   3.067   9.540 -0.2606  0.6871  0.1170
  227MPD1    C3 3446   3.000   2.951   9.514  0.3871  0.2648  0.2921
  227MPD1    C4 3447   2.869   2.957   9.518  0.5667 -0.2343  0.0019
  227MPD1    C5 3448   2.802   3.079   9.525 -0.2995 -0.3068 -0.4919
  227MPD1     H 3449   3.173   3.077   9.536 -0.2615 -0.2173 -2.2896
  227MPD1    H1 3450   2.815   2.869   9.485  2.2531 -0.2643 -2.6990
  227MPD1    H2 3451   2.816   3.289   9.573 -0.1120 -0.0118 -1.1061
  227MPD1    H3 3452   2.694   3.072   9.514 -0.1745 -1.2041 -1.1143
  227MPD1     N 3453   3.076   2.836   9.492  0.1570  0.2303 -0.3970
  227MPD1    H5 3454   3.177   2.841   9.487  0.3205  0.0133  2.7097
  227MPD1    N1 3455   3.083   3.301   9.584 -0.1215  0.1628 -0.1302
  227MPD1    H6 3456   3.036   3.376   9.634  0.3938 -0.2952  1.0614
  227MPD1    H7 3457   3.178   3.285   9.618 -1.1450 -0.5324  2.3591
  228MPD1     C 3458   2.289   1.546  13.036 -0.1859 -0.7124 -0.0616
  228MPD1    C1 3459   2.233   1.547  12.908 -0.3750 -0.1692 -0.5128
  228MPD1    C2 3460   2.137   1.450  12.887  0.4647  0.3201 -0.3379
  228MPD1    C3 3461   2.087   1.378  12.990  0.3738 -0.3085 -0.8356
  228MPD1    C4 3462   2.148   1.382  13.117  0.4819 -0.4341  0.3201
  228MPD1    C5 3463   2.254   1.459  13.135  0.4286  0.2489 -0.3491
  228MPD1     H 3464   2.102   1.428  12.787  0.0803  3.1591 -0.8195
  228MPD1    H1 3465   2.113   1.330  13.206  1.1843 -1.3815  0.0332
  228MPD1    H2 3466   2.384   1.594  13.053 -0.5265  0.0869 -0.4023
  228MPD1    H3 3467   2.306   1.473  13.230 -0.0928 -0.6698  0.0703
  228MPD1     N 3468   1.980   1.294  12.954 -0.5202  0.0650  0.3512
  228MPD1    H5 3469   1.954   1.294  12.856 -1.4826  1.3383  0.6065
  228MPD1    N1 3470   2.290   1.616  12.797 -0.3792 -0.1834  0.2598
  228MPD1    H6 3471   2.217   1.638  12.730  2.6878 -0.0608 -3.0144
  228MPD1    H7 3472   2.332   1.705  12.824 -1.3650  1.0924 -2.4546
  229MPD1     C 3473   1.211   4.648  15.330  0.3298 -0.3437  0.5284
  229MPD1    C1 3474   1.263   4.642  15.451  0.4297  0.6922  0.2963
  229MPD1    C2 3475   1.398   4.620  15.461 -0.2820  0.8804 -0.0914
  229MPD1    C3 3476   1.472   4.596  15.352  0.6696 -0.0946 -0.1977
  229MPD1    C4 3477   1.422   4.593  15.225  0.1908  0.4920 -0.7576
  229MPD1    C5 3478   1.288   4.621  15.215  0.5549  0.6067  0.0666
  229MPD1     H 3479   1.442   4.639  15.559  1.8493 -0.9046 -0.6997
  229MPD1    H1 3480   1.480   4.569  15.137 -0.0994 -0.9820 -0.5576
  229MPD1    H2 3481   1.106   4.667  15.309  1.1827 -0.7053 -4.0088
  229MPD1    H3 3482   1.252   4.630  15.114  1.4796  1.0240 -0.2245
  229MPD1     N 3483   1.611   4.566  15.355  0.3392  0.3008  0.0980
  229MPD1    H5 3484   1.661   4.531  15.274  1.5811  0.1184  0.9421
  229MPD1    N1 3485   1.194   4.689  15.563  0.6951 -0.3465  0.4392
  229MPD1    H6 3486   1.097   4.660  15.558 -0.2225  2.9892 -1.1870
  229MPD1    H7 3487   1.236   4.659  15.651 -0.8386  1.5910  1.8507
  230MPD1     C 3488   2.181   4.329  16.180  1.4055  0.0164 -0.8245
  230MPD1    C1 3489   2.075   4.421  16.174 -0.3741 -0.3116  0.5072
  230MPD1    C2 3490   2.033   4.457  16.050  0.0707  0.5047  0.2668
  230MPD1    C3 3491   2.081   4.402  15.936 -0.5882  0.0032 -0.3604
  230MPD1    C4 3492   2.194   4.317  15.947 -0.2241 -0.0477 -0.0829
  230MPD1    C5 3493   2.242   4.278  16.064 -0.3878 -0.4205 -0.2807
  230MPD1     H 3494   1.956   4.532  16.040  0.2071  0.6634  0.4107
  230MPD1    H1 3495   2.247   4.270  15.865  0.9411  0.9898  0.0729
  230MPD1    H2 3496   2.218   4.280  16.269 -0.7227 -1.1034 -0.5417
  230MPD1    H3 3497   2.329   4.214  16.072  2.3128  3.3191  0.2103
  230MPD1     N 3498   2.024   4.444  15.810 -0.0812 -0.4109 -0.0864
  230MPD1    H5 3499   1.937   4.495  15.810  0.8663  1.2099 -1.4615
  230MPD1    N1 3500   2.019   4.478  16.289  0.1025 -0.3886  0.4531
  230MPD1    H6 3501   1.921   4.499  16.274  1.0320  2.5034 -1.5541
  230MPD1    H7 3502   2.032   4.420  16.372 -0.9877 -0.4671  0.5704
  231MPD1     C 3503   0.772   2.448  15.735 -0.0765 -0.3376 -0.2960
  231MPD1    C1 3504   0.841   2.333  15.709 -0.2058  0.4717 -0.2586
  231MPD1    C2 3505   0.886   2.325  15.584 -0.1135  0.0676  0.4619
  231MPD1    C3 3506   0.873   2.423  15.484 -0.0506 -0.3204 -0.3813
  231MPD1    C4 3507   0.825   2.545  15.517  0.2511  0.2133 -0.3639
  231MPD1    C5 3508   0.774   2.550  15.642  0.3263 -0.0289  0.1489
  231MPD1     H 3509   0.944   2.235  15.569  0.3298  0.7103 -1.5410
  231MPD1    H1 3510   0.812   2.634  15.457 -2.0240 -1.0403 -1.7734
  231MPD1    H2 3511   0.743   2.470  15.837 -2.2568 -2.3774 -0.4830
  231MPD1    H3 3512   0.738   2.645  15.681 -1.0900 -0.2683 -0.5478
  231MPD1     N 3513   0.937   2.402  15.361 -0.6187  0.5708 -0.2353
  231MPD1    H5 3514   0.974   2.309  15.345 -0.7687  0.2111  1.5518
  231MPD1    N1 3515   0.840   2.220  15.796  0.5049 -0.4924 -0.1672
  231MPD1    H6 3516   0.919   2.161  15.771  0.0453 -0.7248 -1.0704
  231MPD1    H7 3517   0.854   2.254  15.891  0.7842 -0.6216 -0.1620
  232MPD1     C 3518   0.542   4.280   1.359  0.3143 -0.1807 -0.4128
  232MPD1    C1 3519   0.675   4.240   1.351  0.0134  0.0762  0.5945
  232MPD1    C2 3520   0.749   4.279   1.251  0.1597  0.0561 -0.0573
  232MPD1    C3 3521   0.703   4.356   1.144  0.4136  0.6788 -0.1910
  232MPD1    C4 3522   0.569   4.396   1.156  0.8968  0.3338  0.0725
  232MPD1    C5 3523   0.492   4.361   1.263  0.2925  0.9426 -0.2127
  232MPD1     H 3524   0.854   4.254   1.252  0.5213  1.6185  1.1996
  232MPD1    H1 3525   0.530   4.453   1.072  2.1359  1.0291 -0.0325
  232MPD1    H2 3526   0.486   4.263   1.450 -0.2029 -1.8347 -1.0521
  232MPD1    H3 3527   0.392   4.402   1.257 -0.0006  0.5794  2.4281
  232MPD1     N 3528   0.789   4.390   1.040 -0.3120  0.3728 -0.2777
  232MPD1    H5 3529   0.888   4.368   1.045  0.2037  3.0276  1.4998
  232MPD1    N1 3530   0.732   4.175   1.461 -0.0488 -1.0017  0.0811
  232MPD1    H6 3531   0.826   4.139   1.448  0.6800  0.7865  0.3879
  232MPD1    H7 3532   0.672   4.120   1.523 -1.2720 -0.6972 -0.8320
  233MPD1     C 3533   3.184   2.352   1.502 -0.0656  0.0873  0.4030
  233MPD1    C1 3534   3.280   2.403   1.584  0.1639 -0.5109  0.5517
  233MPD1    C2 3535   3.413   2.355   1.554  0.2749 -0.3711  0.9246
  233MPD1    C3 3536   3.444   2.266   1.450  0.3088 -0.5645 -0.3912
  233MPD1    C4 3537   3.339   2.226   1.365 -0.3233  0.4460 -0.0302
  233MPD1    C5 3538   3.212   2.270   1.397  0.3181 -0.9812 -1.0971
  233MPD1     H 3539   3.494   2.387   1.618  1.2706 -2.9822  0.9789
  233MPD1    H1 3540   3.354   2.161   1.280 -0.4008  1.2702 -0.6734
  233MPD1    H2 3541   3.079   2.380   1.510 -0.9836 -2.9073 -1.0754
  233MPD1    H3 3542   3.127   2.233   1.340  1.9168 -0.4078 -3.8642
  233MPD1     N 3543   3.573   2.218   1.421  0.7283 -0.3952 -0.2721
  233MPD1    H5 3544   3.582   2.191   1.323  1.2747  2.4750 -1.0176
  233MPD1    N1 3545   3.246   2.468   1.702  0.3272 -0.1893  0.3659
  233MPD1    H6 3546   3.156   2.515   1.694  1.1061  1.4388  1.1460
  233MPD1    H7 3547   3.312   2.540   1.732  1.6410 -0.8190 -1.0131
  234MPD1     C 3548   0.071   0.374   9.961  0.8013 -0.6291  0.2712
  234MPD1    C1 3549   0.137   0.484   9.993 -0.6162 -0.0286  0.4852
  234MPD1    C2 3550   0.092   0.608   9.962  0.5014  0.5121  0.2679
  234MPD1    C3 3551   4.706   0.618   9.871 -0.1790 -0.4025  0.0323
  234MPD1    C4 3552   4.649   0.505   9.825  0.2883  0.8857  0.4393
  234MPD1    C5 3553   4.687   0.384   9.874 -0.0399  0.4372  0.2490
  234MPD1     H 3554   0.159   0.689   9.986  0.3910  0.4511  0.7880
  234MPD1    H1 3555   4.579   0.501   9.741  0.6682 -1.5931  0.2338
  234MPD1    H2 3556   0.099   0.271   9.982  0.8826 -0.9966 -1.5865
  234MPD1    H3 3557   4.648   0.296   9.823 -0.3702  1.2365 -0.8694
  234MPD1     N 3558   4.669   0.740   9.805  0.1103  0.0807 -0.5705
  234MPD1    H5 3559   4.609   0.731   9.724  0.3285 -0.7518 -0.6433
  234MPD1    N1 3560   0.242   0.473  10.085  0.3118  0.1880 -0.2138
  234MPD1    H6 3561   0.289   0.383  10.083 -0.0388 -0.0386  1.6239
  234MPD1    H7 3562   0.309   0.544  10.057 -1.0964  0.6678 -2.4165
  235MPD1     C 3563   1.341   3.586  10.918  0.1354 -0.8149 -0.3892
  235MPD1    C1 3564   1.449   3.662  10.948 -0.2351 -0.2254 -0.4947
  235MPD1    C2 3565   1.512   3.718  10.841  0.1376 -0.2147 -0.8706
  235MPD1    C3 3566   1.456   3.733  10.715 -0.2633  0.6493  0.4700
  235MPD1    C4 3567   1.340   3.664  10.692 -0.5520 -0.2109 -0.9689
  235MPD1    C5 3568   1.286   3.585  10.790 -0.3636 -0.1424 -0.5529
  235MPD1     H 3569   1.605   3.772  10.852  0.0945 -0.5083  0.8894
  235MPD1    H1 3570   1.282   3.670  10.600  2.5385  3.8565 -2.6714
  235MPD1    H2 3571   1.287   3.544  11.002  2.9747 -4.0813 -0.1973
  235MPD1    H3 3572   1.187   3.540  10.785 -0.3540 -0.2744  0.3368
  235MPD1     N 3573   1.529   3.811  10.621 -0.3770  0.4595 -0.4790
  235MPD1    H5 3574   1.603   3.865  10.667  2.3055 -2.4388 -1.3942
  235MPD1    N1 3575   1.502   3.664  11.081 -1.0593  0.9217  0.1037
  235MPD1    H6 3576   1.428   3.665  11.151 -1.4970  3.0676 -0.3923
  235MPD1    H7 3577   1.566   3.740  11.103 -0.3063  0.0953  0.7796
  236MPD1     C 3578   0.958   4.338  10.063  0.1524  0.3022 -0.7036
  236MPD1    C1 3579   0.886   4.234  10.021  0.3093 -0.0042 -0.2392
  236MPD1    C2 3580   0.843   4.140  10.109 -0.5088 -0.2473  0.0498
  236MPD1    C3 3581   0.892   4.139  10.239 -0.3255 -0.2134  0.2407
  236MPD1    C4 3582   0.970   4.243  10.278 -0.6444  0.1142  0.2218
  236MPD1    C5 3583   1.007   4.340  10.188 -0.4095  0.2047 -1.0673
  236MPD1     H 3584   0.779   4.062  10.070 -1.4589  0.5317  0.0572
  236MPD1    H1 3585   1.006   4.240  10.380  0.2716  0.5438 -0.0945
  236MPD1    H2 3586   0.997   4.413   9.995 -0.0835  0.1835 -0.9689
  236MPD1    H3 3587   1.074   4.419  10.218  2.0563 -2.5118  0.6271
  236MPD1     N 3588   0.884   4.040  10.333  0.0064 -0.4353 -0.4473
  236MPD1    H5 3589   0.918   4.062  10.426  1.3086  1.4562 -1.3821
  236MPD1    N1 3590   0.837   4.235   9.891 -0.8761  0.3427 -0.1053
  236MPD1    H6 3591   0.829   4.143   9.850  3.6494 -0.2012  0.2195
  236MPD1    H7 3592   0.898   4.285   9.826 -0.0384  1.0041  1.1798
  237MPD1     C 3593   0.601   2.870  15.505 -0.8493 -0.3529 -0.8024
  237MPD1    C1 3594   0.464   2.879  15.490  1.0705 -0.0333 -0.1999
  237MPD1    C2 3595   0.405   2.885  15.369  0.0960  0.1014  0.1781
  237MPD1    C3 3596   0.481   2.889  15.258  0.8102  0.2443  0.6706
  237MPD1    C4 3597   0.621   2.889  15.268  0.4615 -0.1605  0.1715
  237MPD1    C5 3598   0.676   2.881  15.396 -0.1150 -0.0104  0.1017
  237MPD1     H 3599   0.299   2.902  15.357  0.1232  0.1101 -0.0554
  237MPD1    H1 3600   0.686   2.892  15.182 -0.6483 -1.3608 -0.7056
  237MPD1    H2 3601   0.654   2.856  15.598  0.1567  0.0967 -1.3018
  237MPD1    H3 3602   0.783   2.887  15.412 -0.3833  2.3333  1.0133
  237MPD1     N 3603   0.434   2.889  15.129  0.0398 -0.5526  0.3366
  237MPD1    H5 3604   0.498   2.906  15.053 -1.6940 -0.7800 -1.1695
  237MPD1    N1 3605   0.384   2.865  15.603  0.0855 -0.0162 -0.5462
  237MPD1    H6 3606   0.395   2.773  15.646 -1.6645 -0.0734 -0.1933
  237MPD1    H7 3607   0.286   2.872  15.575 -0.6270 -1.7124  1.4360
  238MPD1     C 3608   2.679   1.756  15.037  0.0817 -0.6393 -0.5891
  238MPD1    C1 3609   2.598   1.694  15.127 -1.4299 -0.7273  0.3629
  238MPD1    C2 3610   2.507   1.595  15.093 -0.4320  0.0562 -0.0636
  238MPD1    C3 3611   2.488   1.562  14.959  0.1892  0.5727 -0.6083
  238MPD1    C4 3612   2.584   1.611  14.871  0.4842  0.1547 -0.1642
  238MPD1    C5 3613   2.675   1.705  14.909 -0.4860 -0.3080  0.3622
  238MPD1     H 3614   2.433   1.574  15.169 -1.1994 -0.2031 -0.8889
  238MPD1    H1 3615   2.586   1.570  14.771 -1.4522  2.0228 -0.9722
  238MPD1    H2 3616   2.730   1.850  15.058  0.9298 -1.1833 -0.2404
  238MPD1    H3 3617   2.722   1.768  14.834  0.1995 -3.7956 -2.1272
  238MPD1     N 3618   2.380   1.492  14.907  0.3005  0.2051 -0.5163
  238MPD1    H5 3619   2.366   1.467  14.809  0.8872  0.3828 -0.6495
  238MPD1    N1 3620   2.584   1.758  15.255 -0.1624 -0.6308  0.4337
  238MPD1    H6 3621   2.540   1.694  15.321 -1.9495  1.7687  1.5325
  238MPD1    H7 3622   2.677   1.794  15.276 -0.3545 -1.7911  3.2168
  239MPD1     C 3623   2.435   2.527  15.206  0.1857 -0.2831 -0.6719
  239MPD1    C1 3624   2.310   2.560  15.161 -0.3054  0.3972 -0.5449
  239MPD1    C2 3625   2.283   2.556  15.027  0.1431  0.3564 -1.2059
  239MPD1    C3 3626   2.385   2.555  14.931 -0.4590 -0.3056 -0.0680
  239MPD1    C4 3627   2.512   2.534  14.988  0.3985 -0.1527  0.3641
  239MPD1    C5 3628   2.538   2.511  15.122 -0.2343 -0.3099  0.3825
  239MPD1     H 3629   2.180   2.557  14.994 -0.1872 -2.6682 -0.2733
  239MPD1    H1 3630   2.599   2.532  14.923 -0.4823  2.3314 -0.8772
  239MPD1    H2 3631   2.456   2.519  15.312 -1.5316  1.2649 -0.1963
  239MPD1    H3 3632   2.639   2.492  15.157  1.1984  0.0963 -3.5425
  239MPD1     N 3633   2.350   2.580  14.796 -0.1802  0.2658  0.4644
  239MPD1    H5 3634   2.250   2.573  14.779 -0.2968  1.2626  0.7158
  239MPD1    N1 3635   2.209   2.563  15.262 -0.4261  0.1245  0.0588
  239MPD1    H6 3636   2.127   2.616  15.235  0.3700  1.7432  0.8392
  239MPD1    H7 3637   2.243   2.592  15.353 -1.9586  1.2615  0.2730
  240MPD1     C 3638   1.975   2.237  13.954  0.4479 -0.4730  0.2522
  240MPD1    C1 3639   1.845   2.216  13.982 -0.6834  0.1125  1.1070
  240MPD1    C2 3640   1.803   2.135  14.090  0.7162 -0.2718  1.1681
  240MPD1    C3 3641   1.895   2.082  14.178 -0.0883 -0.1568  0.3089
  240MPD1    C4 3642   2.029   2.099  14.150 -0.2886  0.1283  0.4612
  240MPD1    C5 3643   2.055   2.193  14.051 -0.7218 -0.0157 -0.0822
  240MPD1     H 3644   1.696   2.121  14.101  0.8772 -2.1712  0.2911
  240MPD1    H1 3645   2.101   2.060  14.221  1.0603  2.4993  0.3980
  240MPD1    H2 3646   2.011   2.290  13.866 -1.1172  2.5247  1.4439
  240MPD1    H3 3647   2.161   2.211  14.038 -0.5040 -1.6114 -0.5336
  240MPD1     N 3648   1.846   2.001  14.281 -0.8426  0.0953  0.1651
  240MPD1    H5 3649   1.745   1.997  14.290 -0.8635 -1.8025 -0.7788
  240MPD1    N1 3650   1.751   2.243  13.878 -0.3484  0.7291 -1.4738
  240MPD1    H6 3651   1.778   2.331  13.834  0.5004  1.5950  0.7581
  240MPD1    H7 3652   1.657   2.254  13.915 -0.9336  0.7885 -3.0053
  241MPD1     C 3653   2.103   1.872  15.218 -0.5661  0.4431  0.5688
  241MPD1    C1 3654   2.117   1.743  15.167  0.0865  0.7235  0.3174
  241MPD1    C2 3655   2.038   1.719  15.057 -0.5574 -0.0114  0.5176
  241MPD1    C3 3656   1.985   1.824  14.978  0.5530  0.1697 -0.3417
  241MPD1    C4 3657   1.999   1.956  15.024 -0.0385  0.2352 -1.0305
  241MPD1    C5 3658   2.063   1.971  15.141  0.0757  0.2737 -0.1269
  241MPD1     H 3659   2.028   1.618  15.017  0.8190  0.6755 -1.5476
  241MPD1    H1 3660   1.949   2.040  14.976 -0.8576  0.5943  0.4578
  241MPD1    H2 3661   2.143   1.902  15.314  0.5728  0.8006 -0.0067
  241MPD1    H3 3662   2.064   2.068  15.189  1.4962 -0.3118  1.0061
  241MPD1     N 3663   1.921   1.811  14.850  0.1519 -0.1490  0.1963
  241MPD1    H5 3664   1.895   1.899  14.807 -3.3829 -0.8944  0.8522
  241MPD1    N1 3665   2.170   1.643  15.250 -0.0936  0.4018 -0.3347
  241MPD1    H6 3666   2.247   1.686  15.301  1.0305  0.0665 -1.7599
  241MPD1    H7 3667   2.205   1.570  15.188  1.5491  0.6171  0.3490
  242MPD1     C 3668   0.800   0.276  15.875 -0.1529 -0.1759  0.2583
  242MPD1    C1 3669   0.805   0.375  15.774  0.4193  0.6917 -0.1403
  242MPD1    C2 3670   0.884   0.352  15.659  0.2033 -0.1102  0.3125
  242MPD1    C3 3671   0.958   0.239  15.638 -0.0971  0.8144 -0.2780
  242MPD1    C4 3672   0.959   0.145  15.744  0.6830  0.1444 -0.8315
  242MPD1    C5 3673   0.876   0.159  15.854  0.1157 -0.1811  0.5983
  242MPD1     H 3674   0.887   0.435  15.589  1.4921  1.1612  1.8591
  242MPD1    H1 3675   1.019   0.054  15.738  1.1457  0.3580  0.5280
  242MPD1    H2 3676   0.737   0.285  15.964  0.2907  1.2534  0.4207
  242MPD1    H3 3677   0.859   0.089  15.934 -0.2622 -1.9387 -1.0098
  242MPD1     N 3678   1.039   0.220  15.529 -0.0565  0.6878 -0.2324
  242MPD1    H5 3679   1.120   0.159  15.528 -0.2744  0.4091 -1.6249
  242MPD1    N1 3680   0.740   0.497  15.789 -0.6531 -0.4079  0.4471
  242MPD1    H6 3681   0.652   0.488  15.840 -1.1681 -0.7358 -0.5105
  242MPD1    H7 3682   0.717   0.542  15.701 -0.1340 -1.8487 -0.4195
  243MPD1     C 3683   2.207   3.885   0.529  0.1646 -0.0383  0.3670
  243MPD1    C1 3684   2.168   3.772   0.604 -0.1511 -0.2805 -1.1049
  243MPD1    C2 3685   2.192   3.646   0.548 -0.0592  0.7651  0.2349
  243MPD1    C3 3686   2.256   3.640   0.425  0.9644  0.0052 -0.2948
  243MPD1    C4 3687   2.288   3.755   0.351 -0.4998 -0.7719 -0.0805
  243MPD1    C5 3688   2.254   3.874   0.400  0.0636 -0.7444 -0.4016
  243MPD1     H 3689   2.175   3.560   0.611 -1.4027  2.1455  1.7544
  243MPD1    H1 3690   2.351   3.754   0.263 -0.2890  0.0861  0.0566
  243MPD1    H2 3691   2.200   3.987   0.563  1.2792 -0.2285  1.1750
  243MPD1    H3 3692   2.277   3.966   0.347 -0.3320 -0.7749 -0.6315
  243MPD1     N 3693   2.303   3.512   0.368  0.0729 -0.2382  0.2700
  243MPD1    H5 3694   2.277   3.435   0.428 -0.7522 -0.9641 -1.0244
  243MPD1    N1 3695   2.125   3.781   0.739 -0.3973 -0.2853 -0.4785
  243MPD1    H6 3696   2.079   3.865   0.773  2.0596  1.5398 -1.6789
  243MPD1    H7 3697   2.068   3.700   0.762 -0.5889 -0.2550 -0.8405
  244MPD1     C 3698   2.716   2.634   0.599 -0.4540  0.0727  0.2629
  244MPD1    C1 3699   2.678   2.601   0.472 -0.3141  0.6103  0.8988
  244MPD1    C2 3700   2.611   2.692   0.393  0.6027  0.4265  0.0148
  244MPD1    C3 3701   2.591   2.825   0.429 -0.1692  0.5265 -0.0931
  244MPD1    C4 3702   2.621   2.853   0.567 -0.0775  0.3949  0.2683
  244MPD1    C5 3703   2.682   2.760   0.648  0.4326 -0.5774  0.4193
  244MPD1     H 3704   2.579   2.662   0.294  0.8290 -1.2087  0.4434
  244MPD1    H1 3705   2.601   2.946   0.620  1.4965  1.1848 -0.5493
  244MPD1    H2 3706   2.763   2.563   0.666 -0.1327 -1.1834 -1.2855
  244MPD1    H3 3707   2.695   2.780   0.754 -1.7847 -4.0599  1.3428
  244MPD1     N 3708   2.545   2.925   0.339  0.0834 -0.2423 -0.1228
  244MPD1    H5 3709   2.500   2.906   0.250  0.4116 -0.6017 -0.2146
  244MPD1    N1 3710   2.673   2.470   0.434 -0.5646 -0.8825  0.7417
  244MPD1    H6 3711   2.745   2.412   0.476 -0.2064 -1.9033 -1.3287
  244MPD1    H7 3712   2.663   2.442   0.337  2.2356  2.8487 -0.6108
  245MPD1     C 3713   4.610   4.346  12.954 -0.0114 -0.3207 -0.3845
  245MPD1    C1 3714   0.023   4.376  12.958  0.1601 -0.4380 -0.7231
  245MPD1    C2 3715   0.073   4.468  13.045 -0.1137  0.2285  0.1331
  245MPD1    C3 3716   4.712   4.511  13.150  0.5692 -0.7421  0.0013
  245MPD1    C4 3717   4.582   4.470  13.160  0.1697  0.5969  0.7024
  245MPD1    C5 3718   4.530   4.401  13.052  0.2963  0.3360 -0.5277
  245MPD1     H 3719   0.178   4.491  13.036 -0.1940 -0.9679 -3.6076
  245MPD1    H1 3720   4.518   4.513  13.235 -0.8583  0.0573  0.1267
  245MPD1    H2 3721   4.563   4.276  12.886  1.6391 -1.3745 -0.4200
  245MPD1    H3 3722   4.430   4.361  13.068  0.7833 -0.1976  1.2582
  245MPD1     N 3723   0.050   4.604  13.235 -0.0327 -0.9441 -0.2465
  245MPD1    H5 3724   0.143   4.637  13.212 -1.0188  1.3219 -0.9502
  245MPD1    N1 3725   0.107   4.322  12.864  0.6441 -0.3347  0.0936
  245MPD1    H6 3726   0.072   4.234  12.828  1.0792 -1.3362  2.1282
  245MPD1    H7 3727   0.205   4.310  12.889  0.9871 -0.6498 -1.4208
  246MPD1     C 3728   1.633   0.647   9.731 -0.2754 -0.0910 -0.1381
  246MPD1    C1 3729   1.589   0.771   9.681 -0.0698  0.1394  1.3977
  246MPD1    C2 3730   1.530   0.775   9.559 -0.5073  0.0059  0.2734
  246MPD1    C3 3731   1.538   0.666   9.473 -0.8626  0.2593  0.3524
  246MPD1    C4 3732   1.598   0.551   9.513  0.0492  0.0466 -0.6088
  246MPD1    C5 3733   1.639   0.538   9.640  0.0031  0.1721 -0.3775
  246MPD1     H 3734   1.489   0.870   9.525  0.5415 -0.1034 -1.3186
  246MPD1    H1 3735   1.587   0.458   9.458  0.4070 -0.0872 -0.4543
  246MPD1    H2 3736   1.664   0.645   9.834 -1.8317  1.1071  0.3529
  246MPD1    H3 3737   1.671   0.443   9.682 -2.0233  0.2188  1.2623
  246MPD1     N 3738   1.480   0.683   9.342  0.1058  0.0713  0.3777
  246MPD1    H5 3739   1.428   0.767   9.320  0.4994 -0.0729 -1.1082
  246MPD1    N1 3740   1.581   0.877   9.773  0.8557  0.1008 -0.3054
  246MPD1    H6 3741   1.664   0.864   9.831  1.1619 -0.9744 -0.9924
  246MPD1    H7 3742   1.585   0.970   9.733  0.3373 -0.5663 -1.9093
  247MPD1     C 3743   4.267   0.408  16.932 -0.0336 -0.9077 -0.0261
  247MPD1    C1 3744   4.181   0.470  16.843  0.3190  0.0912  0.3417
  247MPD1    C2 3745   4.148   0.391  16.735 -1.1485  0.6441 -0.1070
  247MPD1    C3 3746   4.183   0.261  16.720 -0.5681 -0.3940 -0.1949
  247MPD1    C4 3747   4.264   0.204  16.817  0.1221  0.0198  0.5716
  247MPD1    C5 3748   4.293   0.274  16.924  0.5525 -0.3999  0.5069
  247MPD1     H 3749   4.091   0.437  16.655 -0.8278  0.0604 -0.6596
  247MPD1    H1 3750   4.291   0.099  16.814  1.3757  0.3642  0.0142
  247MPD1    H2 3751   4.306   0.473  17.009 -2.2370  1.2527 -0.7412
  247MPD1    H3 3752   4.346   0.229  17.007 -1.3192 -2.3085  0.6688
  247MPD1     N 3753   4.150   0.188  16.608 -0.1785 -0.0729 -0.2586
  247MPD1    H5 3754   4.195   0.097  16.603  1.0903  0.3489  3.0219
  247MPD1    N1 3755   4.156   0.606  16.848  0.0066 -0.1112  0.6308
  247MPD1    H6 3756   4.158   0.640  16.944 -0.2360  1.5674  0.0353
  247MPD1    H7 3757   4.072   0.636  16.799 -0.0621 -0.2895  0.6393
  248MPD1     C 3758   1.068   2.694   0.867 -0.2948  0.0447 -0.0781
  248MPD1    C1 3759   1.033   2.737   0.995 -0.1141 -1.4515 -0.4418
  248MPD1    C2 3760   0.924   2.816   1.000 -0.6469 -0.0198 -0.0088
  248MPD1    C3 3761   0.853   2.856   0.885  0.0162 -0.0945 -0.0634
  248MPD1    C4 3762   0.895   2.818   0.760 -0.2337  0.8147 -0.3061
  248MPD1    C5 3763   1.010   2.745   0.754 -0.1765  0.6872 -0.1902
  248MPD1     H 3764   0.887   2.844   1.098 -0.6362  3.1688 -0.9104
  248MPD1    H1 3765   0.836   2.844   0.672 -0.8452 -0.0267 -0.1436
  248MPD1    H2 3766   1.145   2.620   0.853 -0.4298 -0.0591 -0.2761
  248MPD1    H3 3767   1.044   2.722   0.654 -0.6669  0.0115 -0.2043
  248MPD1     N 3768   0.748   2.942   0.905  0.5842  0.3954 -0.6214
  248MPD1    H5 3769   0.716   2.964   0.999  0.0925 -1.9542 -0.2399
  248MPD1    N1 3770   1.097   2.679   1.109  0.7583  0.0987  0.2704
  248MPD1    H6 3771   1.196   2.657   1.110  0.8044  0.3058  0.3707
  248MPD1    H7 3772   1.088   2.756   1.176  1.9344  1.2153 -0.8388
  249MPD1     C 3773   1.249   2.438  10.333  0.1847 -0.1222 -0.3299
  249MPD1    C1 3774   1.304   2.559  10.366  0.4163  0.3255  0.3381
  249MPD1    C2 3775   1.294   2.662  10.267 -1.3946  0.8797 -0.0213
  249MPD1    C3 3776   1.220   2.640  10.150  0.7257 -0.1343  0.0214
  249MPD1    C4 3777   1.179   2.512  10.119  0.1712  0.8409 -0.4609
  249MPD1    C5 3778   1.185   2.414  10.213  0.4527  0.7922  0.0962
  249MPD1     H 3779   1.336   2.757  10.299  1.3265 -0.6598  1.0003
  249MPD1    H1 3780   1.127   2.484  10.028  2.4165  1.7109 -1.9999
  249MPD1    H2 3781   1.250   2.351  10.398 -0.4756 -0.9617 -1.4365
  249MPD1    H3 3782   1.129   2.321  10.200  0.6348  0.5585  0.9388
  249MPD1     N 3783   1.212   2.752  10.057 -0.0977  0.0176 -0.0169
  249MPD1    H5 3784   1.271   2.832  10.078  1.5825 -1.8330  2.3327
  249MPD1    N1 3785   1.395   2.561  10.476  0.7213 -0.4680 -0.3094
  249MPD1    H6 3786   1.412   2.657  10.506 -1.7857 -0.6746  1.9097
  249MPD1    H7 3787   1.368   2.506  10.558  0.8303  0.6620  0.4944
  250MPD2     C 3788   3.283   3.354  13.263  0.0594 -0.0373 -0.7880
  250MPD2    C1 3789   3.365   3.244  13.243 -0.2652 -0.0515 -0.1321
  250MPD2    C2 3790   3.324   3.138  13.164 -0.3069 -0.0332 -0.7804
  250MPD2    C3 3791   3.191   3.131  13.116  0.2604 -0.6385 -0.5898
  250MPD2    C4 3792   3.115   3.245  13.132  0.5504 -0.5926  0.6454
  250MPD2    C5 3793   3.160   3.348  13.212  0.8747  0.0647 -0.1420
  250MPD2     H 3794   3.399   3.064  13.139  0.6789  0.8089 -0.2930
  250MPD2    H1 3795   3.018   3.257  13.084  1.2131  1.3653 -0.1779
  250MPD2    H2 3796   3.315   3.445  13.314 -0.5883  0.8411 -1.9573
  250MPD2    H3 3797   3.099   3.435  13.234  1.4521  0.4875 -0.2160
  250MPD2     N 3798   3.147   3.022  13.027  0.2804 -0.5630  0.5484
  250MPD2    H5 3799   3.053   3.037  12.994 -0.0198 -0.7656  1.3126
  250MPD2    N1 3800   3.492   3.257  13.295 -0.2750  0.0254  0.0618
  250MPD2    H7 3801   3.513   3.350  13.330  1.3895  0.1657 -1.3228
  251TMC3    C1 3802   3.719   3.232  13.354 -0.3217 -0.1281 -0.3748
  251TMC3    C2 3803   3.705   3.337  13.439  0.0144 -0.4044 -0.4190
  251TMC3    C3 3804   3.798   3.443  13.433  0.1241  0.5842  1.0622
  251TMC3    C4 3805   3.835   3.213  13.282 -0.6511 -0.3906 -0.0484
  251TMC3    C5 3806   3.921   3.316  13.281 -0.0714  0.0519  0.3870
  251TMC3    C6 3807   3.906   3.432  13.356  0.0175 -0.5862  0.8044
  251TMC3     C 3808   3.601   3.176  13.291 -0.0766  0.1180  0.0107
  251TMC3     O 3809   3.619   3.069  13.235  0.4086  0.0245  0.8861
  251TMC3     H 3810   3.610   3.355  13.488  0.2517  0.9516 -0.4374
  251TMC3    H1 3811   3.853   3.118  13.233 -0.5927 -0.3386 -0.1289
  251TMC3    H2 3812   3.975   3.516  13.344  0.8841 -1.0144  2.8580
  251TMC3    C7 3813   4.042   3.292  13.208 -0.2489  0.2030  0.6830
  251TMC3    C8 3814   3.743   3.574  13.471 -0.1873  0.0234 -0.6899
  251TMC3    O1 3815   4.063   3.173  13.191  0.2668  0.3971  0.1288
  251TMC3    O2 3816   3.666   3.575  13.565 -0.0631  0.2079 -0.5295
  252TMC3    C1 3817   3.453   3.968   9.931  0.6889  0.5864  0.4598
  252TMC3    C2 3818   3.500   4.074   9.850 -0.2864 -0.5494  0.3778
  252TMC3    C3 3819   3.555   4.041   9.728 -0.7414  0.3270  0.3393
  252TMC3    C4 3820   3.450   3.841   9.888 -0.1755 -0.2619  0.6192
  252TMC3    C5 3821   3.515   3.812   9.770 -0.3125  0.3769  0.7789
  252TMC3    C6 3822   3.572   3.908   9.695  0.0931 -0.1183 -0.7975
  252TMC3     C 3823   3.469   3.993  10.078  0.0042  0.5913 -0.0017
  252TMC3     O 3824   3.483   4.108  10.108 -0.4300 -0.5283  0.3271
  252TMC3     H 3825   3.501   4.176   9.885  1.6981 -0.5490  0.3568
  252TMC3    H1 3826   3.405   3.764   9.949  0.5045 -0.8760  0.3371
  252TMC3    H2 3827   3.636   3.881   9.612  0.3167 -1.1878 -0.2775
  252TMC3    C7 3828   3.562   3.675   9.753 -0.8123  0.6105  0.2621
  252TMC3    C8 3829   3.644   4.125   9.653 -0.5710  0.0528  0.5404
  252TMC3    O1 3830   3.674   3.663   9.704 -0.4361 -0.4310  0.3152
  252TMC3    O2 3831   3.654   4.104   9.534  0.7530 -0.2838  0.1285
  253MPD2     C 3832   4.467   3.032  15.350  0.7070 -0.0113  0.1065
  253MPD2    C1 3833   4.333   2.999  15.321  0.2734  0.3439 -0.1521
  253MPD2    C2 3834   4.257   2.942  15.420 -0.0553  0.1022 -0.8536
  253MPD2    C3 3835   4.307   2.913  15.553 -0.8285  0.8267  0.4795
  253MPD2    C4 3836   4.434   2.958  15.580  0.2975 -0.4695  0.0174
  253MPD2    C5 3837   4.510   3.015  15.480  0.0609 -0.1683  0.4666
  253MPD2     H 3838   4.153   2.920  15.396 -1.0203  2.9085  0.7436
  253MPD2    H1 3839   4.477   2.969  15.679 -2.2277 -0.3678  1.0996
  253MPD2    H2 3840   4.537   3.074  15.279 -0.6304  1.3455 -0.3850
  253MPD2    H3 3841   4.611   3.050  15.498  0.6319 -0.5567 -1.9781
  253MPD2     N 3842   4.234   2.857  15.664 -0.6339  0.9668  0.4262
  253MPD2    H5 3843   4.285   2.846  15.751 -1.6425  2.7828  1.2355
  253MPD2    N1 3844   4.279   3.001  15.194  0.6076 -0.5655 -0.0647
  253MPD2    H7 3845   4.179   3.007  15.185  0.8954  2.8055 -0.9552
  254TMC3    C1 3846   4.054   2.765  15.788 -0.2262  0.1308 -0.1022
  254TMC3    C2 3847   3.918   2.774  15.808  0.5112  0.2860  1.1597
  254TMC3    C3 3848   3.872   2.721  15.926 -0.1733  0.1915 -0.2001
  254TMC3    C4 3849   4.145   2.695  15.864  0.2333  0.1087  0.2795
  254TMC3    C5 3850   4.089   2.643  15.975  0.5434  1.0146 -0.0722
  254TMC3    C6 3851   3.958   2.654  16.010 -0.2349 -0.1970  0.1130
  254TMC3     C 3852   4.104   2.823  15.662 -0.2332  0.0276  0.8254
  254TMC3     O 3853   4.023   2.852  15.573  0.3092 -0.8405  0.1443
  254TMC3     H 3854   3.858   2.841  15.747  0.4833  1.3431  2.3410
  254TMC3    H1 3855   4.249   2.679  15.840 -0.1773 -2.2887  0.0989
  254TMC3    H2 3856   3.934   2.637  16.114  0.7247 -0.4365  0.2949
  254TMC3    C7 3857   4.180   2.602  16.082  0.2492 -0.2997  0.1489
  254TMC3    C8 3858   3.775   2.800  15.997  0.1499 -0.0259 -0.5792
  254TMC3    O1 3859   4.128   2.516  16.155  0.4411 -0.0124  0.2101
  254TMC3    O2 3860   3.801   2.808  16.116 -0.9320  0.1909 -0.0084
  255MPD2     C 3861   3.185   0.522   9.528  0.3723  0.0854  0.0077
  255MPD2    C1 3862   3.278   0.615   9.562 -0.6684  0.4705  0.3106
  255MPD2    C2 3863   3.356   0.669   9.461  0.5244 -0.6341  0.1478
  255MPD2    C3 3864   3.335   0.619   9.328  0.1480  0.1272 -0.1113
  255MPD2    C4 3865   3.238   0.530   9.294  0.0071 -0.4148 -0.1357
  255MPD2    C5 3866   3.160   0.482   9.400  0.4210 -0.1381  0.3724
  255MPD2     H 3867   3.421   0.755   9.469 -1.0403  0.7148 -1.5890
  255MPD2    H1 3868   3.223   0.495   9.192 -1.5057  1.1959 -0.4784
  255MPD2    H2 3869   3.120   0.479   9.603  0.4892  1.3717  0.8623
  255MPD2    H3 3870   3.079   0.413   9.382  1.6164 -1.4849  0.1812
  255MPD2     N 3871   3.414   0.679   9.229 -0.8876  0.1473  0.1483
  255MPD2    H5 3872   3.497   0.732   9.254 -0.6645  1.1664 -2.6591
  255MPD2    N1 3873   3.293   0.663   9.687  0.2931 -0.4149 -1.0039
  255MPD2    H7 3874   3.224   0.653   9.761 -0.1130  1.7367 -1.0873
  256TMC3    C1 3875   3.402   0.850   9.795  0.3564 -0.2890 -0.0560
  256TMC3    C2 3876   3.513   0.922   9.744 -0.6159  0.0774  0.1190
  256TMC3    C3 3877   3.493   1.034   9.674 -0.2494 -0.8457  1.1069
  256TMC3    C4 3878   3.280   0.902   9.782  0.5439  0.7715 -0.0876
  256TMC3    C5 3879   3.265   1.018   9.712  0.0671  0.7432 -0.1326
  256TMC3    C6 3880   3.368   1.089   9.653  0.9473  1.1133  0.3095
  256TMC3     C 3881   3.411   0.718   9.728 -0.4175 -0.0019 -0.1448
  256TMC3     O 3882   3.521   0.692   9.680 -0.0260 -0.6646 -0.0592
  256TMC3     H 3883   3.611   0.877   9.750 -0.3878  0.8531  1.9399
  256TMC3    H1 3884   3.201   0.851   9.837 -0.2234  0.9867 -0.9869
  256TMC3    H2 3885   3.352   1.184   9.603 -1.5085  1.0972  1.0877
  256TMC3    C7 3886   3.136   1.066   9.688 -0.5132  0.0814 -0.6172
  256TMC3    C8 3887   3.601   1.085   9.598 -0.1194 -0.3266 -0.7467
  256TMC3    O1 3888   3.117   1.146   9.595 -0.4061 -0.5988  0.2622
  256TMC3    O2 3889   3.698   1.012   9.593  0.7111  0.1517  0.5950
  257MPD2     C 3890   2.183   2.966  13.504  0.4717  0.2679  1.0463
  257MPD2    C1 3891   2.249   2.899  13.397  0.2624  0.1825  0.1687
  257MPD2    C2 3892   2.284   2.767  13.416 -0.3695  0.0263  0.0726
  257MPD2    C3 3893   2.267   2.701  13.536  0.2570  0.3370 -0.4117
  257MPD2    C4 3894   2.206   2.768  13.639 -0.2014 -1.2364  0.8115
  257MPD2    C5 3895   2.163   2.903  13.621  0.5009  0.6777 -0.9743
  257MPD2     H 3896   2.311   2.704  13.332 -3.9240  1.9233 -2.4691
  257MPD2    H1 3897   2.193   2.730  13.740 -0.9014  0.3679  1.3342
  257MPD2    H2 3898   2.156   3.071  13.499  1.8390  0.5664  0.0435
  257MPD2    H3 3899   2.134   2.944  13.717  0.1133 -1.0356 -0.3483
  257MPD2     N 3900   2.310   2.565  13.543 -0.0982  0.4258 -0.2755
  257MPD2    H5 3901   2.355   2.532  13.459  0.5788  1.2937 -0.2524
  257MPD2    N1 3902   2.263   2.980  13.277 -0.4400  0.0813 -0.1770
  257MPD2    H7 3903   2.224   3.073  13.288 -0.0298  0.4427 -1.8327
  258TMC3    C1 3904   2.342   2.339  13.628 -0.3538 -0.1885 -0.4244
  258TMC3    C2 3905   2.297   2.271  13.519  0.6768 -0.8669  0.2706
  258TMC3    C3 3906   2.279   2.136  13.530 -0.4699 -0.6563  0.9353
  258TMC3    C4 3907   2.366   2.275  13.748  0.6632 -0.3896  0.4403
  258TMC3    C5 3908   2.359   2.138  13.747 -0.8363 -0.9366  0.5024
  258TMC3    C6 3909   2.306   2.070  13.648 -0.4344 -0.0193  0.0321
  258TMC3     C 3910   2.300   2.481  13.653  0.7327 -0.4542  0.2865
  258TMC3     O 3911   2.261   2.512  13.764 -0.2422  0.1367  0.2032
  258TMC3     H 3912   2.279   2.315  13.421 -0.4852  2.1382  1.8465
  258TMC3    H1 3913   2.420   2.338  13.818  1.8938  0.6174 -1.4172
  258TMC3    H2 3914   2.301   1.962  13.663 -1.0830 -0.0605 -0.4555
  258TMC3    C7 3915   2.340   2.070  13.874 -0.3266 -0.4251  0.4796
  258TMC3    C8 3916   2.222   2.065  13.422  0.1872 -0.1524  0.0604
  258TMC3    O1 3917   2.241   1.996  13.892  0.6172  0.4567 -0.5619
  258TMC3    O2 3918   2.231   2.116  13.310  0.6790 -0.6364 -0.3272
  259MPD2     C 3919   0.445   4.261   0.877  0.9469 -0.4440 -0.6296
  259MPD2    C1 3920   0.555   4.191   0.831 -0.2253  1.0286  0.8173
  259MPD2    C2 3921   0.607   4.222   0.704  0.4916 -0.6014 -0.0710
  259MPD2    C3 3922   0.546   4.318   0.620  0.0702  0.0717 -0.0215
  259MPD2    C4 3923   0.433   4.391   0.668 -0.5796 -0.2966 -0.5930
  259MPD2    C5 3924   0.393   4.364   0.798  0.4103 -0.0225  0.6118
  259MPD2     H 3925   0.691   4.165   0.667  0.4328 -0.7856  0.0795
  259MPD2    H1 3926   0.372   4.458   0.609 -2.2305 -0.6239  0.7280
  259MPD2    H2 3927   0.418   4.232   0.978 -1.2364  1.2250 -0.7356
  259MPD2    H3 3928   0.318   4.424   0.849 -1.0438 -1.3008 -0.0256
  259MPD2     N 3929   0.595   4.343   0.490 -0.0947 -0.2712 -0.0027
  259MPD2    H5 3930   0.678   4.287   0.470 -0.0166 -0.7813  1.7384
  259MPD2    N1 3931   0.601   4.085   0.911 -0.5106 -0.4300  0.3220
  259MPD2    H7 3932   0.543   4.059   0.990 -0.5896  0.1344  0.4467
  260TMC3    C1 3933   0.647   4.463   0.294  0.1176  0.2688  0.1219
  260TMC3    C2 3934   0.642   4.572   0.215  0.6965  0.1601  0.2671
  260TMC3    C3 3935   0.744   4.587   0.120 -0.5913  0.1650 -0.1888
  260TMC3    C4 3936   0.747   4.368   0.279  0.2371 -0.3373  0.7122
  260TMC3    C5 3937   0.848   4.391   0.185 -0.2453  0.4932 -0.5315
  260TMC3    C6 3938   0.845   4.499   0.103 -0.0837  0.2058 -0.1692
  260TMC3     C 3939   0.561   4.451   0.406 -0.0569 -0.2903  0.1068
  260TMC3     O 3940   0.465   4.530   0.407  0.5579 -0.3738  0.2076
  260TMC3     H 3941   0.576   4.656   0.233 -1.0588 -1.2362  0.3796
  260TMC3    H1 3942   0.753   4.274   0.333 -0.6712 -0.4513  0.6178
  260TMC3    H2 3943   0.921   4.516   0.027  0.3852  3.2615  0.9663
  260TMC3    C7 3944   0.954   4.294   0.165 -0.4306  0.0073  0.1073
  260TMC3    C8 3945   0.752   4.705   0.036 -0.0153 -0.2772 -0.1930
  260TMC3    O1 3946   1.033   4.319   0.079 -0.0235  0.0181  0.3379
  260TMC3    O2 3947   0.658   0.019  17.654  0.0636  0.0064 -0.2263
  261MPD2     C 3948   2.646   2.553  12.526 -0.0615 -0.3442 -0.4060
  261MPD2    C1 3949   2.722   2.668  12.520  0.0040  0.4269  0.0874
  261MPD2    C2 3950   2.729   2.740  12.406  0.2790  0.3043  1.2266
  261MPD2    C3 3951   2.648   2.700  12.299 -0.2801 -0.1790  0.3211
  261MPD2    C4 3952   2.560   2.595  12.311 -0.4955 -0.2367  0.2091
  261MPD2    C5 3953   2.569   2.510  12.423  0.6887  0.3538 -0.1253
  261MPD2     H 3954   2.779   2.836  12.406 -0.5255  0.7231 -0.5718
  261MPD2    H1 3955   2.496   2.561  12.231  0.0508 -0.2226 -0.2335
  261MPD2    H2 3956   2.633   2.497  12.618 -1.2502 -1.4758 -1.2586
  261MPD2    H3 3957   2.496   2.430  12.428 -1.0355  2.0099  1.6862
  261MPD2     N 3958   2.653   2.772  12.180 -0.1277  0.3363  0.0034
  261MPD2    H5 3959   2.691   2.866  12.189 -2.0546  1.0220  1.1142
  261MPD2    N1 3960   2.781   2.695  12.647 -0.3739 -0.4130 -0.2198
  261MPD2    H7 3961   2.749   2.644  12.729  1.8883 -0.7692  0.4453
  262TMC3    C1 3962   2.672   2.800  11.950  0.0575 -1.0163  0.6287
  262TMC3    C2 3963   2.643   2.928  11.965  0.9028  0.9122  0.2257
  262TMC3    C3 3964   2.649   3.011  11.854  0.3815  0.0978 -0.6148
  262TMC3    C4 3965   2.705   2.750  11.833 -0.3243  0.4342 -0.0662
  262TMC3    C5 3966   2.728   2.834  11.728  0.0602 -0.1849 -0.2032
  262TMC3    C6 3967   2.694   2.964  11.735  0.0806 -0.5828 -0.2154
  262TMC3     C 3968   2.627   2.708  12.056 -0.3562  0.0767  0.7797
  262TMC3     O 3969   2.594   2.594  12.025 -0.2138 -0.3077  0.6989
  262TMC3     H 3970   2.594   2.978  12.048  1.0996  0.6000  0.5286
  262TMC3    H1 3971   2.709   2.642  11.819  1.2700  0.3505  1.0924
  262TMC3    H2 3972   2.738   3.023  11.656  1.9243 -1.7917 -0.0963
  262TMC3    C7 3973   2.740   2.770  11.601  0.5038 -0.3418 -0.0114
  262TMC3    C8 3974   2.576   3.141  11.867  0.0324 -0.5032 -0.5604
  262TMC3    O1 3975   2.722   2.649  11.601 -0.2311 -0.1593  0.1200
  262TMC3    O2 3976   2.531   3.179  11.976  0.4015  0.5827 -0.4463
  263MPD2     C 3977   3.362   2.131  11.564 -0.2072 -0.4083  0.0682
  263MPD2    C1 3978   3.476   2.127  11.489  0.3319  0.5276  0.0160
  263MPD2    C2 3979   3.468   2.152  11.353  0.5074 -0.1188 -0.7408
  263MPD2    C3 3980   3.338   2.158  11.296 -0.4210 -0.7027  0.1699
  263MPD2    C4 3981   3.225   2.163  11.373 -0.1831 -0.2190  0.2902
  263MPD2    C5 3982   3.238   2.150  11.507 -0.8023  0.4737 -0.4365
  263MPD2     H 3983   3.551   2.161  11.283  1.1458 -3.3488 -0.4150
  263MPD2    H1 3984   3.126   2.172  11.329  0.3200 -2.3922 -1.2989
  263MPD2    H2 3985   3.365   2.121  11.672 -2.2964  0.5913  0.2046
  263MPD2    H3 3986   3.154   2.153  11.576 -0.8614  0.1013 -0.4919
  263MPD2     N 3987   3.334   2.176  11.153 -0.0377 -0.0538 -0.0172
  263MPD2    H5 3988   3.422   2.188  11.105 -1.1063  0.2001 -1.8893
  263MPD2    N1 3989   3.596   2.103  11.560 -0.2819 -0.2115  0.1303
  263MPD2    H7 3990   3.589   2.082  11.659 -1.4533  0.1252  0.1254
  264TMC3    C1 3991   3.234   2.177  10.942 -0.2755 -0.5839  0.0694
  264TMC3    C2 3992   3.302   2.290  10.927 -0.3818  0.8231  0.8641
  264TMC3    C3 3993   3.398   2.287  10.836  0.6520  0.5544 -0.1376
  264TMC3    C4 3994   3.259   2.058  10.875 -0.1103  0.2841  0.9948
  264TMC3    C5 3995   3.349   2.063  10.776 -0.6462  0.5939 -0.1499
  264TMC3    C6 3996   3.420   2.176  10.758  0.3508 -0.5800 -0.8085
  264TMC3     C 3997   3.216   2.150  11.079  0.6931  0.8468  0.2950
  264TMC3     O 3998   3.121   2.077  11.116 -0.2554 -0.4433  0.0099
  264TMC3     H 3999   3.278   2.374  10.990 -0.9510  1.4862 -0.2310
  264TMC3    H1 4000   3.192   1.974  10.889 -0.0434  0.0288 -0.2166
  264TMC3    H2 4001   3.501   2.165  10.687  0.4192  1.2497 -1.0301
  264TMC3    C7 4002   3.392   1.939  10.712 -0.2230 -0.1471 -0.4500
  264TMC3    C8 4003   3.476   2.398  10.803  0.0460  0.0361 -0.1477
  264TMC3    O1 4004   3.477   1.947  10.621 -0.1780  0.5293  0.4502
  264TMC3    O2 4005   3.573   2.377  10.729  0.5865 -0.4329 -0.2582
  265MPD2     C 4006   1.169   2.435  15.719  0.6454 -0.4392 -0.0590
  265MPD2    C1 4007   1.167   2.539  15.633  1.0045  0.0091 -0.1998
  265MPD2    C2 4008   1.212   2.519  15.501 -0.1029 -0.7464 -0.5140
  265MPD2    C3 4009   1.264   2.393  15.468  0.5842 -0.0861 -0.5526
  265MPD2    C4 4010   1.276   2.291  15.565  0.3620  0.3922 -0.5382
  265MPD2    C5 4011   1.226   2.314  15.691 -0.2144  0.0440 -0.1340
  265MPD2     H 4012   1.219   2.603  15.432  3.2692 -0.8353 -0.2915
  265MPD2    H1 4013   1.309   2.193  15.534  1.1811  0.2423  0.8239
  265MPD2    H2 4014   1.138   2.455  15.821 -0.0614  1.6336 -0.6887
  265MPD2    H3 4015   1.230   2.239  15.769  0.5349 -0.5523 -0.7453
  265MPD2     N 4016   1.316   2.366  15.338 -0.0449 -0.8171 -0.3429
  265MPD2    H5 4017   1.365   2.278  15.325  0.3586 -0.7906  1.0472
  265MPD2    N1 4018   1.144   2.672  15.681 -0.8061  0.3602  0.4822
  265MPD2    H7 4019   1.145   2.744  15.608  1.4196 -3.0465 -2.8176
  266TMC3    C1 4020   1.130   2.847  15.834  0.5952  0.1105 -0.0900
  266TMC3    C2 4021   1.188   2.907  15.937 -0.1973 -0.6131  0.9036
  266TMC3    C3 4022   1.169   3.041  15.972  0.2433 -0.3629  0.0753
  266TMC3    C4 4023   1.052   2.925  15.754 -0.3265  0.0424 -0.6922
  266TMC3    C5 4024   1.035   3.060  15.781 -0.0223  0.7743 -0.3854
  266TMC3    C6 4025   1.096   3.123  15.887  0.4585 -0.0084  0.1142
  266TMC3     C 4026   1.142   2.708  15.813  0.3921 -0.5927 -0.1109
  266TMC3     O 4027   1.183   2.649  15.910  0.1320 -0.9416  0.4435
  266TMC3     H 4028   1.240   2.843  16.007  0.6765 -2.2859 -1.2732
  266TMC3    H1 4029   1.002   2.868  15.677 -1.1706  1.0262 -0.8671
  266TMC3    H2 4030   1.085   3.229  15.905 -4.5103 -0.7208  1.0869
  266TMC3    C7 4031   0.987   3.149  15.675  0.3500  0.8745  0.5493
  266TMC3    C8 4032   1.268   3.099  16.061  0.2518 -0.3215 -1.1518
  266TMC3    O1 4033   0.945   3.256  15.714 -0.1342 -0.1829 -0.4502
  266TMC3    O2 4034   1.356   3.020  16.092  0.0732  0.4110 -0.6750
  267MPD2     C 4035   3.720   3.873  17.473 -0.0317  0.2254  0.8106
  267MPD2    C1 4036   3.682   4.006  17.464  0.1920 -0.4942  0.0497
  267MPD2    C2 4037   3.588   4.046  17.373 -0.0623  0.0392 -0.0771
  267MPD2    C3 4038   3.529   3.953  17.289  0.8113 -0.5455 -0.0380
  267MPD2    C4 4039   3.553   3.823  17.315  0.4404 -0.0628  0.3802
  267MPD2    C5 4040   3.643   3.785  17.412 -0.6391 -0.0630 -0.1289
  267MPD2     H 4041   3.565   4.150  17.356 -0.8559  0.0281  0.8848
  267MPD2    H1 4042   3.497   3.744  17.266  0.6843  0.2992 -0.4720
  267MPD2    H2 4043   3.806   3.840  17.530 -2.0218 -2.1857  2.4074
  267MPD2    H3 4044   3.662   3.679  17.417  2.5814  0.5155  0.4691
  267MPD2     N 4045   3.425   3.992  17.189 -0.0582  0.4002 -0.1730
  267MPD2    H5 4046   3.371   3.914  17.155  1.2820  0.1631 -1.7792
  267MPD2    N1 4047   3.747   4.093  17.550  0.1245 -0.8505 -0.1842
  267MPD2    H7 4048   3.822   4.057  17.608  1.1547  2.6892  0.6730
  268TMC3    C1 4049   3.815   4.297  17.652 -0.2174 -0.1237 -0.9073
  268TMC3    C2 4050   3.846   4.429  17.644 -1.0316  0.5430 -0.6939
  268TMC3    C3 4051   3.953   4.474   0.037  0.5550  0.0133 -0.9947
  268TMC3    C4 4052   3.888   4.222   0.059 -0.0691 -0.3005 -0.6325
  268TMC3    C5 4053   3.978   4.270   0.149  0.6155  0.3353  0.6852
  268TMC3    C6 4054   4.020   4.395   0.130  0.5575  0.4011 -0.5379
  268TMC3     C 4055   3.733   4.230  17.556  0.2028 -0.1191  0.0190
  268TMC3     O 4056   3.662   4.297  17.485  0.1620 -0.1357  0.1240
  268TMC3     H 4057   3.785   4.490  17.577 -3.1230  1.9475  2.4744
  268TMC3    H1 4058   3.853   4.120   0.074  0.6080 -0.5335 -0.6160
  268TMC3    H2 4059   4.108   4.428   0.183  1.1336 -1.4800 -0.3260
  268TMC3    C7 4060   4.042   4.196   0.252  0.6856 -0.2329 -0.1370
  268TMC3    C8 4061   3.973   4.616   0.037  0.2027  0.4019  0.4524
  268TMC3    O1 4062   4.044   4.079   0.233  0.5877 -0.2101  0.0941
  268TMC3    O2 4063   4.001   4.668   0.145  0.0382 -0.5960  0.0321
  269MPD2     C 4064   3.525   2.976  15.514  1.0678 -0.4263  1.2002
  269MPD2    C1 4065   3.400   3.007  15.548  0.0845 -0.9981  0.1969
  269MPD2    C2 4066   3.355   3.137  15.568 -0.1529 -0.6665 -0.0291
  269MPD2    C3 4067   3.446   3.239  15.552  0.5422 -0.6161  0.2410
  269MPD2    C4 4068   3.576   3.204  15.521  0.4314 -0.5320  0.1526
  269MPD2    C5 4069   3.619   3.075  15.506  0.5238  0.0369  0.2108
  269MPD2     H 4070   3.261   3.173  15.607  0.4011 -1.2162  1.7852
  269MPD2    H1 4071   3.650   3.282  15.505 -0.7610  0.3038 -1.2181
  269MPD2    H2 4072   3.540   2.872  15.484  0.5711  0.0526 -0.7381
  269MPD2    H3 4073   3.719   3.057  15.469  0.9996 -0.4050  1.7040
  269MPD2     N 4074   3.400   3.371  15.564 -0.2607  0.6438  0.7281
  269MPD2    H5 4075   3.303   3.387  15.588 -0.7190 -0.7485 -0.2201
  269MPD2    N1 4076   3.317   2.899  15.554 -0.1151 -0.7525  0.2657
  269MPD2    H7 4077   3.343   2.808  15.517 -0.2347 -0.5919 -0.2025
  270TMC3    C1 4078   3.118   2.783  15.563 -0.2735  0.3632  0.5695
  270TMC3    C2 4079   3.008   2.774  15.479  0.0134 -0.7537 -0.2880
  270TMC3    C3 4080   3.013   2.664  15.394 -0.5661 -0.5093  0.0115
  270TMC3    C4 4081   3.206   2.679  15.585 -0.7927 -0.0118 -0.6057
  270TMC3    C5 4082   3.197   2.567  15.510  0.1757  0.1474 -0.1122
  270TMC3    C6 4083   3.100   2.557  15.412 -0.1695  0.0785 -0.1532
  270TMC3     C 4084   3.180   2.908  15.573 -0.3198  0.2933 -0.2524
  270TMC3     O 4085   3.108   3.003  15.600  0.4307 -0.2201 -0.2555
  270TMC3     H 4086   2.955   2.864  15.450  0.4770 -0.1729  0.6382
  270TMC3    H1 4087   3.275   2.682  15.668  0.4459 -0.6444 -1.6149
  270TMC3    H2 4088   3.101   2.472  15.345 -0.7757 -0.6220  0.7238
  270TMC3    C7 4089   3.323   2.502  15.500  0.4495  0.4748 -0.8453
  270TMC3    C8 4090   2.945   2.662  15.268  0.0703  0.5892 -0.3764
  270TMC3    O1 4091   3.415   2.560  15.553  0.2846  0.0060  0.3542
  270TMC3    O2 4092   2.826   2.680  15.264 -0.2350  0.0219  0.3091
  271MPD2     C 4093   3.026   3.515  13.919 -0.0468  0.0454 -0.3542
  271MPD2    C1 4094   2.947   3.401  13.898  0.3493  1.0025 -0.3078
  271MPD2    C2 4095   2.821   3.421  13.838 -0.3956  0.5723  0.5252
  271MPD2    C3 4096   2.769   3.539  13.800  0.2567  0.2327 -0.1861
  271MPD2    C4 4097   2.843   3.647  13.818 -0.3146 -0.3652  0.1539
  271MPD2    C5 4098   2.961   3.631  13.888 -0.4983  0.7058  0.5319
  271MPD2     H 4099   2.767   3.330  13.816  2.0489 -0.6860 -0.2266
  271MPD2    H1 4100   2.810   3.744  13.784 -1.1912 -0.9884 -0.7722
  271MPD2    H2 4101   3.123   3.505  13.967  0.0931 -1.1405 -0.8819
  271MPD2    H3 4102   3.014   3.724  13.903  2.5594 -1.0294  0.6008
  271MPD2     N 4103   2.649   3.554  13.729  0.0782  0.1402  0.2487
  271MPD2    H5 4104   2.626   3.648  13.699  1.4026  0.1256 -0.8406
  271MPD2    N1 4105   2.995   3.267  13.912 -0.6715 -0.2211 -0.0459
  271MPD2    H7 4106   2.924   3.195  13.920 -2.2621  1.1002 -2.1639
  272TMC3    C1 4107   3.136   3.088  13.981  0.6814 -0.6778  0.6980
  272TMC3    C2 4108   3.266   3.038  13.996 -0.1240  0.8063 -0.2421
  272TMC3    C3 4109   3.292   2.935  14.070 -0.7607  0.0914  0.4418
  272TMC3    C4 4110   3.037   3.034  14.062 -0.3026  0.1690 -0.5263
  272TMC3    C5 4111   3.073   2.931  14.144  0.0418 -0.0225  0.4900
  272TMC3    C6 4112   3.196   2.872  14.148 -0.1422  0.2147 -0.3979
  272TMC3     C 4113   3.127   3.232  13.932 -0.6429 -0.6507  0.5844
  272TMC3     O 4114   3.225   3.304  13.905  0.0881  0.4535 -0.9942
  272TMC3     H 4115   3.341   3.090  13.937 -0.4190  2.5750  0.9565
  272TMC3    H1 4116   2.940   3.083  14.072  0.2270  0.9902  0.6139
  272TMC3    H2 4117   3.206   2.781  14.205 -1.2865  0.4788  0.2078
  272TMC3    C7 4118   2.983   2.897  14.246  0.5933  0.4194  0.2206
  272TMC3    C8 4119   3.434   2.898  14.082 -0.9727  0.1241  0.3129
  272TMC3    O1 4120   2.868   2.884  14.207 -0.5156 -0.4104 -0.1651
  272TMC3    O2 4121   3.521   2.980  14.050  0.6349  0.2594 -0.1568
  273MPD2     C 4122   0.118   0.847  11.783  0.6257 -0.7522 -0.8993
  273MPD2    C1 4123   0.150   0.979  11.795  0.4847  0.2876  0.1048
  273MPD2    C2 4124   0.108   1.063  11.698 -0.8828 -0.2906 -0.4695
  273MPD2    C3 4125   0.044   1.015  11.589 -0.1641 -0.2484 -0.4373
  273MPD2    C4 4126   0.017   0.878  11.576  0.3002  0.7216  0.0671
  273MPD2    C5 4127   0.064   0.797  11.668 -1.1267  0.0804 -0.5446
  273MPD2     H 4128   0.134   1.168  11.702  0.6944 -0.7133  0.2405
  273MPD2    H1 4129   4.678   0.831  11.498  1.2615  0.5122 -0.5338
  273MPD2    H2 4130   0.147   0.769  11.852  1.2576 -0.8945 -1.3290
  273MPD2    H3 4131   0.051   0.689  11.674  0.0071 -0.1188 -1.7197
  273MPD2     N 4132   4.700   1.100  11.494  0.3872 -0.5349  0.3567
  273MPD2    H5 4133   4.657   1.048  11.418 -0.0611  1.0751 -0.4907
  273MPD2    N1 4134   0.222   1.011  11.914  0.6778 -0.9134 -0.2333
  273MPD2    H7 4135   0.234   0.935  11.980  0.9313 -1.3051 -0.7343
  274TMC3    C1 4136   4.621   1.297  11.400 -0.6325  0.0713 -0.1381
  274TMC3    C2 4137   4.560   1.231  11.294  0.1393  0.1016 -0.2232
  274TMC3    C3 4138   4.493   1.307  11.200  0.1912 -0.0559  0.6141
  274TMC3    C4 4139   4.613   1.437  11.406  0.1683 -0.2796 -0.1322
  274TMC3    C5 4140   4.545   1.502  11.309 -0.5620  0.0879 -0.0348
  274TMC3    C6 4141   4.488   1.443  11.198  0.1739  0.1855  0.4177
  274TMC3     C 4142   4.692   1.237  11.505 -0.1125 -0.1445  0.3407
  274TMC3     O 4143   4.708   1.309  11.600  0.2638  0.5429  0.1227
  274TMC3     H 4144   4.556   1.123  11.288 -0.2651  0.0598  0.7411
  274TMC3    H1 4145   4.662   1.491  11.486  1.2782  1.6735 -2.1339
  274TMC3    H2 4146   4.429   1.502  11.129  3.1818  0.0470 -2.2734
  274TMC3    C7 4147   4.480   1.623  11.355  0.0332 -0.0701 -0.0216
  274TMC3    C8 4148   4.385   1.241  11.131 -0.7869 -0.2266  0.0237
  274TMC3    O1 4149   4.437   1.622  11.470  0.0547  0.2632  0.0865
  274TMC3    O2 4150   4.340   1.148  11.195 -0.3877 -0.9263 -0.2600
  275MPD2     C 4151   4.512   4.067  14.400 -1.3665 -0.3415  0.8156
  275MPD2    C1 4152   4.465   4.053  14.528 -0.4849 -0.1760  0.3650
  275MPD2    C2 4153   4.339   3.996  14.557 -0.4609 -0.2283  0.1691
  275MPD2    C3 4154   4.256   3.965  14.443 -0.3501  0.5083  0.6270
  275MPD2    C4 4155   4.312   3.975  14.315 -0.2532  0.5263 -0.1150
  275MPD2    C5 4156   4.436   4.023  14.295  0.9474 -0.5194  0.2300
  275MPD2     H 4157   4.308   3.979  14.659 -3.4535 -0.4390 -0.7882
  275MPD2    H1 4158   4.256   3.942  14.228 -0.2272 -0.0106  0.0703
  275MPD2    H2 4159   4.609   4.112  14.382 -1.6149 -0.6051 -1.1636
  275MPD2    H3 4160   4.462   4.021  14.190 -2.0082 -1.5724 -0.4568
  275MPD2     N 4161   4.128   3.901  14.453  0.4318  0.6562 -0.7410
  275MPD2    H5 4162   4.073   3.885  14.369 -2.2470 -0.4515  1.2232
  275MPD2    N1 4163   4.546   4.090  14.636  0.9827  0.2161 -0.2172
  275MPD2    H7 4164   4.511   4.050  14.722  1.4860  0.5326  0.1319
  276TMC3    C1 4165   0.019   4.075  14.751 -0.2508 -0.8581 -0.6979
  276TMC3    C2 4166   0.050   3.948  14.718  0.1036  0.7825  0.0368
  276TMC3    C3 4167   0.049   3.853  14.816  0.4418 -0.5320 -0.3647
  276TMC3    C4 4168   0.006   4.122  14.881 -1.4265 -0.2686  0.0730
  276TMC3    C5 4169   0.040   4.030  14.979 -0.1422 -0.3378 -0.0165
  276TMC3    C6 4170   0.054   3.895  14.951 -0.6232  0.4321 -0.5325
  276TMC3     C 4171   4.675   4.148  14.643  0.0158 -0.1175 -0.0576
  276TMC3     O 4172   0.023   4.184  14.544 -0.2372  0.5690 -0.5512
  276TMC3     H 4173   0.069   3.923  14.614 -0.5625  2.0357 -0.3925
  276TMC3    H1 4174   4.696   4.223  14.904  0.1732  0.8874 -2.8427
  276TMC3    H2 4175   0.057   3.821  15.030  0.9917  1.7056  0.5880
  276TMC3    C7 4176   0.065   4.076  15.112 -0.1955  0.1541  0.0654
  276TMC3    C8 4177   4.696   3.727  14.788  0.5389 -0.2168  0.2251
  276TMC3    O1 4178   4.720   4.172  15.152 -0.6753 -0.3835  0.0778
  276TMC3    O2 4179   4.670   3.657  14.889  0.1798 -0.0443  0.0288
  277MPD2     C 4180   1.406   3.007  13.204  0.0876  0.1573 -0.7238
  277MPD2    C1 4181   1.283   3.053  13.242 -1.4530  0.7079  0.5982
  277MPD2    C2 4182   1.223   2.978  13.344 -0.3659 -0.4191  0.7852
  277MPD2    C3 4183   1.285   2.872  13.415  0.3819  0.2555 -0.2124
  277MPD2    C4 4184   1.417   2.844  13.380  0.0029  0.8888 -0.5123
  277MPD2    C5 4185   1.471   2.903  13.269  0.3907 -0.2715  0.0236
  277MPD2     H 4186   1.121   3.004  13.368 -0.2170  1.6800 -0.8040
  277MPD2    H1 4187   1.478   2.767  13.426 -3.7359 -1.4975  0.4502
  277MPD2    H2 4188   1.466   3.048  13.124  2.5392 -2.1873 -0.0894
  277MPD2    H3 4189   1.566   2.868  13.231  0.4527 -1.7928  1.5534
  277MPD2     N 4190   1.218   2.803  13.518 -0.0499 -0.1580 -0.0170
  277MPD2    H5 4191   1.124   2.835  13.539  0.3930  0.0528  1.6063
  277MPD2    N1 4192   1.225   3.149  13.159 -0.4077  0.7344  0.7041
  277MPD2    H7 4193   1.288   3.203  13.101  0.1574  1.5246  2.0627
  278TMC3    C1 4194   1.148   2.608  13.627  0.0061  0.2133 -0.1319
  278TMC3    C2 4195   1.138   2.473  13.608  0.4386  0.2087  0.1005
  278TMC3    C3 4196   1.024   2.411  13.652  0.0407  0.2669 -0.5640
  278TMC3    C4 4197   1.044   2.685  13.674 -0.3185 -0.2850 -0.2544
  278TMC3    C5 4198   0.924   2.627  13.700  0.4521  0.2357 -0.0904
  278TMC3    C6 4199   0.916   2.487  13.691  0.1751  0.4409  0.0547
  278TMC3     C 4200   1.258   2.680  13.564  0.4544 -0.0745  0.1542
  278TMC3     O 4201   1.350   2.610  13.523 -0.1028 -0.1645 -0.7138
  278TMC3     H 4202   1.229   2.424  13.576  0.3488 -0.8335  1.4261
  278TMC3    H1 4203   1.058   2.788  13.704  1.1981 -0.8043  0.8708
  278TMC3    H2 4204   0.823   2.436  13.712  1.2854 -2.3055 -1.6839
  278TMC3    C7 4205   0.846   2.682  13.809 -0.1155 -0.1836  0.2727
  278TMC3    C8 4206   1.024   2.265  13.648 -0.1745  0.2962 -0.6539
  278TMC3    O1 4207   0.911   2.758  13.876 -0.2843 -0.4700 -0.2036
  278TMC3    O2 4208   1.136   2.214  13.665 -0.3624  0.3291 -0.1768
  279MPD2     C 4209   0.660   3.171   0.333 -0.1063  0.8374  0.4750
  279MPD2    C1 4210   0.615   3.046   0.301  0.4368  0.9263 -0.3006
  279MPD2    C2 4211   0.602   3.008   0.171 -0.2058 -0.3339 -0.2973
  279MPD2    C3 4212   0.614   3.100   0.069  0.7850  0.4714  0.1061
  279MPD2    C4 4213   0.653   3.223   0.101  0.5311 -0.1969  0.4218
  279MPD2    C5 4214   0.680   3.266   0.233 -1.0038 -0.0150 -0.7430
  279MPD2     H 4215   0.593   2.901   0.151 -0.3445 -0.8900  2.7863
  279MPD2    H1 4216   0.647   3.308   0.033  0.3870 -0.3549  0.2372
  279MPD2    H2 4217   0.686   3.189   0.437  0.9604 -0.5008  0.4379
  279MPD2    H3 4218   0.721   3.366   0.244  3.6489 -1.9291 -1.1471
  279MPD2     N 4219   0.590   3.068  17.617 -0.0101 -0.0499 -0.0941
  279MPD2    H5 4220   0.596   3.152  17.560  1.6776 -1.7953 -2.4260
  279MPD2    N1 4221   0.606   2.955   0.408  0.1572  0.5826  0.3972
  279MPD2    H7 4222   0.594   2.995   0.501  0.6661 -1.0277  1.1635
  280TMC3    C1 4223   0.459   2.785   0.466 -0.5200  0.0800 -0.3563
  280TMC3    C2 4224   0.394   2.689   0.392 -0.3858  0.1993  0.6365
  280TMC3    C3 4225   0.261   2.709   0.370 -0.1327  0.4417  0.2399
  280TMC3    C4 4226   0.397   2.899   0.510 -0.6154 -0.2936  0.4936
  280TMC3    C5 4227   0.267   2.913   0.478  0.1090 -0.3338  0.2820
  280TMC3    C6 4228   0.200   2.826   0.397 -0.5188  0.2257  0.3957
  280TMC3     C 4229   0.573   2.823   0.392  0.0456  0.1681 -0.2191
  280TMC3     O 4230   0.630   2.742   0.321  0.2495  0.8511 -0.2201
  280TMC3     H 4231   0.456   2.611   0.350  0.9854  0.8945  1.3502
  280TMC3    H1 4232   0.449   2.964   0.580  1.6932 -1.1433 -0.4326
  280TMC3    H2 4233   0.095   2.840   0.374 -0.0766  0.4854 -1.4262
  280TMC3    C7 4234   0.230   3.054   0.489 -0.1773  0.2232  0.0899
  280TMC3    C8 4235   0.190   2.614   0.293 -0.6099 -0.0838  0.2047
  280TMC3    O1 4236   0.320   3.129   0.529  0.1796 -0.2062  0.2668
  280TMC3    O2 4237   0.091   2.646   0.228 -0.1327 -0.1864  0.1805
  281TMC3    C1 4238   4.293   3.024  13.366  0.0715 -0.2635  0.7060
  281TMC3    C2 4239   4.388   3.072  13.281  0.3480  0.7956  1.0171
  281TMC3    C3 4240   4.393   3.020  13.156 -0.0669  0.2256 -0.1549
  281TMC3    C4 4241   4.210   2.921  13.326  0.5926  0.9341  0.1344
  281TMC3    C5 4242   4.217   2.881  13.198 -0.6626  0.1150  0.4585
  281TMC3    C6 4243   4.310   2.926  13.118 -0.0324  0.0779  0.1760
  281TMC3     C 4244   4.248   3.088  13.487 -0.5106  0.4867 -0.0789
  281TMC3     O 4245   4.177   3.026  13.569  0.0309 -0.6908 -0.1020
  281TMC3     H 4246   4.460   3.148  13.310 -0.3950  2.8880 -2.6736
  281TMC3    H1 4247   4.130   2.891  13.394 -0.9781  2.3901 -1.0665
  281TMC3    H2 4248   4.299   2.908  13.012 -1.3180  1.3928  0.0835
  281TMC3    C7 4249   4.108   2.801  13.140  0.4418  0.4703  0.1515
  281TMC3    C8 4250   4.507   3.061  13.073 -0.0843 -0.3884  0.2013
  281TMC3    O1 4251   4.108   2.777  13.022  0.1968  0.8222 -0.2442
  281TMC3    O2 4252   4.563   2.961  13.032 -0.7924  0.4819 -0.3676
  282MPD2     C 4253   0.885   4.698  15.014  0.4280  0.6467  0.0190
  282MPD2    C1 4254   0.770   0.055  15.021 -0.6919  0.2724 -0.3759
  282MPD2    C2 4255   0.705   0.102  14.906  0.3098  0.2928  0.3360
  282MPD2    C3 4256   0.737   0.053  14.786  0.6107 -0.4671 -0.6199
  282MPD2    C4 4257   0.844   4.686  14.774  0.0788 -0.2131  0.3001
  282MPD2    C5 4258   0.919   4.657  14.884  0.5150 -0.3509 -0.1291
  282MPD2     H 4259   0.621   0.170  14.908  0.5381  0.5854 -0.0389
  282MPD2    H1 4260   0.883   4.648  14.680  0.6302  1.3331 -0.1042
  282MPD2    H2 4261   0.935   4.664  15.104  1.0309  2.7723  0.4669
  282MPD2    H3 4262   1.001   4.587  14.874 -0.1628 -0.8358 -2.3263
  282MPD2     N 4263   0.644   0.088  14.689 -0.5032  0.0376  0.2254
  282MPD2    H5 4264   0.570   0.153  14.713  0.7668  1.9443 -1.1182
  282MPD2    N1 4265   0.720   0.095  15.151 -0.4898 -0.0164 -0.3004
  282MPD2    H7 4266   0.643   0.161  15.146  0.5975  1.4883  2.6096
  283TMC3    C1 4267   0.694   0.095  15.387  0.3515 -0.0279 -0.0695
  283TMC3    C2 4268   0.618   0.210  15.390 -0.3822 -0.2095  0.5366
  283TMC3    C3 4269   0.563   0.240  15.508 -0.5137 -0.0968  0.6467
  283TMC3    C4 4270   0.712   0.019  15.499  0.3060  0.4525  0.2431
  283TMC3    C5 4271   0.648   0.055  15.612  0.1827  0.7103 -0.2361
  283TMC3    C6 4272   0.567   0.163  15.619  0.5151 -0.3217 -0.0770
  283TMC3     C 4273   0.761   0.044  15.274 -0.4026  0.0485 -0.0353
  283TMC3     O 4274   0.836   4.669  15.293  0.5012  0.6035 -0.7553
  283TMC3     H 4275   0.617   0.275  15.303  0.6112 -0.2151  0.5196
  283TMC3    H1 4276   0.776   4.652  15.502 -1.3599 -0.7823 -0.1996
  283TMC3    H2 4277   0.510   0.189  15.708  1.1135  0.7768 -0.0179
  283TMC3    C7 4278   0.629   4.677  15.721 -0.1809  0.5491  0.5450
  283TMC3    C8 4279   0.534   0.372  15.527 -0.1990 -0.3638  0.0187
  283TMC3    O1 4280   0.563   4.717  15.815  0.2638 -0.2442 -0.1455
  283TMC3    O2 4281   0.449   0.408  15.611  0.0783  0.2909  0.0585
  284MPD2     C 4282   3.419   3.415  11.583  0.4550 -0.5102 -0.4635
  284MPD2    C1 4283   3.544   3.441  11.643  0.1337 -0.6104 -0.2664
  284MPD2    C2 4284   3.548   3.451  11.778  0.2205  0.4386 -0.0197
  284MPD2    C3 4285   3.431   3.479  11.852 -0.0038 -0.2654 -0.6989
  284MPD2    C4 4286   3.310   3.478  11.789  0.0921 -0.2847  0.0323
  284MPD2    C5 4287   3.305   3.435  11.658  0.3268 -0.5010 -0.3538
  284MPD2     H 4288   3.647   3.462  11.820 -0.9365  1.0397  2.5105
  284MPD2    H1 4289   3.212   3.493  11.831  1.3431  0.3305  2.6883
  284MPD2    H2 4290   3.419   3.383  11.479 -0.9131 -0.9079 -0.3447
  284MPD2    H3 4291   3.210   3.416  11.611 -1.1652 -0.5798  2.6645
  284MPD2     N 4292   3.431   3.503  11.989  0.6686  0.1107  0.4821
  284MPD2    H5 4293   3.347   3.491  12.043  0.9308 -1.4910  0.5278
  284MPD2    N1 4294   3.664   3.439  11.571  0.4440  0.5454  0.1192
  284MPD2    H7 4295   3.753   3.459  11.615  0.7620 -1.4478  0.3769
  285TMC3    C1 4296   3.827   3.439  11.413 -0.2589  0.0610 -0.3712
  285TMC3    C2 4297   3.866   3.398  11.286  0.7955  0.2646  0.8537
  285TMC3    C3 4298   3.956   3.476  11.215  0.3457 -1.2404  0.2687
  285TMC3    C4 4299   3.880   3.562  11.455  0.0230 -0.8871  0.6075
  285TMC3    C5 4300   3.965   3.637  11.376  0.3365  0.8785  0.4106
  285TMC3    C6 4301   4.004   3.592  11.258 -0.4249 -0.7759  0.0015
  285TMC3     C 4302   3.691   3.399  11.446 -0.4454 -0.2537  0.1981
  285TMC3     O 4303   3.621   3.347  11.358  0.2815  0.1631  0.6815
  285TMC3     H 4304   3.824   3.307  11.245 -1.7671  1.2363  1.3303
  285TMC3    H1 4305   3.834   3.606  11.542 -0.5792  0.4729 -0.4049
  285TMC3    H2 4306   4.061   3.658  11.195 -1.7124 -0.7334 -1.1203
  285TMC3    C7 4307   3.987   3.779  11.411 -0.1052 -0.2243  0.2176
  285TMC3    C8 4308   4.034   3.390  11.128  0.8524 -0.1315  0.7471
  285TMC3    O1 4309   4.012   3.850  11.315 -0.6635 -0.4332 -0.2325
  285TMC3    O2 4310   3.966   3.307  11.068 -0.8877  0.4782  0.4669
  286MPD2     C 4311   3.877   2.542   1.562 -0.2762  0.1803 -0.0637
  286MPD2    C1 4312   3.864   2.516   1.421 -0.5918 -0.2495 -0.2875
  286MPD2    C2 4313   3.969   2.458   1.351 -0.6290  0.4380 -0.5417
  286MPD2    C3 4314   4.085   2.423   1.416 -0.1773  0.0027  0.1675
  286MPD2    C4 4315   4.099   2.448   1.554  0.4161  0.0618 -0.1469
  286MPD2    C5 4316   3.998   2.504   1.625  0.3103 -0.1055 -0.6584
  286MPD2     H 4317   3.956   2.445   1.244  1.3612 -0.1356 -0.7082
  286MPD2    H1 4318   4.196   2.439   1.602  0.4971 -2.3927 -0.7935
  286MPD2    H2 4319   3.792   2.582   1.615  1.0712 -0.1097  2.3245
  286MPD2    H3 4320   4.014   2.533   1.728  2.0207 -1.2165 -0.6126
  286MPD2     N 4321   4.191   2.359   1.353 -0.3002 -0.6173  0.5266
  286MPD2    H5 4322   4.269   2.340   1.415  0.2439 -1.2362 -0.3480
  286MPD2    N1 4323   3.748   2.553   1.347 -0.4853 -0.7397  0.5001
  286MPD2    H7 4324   3.743   2.529   1.249  2.1807 -0.2284  0.2494
  287TMC3    C1 4325   4.344   2.275   1.179 -0.3259 -0.0169  0.4469
  287TMC3    C2 4326   4.351   2.251   1.043  0.4019  0.3869  0.3113
  287TMC3    C3 4327   4.462   2.185   0.993  0.3362  0.1018 -0.3674
  287TMC3    C4 4328   4.438   2.230   1.272 -0.2259 -0.2325  0.1381
  287TMC3    C5 4329   4.535   2.158   1.212 -0.6645 -0.4881 -0.0485
  287TMC3    C6 4330   4.550   2.133   1.080 -0.4918 -0.3881 -0.6827
  287TMC3     C 4331   4.216   2.345   1.216  0.4664 -0.0725  0.3213
  287TMC3     O 4332   4.137   2.369   1.125  0.2766 -0.0105  0.0721
  287TMC3     H 4333   4.273   2.291   0.980  0.9762 -2.2966 -2.1346
  287TMC3    H1 4334   4.443   2.234   1.381  1.0728 -0.1308  0.0808
  287TMC3    H2 4335   4.617   2.056   1.044 -2.4067 -3.0477  1.4483
  287TMC3    C7 4336   4.662   2.152   1.284 -0.1162  0.1499 -0.5307
  287TMC3    C8 4337   4.472   2.132   0.857  0.1957  0.1961  0.2116
  287TMC3    O1 4338   4.690   2.248   1.353 -0.2599 -0.4784  0.2773
  287TMC3    O2 4339   4.534   2.029   0.845  0.3529 -0.1041  0.3217
  288TMC3    C1 4340   1.776   2.430  14.256 -1.0896 -0.6757 -0.0648
  288TMC3    C2 4341   1.645   2.470  14.276 -0.3154  0.2497 -0.6318
  288TMC3    C3 4342   1.588   2.564  14.190 -0.5901  1.0274 -0.5525
  288TMC3    C4 4343   1.851   2.481  14.151 -0.3533 -0.5507 -0.2605
  288TMC3    C5 4344   1.790   2.576  14.072  0.6009 -0.0908  0.1638
  288TMC3    C6 4345   1.664   2.616  14.094  0.0679 -0.2502 -0.2622
  288TMC3     C 4346   1.848   2.374  14.369  0.2833  0.4263  0.3361
  288TMC3     O 4347   1.783   2.339  14.471 -0.2500  0.1153  1.0381
  288TMC3     H 4348   1.596   2.443  14.369  0.3003  1.6385  0.0910
  288TMC3    H1 4349   1.950   2.446  14.125  1.2455  1.7258  2.6444
  288TMC3    H2 4350   1.626   2.700  14.037  0.7528 -0.7685 -1.4665
  288TMC3    C7 4351   1.853   2.608  13.948  0.2382  0.1966  0.0271
  288TMC3    C8 4352   1.488   2.655  14.245  0.3441  0.1161  0.6639
  288TMC3    O1 4353   1.975   2.618  13.952 -0.4720  0.0826  0.1193
  288TMC3    O2 4354   1.500   2.775  14.225  0.0570  0.2573  0.1552
  289MPD2     C 4355   1.300   1.424  14.579 -0.2290 -0.1038  0.3238
  289MPD2    C1 4356   1.349   1.519  14.490 -1.0099 -0.6778  1.0055
  289MPD2    C2 4357   1.275   1.549  14.372  0.0681 -0.3246  0.0087
  289MPD2    C3 4358   1.152   1.477  14.346 -0.2404  0.3991  0.5679
  289MPD2    C4 4359   1.120   1.373  14.427 -0.2241 -0.2226 -0.0344
  289MPD2    C5 4360   1.186   1.344  14.546  0.2891 -0.3420  1.5455
  289MPD2     H 4361   1.322   1.619  14.305  2.4498 -1.7668  0.1470
  289MPD2    H1 4362   1.030   1.313  14.415 -0.8363  0.9169 -1.2742
  289MPD2    H2 4363   1.363   1.392  14.661 -0.2073  0.1475  0.4035
  289MPD2    H3 4364   1.155   1.264  14.612  2.1612 -2.2410  0.1235
  289MPD2     N 4365   1.072   1.509  14.231 -0.3285  0.1521  0.3842
  289MPD2    H5 4366   0.999   1.445  14.201 -1.5727  2.0300 -0.6145
  289MPD2    N1 4367   1.469   1.578  14.526 -0.2815 -0.9055 -0.2685
  289MPD2    H7 4368   1.520   1.529  14.599  3.1671  0.8584 -1.4789
  290TMC3    C1 4369   1.011   1.628  14.042 -0.2940 -1.1103  0.1747
  290TMC3    C2 4370   0.988   1.756  14.004  0.9343 -0.2972 -0.0414
  290TMC3    C3 4371   0.885   1.777  13.920  0.3305 -0.6896 -0.5437
  290TMC3    C4 4372   0.936   1.515  14.005 -0.0128  0.6293  0.6390
  290TMC3    C5 4373   0.831   1.541  13.917  0.1425  0.6885 -0.0923
  290TMC3    C6 4374   0.799   1.669  13.877  0.2211 -0.3479  0.5417
  290TMC3     C 4375   1.094   1.623  14.162  0.8167  0.2753 -0.0278
  290TMC3     O 4376   1.177   1.713  14.157 -0.2702 -0.6281  0.2698
  290TMC3     H 4377   1.027   1.839  14.061  1.9059 -1.2580  0.6981
  290TMC3    H1 4378   0.992   1.422  14.008  2.7433  2.1572 -2.7912
  290TMC3    H2 4379   0.715   1.691  13.812  1.3695 -0.9523 -1.1303
  290TMC3    C7 4380   0.760   1.437  13.850  0.0699  0.3809 -0.0468
  290TMC3    C8 4381   0.813   1.904  13.941 -0.5673 -0.2893 -0.4574
  290TMC3    O1 4382   0.686   1.465  13.761  0.3108  0.4504 -0.4091
  290TMC3    O2 4383   0.702   1.910  13.892 -0.2030  0.0227  0.0478
  291MPD2     C 4384   0.502   1.684   0.116  0.7664 -0.0462  0.0445
  291MPD2    C1 4385   0.542   1.580   0.041 -0.4485  0.2040  0.2379
  291MPD2    C2 4386   0.578   1.606  17.594  0.0446  0.1360  0.0265
  291MPD2    C3 4387   0.578   1.735  17.544  0.6827  0.3751  0.1764
  291MPD2    C4 4388   0.551   1.840  17.625  0.2637  0.5373  1.2447
  291MPD2    C5 4389   0.503   1.810   0.064  0.1103  0.0739  0.0926
  291MPD2     H 4390   0.612   1.521  17.536 -0.5468  0.2286 -0.4557
  291MPD2    H1 4391   0.555   1.943  17.592  1.5134 -0.0301 -0.3882
  291MPD2    H2 4392   0.468   1.662   0.217 -2.5238 -1.3902 -1.3468
  291MPD2    H3 4393   0.472   1.887   0.133 -2.0784  1.6399 -2.6677
  291MPD2     N 4394   0.593   1.761  17.410 -0.0321 -0.7383 -0.0109
  291MPD2    H5 4395   0.563   1.855  17.384  2.0026 -0.6220 -1.9717
  291MPD2    N1 4396   0.559   1.453   0.091  0.1423 -0.6042 -0.6149
  291MPD2    H7 4397   0.596   1.390   0.021  2.1730 -0.1168  0.0108
  292TMC3    C1 4398   0.489   1.258   0.193 -0.3535 -0.2660 -0.5525
  292TMC3    C2 4399   0.456   1.192   0.310 -0.0797  1.0443 -0.1267
  292TMC3    C3 4400   0.411   1.065   0.288 -0.1505 -0.6046 -0.2345
  292TMC3    C4 4401   0.489   1.192   0.063 -0.6377 -0.5620 -0.5196
  292TMC3    C5 4402   0.448   1.062   0.057  0.1232 -0.0593  0.3666
  292TMC3    C6 4403   0.399   1.001   0.167 -0.7227  0.1433 -1.0716
  292TMC3     C 4404   0.510   1.400   0.206 -0.7278 -0.4146 -0.3177
  292TMC3     O 4405   0.476   1.453   0.314  0.0335  0.2425 -0.4592
  292TMC3     H 4406   0.448   1.241   0.406 -1.1959 -0.3222  0.4865
  292TMC3    H1 4407   0.532   1.230  17.656 -3.8537 -0.5116 -2.0020
  292TMC3    H2 4408   0.379   0.894   0.163  0.3162 -0.0972  0.1802
  292TMC3    C7 4409   0.370   1.029  17.626  0.3678  0.7137  0.2358
  292TMC3    C8 4410   0.374   0.995   0.405  0.3050  0.1096  0.3541
  292TMC3    O1 4411   0.355   1.119  17.544 -0.1343  0.0988 -0.4270
  292TMC3    O2 4412   0.420   1.037   0.506 -0.0587 -0.4035 -0.2577
  293MPD2     C 4413   2.593   3.030  12.637 -0.5216  0.6738 -0.0869
  293MPD2    C1 4414   2.521   2.927  12.684 -0.2031  0.3275 -0.0072
  293MPD2    C2 4415   2.538   2.885  12.812 -1.0740 -0.4955  0.2672
  293MPD2    C3 4416   2.634   2.945  12.897 -0.4318 -0.3184 -0.3218
  293MPD2    C4 4417   2.711   3.050  12.848 -0.6340 -0.2569  1.4517
  293MPD2    C5 4418   2.686   3.092  12.722 -0.2862  0.1542 -0.1312
  293MPD2     H 4419   2.479   2.803  12.851 -0.9199 -0.8956 -0.3603
  293MPD2    H1 4420   2.780   3.113  12.904  1.0174 -0.2972 -0.5265
  293MPD2    H2 4421   2.588   3.079  12.540  0.6892  1.3554  0.1941
  293MPD2    H3 4422   2.747   3.173  12.684  0.1832 -0.5527 -0.8788
  293MPD2     N 4423   2.629   2.926  13.038  0.1165 -0.1912 -0.2487
  293MPD2    H5 4424   2.553   2.871  13.076  0.3775  0.0336  0.6005
  293MPD2    N1 4425   2.431   2.879  12.590 -0.0726  0.0801 -0.2268
  293MPD2    H7 4426   2.423   2.931  12.503  1.2876  1.3467  0.3954
  294TMC3    C1 4427   2.264   2.744  12.498  0.0254  0.2818 -0.2739
  294TMC3    C2 4428   2.150   2.670  12.521 -0.2825 -0.3571 -0.0465
  294TMC3    C3 4429   2.061   2.658  12.413  0.2054  0.1219  0.3045
  294TMC3    C4 4430   2.296   2.806  12.381 -0.2645 -0.7787 -0.2426
  294TMC3    C5 4431   2.206   2.797  12.276 -0.5461  0.5256  0.5500
  294TMC3    C6 4432   2.083   2.733  12.294  0.2835 -0.5238  0.4333
  294TMC3     C 4433   2.355   2.762  12.608 -0.5015 -0.1753  0.9439
  294TMC3     O 4434   2.348   2.682  12.701  0.4020 -0.7523 -0.7491
  294TMC3     H 4435   2.131   2.628  12.619  0.8192  0.2311  0.4142
  294TMC3    H1 4436   2.396   2.841  12.362 -0.0558 -1.2430  0.0045
  294TMC3    H2 4437   2.007   2.743  12.218  0.4806 -0.6378  0.2206
  294TMC3    C7 4438   2.255   2.816  12.137  0.4706 -0.2330 -0.1458
  294TMC3    C8 4439   1.927   2.628  12.457  0.0609 -0.3522  0.4772
  294TMC3    O1 4440   2.348   2.890  12.116 -0.0398  0.5761  0.2360
  294TMC3    O2 4441   1.905   2.610  12.576 -0.1034  0.4372 -0.1087
  295MPD2     C 4442   2.525   1.013   0.201  0.2776  0.1567 -0.2895
  295MPD2    C1 4443   2.525   1.150   0.215  0.8300  0.6730  1.0975
  295MPD2    C2 4444   2.413   1.218   0.272 -0.5923 -0.0873 -0.1927
  295MPD2    C3 4445   2.307   1.145   0.323  0.2690  0.5263 -0.0657
  295MPD2    C4 4446   2.316   1.005   0.311  0.6772 -0.0419 -0.4141
  295MPD2    C5 4447   2.416   0.947   0.246  1.4301  0.3607  0.2877
  295MPD2     H 4448   2.413   1.326   0.270  4.1639 -0.0604  0.4412
  295MPD2    H1 4449   2.231   0.949   0.347 -0.0910  2.2309  1.3065
  295MPD2    H2 4450   2.605   0.949   0.164 -0.6372 -0.6998 -0.7889
  295MPD2    H3 4451   2.424   0.840   0.235 -1.3282  0.0451  1.4249
  295MPD2     N 4452   2.200   1.208   0.396 -1.0389 -0.0980  0.0319
  295MPD2    H5 4453   2.139   1.151   0.454  2.4792 -0.8078  2.9800
  295MPD2    N1 4454   2.625   1.240   0.177 -0.1572  0.3037  0.3849
  295MPD2    H7 4455   2.621   1.335   0.214 -2.6431  0.4310 -0.2217
  296TMC3    C1 4456   2.058   1.381   0.484  0.1904 -0.6730  0.2640
  296TMC3    C2 4457   2.025   1.513   0.493 -0.4335  0.5806  0.3047
  296TMC3    C3 4458   1.910   1.549   0.554 -0.1878 -0.1005  1.0245
  296TMC3    C4 4459   1.971   1.279   0.533  1.0888 -0.3701  0.5011
  296TMC3    C5 4460   1.847   1.322   0.580 -0.0125 -0.4901  0.1066
  296TMC3    C6 4461   1.816   1.455   0.592 -0.1221 -0.0740  0.1507
  296TMC3     C 4462   2.175   1.344   0.401  0.3514 -0.0620 -0.0787
  296TMC3     O 4463   2.223   1.432   0.336 -0.4633 -0.3035  0.4682
  296TMC3     H 4464   2.095   1.588   0.458 -1.4167  0.1264 -2.5589
  296TMC3    H1 4465   1.991   1.173   0.529 -0.4175 -0.6570  0.4142
  296TMC3    H2 4466   1.715   1.482   0.621 -1.2187 -0.8801 -2.9670
  296TMC3    C7 4467   1.750   1.231   0.635 -0.3087 -0.4106 -0.1138
  296TMC3    C8 4468   1.905   1.680   0.611 -0.1998  0.1135 -0.1350
  296TMC3    O1 4469   1.644   1.278   0.674 -0.1064  0.4594  0.2060
  296TMC3    O2 4470   1.975   1.773   0.578 -0.2274 -0.0562  0.3051
  297MPD2     C 4471   4.653   3.410  16.688 -0.1773 -0.1182 -0.0373
  297MPD2    C1 4472   4.629   3.462  16.562  0.2401  0.2621  1.1091
  297MPD2    C2 4473   0.010   3.527  16.495 -0.2959 -0.7523 -0.2717
  297MPD2    C3 4474   0.133   3.553  16.555 -0.2726 -0.2482  0.8673
  297MPD2    C4 4475   0.151   3.501  16.682  0.0850  0.8390 -0.2162
  297MPD2    C5 4476   0.054   3.431  16.748 -0.5930  0.8157  0.6424
  297MPD2     H 4477   4.714   3.568  16.396  1.0313  0.6219  0.0755
  297MPD2    H1 4478   0.250   3.501  16.727 -0.0866 -0.8933  0.1645
  297MPD2    H2 4479   4.591   3.337  16.739  0.8500 -0.3855  0.8285
  297MPD2    H3 4480   0.066   3.387  16.846  0.9882 -2.3491 -0.9737
  297MPD2     N 4481   0.239   3.622  16.484 -0.3224 -0.0506  0.2918
  297MPD2    H5 4482   0.213   3.676  16.403 -0.0046  1.2870  1.0852
  297MPD2    N1 4483   4.511   3.432  16.490 -0.4855  0.2618 -0.2544
  297MPD2    H7 4484   4.506   3.463  16.394 -1.2458  1.9305  0.3175
  298TMC3    C1 4485   4.281   3.390  16.463  0.0177 -0.4535 -0.0721
  298TMC3    C2 4486   4.292   3.354  16.329 -0.2456  0.0826  0.5679
  298TMC3    C3 4487   4.172   3.362  16.254  0.8788 -0.7983 -0.1517
  298TMC3    C4 4488   4.164   3.409  16.521  0.3217  0.5204 -0.0799
  298TMC3    C5 4489   4.052   3.430  16.443  0.7684  0.9030 -0.3067
  298TMC3    C6 4490   4.056   3.409  16.310 -0.1025  0.2717  0.1007
  298TMC3     C 4491   4.398   3.381  16.546  0.2741 -0.5921  0.2718
  298TMC3     O 4492   4.383   3.341  16.668 -0.4673  0.6246  0.1223
  298TMC3     H 4493   4.381   3.311  16.285 -2.7590 -1.2205 -3.2669
  298TMC3    H1 4494   4.161   3.427  16.628 -0.3669  3.2970 -0.5584
  298TMC3    H2 4495   3.977   3.423  16.237  1.9862 -1.5925 -2.5248
  298TMC3    C7 4496   3.947   3.507  16.505  0.2982  0.5419 -0.0472
  298TMC3    C8 4497   4.179   3.313  16.117 -0.2808 -0.8267  0.1423
  298TMC3    O1 4498   3.979   3.586  16.595  0.0690  0.3299 -0.2251
  298TMC3    O2 4499   4.288   3.319  16.061  0.0667  0.0849  0.1970
  299MPD2     C 4500   0.474   3.286   9.964 -0.9547  0.4865 -0.1633
  299MPD2    C1 4501   0.400   3.203  10.045 -0.1696  0.0115 -0.9434
  299MPD2    C2 4502   0.271   3.160  10.012 -0.4918  0.5600  0.1463
  299MPD2    C3 4503   0.219   3.203   9.891 -0.3989 -0.7328 -0.2040
  299MPD2    C4 4504   0.293   3.289   9.808  0.2304 -0.0354 -0.4328
  299MPD2    C5 4505   0.421   3.327   9.846 -0.4358  0.1532  1.3167
  299MPD2     H 4506   0.203   3.104  10.075  0.7586 -1.6290 -0.4761
  299MPD2    H1 4507   0.256   3.315   9.710  1.7684 -1.0447 -1.2883
  299MPD2    H2 4508   0.572   3.324   9.990 -0.0214 -1.0754 -1.4164
  299MPD2    H3 4509   0.479   3.386   9.776 -0.6073 -2.5483 -1.0877
  299MPD2     N 4510   0.088   3.169   9.858 -0.0655  0.1621  0.1139
  299MPD2    H5 4511   0.053   3.225   9.780 -1.8042  1.0309  1.5330
  299MPD2    N1 4512   0.460   3.183  10.173  0.0811 -0.0299 -0.2810
  299MPD2    H7 4513   0.535   3.244  10.203 -0.6098 -0.5573  2.4984
  300TMC3    C1 4514   4.588   3.126   9.885 -0.0917 -0.1706 -0.0714
  300TMC3    C2 4515   4.538   3.251   9.880  0.1054 -0.4623  0.4732
  300TMC3    C3 4516   4.402   3.266   9.867 -0.6913 -0.2318 -0.2711
  300TMC3    C4 4517   4.504   3.022   9.875  0.0560  0.8525  0.2270
  300TMC3    C5 4518   4.372   3.039   9.847  0.0143  0.3627  0.0267
  300TMC3    C6 4519   4.320   3.160   9.835  0.0043  0.9379 -0.0879
  300TMC3     C 4520   0.001   3.093   9.928 -0.1891  0.0966  0.1072
  300TMC3     O 4521   0.019   3.000  10.002 -0.0162 -0.3174  0.4160
  300TMC3     H 4522   4.612   3.329   9.894 -1.5392  1.0436  0.8180
  300TMC3    H1 4523   4.547   2.922   9.876 -0.5348  0.5927 -0.8838
  300TMC3    H2 4524   4.212   3.168   9.834 -0.0137  0.8215  0.9281
  300TMC3    C7 4525   4.276   2.925   9.863 -1.0059 -0.2956 -0.4254
  300TMC3    C8 4526   4.356   3.360   9.970  0.3853 -0.3434  0.1134
  300TMC3    O1 4527   4.173   2.927   9.798  0.1971  0.5853 -0.5336
  300TMC3    O2 4528   4.451   3.429  10.013  0.2006 -0.0419 -0.0068
  301MPD2     C 4529   2.623   4.482   1.192 -0.1116  0.0608  0.4108
  301MPD2    C1 4530   2.491   4.434   1.186 -0.4653 -0.0200 -0.3473
  301MPD2    C2 4531   2.476   4.298   1.191  0.0564  0.3591  0.5618
  301MPD2    C3 4532   2.584   4.213   1.198 -0.0944 -0.3441 -0.2310
  301MPD2    C4 4533   2.711   4.265   1.207 -0.1910 -0.0081  0.4392
  301MPD2    C5 4534   2.729   4.396   1.196  0.1603 -0.1303 -0.5540
  301MPD2     H 4535   2.373   4.265   1.182  0.0413  0.0549  1.7939
  301MPD2    H1 4536   2.797   4.199   1.215 -0.7783 -0.5076  2.7178
  301MPD2    H2 4537   2.647   4.588   1.194 -0.2388  0.0696  1.1857
  301MPD2    H3 4538   2.833   4.428   1.192  0.0357  0.4014  0.6908
  301MPD2     N 4539   2.580   4.069   1.201 -0.0108 -0.2937  0.1064
  301MPD2    H5 4540   2.662   4.011   1.189  0.2954 -0.0789  1.2083
  301MPD2    N1 4541   2.379   4.512   1.174 -0.1498  0.5013 -0.0692
  301MPD2    H7 4542   2.291   4.466   1.156 -0.4064  1.3146 -0.9058
  302TMC3    C1 4543   2.466   3.862   1.194 -0.2448 -0.0677  0.7627
  302TMC3    C2 4544   2.589   3.803   1.222 -0.3962 -0.4040  0.4261
  302TMC3    C3 4545   2.581   3.667   1.240  0.0472 -0.7147  0.0995
  302TMC3    C4 4546   2.350   3.803   1.165 -0.2306 -0.0817 -0.3359
  302TMC3    C5 4547   2.354   3.669   1.167 -0.1197  0.9121 -0.0503
  302TMC3    C6 4548   2.467   3.599   1.206 -0.1501 -0.3379  0.2043
  302TMC3     C 4549   2.458   4.002   1.210  0.3010  0.4396  0.2772
  302TMC3     O 4550   2.343   4.041   1.222  0.4616  0.1503 -0.1025
  302TMC3     H 4551   2.675   3.862   1.249 -0.6012  0.3904 -0.6718
  302TMC3    H1 4552   2.268   3.863   1.128  0.1549 -0.7137 -2.2139
  302TMC3    H2 4553   2.479   3.491   1.200  1.4323 -0.1272 -0.5098
  302TMC3    C7 4554   2.243   3.604   1.097 -0.1633 -0.4164 -0.3517
  302TMC3    C8 4555   2.698   3.589   1.227 -0.5284  0.3884  0.5932
  302TMC3    O1 4556   2.264   3.483   1.080  0.0026 -0.3862 -0.3219
  302TMC3    O2 4557   2.678   3.467   1.209  0.0870  0.1005  0.0870
  303MPD2     C 4558   2.229   2.518  10.482  0.4533  0.1073 -0.3728
  303MPD2    C1 4559   2.090   2.514  10.461  0.0999 -0.7724  1.2524
  303MPD2    C2 4560   2.034   2.606  10.374 -0.1630  0.5344  0.1942
  303MPD2    C3 4561   2.115   2.677  10.293  0.1373 -0.3441  0.6352
  303MPD2    C4 4562   2.249   2.673  10.305 -0.5421 -0.0751 -0.2258
  303MPD2    C5 4563   2.307   2.597  10.404 -0.5640 -0.4207  0.4374
  303MPD2     H 4564   1.927   2.609  10.355 -0.3428 -0.2665  1.0571
  303MPD2    H1 4565   2.315   2.722  10.234 -0.3844  0.8252  0.5463
  303MPD2    H2 4566   2.283   2.460  10.557 -0.7348 -1.9689 -1.1195
  303MPD2    H3 4567   2.412   2.602  10.430 -0.3843 -0.9541 -0.2018
  303MPD2     N 4568   2.070   2.763  10.188  0.7423 -0.2703  0.6841
  303MPD2    H5 4569   2.141   2.810  10.132 -0.6265  2.0892  0.9074
  303MPD2    N1 4570   2.014   2.420  10.528  0.3165 -0.3175 -0.3602
  303MPD2    H7 4571   2.058   2.355  10.592  0.3437  1.1239  1.1008
  304TMC3    C1 4572   1.843   2.267  10.562 -0.4028  0.3618 -0.5288
  304TMC3    C2 4573   1.727   2.261  10.639 -0.3322 -0.2738 -0.3485
  304TMC3    C3 4574   1.672   2.139  10.661 -0.5540  0.5202 -0.4218
  304TMC3    C4 4575   1.902   2.155  10.511 -0.1699 -0.2761 -0.4496
  304TMC3    C5 4576   1.828   2.036  10.520  0.1082 -0.2884  0.3926
  304TMC3    C6 4577   1.716   2.026  10.597  0.1423 -0.0388  1.0821
  304TMC3     C 4578   1.880   2.403  10.530  0.3698  0.3755 -0.3295
  304TMC3     O 4579   1.785   2.471  10.482 -0.1865 -0.2069  0.4391
  304TMC3     H 4580   1.674   2.352  10.666 -2.8416 -1.8395 -0.0273
  304TMC3    H1 4581   1.986   2.159  10.443 -0.4101  0.8342 -0.6782
  304TMC3    H2 4582   1.666   1.930  10.599  0.6997 -0.3619 -0.6403
  304TMC3    C7 4583   1.788   1.990  10.383 -0.3023  0.4943  0.7195
  304TMC3    C8 4584   1.529   2.149  10.648  0.4218  0.4515 -0.4632
  304TMC3    O1 4585   1.671   1.954  10.377 -0.4958  0.8004 -0.0542
  304TMC3    O2 4586   1.474   2.228  10.720  0.1653 -0.2404  0.0183
  305MPD2     C 4587   0.693   4.293  13.952 -0.3953  0.3791  0.0343
  305MPD2    C1 4588   0.794   4.354  13.888 -0.3013  0.6650  0.3916
  305MPD2    C2 4589   0.798   4.340  13.750  0.1555  0.5958  0.4778
  305MPD2    C3 4590   0.698   4.283  13.675  0.5766  0.1142 -0.9569
  305MPD2    C4 4591   0.594   4.220  13.743 -0.2929  0.2380 -0.5203
  305MPD2    C5 4592   0.596   4.222  13.882 -0.2139  0.0631 -0.3688
  305MPD2     H 4593   0.880   4.385  13.694  0.3033  0.3789  0.5187
  305MPD2    H1 4594   0.506   4.182  13.693  0.2332 -1.0805 -0.4371
  305MPD2    H2 4595   0.680   4.316  14.057 -2.3289  0.6712 -0.2704
  305MPD2    H3 4596   0.505   4.185  13.927 -0.3559 -0.6890 -1.2601
  305MPD2     N 4597   0.694   4.280  13.531  0.8097  0.1419 -0.0325
  305MPD2    H5 4598   0.619   4.227  13.488  0.2508  2.5061 -1.9836
  305MPD2    N1 4599   0.903   4.394  13.964  0.3697 -0.1725 -0.2467
  305MPD2    H7 4600   0.899   4.364  14.061 -2.0086 -2.0475 -0.9202
  306TMC3    C1 4601   1.037   4.548  14.068 -0.6285 -0.3880  0.4209
  306TMC3    C2 4602   1.112   4.449  14.129 -0.7143 -0.1571  0.0936
  306TMC3    C3 4603   1.147   4.479  14.259 -0.0579 -0.7196  0.3183
  306TMC3    C4 4604   1.005   4.670  14.128 -0.2211 -0.2466 -0.3305
  306TMC3    C5 4605   1.041   4.693  14.261 -0.1736 -0.2345 -0.8472
  306TMC3    C6 4606   1.112   4.597  14.328  0.0894 -0.4161 -0.1593
  306TMC3     C 4607   0.976   4.511  13.935 -1.3802 -0.2863  0.1804
  306TMC3     O 4608   0.967   4.585  13.836  0.4831  0.0557 -0.0654
  306TMC3     H 4609   1.134   4.347  14.100 -0.0914 -0.3042  1.0814
  306TMC3    H1 4610   0.962   0.036  14.081  1.2850  0.0805 -1.1092
  306TMC3    H2 4611   1.130   4.600  14.435  2.2368 -2.3909 -0.4755
  306TMC3    C7 4612   0.987   0.089  14.337 -0.1886 -0.4738  0.4402
  306TMC3    C8 4613   1.208   4.373  14.335 -0.4114  0.1581 -0.8803
  306TMC3    O1 4614   0.894   0.142  14.279 -0.6989 -0.3545  0.3103
  306TMC3    O2 4615   1.309   4.325  14.292  0.9927 -0.1642  0.1544
  307MPD2     C 4616   3.020   2.260   0.535  0.2369  0.0984 -0.3823
  307MPD2    C1 4617   3.003   2.358   0.631 -0.5969  0.5488  0.9774
  307MPD2    C2 4618   2.893   2.350   0.714  0.1353  0.4420 -0.5973
  307MPD2    C3 4619   2.816   2.238   0.707 -0.2264 -0.5018  1.0930
  307MPD2    C4 4620   2.844   2.139   0.614  1.0043 -0.2501  0.7481
  307MPD2    C5 4621   2.943   2.152   0.520  0.1140  0.3567 -0.7080
  307MPD2     H 4622   2.872   2.422   0.792  0.6114 -0.1556  0.0869
  307MPD2    H1 4623   2.814   2.035   0.619 -3.0333  1.0808  3.5378
  307MPD2    H2 4624   3.105   2.260   0.468  1.9784 -1.6675  1.8717
  307MPD2    H3 4625   2.981   2.071   0.459  1.0413 -1.5506  2.4566
  307MPD2     N 4626   2.707   2.232   0.792 -0.1606 -0.2267  0.1182
  307MPD2    H5 4627   2.682   2.306   0.856 -1.3186 -0.1961 -0.3730
  307MPD2    N1 4628   3.066   2.487   0.615  0.8074  0.2346 -0.7865
  307MPD2    H7 4629   3.042   2.566   0.674  0.4680 -0.0565 -0.5365
  308TMC3    C1 4630   2.257   2.191   0.895 -0.4462 -0.2670 -0.0855
  308TMC3    C2 4631   2.290   2.256   1.014  0.2538  0.1513  0.4472
  308TMC3    C3 4632   2.414   2.260   1.069 -0.4308  0.0544 -0.6067
  308TMC3    C4 4633   2.368   2.146   0.831  0.3784 -0.0351  0.0739
  308TMC3    C5 4634   2.496   2.158   0.883 -0.2848  1.1075 -0.4600
  308TMC3    C6 4635   2.524   2.217   1.001  0.4125  0.7817 -0.1835
  308TMC3     C 4636   2.170   2.265   0.813 -0.2091 -0.1333  0.2367
  308TMC3     O 4637   2.149   2.382   0.850 -0.1941 -0.4790  0.0660
  308TMC3     H 4638   2.206   2.294   1.071  1.3170  0.0545  2.0928
  308TMC3    H1 4639   2.361   2.137   0.723 -0.2244 -0.1640  0.1193
  308TMC3    H2 4640   2.626   2.209   1.038  1.2762 -0.0184 -2.7927
  308TMC3    C7 4641   2.607   2.128   0.796 -0.1771 -0.7307 -0.7233
  308TMC3    C8 4642   2.432   2.365   1.168  0.0412  0.3230  0.2395
  308TMC3    O1 4643   2.597   2.039   0.707 -0.1336  0.0881  0.8784
  308TMC3    O2 4644   2.541   2.358   1.229 -0.0831 -0.0201 -0.4125
  309MPD2     C 4645   2.674   2.749  17.121  0.6411 -0.3632  0.2464
  309MPD2    C1 4646   2.627   2.818  17.010 -0.1929  0.8189  0.4709
  309MPD2    C2 4647   2.524   2.907  17.029  0.2470 -0.3599  0.1926
  309MPD2    C3 4648   2.472   2.926  17.156 -0.3698 -0.1645 -0.1417
  309MPD2    C4 4649   2.522   2.857  17.267  0.0856 -0.2757  0.1697
  309MPD2    C5 4650   2.606   2.753  17.238  0.0091  0.3482  0.0702
  309MPD2     H 4651   2.495   2.969  16.945  2.3102 -2.2097 -1.8876
  309MPD2    H1 4652   2.485   2.867  17.368 -1.7620 -1.0396 -0.4320
  309MPD2    H2 4653   2.748   2.670  17.114 -0.0385 -0.8519 -1.3396
  309MPD2    H3 4654   2.633   2.683  17.317 -2.3276 -1.0847 -0.3964
  309MPD2     N 4655   2.375   3.023  17.179 -0.0399  0.0564  0.3116
  309MPD2    H5 4656   2.368   3.054  17.276 -1.3455 -0.6708  0.4547
  309MPD2    N1 4657   2.678   2.806  16.872  0.3858 -0.1966  0.0342
  309MPD2    H7 4658   2.639   2.874  16.807 -0.3765 -0.8731 -0.2225
  310TMC3    C1 4659   2.820   2.737  16.694 -0.3904 -0.9476 -0.5567
  310TMC3    C2 4660   2.783   2.848  16.625 -0.5292 -0.1712  0.5936
  310TMC3    C3 4661   2.846   2.874  16.503  0.3510 -0.1092  0.0644
  310TMC3    C4 4662   2.928   2.665  16.658 -0.1593 -0.6044  0.5009
  310TMC3    C5 4663   2.988   2.683  16.531  0.0481 -0.1597  0.5296
  310TMC3    C6 4664   2.947   2.793  16.453 -0.0940 -0.5934 -0.3732
  310TMC3     C 4665   2.784   2.736  16.831 -0.1864  0.0142 -0.2024
  310TMC3     O 4666   2.863   2.679  16.905  0.2190  0.6363 -0.3000
  310TMC3     H 4667   2.706   2.913  16.664  0.2317 -0.0130  1.8368
  310TMC3    H1 4668   2.963   2.581  16.716 -0.8311 -2.6323 -2.0422
  310TMC3    H2 4669   2.999   2.816  16.361 -0.2145 -0.9241 -0.5243
  310TMC3    C7 4670   3.125   2.632  16.538  0.0664 -0.2874 -0.0846
  310TMC3    C8 4671   2.802   2.982  16.413 -0.1471 -0.6108 -0.6130
  310TMC3    O1 4672   3.133   2.519  16.579 -0.1997  0.6705  0.7381
  310TMC3    O2 4673   2.818   2.968  16.289  0.5566 -0.4841  0.3671
  311MPD2     C 4674   4.598   4.040  12.587 -0.1367  0.4984  0.5638
  311MPD2    C1 4675   4.590   4.180  12.583 -0.3962  0.6645  0.1552
  311MPD2    C2 4676   4.475   4.235  12.641 -0.4727  0.7961 -0.4310
  311MPD2    C3 4677   4.377   4.163  12.704  0.8869 -0.4549  0.2367
  311MPD2    C4 4678   4.391   4.026  12.708  0.6205 -0.7999 -0.5745
  311MPD2    C5 4679   4.497   3.964  12.642 -0.4649  0.2684 -0.3144
  311MPD2     H 4680   4.461   4.342  12.639 -2.4082  0.5437  0.2152
  311MPD2    H1 4681   4.314   3.966  12.754 -0.1888  0.8540  0.2269
  311MPD2    H2 4682   4.681   3.984  12.547 -0.3532  1.2458 -0.9174
  311MPD2    H3 4683   4.505   3.856  12.649 -1.6699  0.2444  0.7108
  311MPD2     N 4684   4.272   4.240  12.760  0.2849  1.2092  0.1372
  311MPD2    H5 4685   4.268   4.339  12.741 -0.7415  1.0727 -0.3891
  311MPD2    N1 4686   4.690   4.270  12.533 -0.0257 -0.0359  0.4675
  311MPD2    H7 4687   4.672   4.369  12.521 -1.0629 -0.2739 -0.0082
  312TMC3    C1 4688   4.073   4.304  12.875  0.5230 -0.7651  0.6526
  312TMC3    C2 4689   3.942   4.288  12.839 -0.2346  0.6728 -0.4759
  312TMC3    C3 4690   3.867   4.404  12.812  0.5885 -0.0760 -0.5033
  312TMC3    C4 4691   4.126   4.436  12.877 -0.1623  0.3254 -0.5293
  312TMC3    C5 4692   4.046   4.544  12.855 -0.2232 -0.2753  0.0554
  312TMC3    C6 4693   3.917   4.532  12.810  0.1289 -0.2082  0.7060
  312TMC3     C 4694   4.168   4.198  12.839 -0.6885  0.0356 -0.9769
  312TMC3     O 4695   4.136   4.085  12.873 -0.4165  0.5005 -0.5271
  312TMC3     H 4696   3.899   4.189  12.829 -0.1127  0.4836  0.8948
  312TMC3    H1 4697   4.233   4.449  12.888 -0.0270  0.2465 -1.6748
  312TMC3    H2 4698   3.860   4.621  12.787 -0.7249 -1.0872 -0.5795
  312TMC3    C7 4699   4.117   4.666  12.841  0.2432  0.2513  0.4293
  312TMC3    C8 4700   3.738   4.374  12.755  0.6490  0.0191 -0.6652
  312TMC3    O1 4701   4.102   0.005  12.735  0.8753 -0.9659  0.0750
  312TMC3    O2 4702   3.692   4.265  12.789  0.4611  0.1126 -0.1139
  313MPD2     C 4703   4.192   3.556  10.802  0.5108 -0.3049 -1.0395
  313MPD2    C1 4704   4.057   3.583  10.790 -0.1151  0.6965  0.3284
  313MPD2    C2 4705   3.985   3.535  10.683  0.5855 -1.0689 -0.6865
  313MPD2    C3 4706   4.043   3.438  10.599  0.2988 -0.2566  0.0689
  313MPD2    C4 4707   4.165   3.389  10.631  0.2413  0.3215 -0.0118
  313MPD2    C5 4708   4.236   3.449  10.733  0.4809 -0.0416  0.8846
  313MPD2     H 4709   3.892   3.582  10.652  1.4857  0.1248 -1.5968
  313MPD2    H1 4710   4.214   3.306  10.581 -0.2535 -0.1644  0.2991
  313MPD2    H2 4711   4.256   3.594  10.881 -0.6185 -3.4671  1.4196
  313MPD2    H3 4712   4.337   3.411  10.742  1.1821  0.9848 -2.4353
  313MPD2     N 4713   3.966   3.396  10.494  0.8026  0.0643 -0.3507
  313MPD2    H5 4714   3.871   3.431  10.498  0.8379  0.1248 -0.0272
  313MPD2    N1 4715   4.006   3.697  10.864 -1.2959  0.4718 -0.2263
  313MPD2    H7 4716   4.081   3.751  10.905  3.4955 -2.8419 -4.6842
  314TMC3    C1 4717   3.857   3.863  10.940  0.2962  0.1333 -0.3513
  314TMC3    C2 4718   3.964   3.918  11.006 -0.5712  0.0912  0.0517
  314TMC3    C3 4719   3.955   4.056  11.021 -0.0233  0.0987 -0.5259
  314TMC3    C4 4720   3.744   3.935  10.904 -0.0747  0.1593 -0.1906
  314TMC3    C5 4721   3.739   4.065  10.928 -0.1140 -0.1669 -0.4230
  314TMC3    C6 4722   3.852   4.127  10.969  0.0822 -0.7189  0.3154
  314TMC3     C 4723   3.874   3.735  10.877  0.3264 -0.3274 -0.7682
  314TMC3     O 4724   3.772   3.681  10.837  0.0393 -0.3934 -0.2620
  314TMC3     H 4725   4.057   3.869  11.031 -0.5183  1.2082  2.0482
  314TMC3    H1 4726   3.672   3.885  10.841 -1.4759  2.4292 -0.3778
  314TMC3    H2 4727   3.833   4.233  10.986 -0.3034 -0.8814  0.8915
  314TMC3    C7 4728   3.655   4.139  10.833 -0.1044  0.0718  0.4748
  314TMC3    C8 4729   4.068   4.144  11.052  0.1688 -0.8724 -0.2732
  314TMC3    O1 4730   3.544   4.101  10.816  0.1057  0.2083 -0.0502
  314TMC3    O2 4731   4.078   4.243  10.981  0.4737 -0.4784 -0.4284
  315MPD2     C 4732   3.985   2.924  17.647 -0.7736  0.7538  0.5804
  315MPD2    C1 4733   4.118   2.907   0.011 -0.2592  0.0200  0.3373
  315MPD2    C2 4734   4.214   2.990  17.657 -0.0889 -0.4416  0.0575
  315MPD2    C3 4735   4.170   3.102  17.585 -0.2791 -0.2195  0.0861
  315MPD2    C4 4736   4.048   3.105  17.521  0.3397  1.6349  0.1517
  315MPD2    C5 4737   3.952   3.010  17.549  0.4468  0.0627  0.0607
  315MPD2     H 4738   4.318   2.988   0.003  0.1102 -1.1885 -0.6703
  315MPD2    H1 4739   4.021   3.185  17.453 -0.6576  0.7407 -0.4990
  315MPD2    H2 4740   3.906   2.861   0.001  1.5372 -1.2194  2.1413
  315MPD2    H3 4741   3.851   3.029  17.516  0.2478  1.6601  1.5988
  315MPD2     N 4742   4.254   3.215  17.569  0.1816  1.3499  0.4097
  315MPD2    H5 4743   4.338   3.214  17.626 -0.4446 -0.9152  1.2985
  315MPD2    N1 4744   4.157   2.818   0.110 -0.8593  0.0509  0.1283
  315MPD2    H7 4745   4.247   2.831   0.155 -0.8259 -2.5325  0.8422
  316TMC3    C1 4746   4.299   3.452  17.575  0.0359  0.4300  0.6913
  316TMC3    C2 4747   4.377   3.432   0.001  0.7539  0.2742 -0.2733
  316TMC3    C3 4748   4.420   3.546   0.069  0.3363 -0.0201 -0.0708
  316TMC3    C4 4749   4.284   3.575  17.513  0.2095  0.5889  1.1498
  316TMC3    C5 4750   4.338   3.681  17.573  0.3503  0.5719  0.6407
  316TMC3    C6 4751   4.404   3.670   0.011  0.2504 -0.4459 -0.3192
  316TMC3     C 4752   4.224   3.343  17.527  0.3433 -0.1868  0.7266
  316TMC3     O 4753   4.132   3.378  17.456 -0.1237  0.1405  0.0420
  316TMC3     H 4754   4.367   3.343   0.063  0.7108  0.5833  0.1612
  316TMC3    H1 4755   4.234   3.591  17.419 -0.2350  0.9249  1.4440
  316TMC3    H2 4756   4.453   3.754   0.059  0.5681 -0.4277 -0.6734
  316TMC3    C7 4757   4.300   3.813  17.535  0.4893 -0.2808 -0.0700
  316TMC3    C8 4758   4.480   3.537   0.197  0.6877 -0.2326  0.3177
  316TMC3    O1 4759   4.383   3.890  17.576 -0.0853 -0.2761 -0.0567
  316TMC3    O2 4760   4.480   3.638   0.269 -0.1207 -0.3551 -0.2254
  317MPD2     C 4761   0.788   1.606  12.757 -0.1817 -0.4764 -0.3229
  317MPD2    C1 4762   0.892   1.515  12.723 -0.1406  0.0354 -0.1030
  317MPD2    C2 4763   0.966   1.463  12.828 -0.4267 -0.3061  1.0980
  317MPD2    C3 4764   0.965   1.501  12.956 -0.0966 -0.4812 -0.4712
  317MPD2    C4 4765   0.873   1.601  12.981 -0.1923 -0.4237 -0.0992
  317MPD2    C5 4766   0.787   1.649  12.889  0.0659  0.0398 -1.1903
  317MPD2     H 4767   1.032   1.380  12.806  0.7990  1.1770 -0.8091
  317MPD2    H1 4768   0.857   1.649  13.077  2.1197  1.0019 -0.4236
  317MPD2    H2 4769   0.733   1.660  12.682  2.6289  2.2439 -0.3971
  317MPD2    H3 4770   0.727   1.734  12.921  3.6111  0.9785  2.9769
  317MPD2     N 4771   1.063   1.441  13.042 -1.2593  0.3816  0.1043
  317MPD2    H5 4772   1.103   1.358  13.001  0.5973  1.2530  0.1575
  317MPD2    N1 4773   0.933   1.485  12.593 -0.3542  0.2220 -0.0530
  317MPD2    H7 4774   1.014   1.423  12.589  1.0463  1.8889  2.7557
  318TMC3    C1 4775   1.171   1.403  13.259  0.4518 -0.1272  0.0047
  318TMC3    C2 4776   1.165   1.266  13.242  0.4158 -0.9405 -0.3134
  318TMC3    C3 4777   1.235   1.189  13.337 -0.7135 -0.0884 -0.4782
  318TMC3    C4 4778   1.242   1.464  13.359 -0.1215 -0.6684 -1.1385
  318TMC3    C5 4779   1.315   1.383  13.447 -0.3231  0.4351 -1.1025
  318TMC3    C6 4780   1.313   1.248  13.433 -0.3162 -0.2811  0.6684
  318TMC3     C 4781   1.086   1.482  13.170 -0.5374 -0.0035  0.3766
  318TMC3     O 4782   1.042   1.582  13.221 -0.4204 -0.4671  0.0305
  318TMC3     H 4783   1.115   1.219  13.158  1.8791  3.1123 -3.4626
  318TMC3    H1 4784   1.251   1.572  13.362 -0.0738 -0.7794  3.3156
  318TMC3    H2 4785   1.368   1.177  13.495  2.1959  1.0088 -0.0728
  318TMC3    C7 4786   1.409   1.446  13.541  0.4572 -0.3979  0.1614
  318TMC3    C8 4787   1.231   1.045  13.323  0.5817  0.3732 -0.2783
  318TMC3    O1 4788   1.378   1.563  13.572  0.9706  0.2095 -0.5051
  318TMC3    O2 4789   1.317   0.966  13.374 -0.4904 -0.1555  0.5151
  319MPD2     C 4790   2.062   2.660  16.531  0.0357  0.1597  0.1609
  319MPD2    C1 4791   1.945   2.608  16.571 -0.1882 -0.0706 -0.9644
  319MPD2    C2 4792   1.868   2.545  16.478 -0.8388 -0.1733 -0.3459
  319MPD2    C3 4793   1.901   2.541  16.343  0.0539  1.3556  0.5927
  319MPD2    C4 4794   2.023   2.596  16.307  0.0553 -0.1425 -0.1928
  319MPD2    C5 4795   2.101   2.654  16.404  0.1930  0.8973 -0.0932
  319MPD2     H 4796   1.770   2.509  16.507 -1.8455  3.6779  1.1055
  319MPD2    H1 4797   2.053   2.607  16.204 -0.1313  3.7881  0.1532
  319MPD2    H2 4798   2.134   2.713  16.593 -0.4945 -0.3587  1.2217
  319MPD2    H3 4799   2.193   2.703  16.372 -0.3074  0.1019 -2.7225
  319MPD2     N 4800   1.819   2.502  16.243 -0.1520 -0.6581  0.2766
  319MPD2    H5 4801   1.831   2.523  16.145 -1.9455  0.4682  0.2952
  319MPD2    N1 4802   1.893   2.621  16.703 -0.0745  1.1043  0.1957
  319MPD2    H7 4803   1.808   2.570  16.727  0.4138 -0.5379 -1.6455
  320TMC3    C1 4804   1.629   2.414  16.139 -0.3282 -0.3119 -0.3397
  320TMC3    C2 4805   1.606   2.530  16.068  0.6483  0.0119 -1.1624
  320TMC3    C3 4806   1.565   2.523  15.938 -0.3736  0.0740  0.2295
  320TMC3    C4 4807   1.614   2.287  16.089  0.1355  0.1773  0.1086
  320TMC3    C5 4808   1.560   2.287  15.960 -0.2023 -0.1210  0.3140
  320TMC3    C6 4809   1.540   2.396  15.881 -0.5764  0.4672  0.8220
  320TMC3     C 4810   1.710   2.423  16.259 -0.2369 -0.4114  0.2773
  320TMC3     O 4811   1.685   2.341  16.348 -0.3476  0.4333 -0.0372
  320TMC3     H 4812   1.641   2.623  16.112  0.7925 -1.1104  1.0765
  320TMC3    H1 4813   1.647   2.200  16.144  0.7667 -1.2522 -2.5206
  320TMC3    H2 4814   1.491   2.373  15.787 -0.3557  2.9717  0.0990
  320TMC3    C7 4815   1.504   2.163  15.927  0.8479 -0.1441  0.5674
  320TMC3    C8 4816   1.521   2.651  15.881 -0.1078 -0.0593 -0.5134
  320TMC3    O1 4817   1.501   2.122  15.814  0.0087 -0.9145 -0.0415
  320TMC3    O2 4818   1.529   2.747  15.954  0.1566  0.2099 -0.7893
  321TMC3    C1 4819   1.866   2.702  16.915 -0.1216  0.0522 -0.3912
  321TMC3    C2 4820   1.849   2.574  16.965 -0.4556 -0.0762  0.3439
  321TMC3    C3 4821   1.806   2.567  17.094  1.0896 -0.4383 -0.4543
  321TMC3    C4 4822   1.870   2.813  16.990 -0.2529 -1.5889  0.1073
  321TMC3    C5 4823   1.819   2.804  17.114  0.1414 -0.5849  0.2210
  321TMC3    C6 4824   1.785   2.680  17.170 -0.9649 -0.1283  0.2277
  321TMC3     C 4825   1.941   2.714  16.793 -0.3154 -0.0116  0.1931
  321TMC3     O 4826   2.010   2.816  16.772  0.1015 -0.4977  0.2945
  321TMC3     H 4827   1.856   2.486  16.903  1.4146  1.1176 -1.1418
  321TMC3    H1 4828   1.884   2.915  16.953  0.3002 -0.7418  2.6550
  321TMC3    H2 4829   1.775   2.679  17.278  1.3263  0.2022  0.4522
  321TMC3    C7 4830   1.908   2.881  17.204 -0.3533  0.3511 -0.0903
  321TMC3    C8 4831   1.887   2.478  17.167  0.2381  0.4071  0.2080
  321TMC3    O1 4832   1.899   3.007  17.204 -0.4838  0.3277  0.8130
  321TMC3    O2 4833   1.969   2.537  17.233 -0.0114  0.2427  0.2495
  322MPD2     C 4834   1.117   4.196  13.371 -0.1793  0.1829  0.4940
  322MPD2    C1 4835   1.135   4.127  13.492  0.1114 -0.0013 -0.0122
  322MPD2    C2 4836   1.132   3.985  13.483 -0.4535  0.1013  0.4165
  322MPD2    C3 4837   1.121   3.918  13.362 -0.4350  0.8196 -0.4577
  322MPD2    C4 4838   1.114   3.997  13.246 -0.2483  0.3191  0.4292
  322MPD2    C5 4839   1.117   4.132  13.249  0.0064  0.1789 -0.0495
  322MPD2     H 4840   1.146   3.924  13.572  2.2280 -2.8355 -2.0570
  322MPD2    H1 4841   1.099   3.956  13.147  2.7655  1.7059 -0.5889
  322MPD2    H2 4842   1.111   4.304  13.366 -0.1037  0.1216 -0.9644
  322MPD2    H3 4843   1.104   4.188  13.157 -0.7358  1.6432  0.9490
  322MPD2     N 4844   1.102   3.775  13.355  0.1871  0.1075  0.3962
  322MPD2    H5 4845   1.111   3.728  13.444  2.6055  0.6839  0.4434
  322MPD2    N1 4846   1.164   4.200  13.616  0.1610 -0.0376  0.7325
  322MPD2    H7 4847   1.173   4.300  13.608 -1.2347  0.1581  1.5650
  323TMC3    C1 4848   1.231   4.230  13.851 -0.2369 -0.0498  0.3173
  323TMC3    C2 4849   1.298   4.347  13.826  0.3254 -1.0714  0.4577
  323TMC3    C3 4850   1.410   4.387  13.897 -0.2146 -0.0286  0.2844
  323TMC3    C4 4851   1.276   4.155  13.959  0.5017  0.2161  0.1554
  323TMC3    C5 4852   1.389   4.194  14.028 -0.5444 -0.4664 -0.5385
  323TMC3    C6 4853   1.457   4.305  13.992  0.1696 -0.0569 -0.5985
  323TMC3     C 4854   1.175   4.152  13.744  0.6459  0.1552 -0.0481
  323TMC3     O 4855   1.154   4.034  13.772 -0.5360 -0.5679  0.4615
  323TMC3     H 4856   1.260   4.416  13.752  1.8017 -1.4197 -0.6201
  323TMC3    H1 4857   1.222   4.063  13.977 -1.6044  0.9332 -2.4252
  323TMC3    H2 4858   1.548   4.331  14.045  0.4176 -2.1853  0.0244
  323TMC3    C7 4859   1.472   4.089  14.079  0.3621 -0.4142 -0.4341
  323TMC3    C8 4860   1.515   4.464  13.829 -0.1144  0.3168  0.4068
  323TMC3    O1 4861   1.579   4.082  14.033  0.1746  0.0768  0.4873
  323TMC3    O2 4862   1.632   4.454  13.859  0.0106  0.1856 -0.7289
  324MPD2     C 4863   2.685   0.373  13.988 -0.3130 -0.2443  0.5814
  324MPD2    C1 4864   2.762   0.387  14.102 -0.0765  0.1831 -0.6169
  324MPD2    C2 4865   2.707   0.331  14.220 -0.0498  0.5274  0.0968
  324MPD2    C3 4866   2.594   0.253  14.217  0.0403 -0.6297  0.8630
  324MPD2    C4 4867   2.536   0.221  14.098  0.4119 -0.1917 -0.3327
  324MPD2    C5 4868   2.582   0.288  13.984 -0.1483 -0.0296 -0.4337
  324MPD2     H 4869   2.766   0.350  14.309  0.0870 -1.4082  0.4159
  324MPD2    H1 4870   2.452   0.154  14.085 -0.1680  0.9235 -2.2570
  324MPD2    H2 4871   2.722   0.392  13.888 -1.5444  0.1555  0.2016
  324MPD2    H3 4872   2.528   0.260  13.894  0.2191 -0.4541 -0.5202
  324MPD2     N 4873   2.531   0.207  14.339 -0.1248 -0.4103  0.4945
  324MPD2    H5 4874   2.442   0.167  14.311  0.5880 -0.3574 -1.8451
  324MPD2    N1 4875   2.891   0.447  14.097  0.2665  0.0657 -0.6296
  324MPD2    H7 4876   2.930   0.464  14.190 -1.1430  0.4076 -0.1076
  325TMC3    C1 4877   2.424   0.296  14.526  0.6228  0.2220 -0.3379
  325TMC3    C2 4878   2.318   0.235  14.480  0.3321 -0.1539 -0.0129
  325TMC3    C3 4879   2.194   0.300  14.493 -0.1787 -0.0169  0.4365
  325TMC3    C4 4880   2.406   0.423  14.576 -0.5214  0.1430 -0.7806
  325TMC3    C5 4881   2.288   0.487  14.588  0.2321  0.7309 -0.1419
  325TMC3    C6 4882   2.175   0.426  14.547  0.0909  0.0876 -0.0510
  325TMC3     C 4883   2.552   0.265  14.457 -0.4645 -0.0403 -0.3793
  325TMC3     O 4884   2.650   0.320  14.504 -0.1821 -0.0880  0.5302
  325TMC3     H 4885   2.317   0.132  14.448 -1.2493  0.5385 -2.2259
  325TMC3    H1 4886   2.492   0.481  14.608  0.2398 -1.0661 -0.6145
  325TMC3    H2 4887   2.088   0.485  14.519  0.6990  1.1856  0.4142
  325TMC3    C7 4888   2.302   0.631  14.582  0.2790 -0.2297 -0.2635
  325TMC3    C8 4889   2.092   0.248  14.404 -0.8549 -0.6893 -0.3730
  325TMC3    O1 4890   2.399   0.675  14.526 -0.1271 -0.3611 -1.1817
  325TMC3    O2 4891   2.118   0.174  14.309 -0.0925 -0.2337  0.2783
  326MPD2     C 4892   3.537   1.323  11.227  0.2674  0.1753  1.0999
  326MPD2    C1 4893   3.653   1.252  11.220  0.2352  0.2025 -0.1770
  326MPD2    C2 4894   3.776   1.323  11.238  0.1314  0.1582  0.0364
  326MPD2    C3 4895   3.779   1.460  11.238 -0.6145  0.2970  0.6361
  326MPD2    C4 4896   3.661   1.535  11.245  0.4448  0.1075 -0.0285
  326MPD2    C5 4897   3.540   1.458  11.248 -0.4382 -0.2710 -0.2187
  326MPD2     H 4898   3.862   1.258  11.229  0.7181  0.5377  2.8071
  326MPD2    H1 4899   3.651   1.643  11.234  0.2342  0.2243  1.3078
  326MPD2    H2 4900   3.442   1.270  11.228  0.1555  0.3338 -2.0819
  326MPD2    H3 4901   3.445   1.510  11.251 -0.6891 -0.6348 -1.8948
  326MPD2     N 4902   3.901   1.540  11.217 -0.0830 -0.0603 -0.2423
  326MPD2    H5 4903   3.894   1.640  11.199 -2.7481 -0.0166  0.9103
  326MPD2    N1 4904   3.656   1.110  11.192  0.2236 -0.8152 -0.3571
  326MPD2    H7 4905   3.746   1.064  11.203  0.2155 -1.2336 -2.0903
  327TMC3    C1 4906   3.602   0.930  11.058  0.4059  0.0692 -0.7981
  327TMC3    C2 4907   3.502   0.893  10.980  0.5534  0.4158  0.2010
  327TMC3    C3 4908   3.518   0.896  10.845 -0.3148 -0.5054  0.1920
  327TMC3    C4 4909   3.734   0.929  11.015 -0.8715  0.0030 -0.3164
  327TMC3    C5 4910   3.749   0.906  10.881  0.3159  0.0252 -0.1657
  327TMC3    C6 4911   3.642   0.906  10.792  0.6471 -0.0165  0.2796
  327TMC3     C 4912   3.552   1.039  11.139  0.0665  0.3684  0.0891
  327TMC3     O 4913   3.445   1.078  11.104  0.0627 -0.9793  0.0048
  327TMC3     H 4914   3.410   0.878  11.036  0.5825  0.7868  0.3495
  327TMC3    H1 4915   3.804   0.941  11.097 -2.0939  1.6650  0.5050
  327TMC3    H2 4916   3.653   0.900  10.685  1.5113 -0.4868  0.3915
  327TMC3    C7 4917   3.878   0.938  10.827 -0.0224  0.2921 -0.0348
  327TMC3    C8 4918   3.419   0.973  10.776 -0.3127  0.1707  0.5059
  327TMC3    O1 4919   3.890   0.918  10.707 -1.1077  0.2218  0.1555
  327TMC3    O2 4920   3.435   0.986  10.654  0.1148 -0.2670 -0.0993
  328MPD2     C 4921   1.542   1.310  17.286  0.4146 -0.1959  0.4832
  328MPD2    C1 4922   1.450   1.299  17.180 -0.1714 -0.5138 -1.0606
  328MPD2    C2 4923   1.399   1.413  17.124 -0.4019  0.3155  0.0549
  328MPD2    C3 4924   1.444   1.541  17.162  1.1746 -0.4760  0.9437
  328MPD2    C4 4925   1.533   1.546  17.271  0.3777 -0.1275  0.1338
  328MPD2    C5 4926   1.584   1.428  17.324  0.3090  0.0600  1.0800
  328MPD2     H 4927   1.341   1.404  17.033  0.7662  0.9120 -0.7485
  328MPD2    H1 4928   1.586   1.640  17.281  0.9243 -0.3260 -0.9322
  328MPD2    H2 4929   1.586   1.224  17.335 -0.3026 -0.7659  0.1303
  328MPD2    H3 4930   1.663   1.427  17.399  1.0161 -0.9261  0.3203
  328MPD2     N 4931   1.389   1.658  17.099 -0.0020  0.6812  0.7172
  328MPD2    H5 4932   1.434   1.742  17.134  3.0826  0.2824 -2.2054
  328MPD2    N1 4933   1.409   1.172  17.124  0.3081 -0.1828  0.2280
  328MPD2    H7 4934   1.340   1.176  17.049 -0.6227 -1.9943  0.9945
  329TMC3    C1 4935   1.380   0.958  17.055 -0.2780  0.1462 -0.0127
  329TMC3    C2 4936   1.243   0.985  17.044 -0.8520 -0.0003 -0.4093
  329TMC3    C3 4937   1.171   0.920  16.949 -1.0508  0.1303  0.2656
  329TMC3    C4 4938   1.451   0.856  16.986  0.1885  0.3378  0.0063
  329TMC3    C5 4939   1.369   0.798  16.886 -0.2145  0.0579 -0.5793
  329TMC3    C6 4940   1.235   0.833  16.867  0.1035 -0.3985  0.4080
  329TMC3     C 4941   1.462   1.048  17.137  0.0162  1.1480 -0.3375
  329TMC3     O 4942   1.557   1.009  17.204 -0.5019 -0.2048 -0.3135
  329TMC3     H 4943   1.192   1.051  17.113 -0.7291 -0.1915 -0.1380
  329TMC3    H1 4944   1.554   0.829  17.003  0.2660 -0.7603 -2.2962
  329TMC3    H2 4945   1.180   0.795  16.782  2.1901 -0.9004 -0.7185
  329TMC3    C7 4946   1.411   0.688  16.803 -0.2241 -0.3797  0.5894
  329TMC3    C8 4947   1.028   0.925  16.926 -0.5180  0.0724  0.1976
  329TMC3    O1 4948   1.329   0.603  16.765  0.0901  0.1149 -0.0518
  329TMC3    O2 4949   0.975   0.818  16.891 -0.2867 -0.2295  0.1090
  330TMC3    C1 4950   4.003   0.215   9.504  0.5243  0.0939 -0.7225
  330TMC3    C2 4951   3.919   0.152   9.422 -0.9405  0.8117  0.0831
  330TMC3    C3 4952   3.821   0.079   9.476 -0.8570  0.4142  0.9634
  330TMC3    C4 4953   3.979   0.222   9.639 -0.2330  1.2260  0.0140
  330TMC3    C5 4954   3.878   0.149   9.693 -0.1071 -0.6904 -0.3293
  330TMC3    C6 4955   3.791   0.083   9.612  0.0620 -0.2716  0.2395
  330TMC3     C 4956   4.131   0.259   9.454 -0.1680 -0.1373 -0.5151
  330TMC3     O 4957   4.230   0.236   9.521  0.6294 -0.3377  0.2788
  330TMC3     H 4958   3.934   0.155   9.315  0.8482  1.4720  0.3492
  330TMC3    H1 4959   4.053   0.260   9.709 -0.9004 -1.9929  2.4624
  330TMC3    H2 4960   3.707   0.026   9.650 -1.6604  1.2140 -1.3424
  330TMC3    C7 4961   3.852   0.174   9.833 -0.6736 -0.4464  0.0030
  330TMC3    C8 4962   3.741   4.715   9.385 -0.2220  0.3668  0.0961
  330TMC3    O1 4963   3.940   0.236   9.894  0.1479  0.2367  0.6764
  330TMC3    O2 4964   3.768   0.004   9.264  0.1548  0.4112  0.4391
  331MPD2     C 4965   1.495   0.068  12.501  0.0163 -0.2267 -0.0016
  331MPD2    C1 4966   1.620   0.093  12.458  0.2667  0.8312 -0.2899
  331MPD2    C2 4967   1.693   4.716  12.388 -0.7643 -0.4238 -0.3110
  331MPD2    C3 4968   1.639   4.593  12.359 -0.0732 -0.4015 -0.7157
  331MPD2    C4 4969   1.503   4.572  12.387 -0.4030 -0.2412 -0.4812
  331MPD2    C5 4970   1.432   4.670  12.460  0.1781 -0.0562  0.2706
  331MPD2     H 4971   1.793   0.014  12.351 -0.2944  0.9863  1.6626
  331MPD2    H1 4972   1.452   4.480  12.357  0.4575 -1.2923  1.2740
  331MPD2    H2 4973   1.437   0.140  12.557  1.2804  0.1391  0.8329
  331MPD2    H3 4974   1.333   4.645  12.495  0.7947 -1.6025  0.9034
  331MPD2     N 4975   1.728   4.504  12.289 -0.0000  0.1064 -0.0073
  331MPD2    H5 4976   1.822   4.534  12.267  0.3676 -0.7328  0.4339
  331MPD2    N1 4977   1.670   0.219  12.501 -0.1322 -0.3252 -0.1844
  331MPD2    H7 4978   1.604   0.292  12.527  2.0676  0.8271  2.1063
  332TMC3    C1 4979   1.819   4.309  12.217 -0.2631  0.4933  0.4331
  332TMC3    C2 4980   1.896   4.361  12.113  0.2298 -0.1959 -0.1381
  332TMC3    C3 4981   2.012   4.291  12.085 -1.1551 -0.5603  0.1380
  332TMC3    C4 4982   1.865   4.206  12.289 -0.0579 -0.1337 -0.3624
  332TMC3    C5 4983   1.987   4.148  12.277 -0.2926 -0.1772  0.1442
  332TMC3    C6 4984   2.062   4.190  12.169  0.2446  0.1572 -0.4184
  332TMC3     C 4985   1.698   4.371  12.264 -0.2690  0.0955 -0.9532
  332TMC3     O 4986   1.598   4.309  12.293  0.2059  0.1895 -0.0489
  332TMC3     H 4987   1.871   4.446  12.051 -0.4669 -0.3262 -0.0287
  332TMC3    H1 4988   1.807   4.179  12.376  1.7515 -0.8423  0.6179
  332TMC3    H2 4989   2.160   4.151  12.144 -0.3059 -2.3321  1.2124
  332TMC3    C7 4990   2.042   4.092  12.399  0.0266  0.1401 -0.1905
  332TMC3    C8 4991   2.121   4.352  12.004 -0.0861  0.2519 -0.1788
  332TMC3    O1 4992   1.962   4.017  12.453 -0.4891 -0.1505  0.4604
  332TMC3    O2 4993   2.234   4.302  12.009 -0.0405 -0.0207 -0.0803
  333MPD2     C 4994   2.051   0.109  11.265 -0.5914 -0.6477 -0.0979
  333MPD2    C1 4995   2.118   0.006  11.217 -0.1031 -0.2949 -0.0433
  333MPD2    C2 4996   2.084   4.595  11.243  0.3375  0.2512 -0.1728
  333MPD2    C3 4997   1.994   4.578  11.345  0.0414 -0.5510 -0.6371
  333MPD2    C4 4998   1.934   4.687  11.410 -0.1233 -0.4944  0.9122
  333MPD2    C5 4999   1.960   0.093  11.368  0.2371  0.6772  0.5102
  333MPD2     H 5000   2.136   4.510  11.199  1.7883  2.0281 -1.8733
  333MPD2    H1 5001   1.872   4.684  11.499 -1.2505  2.4059  0.2037
  333MPD2    H2 5002   2.083   0.208  11.235 -0.1989 -0.9337 -0.6221
  333MPD2    H3 5003   1.925   0.180  11.421  1.7529  0.2433  2.2012
  333MPD2     N 5004   1.961   4.442  11.381  0.4118 -0.3930 -0.1279
  333MPD2    H5 5005   2.022   4.370  11.343  1.7258  1.9342 -2.4397
  333MPD2    N1 5006   2.222   0.040  11.125 -0.0092 -0.2041  0.2605
  333MPD2    H7 5007   2.234   0.140  11.117  0.1489 -0.1299  1.3955
  334TMC3    C1 5008   2.401   0.027  10.987  0.0383  0.0181 -0.1497
  334TMC3    C2 5009   2.518   4.679  10.965 -0.6644  0.3178  0.2276
  334TMC3    C3 5010   2.612   0.005  10.884 -0.1389 -0.1811 -0.0855
  334TMC3    C4 5011   2.379   0.151  10.932 -0.2666 -0.3305  0.3278
  334TMC3    C5 5012   2.474   0.196  10.847 -0.2532  0.7439 -0.9991
  334TMC3    C6 5013   2.594   0.131  10.827 -0.2557 -0.3728 -0.2127
  334TMC3     C 5014   2.295   4.677  11.052 -0.6963 -1.0923 -0.6108
  334TMC3     O 5015   2.314   4.557  11.044 -0.5336 -0.1268  0.0364
  334TMC3     H 5016   2.533   4.575  10.995 -0.1266  0.2515 -0.2731
  334TMC3    H1 5017   2.282   0.198  10.937  0.0715  0.6339 -2.2753
  334TMC3    H2 5018   2.665   0.165  10.753 -0.2036 -1.5296 -0.6951
  334TMC3    C7 5019   2.490   0.339  10.819 -0.0371 -0.1160  0.3998
  334TMC3    C8 5020   2.732   4.644  10.866  0.0184 -0.1827 -0.9836
  334TMC3    O1 5021   2.597   0.392  10.805  0.1523 -0.3249  0.6761
  334TMC3    O2 5022   2.724   4.524  10.866 -0.6076  0.4001 -0.2178
  335TMC3    C1 5023   1.869   1.153  17.475 -0.2511  0.7133 -0.0331
  335TMC3    C2 5024   1.832   1.100  17.357  0.1527 -0.2572 -0.4212
  335TMC3    C3 5025   1.925   1.116  17.255 -0.3129  0.0505  0.6829
  335TMC3    C4 5026   1.984   1.221  17.503  0.6463  0.1781  0.2877
  335TMC3    C5 5027   2.071   1.248  17.400 -0.0400 -0.0310 -0.1524
  335TMC3    C6 5028   2.044   1.180  17.278 -0.5305 -1.0026 -1.1103
  335TMC3     C 5029   1.774   1.157  17.585  0.5890  0.1716 -0.4123
  335TMC3     O 5030   1.679   1.083  17.576 -0.1877  0.4240 -0.8249
  335TMC3     H 5031   1.738   1.046  17.357 -0.4007  0.7102 -2.0198
  335TMC3    H1 5032   2.020   1.242  17.603 -1.0803  0.7121  0.7828
  335TMC3    H2 5033   2.113   1.168  17.196  0.3575 -1.9978 -0.2128
  335TMC3    C7 5034   2.210   1.284  17.423  0.3064 -0.3471 -0.1492
  335TMC3    C8 5035   1.949   0.987  17.184  0.2671  0.5926 -0.0317
  335TMC3    O1 5036   2.285   1.252  17.329 -0.0052 -0.4928  0.2622
  335TMC3    O2 5037   2.063   0.952  17.152 -0.0914 -0.3475  0.3090
  336MPD2     C 5038   2.232   3.622  16.186  0.3750 -0.8172  0.1284
  336MPD2    C1 5039   2.149   3.581  16.087 -0.2785  1.0399 -0.4195
  336MPD2    C2 5040   2.139   3.447  16.079 -0.1159 -0.5861  0.0396
  336MPD2    C3 5041   2.202   3.354  16.157 -0.1306  0.4744 -0.8154
  336MPD2    C4 5042   2.282   3.397  16.260 -0.1407  0.8562  0.0052
  336MPD2    C5 5043   2.299   3.529  16.263 -0.1710 -0.5621 -0.3621
  336MPD2     H 5044   2.071   3.410  16.003 -0.2720  1.7255 -0.9397
  336MPD2    H1 5045   2.335   3.328  16.324 -1.4571 -0.4939 -0.3567
  336MPD2    H2 5046   2.241   3.727  16.212 -2.0154 -0.2034 -1.4611
  336MPD2    H3 5047   2.356   3.559  16.350  1.9043 -1.2984 -1.4669
  336MPD2     N 5048   2.189   3.216  16.137  0.5054 -0.1027 -0.6651
  336MPD2    H5 5049   2.243   3.152  16.194 -1.0079 -0.8711 -0.1107
  336MPD2    N1 5050   2.064   3.668  16.006  0.3850  0.2626 -0.5316
  336MPD2    H7 5051   1.993   3.627  15.947  0.3636 -0.6217  0.1114
  337TMC3    C1 5052   1.951   3.861  15.948 -0.6593  0.1675  0.4036
  337TMC3    C2 5053   1.889   3.795  15.842 -0.5529  0.1057  0.2721
  337TMC3    C3 5054   1.782   3.847  15.772  0.3178  0.0067 -0.1409
  337TMC3    C4 5055   1.906   3.981  15.985 -0.1203 -0.2509  0.6078
  337TMC3    C5 5056   1.797   4.031  15.916 -0.6774  0.3692  1.3376
  337TMC3    C6 5057   1.727   3.966  15.811 -0.1289 -0.1814 -0.3796
  337TMC3     C 5058   2.053   3.797  16.031  0.4492 -0.1171  0.0000
  337TMC3     O 5059   2.116   3.872  16.102 -0.0724  0.3023 -0.1276
  337TMC3     H 5060   1.936   3.711  15.792 -0.9417  0.9256 -1.4760
  337TMC3    H1 5061   1.948   4.039  16.066  2.2385  1.5912 -1.9524
  337TMC3    H2 5062   1.658   4.032  15.759 -1.9859 -0.4999  1.6950
  337TMC3    C7 5063   1.757   4.165  15.953 -0.4082 -0.3579  0.2597
  337TMC3    C8 5064   1.703   3.754  15.695 -0.0176  0.2247 -0.2274
  337TMC3    O1 5065   1.695   4.225  15.864 -0.1687  0.0111  0.3719
  337TMC3    O2 5066   1.738   3.639  15.689  0.1825 -0.3855 -0.9609
  338MPD2     C 5067   1.786   3.119   0.983  0.1214  0.1698  0.0538
  338MPD2    C1 5068   1.716   3.162   0.872  0.1819 -0.2768  0.1126
  338MPD2    C2 5069   1.599   3.232   0.891 -0.2137 -0.6290 -0.3765
  338MPD2    C3 5070   1.556   3.256   1.025  0.1458  0.5145  0.1242
  338MPD2    C4 5071   1.634   3.215   1.135 -0.1705 -0.5188 -0.5393
  338MPD2    C5 5072   1.749   3.140   1.113  1.4012 -0.2112  0.0001
  338MPD2     H 5073   1.547   3.266   0.803  1.7426  0.0890 -1.2517
  338MPD2    H1 5074   1.612   3.243   1.237  0.0401  0.4193 -0.7576
  338MPD2    H2 5075   1.879   3.065   0.972  0.7565  1.2762 -0.0321
  338MPD2    H3 5076   1.815   3.102   1.191  1.6251  0.2804  0.0539
  338MPD2     N 5077   1.426   3.309   1.042  0.5160 -0.0688 -0.4937
  338MPD2    H5 5078   1.384   3.363   0.967 -2.0081 -2.7928 -1.0334
  338MPD2    N1 5079   1.746   3.114   0.746 -0.3166  0.2580  0.0780
  338MPD2    H7 5080   1.710   3.163   0.665 -0.0405  0.3749  0.0252
  339TMC3    C1 5081   1.220   3.378   1.141 -0.1313  0.7229  0.6660
  339TMC3    C2 5082   1.141   3.381   1.252 -0.3535  0.7161  0.0424
  339TMC3    C3 5083   1.039   3.468   1.259  0.3150  0.1345  0.3739
  339TMC3    C4 5084   1.206   3.466   1.039  0.1089  0.3723 -0.2045
  339TMC3    C5 5085   1.097   3.550   1.050  0.1340  0.2271  0.0929
  339TMC3    C6 5086   1.017   3.561   1.165  0.2304 -0.0739  0.4901
  339TMC3     C 5087   1.353   3.307   1.156  0.5688  0.8562  0.0562
  339TMC3     O 5088   1.381   3.253   1.262 -0.0454 -0.4092  0.5330
  339TMC3     H 5089   1.158   3.309   1.330 -0.7764  0.2641 -0.2864
  339TMC3    H1 5090   1.272   3.458   0.954  0.2418  0.1913 -0.0851
  339TMC3    H2 5091   0.940   3.637   1.164 -0.4858 -0.8022 -0.1239
  339TMC3    C7 5092   1.076   3.657   0.951  0.2253 -0.4112  0.1316
  339TMC3    C8 5093   0.981   3.508   1.386  0.3526 -0.3849  0.2228
  339TMC3    O1 5094   0.987   3.731   0.977 -0.6075 -0.1636 -0.0504
  339TMC3    O2 5095   0.943   3.621   1.391  0.4125  0.3485 -0.3320
  340MPD2     C 5096   2.659   1.001   9.805  0.1770  0.1085 -0.1528
  340MPD2    C1 5097   2.721   1.013   9.686  0.6539  0.3384  0.7070
  340MPD2    C2 5098   2.856   1.038   9.680  0.1666 -0.0313 -0.0178
  340MPD2    C3 5099   2.922   1.054   9.799  0.1411  0.5528 -0.1816
  340MPD2    C4 5100   2.856   1.041   9.916 -0.3652 -0.1816  0.7739
  340MPD2    C5 5101   2.726   1.020   9.925  0.5937  0.1436  0.2954
  340MPD2     H 5102   2.913   1.043   9.588 -1.2440 -0.7747 -0.9317
  340MPD2    H1 5103   2.915   1.051  10.006  0.0011  1.0930  0.4058
  340MPD2    H2 5104   2.553   0.978   9.808  0.0899  0.7268  1.2206
  340MPD2    H3 5105   2.678   1.009  10.022 -2.9929  0.0189 -1.5088
  340MPD2     N 5106   3.063   1.051   9.800 -0.1677  0.2868  0.6968
  340MPD2    H5 5107   3.115   1.038   9.886 -1.1889 -0.2907  1.2138
  340MPD2    N1 5108   2.635   0.991   9.574 -0.0343  0.7135  0.1197
  340MPD2    H7 5109   2.537   0.972   9.595  0.3360 -0.4483  0.7798
  341TMC3    C1 5110   2.569   0.955   9.354 -0.1259 -0.1726 -0.0822
  341TMC3    C2 5111   2.466   0.874   9.393 -0.7318  0.8758  0.0340
  341TMC3    C3 5112   2.393   0.797   9.302  0.0566 -0.3112  0.0585
  341TMC3    C4 5113   2.607   0.942   9.225  0.1260 -0.1346  0.6550
  341TMC3    C5 5114   2.519   0.875   9.134  0.3405  0.2905 -0.4497
  341TMC3    C6 5115   2.414   0.798   9.169 -0.4043 -0.3611 -0.0807
  341TMC3     C 5116   2.674   0.979   9.446 -0.2530 -0.2157 -0.0066
  341TMC3     O 5117   2.789   1.001   9.404  0.3761  0.0249 -0.3838
  341TMC3     H 5118   2.460   0.851   9.499 -0.1271 -2.5380 -0.6637
  341TMC3    H1 5119   2.692   0.995   9.183 -1.3007  1.2067 -0.5584
  341TMC3    H2 5120   2.365   0.729   9.101  0.5637 -0.9700 -0.1678
  341TMC3    C7 5121   2.560   0.891   8.995 -1.1417  0.0310  0.3782
  341TMC3    C8 5122   2.286   0.707   9.351  0.1544  0.5034  0.1476
  341TMC3    O1 5123   2.677   0.910   8.959  0.1396 -0.2075  0.2778
  341TMC3    O2 5124   2.256   0.607   9.285  0.1170 -0.4145  0.4762
  342MPD2     C 5125   4.625   4.299  17.089  0.0554  0.2115 -0.0271
  342MPD2    C1 5126   0.041   4.305  17.056 -0.1971 -0.2197 -0.1781
  342MPD2    C2 5127   0.105   4.423  17.085 -0.8499  0.3325  0.3757
  342MPD2    C3 5128   0.043   4.531  17.149 -0.2103 -0.1580 -0.9315
  342MPD2    C4 5129   4.628   4.515  17.181  0.1949 -0.6900 -0.5920
  342MPD2    C5 5130   4.556   4.404  17.136 -0.2778 -0.1287  0.1298
  342MPD2     H 5131   0.208   4.427  17.052 -1.1645 -0.8978 -0.7384
  342MPD2    H1 5132   4.569   4.598  17.219 -0.9817 -0.3950 -3.0641
  342MPD2    H2 5133   4.560   4.218  17.057 -1.8617  1.3539  0.9788
  342MPD2    H3 5134   4.448   4.409  17.148 -0.2056 -1.2236  1.2345
  342MPD2     N 5135   0.094   4.660  17.169 -0.5649 -0.8331  0.9097
  342MPD2    H5 5136   0.036   0.004  17.221 -1.0959 -0.2929 -0.3634
  342MPD2    N1 5137   0.110   4.200  16.992  0.2374 -0.6703 -0.4531
  342MPD2    H7 5138   0.209   4.213  16.976  0.2732 -1.1675 -0.6320
  343TMC3    C1 5139   0.148   3.968  16.927  0.2045  0.2000 -0.4357
  343TMC3    C2 5140   0.270   3.995  16.876  0.8484 -0.1825  0.1113
  343TMC3    C3 5141   0.346   3.883  16.860 -0.5530 -0.1266 -0.2222
  343TMC3    C4 5142   0.096   3.839  16.951  0.8861  0.1453 -0.3036
  343TMC3    C5 5143   0.182   3.731  16.938  0.1255 -0.0189 -0.0832
  343TMC3    C6 5144   0.308   3.749  16.886  0.0108 -0.4059 -0.6289
  343TMC3     C 5145   0.055   4.071  16.961 -0.2694  0.0770 -0.5451
  343TMC3     O 5146   4.659   4.034  16.968  0.0408  0.3382 -0.1770
  343TMC3     H 5147   0.302   4.098  16.865 -0.1240 -0.1027 -1.9547
  343TMC3    H1 5148   0.008   3.831  17.014  2.0708  1.9265  1.5613
  343TMC3    H2 5149   0.379   3.668  16.878  0.6008  0.3277 -2.7648
  343TMC3    C7 5150   0.137   3.616  17.013 -1.0107 -0.2666  0.6133
  343TMC3    C8 5151   0.488   3.916  16.839 -0.2495  0.2139 -0.1449
  343TMC3    O1 5152   0.020   3.600  17.022 -0.3041  0.2028  0.3478
  343TMC3    O2 5153   0.526   4.024  16.881 -0.0867 -0.0449  0.1949
  344MPD2     C 5154   1.082   3.269  10.539 -0.5011 -0.1350  0.1538
  344MPD2    C1 5155   0.986   3.335  10.472  0.0797 -0.7539  0.0973
  344MPD2    C2 5156   1.013   3.456  10.415  0.3972  0.2487 -0.6560
  344MPD2    C3 5157   1.144   3.515  10.408 -0.2644  0.4089  0.3055
  344MPD2    C4 5158   1.240   3.439  10.479  0.2005  0.5001 -0.3539
  344MPD2    C5 5159   1.214   3.319  10.541  0.2979 -0.8436 -0.0556
  344MPD2     H 5160   0.923   3.501  10.374 -1.2482 -1.6212  0.9641
  344MPD2    H1 5161   1.343   3.473  10.480 -0.2052  1.7160 -0.2099
  344MPD2    H2 5162   1.074   3.167  10.573 -1.0673 -1.1446 -3.0276
  344MPD2    H3 5163   1.294   3.266  10.593  1.7964  1.5949  0.1106
  344MPD2     N 5164   1.170   3.638  10.347 -0.1350 -0.0217 -0.5717
  344MPD2    H5 5165   1.259   3.686  10.360  0.0372 -0.2873 -0.7624
  344MPD2    N1 5166   0.851   3.286  10.467 -0.2913 -0.4231 -0.5261
  344MPD2    H7 5167   0.793   3.343  10.407  1.2207  0.8001 -0.8256
  345TMC3    C1 5168   1.134   3.818  10.201 -0.2971  0.1290 -0.0883
  345TMC3    C2 5169   1.208   3.893  10.290 -0.0346 -0.2197  0.0057
  345TMC3    C3 5170   1.253   4.015  10.252 -0.4751 -0.0710 -0.5357
  345TMC3    C4 5171   1.107   3.852  10.071 -0.1523 -0.2759  0.8406
  345TMC3    C5 5172   1.166   3.977  10.030  0.2777  0.5130  0.0751
  345TMC3    C6 5173   1.234   4.060  10.119 -0.2864  0.1956  0.9290
  345TMC3     C 5174   1.094   3.686  10.243  0.5684 -0.3396  0.9654
  345TMC3     O 5175   1.006   3.631  10.184  0.0369 -0.1055 -0.1197
  345TMC3     H 5176   1.191   3.862  10.392 -1.4932  4.1745  1.0714
  345TMC3    H1 5177   1.074   3.775  10.003  0.4399  0.0935  0.1297
  345TMC3    H2 5178   1.278   4.154  10.092  0.8675 -0.8759 -0.8806
  345TMC3    C7 5179   1.127   4.038   9.905 -0.0737 -0.9791 -0.1629
  345TMC3    C8 5180   1.308   4.090  10.366  0.5130 -0.3625  0.5399
  345TMC3    O1 5181   1.166   4.155   9.885  0.0296 -0.3556  0.2619
  345TMC3    O2 5182   1.290   4.042  10.477 -0.0962 -0.8285  0.1289
  346MPD2     C 5183   1.023   0.869  13.976 -0.6436 -0.2786  0.2458
  346MPD2    C1 5184   1.084   0.745  14.018  0.3477 -0.2453 -0.2883
  346MPD2    C2 5185   1.178   0.743  14.118  0.2586  0.7171 -0.4045
  346MPD2    C3 5186   1.202   0.859  14.188 -0.0509 -0.3243 -0.0354
  346MPD2    C4 5187   1.148   0.979  14.147 -1.0362  0.4132 -0.0645
  346MPD2    C5 5188   1.061   0.983  14.044 -0.4181  0.7112  0.5045
  346MPD2     H 5189   1.234   0.653  14.141  2.4705  2.2731  0.3493
  346MPD2    H1 5190   1.181   1.074  14.189 -1.3721  0.5955 -0.2127
  346MPD2    H2 5191   0.961   0.887  13.889 -1.0275  1.1017  0.8033
  346MPD2    H3 5192   1.011   1.073  14.008  0.3583  0.5516 -0.9774
  346MPD2     N 5193   1.285   0.853  14.301 -0.3698  0.3105 -0.3098
  346MPD2    H5 5194   1.355   0.780  14.304 -1.6155 -0.9278 -1.6421
  346MPD2    N1 5195   1.061   0.628  13.946 -0.2147 -0.5246 -0.0192
  346MPD2    H7 5196   1.148   0.579  13.932  0.6715  0.4963  1.9599
  347TMC3    C1 5197   1.376   0.924  14.520  0.5201  0.5100  0.8939
  347TMC3    C2 5198   1.506   0.891  14.490  0.2071 -0.3887  0.4586
  347TMC3    C3 5199   1.607   0.957  14.554  0.0073 -0.0790  0.3307
  347TMC3    C4 5200   1.358   1.014  14.626 -0.5646 -0.0993 -0.3234
  347TMC3    C5 5201   1.464   1.070  14.693  0.3761 -0.0403 -0.0579
  347TMC3    C6 5202   1.589   1.038  14.661 -0.1053 -0.4084  0.0566
  347TMC3     C 5203   1.271   0.933  14.413  0.2850 -0.0027 -0.0428
  347TMC3     O 5204   1.175   1.007  14.423  0.1148 -0.5358 -0.0792
  347TMC3     H 5205   1.527   0.820  14.411  1.0191 -0.1095  0.4216
  347TMC3    H1 5206   1.262   1.061  14.639 -0.3320  0.9374 -2.3857
  347TMC3    H2 5207   1.673   1.070  14.722 -0.8261  1.6365 -0.0047
  347TMC3    C7 5208   1.419   1.137  14.814  0.2349 -0.0071  0.1218
  347TMC3    C8 5209   1.737   0.900  14.539 -0.3783 -0.2099  0.4491
  347TMC3    O1 5210   1.305   1.117  14.852 -0.1590  0.4820 -0.1909
  347TMC3    O2 5211   1.741   0.782  14.510  0.1917  0.0162  0.0880
  348MPD2     C 5212   0.411   0.255  11.973  0.5307  0.2545 -0.1545
  348MPD2    C1 5213   0.324   0.216  11.870 -0.3612  0.3976  0.4191
  348MPD2    C2 5214   0.301   0.301  11.762  0.0810 -0.2788 -0.1715
  348MPD2    C3 5215   0.367   0.420  11.749  0.2920  0.2841 -0.5110
  348MPD2    C4 5216   0.452   0.461  11.856  0.4013  0.2406  0.3353
  348MPD2    C5 5217   0.476   0.377  11.960 -0.2850 -0.3856  0.4055
  348MPD2     H 5218   0.231   0.271  11.685 -0.4077  0.7108 -0.1204
  348MPD2    H1 5219   0.508   0.554  11.850 -2.5929  1.7811 -3.2746
  348MPD2    H2 5220   0.435   0.196  12.060 -0.4702  0.3571  0.1954
  348MPD2    H3 5221   0.537   0.406  12.045  1.9931 -1.2545 -0.9403
  348MPD2     N 5222   0.338   0.490  11.633 -0.0661  0.4734 -0.3051
  348MPD2    H5 5223   0.288   0.446  11.556 -0.5062  1.2036 -0.4310
  348MPD2    N1 5224   0.265   0.092  11.867  0.0351 -0.1940  0.5971
  348MPD2    H7 5225   0.220   0.057  11.783  2.9517  0.4753 -1.2684
  349TMC3    C1 5226   0.160   4.620  11.949 -0.1625  0.7130  0.0935
  349TMC3    C2 5227   0.189   4.504  12.008 -1.0133  0.0982 -0.4605
  349TMC3    C3 5228   0.117   4.400  11.967  0.2611 -0.5999 -0.3039
  349TMC3    C4 5229   0.057   4.642  11.865 -0.3505  0.2700 -0.7441
  349TMC3    C5 5230   4.697   4.538  11.830  0.2478  0.2372 -0.1223
  349TMC3    C6 5231   0.006   4.412  11.880  0.5282  0.1516  0.1046
  349TMC3     C 5232   0.257   0.008  11.976  0.5241  0.1378  0.1947
  349TMC3     O 5233   0.315   0.024  12.081  0.1654  0.3610  0.1784
  349TMC3     H 5234   0.277   4.496  12.072  0.6559  2.0717 -2.5002
  349TMC3    H1 5235   0.015   0.016  11.833 -0.3340  0.0919 -1.2918
  349TMC3    H2 5236   4.651   4.334  11.873 -1.7978  2.4641 -0.6673
  349TMC3    C7 5237   4.586   4.550  11.727  0.2488 -0.2992 -0.2146
  349TMC3    C8 5238   0.120   4.277  12.049  0.0849 -0.1744 -0.0209
  349TMC3    O1 5239   4.482   4.490  11.746  0.2842 -0.2520 -0.1534
  349TMC3    O2 5240   0.102   4.288  12.170 -0.5516 -0.3757 -0.3312
  350MPD2     C 5241   3.114   2.935  10.216  0.4973  0.2815 -0.5463
  350MPD2    C1 5242   3.211   2.841  10.220  0.0289 -0.8875 -0.7670
  350MPD2    C2 5243   3.345   2.879  10.220 -0.2036 -0.6104  0.5651
  350MPD2    C3 5244   3.381   3.012  10.230 -0.2483 -0.2843  0.0200
  350MPD2    C4 5245   3.281   3.103  10.255 -0.3127  0.4895 -0.3067
  350MPD2    C5 5246   3.155   3.064  10.238 -0.2693 -0.1473  0.5946
  350MPD2     H 5247   3.417   2.801  10.198  0.8295 -0.1145  2.2269
  350MPD2    H1 5248   3.304   3.208  10.248 -0.7970  0.7237  1.4532
  350MPD2    H2 5249   3.011   2.919  10.188  0.6646  1.3082 -1.7702
  350MPD2    H3 5250   3.079   3.141  10.238 -0.9302 -0.8040 -0.2954
  350MPD2     N 5251   3.522   3.036  10.242  0.0671 -0.1150  0.0074
  350MPD2    H5 5252   3.592   2.973  10.205 -0.3506 -1.5053  1.5649
  350MPD2    N1 5253   3.191   2.703  10.203  0.6380 -1.2745 -0.0480
  350MPD2    H7 5254   3.277   2.651  10.189  0.7549 -1.0085 -0.3336
  351TMC3    C1 5255   3.081   2.495  10.204  0.3047 -0.0754 -0.5016
  351TMC3    C2 5256   3.203   2.440  10.156 -0.4415 -0.1333 -1.2600
  351TMC3    C3 5257   3.203   2.304  10.133 -0.3155  0.5076  0.3263
  351TMC3    C4 5258   2.973   2.421  10.242  0.3974 -0.0382  0.1994
  351TMC3    C5 5259   2.982   2.284  10.231  0.6756  0.2002  0.0303
  351TMC3    C6 5260   3.100   2.227  10.182 -0.6933 -0.1218  0.4793
  351TMC3     C 5261   3.068   2.638  10.212 -0.2037 -0.5079 -0.1199
  351TMC3     O 5262   2.959   2.691  10.240 -0.0591 -0.1074 -0.1881
  351TMC3     H 5263   3.280   2.501  10.109 -0.4562 -2.0667 -3.7492
  351TMC3    H1 5264   2.881   2.464  10.279  1.4658  1.5278  1.0139
  351TMC3    H2 5265   3.101   2.119  10.177  0.0537 -0.0105 -1.8502
  351TMC3    C7 5266   2.882   2.194  10.280  0.5133  0.5118 -0.3003
  351TMC3    C8 5267   3.316   2.239  10.080  0.4055 -0.2995  0.4800
  351TMC3    O1 5268   2.805   2.246  10.359  0.8961 -0.1430 -0.0850
  351TMC3    O2 5269   3.299   2.117  10.064 -0.0941 -0.5946 -0.2079
  352MPD2     C 5270   2.217   0.612   0.669 -0.2524 -0.5022 -0.8278
  352MPD2    C1 5271   2.088   0.568   0.695 -0.2746 -0.1370 -0.1507
  352MPD2    C2 5272   2.071   0.457   0.770 -0.6097 -0.4764 -0.7550
  352MPD2    C3 5273   2.178   0.402   0.834 -0.2973  0.2872  0.6376
  352MPD2    C4 5274   2.300   0.460   0.832  0.0178  0.2044 -0.0818
  352MPD2    C5 5275   2.318   0.560   0.746 -0.1385 -0.0520 -0.9093
  352MPD2     H 5276   1.971   0.423   0.792  0.1120 -0.7989  2.0112
  352MPD2    H1 5277   2.384   0.432   0.894 -0.6896 -2.4712 -0.3470
  352MPD2    H2 5278   2.236   0.697   0.605 -0.4006  0.5084  0.4556
  352MPD2    H3 5279   2.415   0.606   0.729 -1.2482  2.8178  0.4902
  352MPD2     N 5280   2.161   0.294   0.930  0.1814 -0.4265 -0.9115
  352MPD2    H5 5281   2.248   0.269   0.974  0.2912 -0.5998 -1.2279
  352MPD2    N1 5282   1.980   0.646   0.643  0.4372 -0.0470 -0.2719
  352MPD2    H7 5283   2.004   0.733   0.596 -1.1966  1.5121  1.7872
  353TMC3    C1 5284   2.080   0.109   1.048 -0.0129  0.5036  0.0400
  353TMC3    C2 5285   2.210   0.087   1.095  0.2765  0.5703 -0.6722
  353TMC3    C3 5286   2.240   4.699   1.167 -0.8897  0.3105  1.2912
  353TMC3    C4 5287   1.976   0.023   1.081  0.3558 -0.1381 -0.2808
  353TMC3    C5 5288   2.014   4.635   1.157  0.3978 -0.2933  0.0149
  353TMC3    C6 5289   2.137   4.615   1.200  0.1606 -0.0355  0.7004
  353TMC3     C 5290   2.048   0.216   0.961  0.1908  0.1597 -0.1465
  353TMC3     O 5291   1.938   0.223   0.913  0.0105  0.8383 -0.3130
  353TMC3     H 5292   2.290   0.153   1.064  0.8547 -0.1267 -0.6594
  353TMC3    H1 5293   1.882   0.025   1.028 -0.4281  1.3604  1.1815
  353TMC3    H2 5294   2.159   4.524   1.254 -1.1531  0.8551  2.7428
  353TMC3    C7 5295   1.907   4.548   1.209 -0.3887  0.1209  0.5746
  353TMC3    C8 5296   2.378   4.652   1.169  0.7875 -0.0965  0.7297
  353TMC3    O1 5297   1.796   4.557   1.158  0.3408 -0.0835 -0.3903
  353TMC3    O2 5298   2.470   0.008   1.178 -0.7515  0.3325 -0.9739
  354TMC3    C1 5299   3.450   1.839  13.687 -0.0875  0.1758  0.3494
  354TMC3    C2 5300   3.553   1.925  13.684  0.1280  0.5581  0.3155
  354TMC3    C3 5301   3.559   2.017  13.586 -0.3534  0.5642  0.7245
  354TMC3    C4 5302   3.363   1.836  13.580 -0.6387  0.3227  0.3598
  354TMC3    C5 5303   3.360   1.942  13.492 -0.4825 -0.3838  0.2291
  354TMC3    C6 5304   3.463   2.034  13.487  0.7487  0.2547 -0.2671
  354TMC3     C 5305   3.449   1.734  13.778  0.1827 -0.1397  0.1231
  354TMC3     O 5306   3.388   1.635  13.746 -0.2927  0.1078  0.5261
  354TMC3     H 5307   3.631   1.920  13.759  0.5133  0.9301 -0.0586
  354TMC3    H1 5308   3.279   1.771  13.601  0.2653 -0.5847  1.2122
  354TMC3    H2 5309   3.463   2.118  13.418  3.1943  0.4195 -0.0418
  354TMC3    C7 5310   3.324   1.901  13.357  0.0128  0.6013 -0.0991
  354TMC3    C8 5311   3.685   2.076  13.566  0.0849  0.1758  0.6789
  354TMC3    O1 5312   3.274   1.986  13.281  0.0307  0.4354 -0.2997
  354TMC3    O2 5313   3.760   2.070  13.664 -0.3354  0.0216 -0.3202
  355MPD2     C 5314   3.342   2.439  11.814  0.6579 -0.3889  0.3830
  355MPD2    C1 5315   3.433   2.444  11.707  0.3944 -0.8468  0.5315
  355MPD2    C2 5316   3.567   2.423  11.728  0.3744  0.3796 -0.2450
  355MPD2    C3 5317   3.617   2.402  11.853 -0.0811 -0.0270 -0.5108
  355MPD2    C4 5318   3.523   2.386  11.958 -0.3970  0.7061 -0.0467
  355MPD2    C5 5319   3.389   2.410  11.939 -0.0505 -0.0436  0.3345
  355MPD2     H 5320   3.630   2.423  11.639 -0.0062  0.3608 -0.5185
  355MPD2    H1 5321   3.548   2.360  12.060 -2.0303  0.2426  0.2213
  355MPD2    H2 5322   3.237   2.460  11.798  1.0489  0.7716 -0.6626
  355MPD2    H3 5323   3.307   2.404  12.009  0.6563 -0.5568  1.1127
  355MPD2     N 5324   3.755   2.403  11.885  0.0060  0.1635 -0.6232
  355MPD2    H5 5325   3.788   2.394  11.980 -0.6056  3.6152 -0.0901
  355MPD2    N1 5326   3.374   2.458  11.576 -0.4591 -0.2770  0.2182
  355MPD2    H7 5327   3.280   2.423  11.566 -0.7031  0.5600 -0.3942
  356TMC3    C1 5328   3.983   2.405  11.828  0.7659 -0.2244 -0.0355
  356TMC3    C2 5329   4.052   2.410  11.713 -0.2642  0.0728  0.5495
  356TMC3    C3 5330   4.151   2.499  11.702  0.4149 -0.0798  0.1275
  356TMC3    C4 5331   4.028   2.482  11.928  0.2638  0.5296  0.5037
  356TMC3    C5 5332   4.139   2.561  11.919 -0.2693 -0.3586  0.6503
  356TMC3    C6 5333   4.201   2.582  11.801 -0.1616  0.0532  0.1554
  356TMC3     C 5334   3.850   2.432  11.792 -0.0116  0.4209 -0.6037
  356TMC3     O 5335   3.837   2.481  11.680  0.5369 -0.3413  0.2993
  356TMC3     H 5336   4.030   2.349  11.626 -2.7415  0.2263  1.0766
  356TMC3    H1 5337   3.970   2.484  12.020  1.0528 -2.2674  1.0690
  356TMC3    H2 5338   4.281   2.654  11.784 -0.9536  0.6683 -0.9333
  356TMC3    C7 5339   4.173   2.642  12.036 -0.3481  0.2063 -0.1973
  356TMC3    C8 5340   4.203   2.503  11.567  0.6645 -1.0764 -0.6883
  356TMC3    O1 5341   4.157   2.598  12.145  0.2721 -0.2799  0.3814
  356TMC3    O2 5342   4.219   2.393  11.511  0.3821 -0.5582  0.2282
  357MPD2     C 5343   3.844   2.098   0.643  0.2984 -0.1410  0.3860
  357MPD2    C1 5344   3.960   2.043   0.698  0.1841  0.4971  0.0822
  357MPD2    C2 5345   3.974   2.047   0.839 -0.2162 -0.0860 -0.2669
  357MPD2    C3 5346   3.863   2.100   0.911 -0.8392 -0.3330  0.8403
  357MPD2    C4 5347   3.756   2.158   0.854  0.3148  0.5064  0.7087
  357MPD2    C5 5348   3.754   2.164   0.713  0.1833 -0.1977 -0.2715
  357MPD2     H 5349   4.064   2.013   0.889 -0.1977 -0.1188 -0.3236
  357MPD2    H1 5350   3.683   2.216   0.909  1.2726 -0.0739  2.6132
  357MPD2    H2 5351   3.812   2.096   0.540 -3.0444  0.0316  1.4282
  357MPD2    H3 5352   3.673   2.212   0.659  0.9059  2.4458  1.0226
  357MPD2     N 5353   3.855   2.101   1.056 -0.2508 -0.0426  0.4407
  357MPD2    H5 5354   3.780   2.155   1.099 -0.5150 -0.5670  0.6478
  357MPD2    N1 5355   4.058   1.995   0.612 -0.3297  0.5791  0.4327
  357MPD2    H7 5356   4.029   1.997   0.514 -1.0071  0.6416  0.6367
  358TMC3    C1 5357   4.228   1.872   0.523 -0.6957  0.5316  0.2188
  358TMC3    C2 5358   4.176   1.908   0.401 -0.0633 -0.4775  0.4651
  358TMC3    C3 5359   4.242   1.858   0.288 -0.1653 -0.0943 -0.1670
  358TMC3    C4 5360   4.336   1.778   0.534  0.1546  0.2866  0.6057
  358TMC3    C5 5361   4.394   1.738   0.417 -0.3892  0.2478  0.2038
  358TMC3    C6 5362   4.353   1.778   0.290  0.2593 -0.3061  0.1752
  358TMC3     C 5363   4.162   1.912   0.646 -0.9961 -0.6170  0.5350
  358TMC3     O 5364   4.210   1.893   0.756  0.0216 -0.2649 -0.4484
  358TMC3     H 5365   4.108   1.990   0.381  1.3848  0.4989 -0.5341
  358TMC3    H1 5366   4.359   1.733   0.630  0.7468 -0.2500  0.2136
  358TMC3    H2 5367   4.374   1.719   0.201  1.6367  1.6316 -0.7868
  358TMC3    C7 5368   4.481   1.621   0.423  0.1394 -0.5433  0.0731
  358TMC3    C8 5369   4.206   1.915   0.159  0.6040 -0.5059 -0.0451
  358TMC3    O1 5370   4.508   1.562   0.318 -0.3006 -0.8327  0.3069
  358TMC3    O2 5371   4.092   1.959   0.149 -0.3329 -0.4054  0.4999
  359MPD2     C 5372   0.148   0.853  12.586  0.2104 -0.3738 -0.0423
  359MPD2    C1 5373   0.102   0.958  12.510 -1.2266  0.1539  0.1887
  359MPD2    C2 5374   4.691   0.999  12.523 -0.4554  0.5816  0.5532
  359MPD2    C3 5375   4.603   0.930  12.609 -0.4928 -0.2293 -0.3972
  359MPD2    C4 5376   4.646   0.822  12.681  0.1137 -0.8344  0.2643
  359MPD2    C5 5377   0.060   0.790  12.670 -0.1784  0.6978 -0.6556
  359MPD2     H 5378   4.650   1.072  12.453 -0.0705  0.1187 -0.1520
  359MPD2    H1 5379   4.581   0.776  12.754 -1.4455 -0.5905 -0.9688
  359MPD2    H2 5380   0.249   0.814  12.580 -1.3444 -4.3208 -0.2812
  359MPD2    H3 5381   0.100   0.700  12.715 -1.9162  0.8877  1.3122
  359MPD2     N 5382   4.468   0.968  12.641  0.2335 -0.0081  0.2185
  359MPD2    H5 5383   4.416   0.915  12.710  2.1163 -0.1033  1.5530
  359MPD2    N1 5384   0.184   1.030  12.413  0.1140 -0.1406 -0.4431
  359MPD2    H7 5385   0.156   1.115  12.366 -0.6953  0.1196  0.5101
  360TMC3    C1 5386   0.358   1.073  12.276 -0.0744  0.1131  0.3864
  360TMC3    C2 5387   0.486   1.112  12.287 -0.1734  0.1498 -0.3346
  360TMC3    C3 5388   0.535   1.190  12.183  0.8909  0.1698 -0.6279
  360TMC3    C4 5389   0.289   1.075  12.165 -0.0487 -0.4662  0.4959
  360TMC3    C5 5390   0.338   1.136  12.059 -0.0134 -0.6219 -0.1791
  360TMC3    C6 5391   0.463   1.195  12.063 -0.3653 -0.3504  0.8689
  360TMC3     C 5392   0.307   0.990  12.379  0.1283 -0.5920 -0.5516
  360TMC3     O 5393   0.394   0.926  12.434 -0.5256 -0.4422  0.0195
  360TMC3     H 5394   0.529   1.108  12.386  2.3568  0.7652 -1.4083
  360TMC3    H1 5395   0.187   1.038  12.163 -1.3592  3.1875 -0.0892
  360TMC3    H2 5396   0.501   1.252  11.979 -0.4015  1.0951  1.8229
  360TMC3    C7 5397   0.272   1.139  11.942  0.3196 -0.3338 -0.2810
  360TMC3    C8 5398   0.680   1.179  12.164 -0.0082 -0.0631  0.3239
  360TMC3    O1 5399   0.281   1.243  11.875 -0.8930  0.1716 -0.7636
  360TMC3    O2 5400   0.750   1.171  12.263 -0.1068  0.1809 -0.8995
  361MPD2     C 5401   1.270   0.035  16.618  0.2534  0.0012  0.5148
  361MPD2    C1 5402   1.243   0.047  16.752 -0.2350 -0.3136 -0.1246
  361MPD2    C2 5403   1.278   4.668  16.846 -0.4177 -0.1203 -0.0802
  361MPD2    C3 5404   1.337   4.553  16.795  0.6768 -0.3577  0.6369
  361MPD2    C4 5405   1.359   4.547  16.660 -0.5126 -0.4070  0.1952
  361MPD2    C5 5406   1.324   4.642  16.573 -0.4576  0.0006 -0.1478
  361MPD2     H 5407   1.271   4.683  16.953  1.3178 -0.0593  0.0278
  361MPD2    H1 5408   1.410   4.458  16.624 -0.7265 -0.5414  0.2268
  361MPD2    H2 5409   1.237   0.112  16.549 -0.1267 -0.6018  0.0224
  361MPD2    H3 5410   1.362   4.632  16.472 -0.6606  1.0527 -0.3224
  361MPD2     N 5411   1.394   4.447  16.873 -0.4884  0.1128 -0.3295
  361MPD2    H5 5412   1.446   4.380  16.817 -1.2746 -0.5815 -0.2276
  361MPD2    N1 5413   1.176   0.166  16.785 -0.1857 -0.9037  0.5033
  361MPD2    H7 5414   1.145   0.233  16.716  0.7831 -0.3527  0.6027
  362TMC3    C1 5415   1.036   0.315  16.894 -0.0704  0.1607 -0.6822
  362TMC3    C2 5416   0.924   0.323  16.979 -0.0682  0.5407 -0.0557
  362TMC3    C3 5417   0.835   0.424  16.951 -0.4926 -0.1595  0.1416
  362TMC3    C4 5418   1.063   0.411  16.792  0.2102 -0.3810  0.1161
  362TMC3    C5 5419   0.966   0.508  16.774  0.0286 -0.2089  1.2923
  362TMC3    C6 5420   0.861   0.518  16.859  0.1632 -0.2204  0.0104
  362TMC3     C 5421   1.124   0.199  16.910 -0.1947  0.6610 -0.5801
  362TMC3     O 5422   1.111   0.132  17.009 -0.2262 -0.5420 -0.6116
  362TMC3     H 5423   0.888   0.248  17.048  0.6091 -0.8589 -1.2273
  362TMC3    H1 5424   1.148   0.399  16.726 -0.1927 -0.8434 -0.3242
  362TMC3    H2 5425   0.800   0.608  16.862  1.6075  0.8225 -2.9218
  362TMC3    C7 5426   0.977   0.599  16.661  0.1187  0.0158 -0.3768
  362TMC3    C8 5427   0.693   0.404  16.977 -0.2076  0.1158  0.0709
  362TMC3    O1 5428   0.876   0.670  16.649  0.3623 -0.5698  0.2085
  362TMC3    O2 5429   0.657   0.290  16.961  0.4765 -0.3699 -0.1769
  363TMC3    C1 5430   4.082   1.790   9.249 -0.0241  0.0438 -0.0066
  363TMC3    C2 5431   4.168   1.745   9.344 -0.5201 -0.9642 -0.0391
  363TMC3    C3 5432   4.185   1.826   9.458  0.1772 -0.0838 -0.1336
  363TMC3    C4 5433   4.019   1.906   9.266  0.5759  0.1923  0.0901
  363TMC3    C5 5434   4.035   1.981   9.376 -0.5114 -0.6376 -0.4374
  363TMC3    C6 5435   4.110   1.941   9.476 -0.5390 -0.6784 -0.3895
  363TMC3     C 5436   4.090   1.727   9.121  0.1819 -0.5558 -0.5844
  363TMC3     O 5437   4.192   1.666   9.097 -0.1478  0.0496 -0.3659
  363TMC3     H 5438   4.213   1.646   9.341  1.9439  0.1079  1.2476
  363TMC3    H1 5439   3.968   1.943   9.178 -1.8928 -0.8107  1.0644
  363TMC3    H2 5440   4.133   1.992   9.569  1.5340 -1.5934 -0.3880
  363TMC3    C7 5441   3.938   2.080   9.406 -0.1212  0.5278  0.0043
  363TMC3    C8 5442   4.277   1.788   9.563  1.1059 -0.5486 -0.1863
  363TMC3    O1 5443   3.845   2.088   9.326 -0.2609  0.8070 -0.2787
  363TMC3    O2 5444   4.246   1.835   9.671 -0.1205 -0.7103 -0.3221
  364MPD2     C 5445   3.026   1.309  10.780 -0.1525  0.2465  0.1218
  364MPD2    C1 5446   3.112   1.275  10.674 -0.2640 -0.6319  0.6377
  364MPD2    C2 5447   3.214   1.176  10.697  0.1715  0.8524 -0.5400
  364MPD2    C3 5448   3.231   1.123  10.828  0.5807 -0.3995 -0.0680
  364MPD2    C4 5449   3.142   1.159  10.931 -0.2968 -0.2776  0.7744
  364MPD2    C5 5450   3.039   1.252  10.906 -0.5435  0.4394  0.4334
  364MPD2     H 5451   3.286   1.149  10.620  3.2444  1.6176  2.0697
  364MPD2    H1 5452   3.154   1.133  11.036 -0.3959 -1.1559  0.5626
  364MPD2    H2 5453   2.957   1.392  10.770 -1.0340 -0.4852  0.1044
  364MPD2    H3 5454   2.973   1.282  10.987 -0.1828  1.3584  0.3900
  364MPD2     N 5455   3.326   1.031  10.861  0.1678  0.4010  0.5022
  364MPD2    H5 5456   3.332   1.014  10.960  1.7687 -1.1470  0.1371
  364MPD2    N1 5457   3.081   1.344  10.553  0.0558 -0.7262 -0.1207
  364MPD2    H7 5458   3.006   1.413  10.550 -1.0801 -1.9545 -0.2032
  365TMC3    C1 5459   3.120   1.418  10.335  0.5290 -0.3773  0.6871
  365TMC3    C2 5460   3.162   1.388  10.209 -0.5491 -0.2005 -0.8690
  365TMC3    C3 5461   3.160   1.488  10.114 -0.0786  0.6097  0.4483
  365TMC3    C4 5462   3.104   1.549  10.370 -0.2636 -0.1043  0.5308
  365TMC3    C5 5463   3.105   1.644  10.273 -0.1863  0.5290  0.1672
  365TMC3    C6 5464   3.130   1.621  10.141  0.2136  0.1271 -0.1203
  365TMC3     C 5465   3.151   1.327  10.437  0.1245 -0.4467  0.0610
  365TMC3     O 5466   3.224   1.233  10.413 -0.1794  0.3895  0.6205
  365TMC3     H 5467   3.172   1.287  10.170  1.4651 -0.3060 -0.0964
  365TMC3    H1 5468   3.085   1.577  10.473  1.1919 -2.0853  1.3339
  365TMC3    H2 5469   3.157   1.702  10.074 -0.9173 -0.4921 -1.3139
  365TMC3    C7 5470   3.132   1.780  10.311  0.0509 -0.4424  0.1159
  365TMC3    C8 5471   3.223   1.464   9.990 -0.3062 -0.2518  0.7682
  365TMC3    O1 5472   3.149   1.859  10.218  0.1414  0.2841 -0.2010
  365TMC3    O2 5473   3.185   1.535   9.898 -0.2054  0.3988 -0.3514
  366MPD2     C 5474   1.326   3.446  15.181 -0.3371 -0.2707 -0.6479
  366MPD2    C1 5475   1.446   3.456  15.111 -0.3054 -0.6424 -0.6685
  366MPD2    C2 5476   1.507   3.350  15.055  0.2083 -0.6396  0.4138
  366MPD2    C3 5477   1.452   3.228  15.070 -0.0684 -0.0156  0.1570
  366MPD2    C4 5478   1.332   3.219  15.140  0.4271  0.5995  0.5836
  366MPD2    C5 5479   1.268   3.324  15.189  0.2197  0.3188  0.7259
  366MPD2     H 5480   1.607   3.365  15.016 -0.2206  2.4427  0.5210
  366MPD2    H1 5481   1.288   3.124  15.166  2.1335 -0.6889 -1.1892
  366MPD2    H2 5482   1.276   3.532  15.225 -0.5030 -1.3130  1.2086
  366MPD2    H3 5483   1.175   3.320  15.244 -0.0733 -0.3755  0.1727
  366MPD2     N 5484   1.535   3.115  15.038 -0.1891  0.0341 -0.5237
  366MPD2    H5 5485   1.620   3.143  14.991  0.2934  1.1762  1.0318
  366MPD2    N1 5486   1.508   3.580  15.092 -0.3508  0.2796 -0.0296
  366MPD2    H7 5487   1.602   3.576  15.053  0.0377  0.1025  0.9044
  367TMC3    C1 5488   1.554   3.810  15.120  0.1739  0.9210 -0.1063
  367TMC3    C2 5489   1.664   3.782  15.193 -0.5086 -0.7346 -0.1849
  367TMC3    C3 5490   1.711   3.867  15.285  0.1809  0.4072 -0.1903
  367TMC3    C4 5491   1.500   3.935  15.136  1.4256 -0.1857  0.2941
  367TMC3    C5 5492   1.555   4.026  15.226 -0.4448  0.9075 -0.1886
  367TMC3    C6 5493   1.657   3.986  15.304  0.6926 -0.4515 -0.2025
  367TMC3     C 5494   1.453   3.701  15.118 -1.2926 -0.5036  0.0919
  367TMC3     O 5495   1.338   3.740  15.144  0.2456 -0.2923  0.1516
  367TMC3     H 5496   1.710   3.686  15.177  2.5681  0.6034  0.7008
  367TMC3    H1 5497   1.408   3.956  15.082  1.5895  0.9661  0.4528
  367TMC3    H2 5498   1.690   4.059  15.376 -1.3749 -0.0142  0.2985
  367TMC3    C7 5499   1.462   4.129  15.280 -0.4036 -0.4011  0.3419
  367TMC3    C8 5500   1.815   3.816  15.378  0.0089 -0.0166  0.1942
  367TMC3    O1 5501   1.455   4.136  15.402  0.3665 -0.0750  0.5628
  367TMC3    O2 5502   1.850   3.699  15.359 -0.9313 -0.0688  0.2299
  368MPD2     C 5503   2.850   0.565  13.088 -0.4216 -0.5288 -0.4698
  368MPD2    C1 5504   2.812   0.659  12.993  0.3795  0.7949  0.3133
  368MPD2    C2 5505   2.901   0.681  12.892  0.3751  0.5071 -0.2134
  368MPD2    C3 5506   3.010   0.599  12.870  0.5880  0.0708  0.3989
  368MPD2    C4 5507   3.032   0.489  12.960  0.2731  0.3320 -0.5305
  368MPD2    C5 5508   2.955   0.480  13.077  0.5039 -0.1496 -0.1232
  368MPD2     H 5509   2.889   0.761  12.819 -0.4605  0.2233 -0.3907
  368MPD2    H1 5510   3.100   0.408  12.936  0.8106  0.0307  1.9878
  368MPD2    H2 5511   2.794   0.547  13.179  0.9147 -0.6637  0.3212
  368MPD2    H3 5512   2.962   0.401  13.151  0.9244 -0.3313 -0.3546
  368MPD2     N 5513   3.103   0.611  12.767  0.0832  0.2340 -0.3492
  368MPD2    H5 5514   3.179   0.544  12.756 -1.0963 -1.2693  0.6321
  368MPD2    N1 5515   2.699   0.744  13.019 -0.2692 -0.0907  0.4519
  368MPD2    H7 5516   2.641   0.703  13.092  1.3099 -2.0485  0.6207
  369TMC3    C1 5517   2.501   0.886  12.967 -0.1729  0.1303  0.3024
  369TMC3    C2 5518   2.462   0.991  12.885 -0.3280  0.1882 -0.0890
  369TMC3    C3 5519   2.334   1.024  12.896 -0.6348  0.0231  0.1959
  369TMC3    C4 5520   2.419   0.821  13.056  0.1078  0.4206  0.5284
  369TMC3    C5 5521   2.297   0.876  13.075  0.3275  0.7487 -0.2225
  369TMC3    C6 5522   2.251   0.978  12.991  0.0700 -0.0046 -0.1146
  369TMC3     C 5523   2.643   0.847  12.937  0.3943  0.1592  0.3854
  369TMC3     O 5524   2.700   0.893  12.837 -0.0687 -0.5110  0.2600
  369TMC3     H 5525   2.517   1.016  12.796 -1.9969  0.6954 -0.9744
  369TMC3    H1 5526   2.458   0.740  13.116  2.0586  0.7199 -0.3310
  369TMC3    H2 5527   2.152   1.017  13.012  1.2226  2.5970  0.5315
  369TMC3    C7 5528   2.201   0.803  13.153 -0.0136  0.7954  0.2093
  369TMC3    C8 5529   2.277   1.122  12.811 -0.1430  0.8238 -0.4440
  369TMC3    O1 5530   2.228   0.686  13.175 -0.1935 -0.0349  0.3060
  369TMC3    O2 5531   2.157   1.112  12.778  0.4345 -0.4846 -0.4630
  370TMC3    C1 5532   2.471   0.894  16.228 -0.7577 -0.0189 -0.2661
  370TMC3    C2 5533   2.469   0.821  16.342 -0.0418 -0.6347 -0.0118
  370TMC3    C3 5534   2.478   0.684  16.329  0.1344 -0.2342  0.3815
  370TMC3    C4 5535   2.461   0.837  16.105 -0.1806  0.6838 -0.0379
  370TMC3    C5 5536   2.459   0.698  16.097 -0.1105  0.5289  0.4308
  370TMC3    C6 5537   2.465   0.619  16.207  0.0146  0.5599 -0.1082
  370TMC3     C 5538   2.432   1.028  16.242  0.0194 -0.2041  0.0831
  370TMC3     O 5539   2.371   1.062  16.343  0.3470 -0.1854  0.7104
  370TMC3     H 5540   2.492   0.866  16.437  2.2095 -0.8650 -0.4604
  370TMC3    H1 5541   2.446   0.883  16.008  0.2212  3.6137  1.3164
  370TMC3    H2 5542   2.498   0.516  16.211  2.3293  1.2807 -0.2628
  370TMC3    C7 5543   2.442   0.636  15.970 -0.1109  0.5337  0.2017
  370TMC3    C8 5544   2.442   0.593  16.439  0.4721  0.3534  0.9075
  370TMC3    O1 5545   2.459   0.705  15.865 -0.3453  0.1837 -0.3737
  370TMC3    O2 5546   2.366   0.501  16.420  0.0507 -0.4000 -0.3770
  371TMC3    C1 5547   3.397   3.614  15.555  0.4390  0.3960  0.3255
  371TMC3    C2 5548   3.259   3.601  15.575 -0.0575 -0.0944  0.2054
  371TMC3    C3 5549   3.180   3.698  15.522  0.1362 -0.2515 -0.4403
  371TMC3    C4 5550   3.451   3.721  15.489 -0.1974 -0.3977  0.1190
  371TMC3    C5 5551   3.365   3.818  15.440  0.4352  0.0784 -0.1395
  371TMC3    C6 5552   3.228   3.805  15.457 -0.2401  0.6885  0.2141
  371TMC3     C 5553   3.475   3.487  15.541  0.2005 -0.3652  0.7322
  371TMC3     O 5554   3.593   3.498  15.504  0.1725 -0.2493  0.0035
  371TMC3     H 5555   3.212   3.517  15.624  0.9952 -0.7189  0.1665
  371TMC3    H1 5556   3.557   3.715  15.467 -0.7037  0.3402 -2.5281
  371TMC3    H2 5557   3.165   3.891  15.436  0.6752  1.4528  0.6239
  371TMC3    C7 5558   3.421   3.943  15.387 -0.8125 -0.2928  0.2773
  371TMC3    C8 5559   3.037   3.694  15.560 -0.4165 -0.6222 -0.1914
  371TMC3    O1 5560   3.336   4.031  15.359  0.2299  0.3220 -0.3508
  371TMC3    O2 5561   2.992   3.595  15.615 -0.2934  0.3991  0.8206
  372MPD2     C 5562   3.538   0.538  13.252  0.7761  0.7123 -0.1045
  372MPD2    C1 5563   3.580   0.470  13.367  0.4013 -0.0123 -0.0107
  372MPD2    C2 5564   3.539   0.337  13.394  0.3700 -0.5900 -0.2883
  372MPD2    C3 5565   3.456   0.273  13.305  0.0116  0.0875  0.7344
  372MPD2    C4 5566   3.416   0.342  13.188 -0.0232 -0.1440 -0.1074
  372MPD2    C5 5567   3.449   0.470  13.169  0.6767 -0.1855 -0.7354
  372MPD2     H 5568   3.565   0.279  13.482 -0.6132  0.0969  0.4523
  372MPD2    H1 5569   3.372   0.281  13.109  0.1238  1.7879 -1.6642
  372MPD2    H2 5570   3.565   0.641  13.234 -2.2075  1.6369  0.6959
  372MPD2    H3 5571   3.428   0.506  13.069  2.7668 -0.5272 -1.2958
  372MPD2     N 5572   3.411   0.151  13.346  0.2409  0.2378  0.1055
  372MPD2    H5 5573   3.461   0.106  13.421  0.5354  2.0609  1.0162
  372MPD2    N1 5574   3.667   0.523  13.458 -0.5808  0.2543  0.0119
  372MPD2    H7 5575   3.685   0.466  13.541  0.9742 -1.6525 -1.6401
  373TMC3    C1 5576   3.293   4.675  13.336  0.0631 -0.7781  1.0078
  373TMC3    C2 5577   3.162   4.627  13.349  0.2573  0.2801 -0.1783
  373TMC3    C3 5578   3.161   4.506  13.414 -0.4771  0.4191 -0.3830
  373TMC3    C4 5579   3.403   4.611  13.380  0.0459  0.3530 -0.6069
  373TMC3    C5 5580   3.393   4.487  13.427  0.5319  0.5203  1.3266
  373TMC3    C6 5581   3.271   4.423  13.429  0.4777  0.1386 -0.2902
  373TMC3     C 5582   3.302   0.090  13.290 -0.0639  0.3590 -0.1965
  373TMC3     O 5583   3.210   0.148  13.232  0.0279 -0.6815  0.2319
  373TMC3     H 5584   3.078   4.684  13.312  0.4416  0.3804 -0.4427
  373TMC3    H1 5585   3.505   4.637  13.358  0.9656 -2.3685  0.4436
  373TMC3    H2 5586   3.251   4.324  13.468 -1.1281  0.5447 -0.0844
  373TMC3    C7 5587   3.509   4.402  13.464 -0.1719 -0.0161 -0.5667
  373TMC3    C8 5588   3.107   4.513  13.544  0.5131  0.4054  0.2879
  373TMC3    O1 5589   3.613   4.423  13.407  0.3875  0.3158  0.2112
  373TMC3    O2 5590   3.169   4.456  13.633  0.2186  0.1913  0.1070
  374TMC3    C1 5591   3.533   0.490   9.995  0.7620 -0.6275 -0.1057
  374TMC3    C2 5592   3.658   0.539   9.985 -0.0524  0.6156 -0.1135
  374TMC3    C3 5593   3.728   0.523   9.865 -0.7201  0.2076 -0.4002
  374TMC3    C4 5594   3.480   0.410   9.897 -0.1535 -0.2769  0.1597
  374TMC3    C5 5595   3.543   0.395   9.783  0.0471 -0.5673 -0.0220
  374TMC3    C6 5596   3.667   0.447   9.766  0.1492  0.4312  0.0184
  374TMC3     C 5597   3.458   0.477  10.117 -0.5178 -1.0016 -0.0943
  374TMC3     O 5598   3.345   0.437  10.107 -0.0343 -0.1071 -0.1561
  374TMC3     H 5599   3.695   0.619  10.049 -1.4909  0.8349  0.4322
  374TMC3    H1 5600   3.375   0.381   9.903  0.6049 -2.2839  3.4486
  374TMC3    H2 5601   3.713   0.450   9.668 -0.9677  1.3023 -0.4757
  374TMC3    C7 5602   3.483   0.326   9.668  0.0378  0.5904  0.3561
  374TMC3    C8 5603   3.866   0.576   9.839  0.1523  0.1538 -0.4978
  374TMC3    O1 5604   3.563   0.328   9.573 -0.0903  0.1667  0.4792
  374TMC3    O2 5605   3.899   0.585   9.723 -0.4007  0.1293 -0.0036
  375MPD2     C 5606   3.483   1.500  17.122  0.0719 -0.5377 -0.1656
  375MPD2    C1 5607   3.387   1.431  17.054 -0.4498  0.8264  0.1408
  375MPD2    C2 5608   3.390   1.411  16.913 -0.2986 -0.0484  0.8262
  375MPD2    C3 5609   3.494   1.462  16.842 -0.0244 -0.4423  0.1300
  375MPD2    C4 5610   3.583   1.536  16.909  0.6785  0.4344  0.0610
  375MPD2    C5 5611   3.588   1.541  17.045  0.6419  0.4347 -0.0737
  375MPD2     H 5612   3.308   1.358  16.866  1.8984 -1.4613 -1.4330
  375MPD2    H1 5613   3.665   1.576  16.850 -0.2273 -2.3803 -3.0769
  375MPD2    H2 5614   3.462   1.512  17.228 -0.3543  0.5043 -0.3655
  375MPD2    H3 5615   3.667   1.602  17.088  1.7280 -1.8250  1.1332
  375MPD2     N 5616   3.520   1.457  16.702  0.2455  0.9437  0.2258
  375MPD2    H5 5617   3.605   1.503  16.670  0.1216  0.0473 -1.3699
  375MPD2    N1 5618   3.275   1.378  17.117 -0.6556  0.3549  0.4377
  375MPD2    H7 5619   3.208   1.324  17.063  0.9099  0.0142 -1.1751
  376TMC3    C1 5620   3.498   1.411  16.481  0.2598 -0.0685 -0.5351
  376TMC3    C2 5621   3.629   1.411  16.461  0.4304  0.0039 -0.6546
  376TMC3    C3 5622   3.680   1.406  16.330  0.0413 -0.5712  0.6270
  376TMC3    C4 5623   3.415   1.404  16.370  0.1419 -0.5513 -0.2707
  376TMC3    C5 5624   3.467   1.409  16.240 -0.1747  0.2254 -0.7052
  376TMC3    C6 5625   3.605   1.413  16.218  0.3188 -0.6106 -0.3775
  376TMC3     C 5626   3.438   1.394  16.609 -0.0344  0.3176  0.5029
  376TMC3     O 5627   3.325   1.353  16.616 -0.0099  0.0797  0.1419
  376TMC3     H 5628   3.699   1.408  16.544  2.0171  2.0506 -1.9120
  376TMC3    H1 5629   3.313   1.370  16.387 -0.7179  1.6413 -1.0652
  376TMC3    H2 5630   3.648   1.391  16.121 -0.7925 -1.2345 -0.7240
  376TMC3    C7 5631   3.379   1.361  16.131 -0.1382  0.0484  0.1626
  376TMC3    C8 5632   3.820   1.382  16.310 -0.7295 -0.3369 -1.1708
  376TMC3    O1 5633   3.272   1.309  16.162  0.9387 -1.0753 -0.9087
  376TMC3    O2 5634   3.868   1.408  16.197 -0.5315 -0.2690 -0.1253
  377MPD2     C 5635   1.484   0.926  12.350 -0.7169 -0.6484 -0.4620
  377MPD2    C1 5636   1.524   0.870  12.462 -0.0076  0.1376  0.3224
  377MPD2    C2 5637   1.428   0.810  12.550  0.6620  0.6111 -0.3625
  377MPD2    C3 5638   1.304   0.778  12.498 -0.0752 -0.4974  0.6773
  377MPD2    C4 5639   1.269   0.833  12.381  0.5942  0.2921  0.1922
  377MPD2    C5 5640   1.356   0.911  12.310 -0.1648  0.4481  0.0243
  377MPD2     H 5641   1.455   0.783  12.651  0.6861  1.6015 -0.1047
  377MPD2    H1 5642   1.171   0.821  12.337  0.0897 -3.5508  2.4218
  377MPD2    H2 5643   1.548   0.989  12.290 -2.8594  1.6549 -0.3090
  377MPD2    H3 5644   1.315   0.952  12.218  0.1166  1.8234  0.5054
  377MPD2     N 5645   1.206   0.712  12.578 -0.5712  0.5468  0.4251
  377MPD2    H5 5646   1.121   0.679  12.533 -1.8943  1.3679  2.3193
  377MPD2    N1 5647   1.659   0.898  12.497 -0.3048  0.3286  0.7205
  377MPD2    H7 5648   1.715   0.938  12.422 -0.5162 -0.8260 -0.0417
  378TMC3    C1 5649   2.064   0.907  12.458  0.0344  0.5244  0.7191
  378TMC3    C2 5650   1.929   0.926  12.481  0.3376  0.4428 -0.5421
  378TMC3    C3 5651   1.872   0.853  12.587  0.1527  0.3783  0.3697
  378TMC3    C4 5652   2.143   0.834  12.538 -0.2301  0.0634  0.4270
  378TMC3    C5 5653   2.084   0.763  12.641  0.0207  0.4535  0.4429
  378TMC3    C6 5654   1.952   0.773  12.672  0.8608  0.1171 -0.1905
  378TMC3     C 5655   2.110   0.912  12.323  0.4036 -0.7418  0.0498
  378TMC3     O 5656   2.027   0.908  12.234 -0.2072 -0.0380 -0.1582
  378TMC3     H 5657   1.879   0.989  12.409 -0.1220  2.1837  1.3054
  378TMC3    H1 5658   2.246   0.830  12.505  0.0836  2.8124  1.0414
  378TMC3    H2 5659   1.905   0.723  12.755  1.3637 -1.1654 -0.6780
  378TMC3    C7 5660   2.168   0.704  12.742  0.0948  0.1420  0.5733
  378TMC3    C8 5661   1.726   0.832  12.593  0.0127 -0.4502  0.0152
  378TMC3    O1 5662   2.127   0.696  12.855 -0.5702  0.4307 -0.1364
  378TMC3    O2 5663   1.680   0.755  12.675  0.3316 -0.0408 -0.3438
  379MPD2     C 5664   2.660   3.478  16.317  0.6990 -0.1037  0.0569
  379MPD2    C1 5665   2.656   3.367  16.237 -0.7547 -0.0262 -0.3796
  379MPD2    C2 5666   2.682   3.243  16.290 -0.1367 -0.1370 -0.3443
  379MPD2    C3 5667   2.716   3.219  16.424  0.9023  0.4894 -0.3792
  379MPD2    C4 5668   2.713   3.327  16.507  0.5419  1.2421  0.4487
  379MPD2    C5 5669   2.682   3.454  16.449  0.2665  0.1755  0.1274
  379MPD2     H 5670   2.671   3.159  16.223 -2.6876 -1.3368  1.5375
  379MPD2    H1 5671   2.739   3.323  16.612 -0.7543 -0.0966  0.7215
  379MPD2    H2 5672   2.635   3.578  16.282  1.7912 -0.0958 -0.7009
  379MPD2    H3 5673   2.674   3.544  16.509 -0.1112 -0.3467  0.8528
  379MPD2     N 5674   2.756   3.097  16.481  0.1142  0.0110  0.0113
  379MPD2    H5 5675   2.765   3.095  16.582 -0.0390 -2.3240 -0.0185
  379MPD2    N1 5676   2.610   3.393  16.101  0.9129 -0.0345  0.5419
  379MPD2    H7 5677   2.578   3.486  16.079 -0.5883 -0.2366  1.8724
  380TMC3    C1 5678   2.525   3.355  15.891 -0.2156 -0.5133  0.8328
  380TMC3    C2 5679   2.553   3.283  15.773 -0.0007 -0.3846 -0.1980
  380TMC3    C3 5680   2.496   3.336  15.653  0.4407 -0.1227 -0.3017
  380TMC3    C4 5681   2.449   3.470  15.892 -0.5320 -0.0928 -1.3061
  380TMC3    C5 5682   2.387   3.508  15.775  0.6033  0.8355 -0.1249
  380TMC3    C6 5683   2.408   3.440  15.652  0.8378  0.8017 -0.7677
  380TMC3     C 5684   2.596   3.297  16.002 -0.0204  0.2780  0.1050
  380TMC3     O 5685   2.659   3.194  15.985  0.2698  0.0179 -0.0947
  380TMC3     H 5686   2.620   3.198  15.780  1.5277  0.7799 -0.6048
  380TMC3    H1 5687   2.430   3.519  15.987  1.8391  1.0065 -1.3898
  380TMC3    H2 5688   2.376   3.494  15.564 -0.8589  1.4900  0.2709
  380TMC3    C7 5689   2.315   3.636  15.769 -0.2174 -0.6210 -0.6044
  380TMC3    C8 5690   2.577   3.328  15.529 -0.9784  0.0918 -0.4198
  380TMC3    O1 5691   2.338   3.704  15.867  0.3385 -0.2114  0.3799
  380TMC3    O2 5692   2.525   3.383  15.430 -0.0407 -0.1291 -0.0873
  381TMC3    C1 5693   1.997   0.104  16.298  0.0386 -0.0348  0.4303
  381TMC3    C2 5694   2.122   0.107  16.244 -0.0287  0.2418  0.2058
  381TMC3    C3 5695   2.227   0.054  16.319 -0.1555 -0.7720 -0.5881
  381TMC3    C4 5696   1.976   0.070  16.432 -0.2481 -0.1384 -0.4257
  381TMC3    C5 5697   2.088   0.018  16.504  0.4527 -0.1901  1.1169
  381TMC3    C6 5698   2.216   0.009  16.443  0.1494 -0.0299 -0.0633
  381TMC3     C 5699   1.886   0.155  16.221  0.4443 -0.7676 -0.1155
  381TMC3     O 5700   1.918   0.199  16.111 -0.0446 -0.0896  0.2787
  381TMC3     H 5701   2.140   0.150  16.145  4.1963 -0.3126  0.7461
  381TMC3    H1 5702   1.873   0.067  16.466  0.0534 -0.3787  0.4678
  381TMC3    H2 5703   2.288   4.681  16.507  0.8023 -0.1152 -0.8589
  381TMC3    C7 5704   2.057   4.665  16.625 -0.3795 -0.1699  0.3829
  381TMC3    C8 5705   2.363   0.094  16.273  0.1084 -0.3473 -0.9061
  381TMC3    O1 5706   2.128   4.568  16.643 -0.3192 -0.4446 -1.0826
  381TMC3    O2 5707   2.383   0.069  16.155  0.7886  0.3789  0.7714
  382MPD2     C 5708   1.594   2.607   0.012 -0.7407  0.1387 -0.0978
  382MPD2    C1 5709   1.516   2.652  17.592 -0.0386 -0.7951  0.2236
  382MPD2    C2 5710   1.416   2.579  17.541 -0.3442  0.2636  0.5340
  382MPD2    C3 5711   1.374   2.468  17.623  0.5201  0.5183  0.2596
  382MPD2    C4 5712   1.454   2.426   0.049  0.2518 -0.2842  0.4350
  382MPD2    C5 5713   1.570   2.491   0.076  0.3046  0.2273 -0.7107
  382MPD2     H 5714   1.355   2.600  17.454 -0.2221  2.3324  0.9509
  382MPD2    H1 5715   1.431   2.334   0.100 -0.2888 -0.4184 -0.0397
  382MPD2    H2 5716   1.677   2.665   0.051 -0.2438 -1.9264  1.9256
  382MPD2    H3 5717   1.630   2.456   0.159 -0.0214  2.5701  0.5195
  382MPD2     N 5718   1.266   2.382  17.591 -0.0248  0.4280 -0.1588
  382MPD2    H5 5719   1.269   2.295  17.643  0.6433  0.7894  0.4148
  382MPD2    N1 5720   1.559   2.778  17.544  0.4018  0.0470  0.2941
  382MPD2    H7 5721   1.632   2.823  17.599  3.2292 -1.0538 -2.5678
  383TMC3    C1 5722   1.086   2.282  17.475 -0.7308  0.6168 -0.2816
  383TMC3    C2 5723   1.067   2.226  17.346 -0.4154  0.2567  0.8555
  383TMC3    C3 5724   1.016   2.096  17.349  0.3772 -0.0341 -0.5683
  383TMC3    C4 5725   1.055   2.209  17.587 -0.1191  0.1898 -0.4699
  383TMC3    C5 5726   1.008   2.081  17.584  0.1689 -0.4241  0.0821
  383TMC3    C6 5727   0.984   2.022  17.460  0.3421  0.5983  0.5008
  383TMC3     C 5728   1.172   2.397  17.490 -0.2130  0.0567 -0.0215
  383TMC3     O 5729   1.153   2.486  17.407 -0.0602  0.3366 -0.1706
  383TMC3     H 5730   1.091   2.284  17.257  0.7535 -0.3510  0.7677
  383TMC3    H1 5731   1.081   2.251  17.683 -1.9359 -2.6141  1.2423
  383TMC3    H2 5732   0.954   1.918  17.461  0.2600  0.6244  0.7854
  383TMC3    C7 5733   0.980   2.015   0.027 -0.7677  0.2474  0.6612
  383TMC3    C8 5734   0.984   2.043  17.223  0.2873 -0.0591  0.0793
  383TMC3    O1 5735   0.974   2.091   0.128 -0.4007 -0.3312  0.8212
  383TMC3    O2 5736   0.999   2.121  17.130 -0.5837  0.1885  0.0194
  384MPD2     C 5737   2.825   3.511  11.849  0.3442 -0.3327  0.7054
  384MPD2    C1 5738   2.932   3.460  11.912 -0.3285  0.0986 -0.5562
  384MPD2    C2 5739   3.000   3.348  11.861 -0.3034 -0.1667 -0.8707
  384MPD2    C3 5740   2.974   3.304  11.734 -0.7082 -0.5326  0.4800
  384MPD2    C4 5741   2.878   3.370  11.661  0.2067  0.1350 -0.0346
  384MPD2    C5 5742   2.806   3.465  11.720  0.5425 -0.0991  0.0998
  384MPD2     H 5743   3.081   3.304  11.918 -1.4956 -0.1932  0.8177
  384MPD2    H1 5744   2.855   3.347  11.557  3.2644  0.2191 -0.7315
  384MPD2    H2 5745   2.756   3.588  11.883 -1.8071 -0.8795 -2.3628
  384MPD2    H3 5746   2.717   3.496  11.666  1.0289 -1.2941 -1.3958
  384MPD2     N 5747   3.054   3.205  11.687 -0.2848  0.3187 -0.4696
  384MPD2    H5 5748   3.119   3.177  11.760  0.9208  0.9661 -1.2942
  384MPD2    N1 5749   2.974   3.509  12.039  0.1436  0.3947  0.4151
  384MPD2    H7 5750   3.058   3.471  12.082  1.2327  2.0283 -0.2398
  385TMC3    C1 5751   3.145   3.027  11.569  0.7094 -0.5166  0.2242
  385TMC3    C2 5752   3.104   2.894  11.580  0.2054  0.5428 -0.0291
  385TMC3    C3 5753   3.164   2.811  11.663  0.7047 -0.8991 -0.2138
  385TMC3    C4 5754   3.254   3.067  11.641 -0.3223  0.4165 -0.1955
  385TMC3    C5 5755   3.309   2.982  11.736  0.1858  0.0212 -0.4608
  385TMC3    C6 5756   3.260   2.856  11.751  0.0110  0.4736 -0.4888
  385TMC3     C 5757   3.038   3.131  11.574  0.5134  0.1923 -0.1213
  385TMC3     O 5758   2.941   3.122  11.504  0.2579 -0.1224 -0.3020
  385TMC3     H 5759   3.016   2.864  11.523  1.7396 -0.8079 -1.6891
  385TMC3    H1 5760   3.285   3.169  11.623 -0.4927  0.6563  0.8430
  385TMC3    H2 5761   3.302   2.777  11.813  0.7893  0.7287 -0.6978
  385TMC3    C7 5762   3.334   3.049  11.864  0.2477 -0.1705 -0.2542
  385TMC3    C8 5763   3.099   2.687  11.693 -0.3618  0.5315 -0.3506
  385TMC3    O1 5764   3.285   3.166  11.865  0.2784  0.8291 -0.2387
  385TMC3    O2 5765   3.106   2.662  11.811 -0.0807  0.0225  0.3535
  386TMC3    C1 5766   2.893   1.029  11.581 -0.1656  0.0198 -0.5161
  386TMC3    C2 5767   2.919   0.946  11.475  0.1407  0.0166 -0.1076
  386TMC3    C3 5768   2.811   0.926  11.392 -0.1006  0.1970 -0.0329
  386TMC3    C4 5769   2.772   1.092  11.601 -0.2416  0.5575  0.6245
  386TMC3    C5 5770   2.669   1.073  11.509 -0.4578  0.2083 -0.6822
  386TMC3    C6 5771   2.692   0.991  11.409 -0.0749  0.5058 -1.1132
  386TMC3     C 5772   3.012   1.065  11.659  0.2648  0.4030  0.9331
  386TMC3     O 5773   3.001   1.172  11.720 -0.9055 -0.2214 -0.2076
  386TMC3     H 5774   3.011   0.898  11.442  0.9077  0.2856  1.6347
  386TMC3    H1 5775   2.772   1.166  11.680  1.8221  1.6347 -0.3814
  386TMC3    H2 5776   2.613   0.977  11.336 -0.1435 -0.3581 -0.8705
  386TMC3    C7 5777   2.546   1.137  11.545  0.3494  0.3036 -0.3950
  386TMC3    C8 5778   2.825   0.879  11.251 -0.0990  0.2021 -0.0533
  386TMC3    O1 5779   2.546   1.202  11.653 -0.2196 -0.7538  0.6583
  386TMC3    O2 5780   2.726   0.882  11.181  0.8058  0.2335  0.1590
  387MPD2     C 5781   0.447   0.419   9.121 -0.3084  0.1697  0.0315
  387MPD2    C1 5782   0.568   0.446   9.186  0.5599  0.3015  0.1160
  387MPD2    C2 5783   0.664   0.348   9.195  0.5373 -0.2733 -0.7509
  387MPD2    C3 5784   0.645   0.221   9.152  0.9414 -0.2420  0.6859
  387MPD2    C4 5785   0.523   0.189   9.096  0.0210 -0.9982 -0.8131
  387MPD2    C5 5786   0.433   0.285   9.083 -0.0293 -0.4849  0.5416
  387MPD2     H 5787   0.763   0.366   9.234  0.5787 -2.4412  0.1219
  387MPD2    H1 5788   0.497   0.088   9.068  0.0877 -1.3864  0.5231
  387MPD2    H2 5789   0.362   0.484   9.102  0.1146  1.0607  1.1781
  387MPD2    H3 5790   0.336   0.266   9.040  1.1742 -1.3690 -1.7772
  387MPD2     N 5791   0.736   0.122   9.192  0.1273  0.0176 -0.5346
  387MPD2    H5 5792   0.825   0.159   9.224 -1.2507  1.7274  1.3460
  387MPD2    N1 5793   0.593   0.567   9.252  0.3170 -0.6089 -0.6732
  387MPD2    H7 5794   0.684   0.562   9.295 -0.2635  0.0013  0.6115
  388TMC3    C1 5795   0.539   0.731   9.409 -0.2973 -0.4036  0.6619
  388TMC3    C2 5796   0.514   0.866   9.405  0.2482 -0.2010  0.6776
  388TMC3    C3 5797   0.586   0.945   9.492  0.3254 -0.7346 -0.4586
  388TMC3    C4 5798   0.615   0.669   9.508  0.1707 -0.4116  0.5614
  388TMC3    C5 5799   0.679   0.750   9.596  0.0456 -0.1046 -0.2073
  388TMC3    C6 5800   0.668   0.890   9.588  0.3524 -0.0315 -0.1465
  388TMC3     C 5801   0.500   0.661   9.294  0.0997 -0.2173  0.7739
  388TMC3     O 5802   0.399   0.703   9.238 -0.3732  0.1095  0.3550
  388TMC3     H 5803   0.432   0.908   9.347  0.0098  1.4186  2.1689
  388TMC3    H1 5804   0.622   0.561   9.507 -1.7101 -0.5330  1.9777
  388TMC3    H2 5805   0.739   0.944   9.650 -0.3690  0.9347 -0.1517
  388TMC3    C7 5806   0.780   0.695   9.682 -0.1492 -0.0536  0.0376
  388TMC3    C8 5807   0.568   1.091   9.498  0.6137 -0.9971 -1.0765
  388TMC3    O1 5808   0.802   0.745   9.793 -0.7329 -0.1753  0.0264
  388TMC3    O2 5809   0.600   1.154   9.602 -0.8954 -0.2192  1.3475
  389MPD2     C 5810   4.582   4.085  11.121  0.8491 -0.0741 -0.4192
  389MPD2    C1 5811   4.490   3.997  11.073  0.3055 -0.1383 -0.2435
  389MPD2    C2 5812   4.443   3.895  11.153  0.4251  0.6274 -0.2760
  389MPD2    C3 5813   4.472   3.897  11.286 -0.3511  0.2498  0.1807
  389MPD2    C4 5814   4.558   3.995  11.332 -0.1215 -0.3455 -0.1358
  389MPD2    C5 5815   4.619   4.085  11.251  0.8857 -0.9088 -0.3722
  389MPD2     H 5816   4.379   3.817  11.116  1.1813 -0.1540  0.0708
  389MPD2    H1 5817   4.603   3.990  11.431 -0.2011 -1.1209 -0.1393
  389MPD2    H2 5818   4.636   4.161  11.066  0.7174 -1.1455 -2.0510
  389MPD2    H3 5819   4.689   4.154  11.298  0.6961 -1.3282  0.5313
  389MPD2     N 5820   4.422   3.801  11.374  0.2969  0.3195  0.4947
  389MPD2    H5 5821   4.464   3.821  11.465  0.1255 -0.1212  0.6748
  389MPD2    N1 5822   4.480   3.991  10.933  0.5183 -0.2750  0.0266
  389MPD2    H7 5823   4.531   4.064  10.884  1.5132 -1.4569 -0.6958
  390TMC3    C1 5824   4.310   3.620  11.472  0.5107  0.0913  0.1883
  390TMC3    C2 5825   4.296   3.487  11.455  0.3972 -0.6919  0.1143
  390TMC3    C3 5826   4.301   3.401  11.555  0.0753 -0.2250  0.1329
  390TMC3    C4 5827   4.322   3.666  11.600 -0.7794  0.6489 -0.2845
  390TMC3    C5 5828   4.328   3.580  11.708 -0.3254 -0.3202  0.2589
  390TMC3    C6 5829   4.328   3.450  11.683 -0.1269 -0.1875 -0.6586
  390TMC3     C 5830   4.327   3.704  11.353  0.2194 -0.3363  0.1388
  390TMC3     O 5831   4.286   3.656  11.250 -0.9328  0.1172 -0.2680
  390TMC3     H 5832   4.281   3.446  11.355 -0.8024  1.4376 -0.5910
  390TMC3    H1 5833   4.324   3.771  11.627  0.4858  0.5051  0.1672
  390TMC3    H2 5834   4.348   3.379  11.763  1.0187  1.3794  0.4387
  390TMC3    C7 5835   4.291   3.616  11.842 -0.4336  0.7246 -0.3502
  390TMC3    C8 5836   4.196   3.304  11.551 -0.4327 -0.5317  0.2147
  390TMC3    O1 5837   4.262   3.518  11.911  0.4704  0.8778  0.3148
  390TMC3    O2 5838   4.157   3.273  11.441  0.1348 -0.2966  0.6508
  391MPD2     C 5839   4.516   0.478  11.302  0.1575 -0.5953 -0.4066
  391MPD2    C1 5840   4.612   0.527  11.215 -0.9269  0.2579  0.1522
  391MPD2    C2 5841   4.591   0.523  11.081  0.1204 -0.1469 -0.0558
  391MPD2    C3 5842   4.472   0.482  11.026 -0.5326  0.2076 -0.2777
  391MPD2    C4 5843   4.372   0.451  11.114  0.4923  0.2874 -0.6610
  391MPD2    C5 5844   4.394   0.445  11.243 -0.0359 -0.0778  0.2357
  391MPD2     H 5845   4.665   0.569  11.017  2.3398 -2.6414  0.7212
  391MPD2    H1 5846   4.271   0.432  11.079  0.3091 -0.7810  0.4631
  391MPD2    H2 5847   4.531   0.470  11.409  1.5819 -0.6099 -0.6084
  391MPD2    H3 5848   4.316   0.402  11.306 -0.7557 -0.7552 -1.1280
  391MPD2     N 5849   4.468   0.486  10.886  0.0987  0.0381 -0.1833
  391MPD2    H5 5850   4.556   0.510  10.842  0.9985  1.4481  2.4120
  391MPD2    N1 5851   0.019   0.550  11.273  0.4748  0.0319  0.2674
  391MPD2    H7 5852   0.034   0.549  11.374 -1.1609 -2.6930  0.4856
  392TMC3    C1 5853   4.417   0.464  10.662 -0.1874  0.1733 -0.3601
  392TMC3    C2 5854   4.324   0.512  10.571  0.3225 -0.1437  0.3825
  392TMC3    C3 5855   4.361   0.605  10.478  0.0488  0.4215  0.0674
  392TMC3    C4 5856   4.547   0.517  10.660 -0.0270 -1.0887 -0.5074
  392TMC3    C5 5857   4.583   0.602  10.562  0.4498 -0.2801 -0.1965
  392TMC3    C6 5858   4.492   0.644  10.467 -0.0861  0.6184 -0.1400
  392TMC3     C 5859   4.373   0.449  10.798 -0.1807  0.3891  0.1230
  392TMC3     O 5860   4.254   0.420  10.817  0.4118  0.0203  0.1447
  392TMC3     H 5861   4.218   0.493  10.573  0.3833 -1.0275 -4.2241
  392TMC3    H1 5862   4.624   0.464  10.716 -1.0409 -1.3498  0.6501
  392TMC3    H2 5863   4.516   0.732  10.408 -1.6108 -0.3241 -2.1443
  392TMC3    C7 5864   4.696   0.684  10.599 -0.3307  0.5639 -0.6600
  392TMC3    C8 5865   4.269   0.629  10.365 -0.6795 -0.0902 -0.3331
  392TMC3    O1 5866   0.017   0.679  10.712 -0.6891  0.8690 -0.2099
  392TMC3    O2 5867   4.156   0.641  10.401 -0.2070  0.0097  0.6137
  393TMC3    C1 5868   3.492   2.822  10.552 -1.2593  0.0711 -0.1936
  393TMC3    C2 5869   3.372   2.764  10.586 -0.0111  0.5061  1.3815
  393TMC3    C3 5870   3.361   2.634  10.547 -0.4762 -0.5807  0.0999
  393TMC3    C4 5871   3.583   2.763  10.480  0.7774  0.0489 -0.1812
  393TMC3    C5 5872   3.562   2.639  10.426  0.1656 -0.5783  0.6265
  393TMC3    C6 5873   3.452   2.569  10.462 -0.3892  0.0938 -0.1169
  393TMC3     C 5874   3.509   2.960  10.583 -0.3642 -0.1600  0.0657
  393TMC3     O 5875   3.406   3.016  10.619 -0.0240  0.2892  0.5259
  393TMC3     H 5876   3.292   2.814  10.639 -0.8358 -1.2017  1.7573
  393TMC3    H1 5877   3.670   2.817  10.444 -1.0823  2.4620 -0.9815
  393TMC3    H2 5878   3.436   2.466  10.432 -0.1872  0.0351 -0.0153
  393TMC3    C7 5879   3.578   2.620  10.283 -0.2499 -0.7201 -0.7379
  393TMC3    C8 5880   3.240   2.565  10.559 -0.0310  0.2218  0.2008
  393TMC3    O1 5881   3.488   2.554  10.227 -0.4577  0.1995  0.1301
  393TMC3    O2 5882   3.220   2.458  10.501 -0.0379 -0.4710  0.1558
  394TMC3    C1 5883   4.418   3.911  10.732  0.4142 -0.5089  0.6361
  394TMC3    C2 5884   4.316   3.864  10.653  0.3763  0.2553  0.0205
  394TMC3    C3 5885   4.344   3.808  10.533 -0.8565 -0.8501 -0.2397
  394TMC3    C4 5886   4.552   3.894  10.689 -0.2833 -0.8354  0.1911
  394TMC3    C5 5887   4.577   3.832  10.564 -0.1838  0.3227  0.4128
  394TMC3    C6 5888   4.474   3.791  10.483 -0.0280  0.1220  0.5387
  394TMC3     C 5889   4.393   3.909  10.870  0.1412 -0.3081 -0.3247
  394TMC3     O 5890   4.294   3.850  10.907  0.1642 -0.0167 -0.2769
  394TMC3     H 5891   4.213   3.868  10.686  0.3992 -0.8189  0.2024
  394TMC3    H1 5892   4.642   3.913  10.747 -0.9633  1.3615  0.5393
  394TMC3    H2 5893   4.493   3.739  10.390  2.0049 -0.1101  1.0663
  394TMC3    C7 5894   4.712   3.785  10.543  0.2432  0.0161  0.1722
  394TMC3    C8 5895   4.227   3.781  10.450 -0.0438 -0.4867 -0.2294
  394TMC3    O1 5896   0.084   3.852  10.584 -0.7404 -0.7590  0.0293
  394TMC3    O2 5897   4.126   3.849  10.469  0.3097 -0.4563 -0.6395
  395TMC3    C1 5898   0.382   1.564  14.472  0.4883 -0.1236 -1.1874
  395TMC3    C2 5899   0.278   1.632  14.431  0.4469 -0.0070 -0.1124
  395TMC3    C3 5900   0.275   1.768  14.450 -0.1344  0.1610  0.3037
  395TMC3    C4 5901   0.490   1.618  14.531  0.6395  0.2586  0.0777
  395TMC3    C5 5902   0.485   1.750  14.547 -0.3864  0.3288  0.9707
  395TMC3    C6 5903   0.378   1.825  14.511  0.1046  1.0321 -0.0240
  395TMC3     C 5904   0.331   1.455  14.542 -0.3862 -0.4069 -0.3466
  395TMC3     O 5905   0.217   1.461  14.583  0.5024 -0.3064 -0.2386
  395TMC3     H 5906   0.196   1.578  14.386 -0.2888  0.8786  0.1907
  395TMC3    H1 5907   0.568   1.561  14.578  1.3212  0.5132 -0.7496
  395TMC3    H2 5908   0.368   1.928  14.544 -1.6016  1.6369 -2.4629
  395TMC3    C7 5909   0.587   1.825  14.630  0.1131  0.1032 -0.2908
  395TMC3    C8 5910   0.154   1.810  14.514  0.7558 -0.6751 -0.0631
  395TMC3    O1 5911   0.571   1.947  14.641  0.6815  0.0449  0.2057
  395TMC3    O2 5912   0.149   1.929  14.531 -0.4875 -0.3858  0.4186
  396MPD2     C 5913   3.855   1.809  16.884  0.1867  0.3680 -0.1484
  396MPD2    C1 5914   3.982   1.812  16.942  0.9920  0.2597  0.1828
  396MPD2    C2 5915   4.050   1.938  16.940  0.3032  0.8473  0.9157
  396MPD2    C3 5916   3.995   2.054  16.877  0.1555 -0.0119  0.8269
  396MPD2    C4 5917   3.869   2.043  16.824 -0.0620 -0.1272 -0.4623
  396MPD2    C5 5918   3.803   1.919  16.821 -0.5896  0.2509 -0.3197
  396MPD2     H 5919   4.148   1.936  16.987 -0.5929  1.1529  2.7823
  396MPD2    H1 5920   3.824   2.124  16.768  0.3647  1.2224  1.1605
  396MPD2    H2 5921   3.790   1.724  16.898 -2.1209  2.0846 -0.4504
  396MPD2    H3 5922   3.704   1.906  16.780 -0.3357  0.2391 -0.9241
  396MPD2     N 5923   4.064   2.176  16.868  0.1359  0.1444 -0.3705
  396MPD2    H5 5924   4.024   2.254  16.817 -1.7120 -1.4653 -1.3953
  396MPD2    N1 5925   4.040   1.691  16.988  0.0934 -0.5330  0.1266
  396MPD2    H7 5926   3.989   1.605  16.975  0.8529 -0.9800  0.0805
  397TMC3    C1 5927   4.209   1.540  17.006  0.0589 -0.5585  0.5961
  397TMC3    C2 5928   4.223   1.520  16.871  0.4644  0.1899  0.2313
  397TMC3    C3 5929   4.342   1.491  16.822 -0.8407 -0.2532 -1.3020
  397TMC3    C4 5930   4.315   1.512  17.091 -0.4038 -0.0206 -0.0568
  397TMC3    C5 5931   4.434   1.481  17.037 -0.7145  0.0717 -0.0246
  397TMC3    C6 5932   4.447   1.467  16.904 -0.1768 -0.0613 -0.9264
  397TMC3     C 5933   4.168   1.675  17.030  0.0522  0.3287 -0.3747
  397TMC3     O 5934   4.251   1.747  17.084  0.3045 -0.3049  0.6972
  397TMC3     H 5935   4.141   1.546  16.805  0.1931  1.4688  1.0580
  397TMC3    H1 5936   4.297   1.528  17.197 -0.6218 -1.2189  0.0878
  397TMC3    H2 5937   4.545   1.435  16.870 -0.0437 -0.6420 -0.0064
  397TMC3    C7 5938   4.533   1.402  17.122  0.4269 -0.0307 -0.2400
  397TMC3    C8 5939   4.368   1.569  16.704  0.0447  0.4997 -0.8096
  397TMC3    O1 5940   4.593   1.306  17.078 -0.1430  0.3516 -0.0165
  397TMC3    O2 5941   4.262   1.617  16.657 -0.0722  0.1663  0.3938
  398MPD2     C 5942   2.109   2.888   0.137 -0.0618  0.5095  0.1319
  398MPD2    C1 5943   2.096   2.811   0.250 -0.2863 -0.2421  0.4078
  398MPD2    C2 5944   2.113   2.874   0.369 -0.6081  0.0595 -0.0270
  398MPD2    C3 5945   2.149   3.007   0.386  0.0179 -0.8077 -0.3844
  398MPD2    C4 5946   2.152   3.083   0.272  0.0773  0.9052 -0.1331
  398MPD2    C5 5947   2.148   3.014   0.154 -0.2472 -0.6345 -0.2860
  398MPD2     H 5948   2.095   2.815   0.458  0.9040  1.4016  1.1777
  398MPD2    H1 5949   2.184   3.186   0.262  1.9649  0.2996 -0.2057
  398MPD2    H2 5950   2.120   2.846   0.038 -0.5436  0.0464  0.2715
  398MPD2    H3 5951   2.159   3.072   0.063  1.1746 -0.2970  0.1131
  398MPD2     N 5952   2.156   3.063   0.514  0.4879 -0.3283 -0.5004
  398MPD2    H5 5953   2.142   3.001   0.593 -0.7963  0.5609 -0.0263
  398MPD2    N1 5954   2.075   2.670   0.244  0.2384  0.3075  0.1686
  398MPD2    H7 5955   2.091   2.631   0.336  1.0981 -0.3705 -0.2590
  399TMC3    C1 5956   2.011   2.456   0.177 -0.1903  0.6631 -0.1239
  399TMC3    C2 5957   2.090   2.404   0.277  0.2227  0.9082 -0.0909
  399TMC3    C3 5958   2.104   2.270   0.273 -0.4053 -0.0342  0.5871
  399TMC3    C4 5959   1.942   2.380   0.085  0.3373 -0.1250  0.0292
  399TMC3    C5 5960   1.950   2.246   0.097 -0.3809  0.2638 -0.4355
  399TMC3    C6 5961   2.034   2.185   0.187 -0.1888 -0.0438  0.0446
  399TMC3     C 5962   2.025   2.597   0.144 -0.5846 -0.6228  0.6899
  399TMC3     O 5963   1.981   2.631   0.036 -0.0845 -0.0666  0.1013
  399TMC3     H 5964   2.156   2.463   0.339 -0.5598 -2.0220  3.5224
  399TMC3    H1 5965   1.864   2.423   0.023  1.3574  0.1577 -1.0590
  399TMC3    H2 5966   2.044   2.078   0.179 -1.2306 -0.2204  1.1247
  399TMC3    C7 5967   1.833   2.159   0.049 -0.0486  0.1042 -0.3596
  399TMC3    C8 5968   2.233   2.215   0.318 -0.4929  0.1656 -0.1217
  399TMC3    O1 5969   1.811   2.064   0.122 -0.2539  0.6268  0.6680
  399TMC3    O2 5970   2.321   2.295   0.354  0.3460 -0.9925 -0.8890
  400TMC3    C1 5971   1.264   1.792  16.931 -0.7798 -0.4879  0.3562
  400TMC3    C2 5972   1.203   1.793  16.807  0.7099 -0.4524 -0.5442
  400TMC3    C3 5973   1.173   1.917  16.751  1.0974 -0.1536 -0.5877
  400TMC3    C4 5974   1.290   1.910  17.002 -0.0645  0.6634 -0.1963
  400TMC3    C5 5975   1.267   2.027  16.936 -0.3733 -0.1889 -0.1570
  400TMC3    C6 5976   1.215   2.033  16.807  0.4197  0.2452 -0.3005
  400TMC3     C 5977   1.297   1.661  16.989  0.2536 -0.4143  0.9492
  400TMC3     O 5978   1.233   1.571  16.933 -0.0522  0.2837  0.0241
  400TMC3     H 5979   1.177   1.702  16.754  1.9010 -1.2008  0.1471
  400TMC3    H1 5980   1.312   1.910  17.108  0.0750 -1.1268 -0.2371
  400TMC3    H2 5981   1.214   2.123  16.747  1.6823 -1.4706 -2.9239
  400TMC3    C7 5982   1.342   2.141  16.986 -0.2518  0.4028  0.1511
  400TMC3    C8 5983   1.108   1.927  16.623  0.1684  0.1116  0.0874
  400TMC3    O1 5984   1.433   2.109  17.062 -0.8426  0.1280 -0.2389
  400TMC3    O2 5985   1.104   2.034  16.559  0.2713 -0.3819 -0.5651
  401MPD2     C 5986   4.335   4.683   0.228 -0.2609  0.4009  0.4414
  401MPD2    C1 5987   4.380   4.660   0.359  0.1165 -0.0126 -0.1845
  401MPD2    C2 5988   4.401   4.531   0.407 -0.0931  0.1851  0.1818
  401MPD2    C3 5989   4.404   4.425   0.321 -0.5521 -0.4157  0.3696
  401MPD2    C4 5990   4.387   4.446   0.186 -0.1031 -0.2409 -0.4373
  401MPD2    C5 5991   4.344   4.574   0.141 -0.2775  0.2296  1.2700
  401MPD2     H 5992   4.430   4.520   0.511  1.1792  1.0572 -0.0816
  401MPD2    H1 5993   4.388   4.364   0.116  0.6920 -0.2178 -0.4518
  401MPD2    H2 5994   4.300   0.055   0.185 -2.3928  0.1039  1.5455
  401MPD2    H3 5995   4.314   4.583   0.037  1.5224 -0.1225  0.7239
  401MPD2     N 5996   4.439   4.304   0.380  0.2023  0.1486 -0.5354
  401MPD2    H5 5997   4.468   4.304   0.477  0.6096 -0.7862 -0.6502
  401MPD2    N1 5998   4.390   0.043   0.458  0.7547 -0.1268  0.1296
  401MPD2    H7 5999   4.410   0.020   0.554  0.9174 -0.4727  0.0116
  402TMC3    C1 6000   4.507   4.083   0.389 -0.4958 -0.5221 -1.1051
  402TMC3    C2 6001   4.442   4.062   0.509 -0.1532 -0.1200  0.4470
  402TMC3    C3 6002   4.489   3.950   0.574  0.3707 -0.0558 -0.5054
  402TMC3    C4 6003   4.599   3.997   0.329  0.6750 -0.2878  0.3915
  402TMC3    C5 6004   4.636   3.897   0.397 -0.9400  0.6671 -0.1095
  402TMC3    C6 6005   4.586   3.866   0.521  0.4633  0.1367  0.2551
  402TMC3     C 6006   4.445   4.186   0.305  1.3316 -0.2180  0.2478
  402TMC3     O 6007   4.427   4.163   0.187  0.4136 -0.4879 -0.0653
  402TMC3     H 6008   4.377   4.137   0.553  2.6104  1.8255  1.2004
  402TMC3    H1 6009   4.631   4.014   0.227 -0.6602 -1.9063 -0.3024
  402TMC3    H2 6010   4.615   3.779   0.577 -0.9543 -0.7864 -0.4409
  402TMC3    C7 6011   0.050   3.835   0.359 -0.0400 -0.3981  0.0816
  402TMC3    C8 6012   4.471   3.928   0.715 -0.1695 -2.0782  0.0565
  402TMC3    O1 6013   0.096   3.871   0.252  0.2873 -0.4011 -0.0590
  402TMC3    O2 6014   4.473   3.809   0.752  0.3727  0.3882 -0.4478
  403MPD2     C 6015   2.902   3.537  13.385  0.9473  0.4363  0.5575
  403MPD2    C1 6016   2.914   3.420  13.460 -0.1928 -0.1319  0.2635
  403MPD2    C2 6017   3.021   3.405  13.544  0.1003 -0.5420 -0.5472
  403MPD2    C3 6018   3.119   3.506  13.557  0.7462 -0.1076 -0.7209
  403MPD2    C4 6019   3.107   3.613  13.479  0.0420 -0.2346 -1.3713
  403MPD2    C5 6020   2.994   3.636  13.404  0.0044 -0.1823 -0.3769
  403MPD2     H 6021   3.042   3.311  13.593  0.5983 -0.7338 -1.1346
  403MPD2    H1 6022   3.183   3.690  13.474 -0.3615  0.2648 -0.0001
  403MPD2    H2 6023   2.814   3.543  13.322 -0.4512  2.6251  2.7310
  403MPD2    H3 6024   2.973   3.734  13.361 -0.1445 -0.1280 -0.1781
  403MPD2     N 6025   3.244   3.478  13.637  0.7175 -0.2291 -0.2584
  403MPD2    H5 6026   3.255   3.393  13.691  2.4228 -0.1527 -0.4722
  403MPD2    N1 6027   2.817   3.316  13.438 -0.2427  0.0271 -0.7159
  403MPD2    H7 6028   2.747   3.326  13.365  0.5592 -2.2517 -1.7865
  404TMC3    C1 6029   2.723   3.096  13.456  0.2843  0.8335  0.0396
  404TMC3    C2 6030   2.672   2.991  13.525  0.1725 -0.3332  0.7303
  404TMC3    C3 6031   2.616   2.880  13.464  1.0834  0.8136  0.5899
  404TMC3    C4 6032   2.731   3.087  13.318  0.2781  0.1457  0.0247
  404TMC3    C5 6033   2.696   2.970  13.263 -0.5496 -0.4727 -0.5667
  404TMC3    C6 6034   2.635   2.869  13.328 -0.2092  0.4858  0.0383
  404TMC3     C 6035   2.804   3.198  13.516 -0.0086  0.1625 -0.5773
  404TMC3     O 6036   2.864   3.162  13.622 -0.3725 -0.1076  0.2834
  404TMC3     H 6037   2.664   3.004  13.633  1.2480 -1.3369  0.9353
  404TMC3    H1 6038   2.791   3.155  13.258 -0.0476 -0.8090 -1.3910
  404TMC3    H2 6039   2.602   2.772  13.291  3.3422  0.5789 -3.4209
  404TMC3    C7 6040   2.730   2.968  13.118 -0.2061  0.1027  0.3978
  404TMC3    C8 6041   2.634   2.749  13.529 -0.6993  0.1227  0.2019
  404TMC3    O1 6042   2.843   3.010  13.093 -0.5639  0.5132 -0.5098
  404TMC3    O2 6043   2.674   2.648  13.472  0.1543 -0.3390 -0.4161
  405MPD2     C 6044   3.189   3.859  14.452 -0.0033 -0.2211 -0.3284
  405MPD2    C1 6045   3.108   3.765  14.386 -0.0659  0.6646 -0.9263
  405MPD2    C2 6046   3.027   3.811  14.287 -0.0650  0.2875  0.3439
  405MPD2    C3 6047   3.008   3.941  14.259 -0.2842 -0.1867  0.2545
  405MPD2    C4 6048   3.091   4.032  14.318  0.7435 -0.1508 -0.7836
  405MPD2    C5 6049   3.170   3.994  14.426 -0.5933 -0.1640  1.2656
  405MPD2     H 6050   2.968   3.739  14.232 -2.5302  3.0874 -0.6495
  405MPD2    H1 6051   3.098   4.137  14.290  1.4343  0.3803  1.3390
  405MPD2    H2 6052   3.255   3.821  14.528  0.2157  1.0838  0.1353
  405MPD2    H3 6053   3.214   4.072  14.486 -0.9417  1.5280 -0.6777
  405MPD2     N 6054   2.905   3.967  14.168 -0.6678  0.3433 -0.5985
  405MPD2    H5 6055   2.847   3.886  14.148  2.0406 -1.9107  0.5779
  405MPD2    N1 6056   3.116   3.627  14.422 -0.1883  0.4291  0.1022
  405MPD2    H7 6057   3.187   3.597  14.488 -0.1893  0.6565  0.2047
  406TMC3    C1 6058   2.504   4.163  14.093  0.3630  0.5044  0.3105
  406TMC3    C2 6059   2.455   4.051  14.034  0.3061 -0.2356 -0.3463
  406TMC3    C3 6060   2.542   3.952  14.004 -0.6219  0.2560 -0.2585
  406TMC3    C4 6061   2.638   4.187  14.105  0.3769 -0.0732 -0.6684
  406TMC3    C5 6062   2.724   4.082  14.082 -0.9819 -0.1404  0.0261
  406TMC3    C6 6063   2.678   3.962  14.039 -0.0943 -0.4594 -0.1360
  406TMC3     C 6064   2.403   4.255  14.152 -0.1952  0.0962  0.5907
  406TMC3     O 6065   2.422   4.377  14.142 -0.0340 -0.3105  0.3669
  406TMC3     H 6066   2.349   4.036  14.025  0.0560  1.3548 -0.1464
  406TMC3    H1 6067   2.664   4.277  14.161  1.0408  0.5832 -2.0445
  406TMC3    H2 6068   2.746   3.886  14.003  1.7195  1.7570 -1.4389
  406TMC3    C7 6069   2.861   4.092  14.138  0.0904  0.1073 -0.2215
  406TMC3    C8 6070   2.486   3.818  14.000  0.2959  0.0411 -0.0863
  406TMC3    O1 6071   2.906   4.201  14.161 -0.2227  0.2111 -0.1050
  406TMC3    O2 6072   2.387   3.802  13.932 -0.4178 -0.3968  0.0384
  407MPD2     C 6073   0.564   4.183   9.342 -0.1922  0.8581 -0.1094
  407MPD2    C1 6074   0.563   4.309   9.292 -0.1667  0.1880 -0.7129
  407MPD2    C2 6075   0.555   4.416   9.374  0.5105 -0.1610 -0.0899
  407MPD2    C3 6076   0.539   4.401   9.507  0.2440 -0.2008 -0.6668
  407MPD2    C4 6077   0.552   4.278   9.558  0.2109 -0.4239  0.6625
  407MPD2    C5 6078   0.561   4.169   9.474  0.2641 -0.4362 -0.4045
  407MPD2     H 6079   0.548   4.514   9.328 -0.2590 -0.6029 -0.9226
  407MPD2    H1 6080   0.540   4.265   9.665  2.7318 -0.6709  0.9065
  407MPD2    H2 6081   0.562   4.097   9.276  1.0891 -0.3729  1.4535
  407MPD2    H3 6082   0.563   4.070   9.519  0.8386  0.1326  0.8347
  407MPD2     N 6083   0.540   4.513   9.601  0.2193  0.1313 -0.3273
  407MPD2    H5 6084   0.544   4.490   9.699 -1.7819 -0.0624 -0.2851
  407MPD2    N1 6085   0.586   4.336   9.152 -0.2120 -0.0546  0.3707
  407MPD2    H7 6086   0.596   4.432   9.119  1.0149  0.0831  1.1439
  408TMC3    C1 6087   0.700   4.305   8.948  1.0177 -0.7156 -0.2196
  408TMC3    C2 6088   0.831   4.254   8.934 -0.2135 -0.8571 -0.1046
  408TMC3    C3 6089   0.929   4.342   8.898  0.3919  0.2505 -0.5818
  408TMC3    C4 6090   0.662   4.435   8.907  0.0902 -0.2796  0.1913
  408TMC3    C5 6091   0.764   4.516   8.871 -0.0132 -0.6636 -0.2148
  408TMC3    C6 6092   0.892   4.473   8.873  0.0789  0.0220 -0.2728
  408TMC3     C 6093   0.622   4.240   9.053  0.3597  0.3725  0.3047
  408TMC3     O 6094   0.639   4.121   9.068  0.0653 -0.1002 -0.2072
  408TMC3     H 6095   0.863   4.159   8.976  1.9384  0.0653  0.3594
  408TMC3    H1 6096   0.560   4.472   8.903  0.5169  0.5636 -2.4955
  408TMC3    H2 6097   0.971   4.541   8.842 -1.5721  1.6003 -1.0455
  408TMC3    C7 6098   0.731   4.658   8.840  0.2095 -0.9059 -0.4719
  408TMC3    C8 6099   1.067   4.311   8.942  0.2708 -0.8446  0.2645
  408TMC3    O1 6100   0.614   4.667   8.803  0.5861 -0.3157  0.1277
  408TMC3    O2 6101   1.097   4.193   8.943  0.0378  0.2108 -0.1081
  409MPD2     C 6102   0.237   1.284  16.383 -0.4823  0.3265  0.5906
  409MPD2    C1 6103   0.269   1.338  16.501  1.0479 -0.1652 -0.3183
  409MPD2    C2 6104   0.326   1.462  16.504 -0.1243  0.5286 -1.0021
  409MPD2    C3 6105   0.354   1.532  16.387  0.0831 -0.1104 -0.1634
  409MPD2    C4 6106   0.339   1.460  16.265 -0.2102  0.1125 -0.5268
  409MPD2    C5 6107   0.281   1.336  16.269 -0.0334  0.0324 -0.5172
  409MPD2     H 6108   0.359   1.508  16.597 -0.2987  0.1038 -0.7286
  409MPD2    H1 6109   0.363   1.510  16.172 -1.0263 -0.0847 -0.8478
  409MPD2    H2 6110   0.197   1.184  16.389  0.0441  0.0863  0.0660
  409MPD2    H3 6111   0.279   1.287  16.173  2.1305  2.0283 -1.5902
  409MPD2     N 6112   0.409   1.666  16.389  0.1213  0.5576 -0.5285
  409MPD2    H5 6113   0.455   1.696  16.304  0.7759 -0.9673 -0.7231
  409MPD2    N1 6114   0.227   1.286  16.624 -0.2818 -0.2531 -0.2259
  409MPD2    H7 6115   0.261   1.337  16.705  2.3197 -1.8363 -0.3597
  410TMC3    C1 6116   0.524   1.847  16.499  0.5107 -0.0154  0.1120
  410TMC3    C2 6117   0.597   1.854  16.606 -0.1352  0.2142 -0.6052
  410TMC3    C3 6118   0.688   1.953  16.626  0.1476  0.7767 -0.1538
  410TMC3    C4 6119   0.522   1.942  16.405 -1.0364 -0.4002 -0.5756
  410TMC3    C5 6120   0.620   2.040  16.422  0.0731 -0.1486 -0.7459
  410TMC3    C6 6121   0.700   2.053  16.533  0.4523 -0.3101  0.3758
  410TMC3     C 6122   0.423   1.741  16.503 -0.0582  0.6363  0.5999
  410TMC3     O 6123   0.369   1.731  16.612  0.1943 -0.0154 -0.5576
  410TMC3     H 6124   0.585   1.771  16.675 -0.7556  0.8013  0.0011
  410TMC3    H1 6125   0.443   1.938  16.331  0.3929 -2.3002 -2.0231
  410TMC3    H2 6126   0.772   2.134  16.535 -2.5945  2.5630 -4.2537
  410TMC3    C7 6127   0.628   2.144  16.323 -0.3726  0.2250 -0.6327
  410TMC3    C8 6128   0.788   1.942  16.732  0.5903 -0.6986 -0.1235
  410TMC3    O1 6129   0.657   2.256  16.351  0.2447  0.0836  0.0004
  410TMC3    O2 6130   0.849   2.044  16.754  0.0882 -0.3166 -0.0782
  411MPD2     C 6131   0.869   2.013  14.431 -1.0353  0.7935 -0.1355
  411MPD2    C1 6132   0.750   2.065  14.397 -0.5812 -0.5649 -0.2996
  411MPD2    C2 6133   0.666   1.987  14.313 -0.0717 -0.1332 -0.3240
  411MPD2    C3 6134   0.699   1.859  14.283 -0.0971 -0.3225 -0.5394
  411MPD2    C4 6135   0.814   1.799  14.331  0.3454 -0.0072 -0.1143
  411MPD2    C5 6136   0.901   1.886  14.391  0.3161 -0.0182  0.2427
  411MPD2     H 6137   0.579   2.029  14.263 -1.8026 -0.2110  2.6227
  411MPD2    H1 6138   0.848   1.700  14.304 -0.4848  0.0174 -1.2471
  411MPD2    H2 6139   0.950   2.069  14.476 -0.5345  1.6813 -2.1413
  411MPD2    H3 6140   0.995   1.841  14.418  0.2280 -1.6905 -2.2916
  411MPD2     N 6141   0.610   1.777  14.211 -0.2036  0.1768 -0.8014
  411MPD2    H5 6142   0.542   1.827  14.154  0.0899  1.2894 -0.1875
  411MPD2    N1 6143   0.703   2.195  14.422 -1.0781 -0.4873 -0.3699
  411MPD2    H7 6144   0.610   2.224  14.394 -1.1343 -0.5616 -0.2624
  412TMC3    C1 6145   0.497   1.602  14.104  0.5771 -0.1494  0.3692
  412TMC3    C2 6146   0.433   1.483  14.132  0.2935  0.3281 -0.9359
  412TMC3    C3 6147   0.324   1.450  14.050 -0.1829  0.2587 -0.5334
  412TMC3    C4 6148   0.470   1.684  13.996  0.1117 -0.4775  0.5522
  412TMC3    C5 6149   0.367   1.639  13.916 -0.0374  0.1041  0.3321
  412TMC3    C6 6150   0.295   1.525  13.943  0.3986  0.3875 -0.2497
  412TMC3     C 6151   0.608   1.643  14.188  0.4674 -0.0374 -0.3738
  412TMC3     O 6152   0.682   1.559  14.230  0.1766  0.5617 -0.4563
  412TMC3     H 6153   0.454   1.427  14.223 -0.6727 -1.1267 -1.6012
  412TMC3    H1 6154   0.512   1.782  13.977 -0.0831 -0.3949  0.5460
  412TMC3    H2 6155   0.222   1.495  13.868  0.1204  0.1350  0.1235
  412TMC3    C7 6156   0.290   1.743  13.857  0.0776 -0.1682 -0.0988
  412TMC3    C8 6157   0.202   1.421  14.123  0.1343 -0.6634 -0.4263
  412TMC3    O1 6158   0.330   1.830  13.780 -0.5126  0.2842 -0.2032
  412TMC3    O2 6159   0.103   1.481  14.081  0.4755  0.6858 -0.8725
  413MPD2     C 6160   1.652   0.258  15.628 -0.3496  0.2891 -0.1607
  413MPD2    C1 6161   1.646   0.236  15.494 -0.0637  0.2255  0.1515
  413MPD2    C2 6162   1.766   0.196  15.437 -0.0061  0.2580  0.0873
  413MPD2    C3 6163   1.880   0.172  15.504 -0.3939 -0.2878  0.4469
  413MPD2    C4 6164   1.879   0.199  15.641  0.2272  0.3279 -1.0607
  413MPD2    C5 6165   1.763   0.235  15.706  0.3132  0.9121  0.7941
  413MPD2     H 6166   1.776   0.185  15.329  0.0314  0.1132  0.1062
  413MPD2    H1 6167   1.965   0.186  15.706 -1.2527 -0.5199  0.7138
  413MPD2    H2 6168   1.560   0.284  15.681 -0.9344  1.3122 -1.6716
  413MPD2    H3 6169   1.762   0.262  15.811 -0.1230  1.7058  0.5803
  413MPD2     N 6170   1.989   0.124  15.431  0.5077  0.3225  0.3140
  413MPD2    H5 6171   1.977   0.103  15.333  3.6813 -2.4667  0.5015
  413MPD2    N1 6172   1.524   0.266  15.436 -0.1294 -0.6296 -0.1737
  413MPD2    H7 6173   1.447   0.282  15.500  0.3012 -0.6023  0.3375
  414TMC3    C1 6174   2.196   0.034  15.388  0.2669 -0.1550  0.3882
  414TMC3    C2 6175   2.271   4.650  15.430  0.0008  0.6641 -0.4988
  414TMC3    C3 6176   2.272   4.542  15.346  0.2732  0.0942 -0.1559
  414TMC3    C4 6177   2.131   0.036  15.265 -0.2546 -0.0704 -0.2615
  414TMC3    C5 6178   2.138   4.645  15.181  0.4885  0.5392 -0.1212
  414TMC3    C6 6179   2.205   4.534  15.226  0.2698 -0.4984  0.0439
  414TMC3     C 6180   2.119   0.109  15.483  0.1321  0.0357 -0.0195
  414TMC3     O 6181   2.161   0.113  15.597  0.3553 -0.0518  0.0727
  414TMC3     H 6182   2.332   4.669  15.517  0.6937  1.7213 -1.2192
  414TMC3    H1 6183   2.094   0.132  15.232  0.4272  0.4049  0.3684
  414TMC3    H2 6184   2.206   4.442  15.169 -1.0400  0.2144 -1.1165
  414TMC3    C7 6185   2.006   4.629  15.113  0.0050 -0.7337 -0.3460
  414TMC3    C8 6186   2.367   4.442  15.366  0.5540 -0.0829 -0.3320
  414TMC3    O1 6187   1.922   4.704  15.152 -0.0621  0.3755  0.0634
  414TMC3    O2 6188   2.341   4.329  15.332  0.6035  0.2383 -0.2862
  415TMC3    C1 6189   1.926   2.857  10.021  0.0959  0.0269  0.3611
  415TMC3    C2 6190   2.030   2.922   9.953 -0.0639  0.8524  0.8125
  415TMC3    C3 6191   2.008   2.980   9.833  0.3603  0.1274 -0.1339
  415TMC3    C4 6192   1.808   2.854   9.953 -0.2694 -0.0522  0.1472
  415TMC3    C5 6193   1.800   2.895   9.820  0.5131 -0.0437 -0.4029
  415TMC3    C6 6194   1.896   2.962   9.754 -0.2635 -0.4359  0.0442
  415TMC3     C 6195   1.940   2.778  10.145 -0.1224  0.2232 -1.4648
  415TMC3     O 6196   1.836   2.743  10.197 -0.4301  0.0988 -0.7177
  415TMC3     H 6197   2.126   2.939  10.002  0.4953 -0.6186  0.2223
  415TMC3    H1 6198   1.731   2.799  10.006 -0.2677 -0.9694 -0.8200
  415TMC3    H2 6199   1.896   2.984   9.647 -2.1276 -0.0244  0.1449
  415TMC3    C7 6200   1.692   2.849   9.739  0.6051 -0.1596 -0.2120
  415TMC3    C8 6201   2.109   3.072   9.775  0.7814 -0.0852 -0.4201
  415TMC3    O1 6202   1.656   2.920   9.648  0.4482 -0.6707  0.2052
  415TMC3    O2 6203   2.070   3.173   9.719  0.6319  0.0059 -0.2639
  416MPD2     C 6204   4.364   2.129  11.325 -0.8901 -0.3820 -0.1031
  416MPD2    C1 6205   4.314   2.030  11.403 -0.3065 -0.3579 -0.8159
  416MPD2    C2 6206   4.359   1.899  11.392 -0.0218  0.1469 -0.3317
  416MPD2    C3 6207   4.448   1.861  11.292 -0.1304 -0.5352 -0.0324
  416MPD2    C4 6208   4.505   1.960  11.218  0.0537  0.1058 -0.0461
  416MPD2    C5 6209   4.445   2.086  11.223 -0.5736 -0.2137 -0.1162
  416MPD2     H 6210   4.315   1.818  11.448  0.0031 -0.9392 -1.8783
  416MPD2    H1 6211   4.573   1.926  11.141 -0.1337  1.3906 -0.7655
  416MPD2    H2 6212   4.320   2.226  11.343 -0.9720 -0.1803 -1.4050
  416MPD2    H3 6213   4.475   2.158  11.147 -0.6014 -0.7463 -0.6358
  416MPD2     N 6214   4.497   1.731  11.266 -0.0598  0.6209 -0.0153
  416MPD2    H5 6215   4.546   1.717  11.178 -1.1754  0.8513 -0.6639
  416MPD2    N1 6216   4.218   2.065  11.496 -0.1003  0.0554  1.3800
  416MPD2    H7 6217   4.178   2.158  11.498  0.7912  0.4332  1.6148
  417TMC3    C1 6218   4.051   2.051  11.648  0.0252 -0.4686  0.4105
  417TMC3    C2 6219   4.030   2.023  11.781  0.5571  0.5415 -0.1520
  417TMC3    C3 6220   3.900   2.045  11.825  0.5923 -0.1119  0.2822
  417TMC3    C4 6221   3.948   2.082  11.563  0.2495 -0.7367  0.3199
  417TMC3    C5 6222   3.822   2.099  11.615  0.0055 -0.0471 -1.1744
  417TMC3    C6 6223   3.790   2.080  11.746 -0.3377  0.3228  0.2134
  417TMC3     C 6224   4.165   1.987  11.586 -0.5460 -0.6578 -0.3086
  417TMC3     O 6225   4.208   1.892  11.649  0.5451 -0.2312  0.3786
  417TMC3     H 6226   4.112   1.997  11.847 -0.3257 -1.0853  0.3031
  417TMC3    H1 6227   3.965   2.075  11.456  1.1174 -3.6301  0.6277
  417TMC3    H2 6228   3.692   2.094  11.790 -0.3575  0.6838  0.0532
  417TMC3    C7 6229   3.717   2.127  11.514  0.6338 -0.5082 -0.2101
  417TMC3    C8 6230   3.866   2.008  11.966 -0.1740 -0.8346  0.2663
  417TMC3    O1 6231   3.754   2.180  11.408 -0.0476 -0.1738 -0.2861
  417TMC3    O2 6232   3.777   2.073  12.023  0.3342 -0.2817  0.4375
  418TMC3    C1 6233   2.377   3.260   0.833  0.2523  0.6333 -0.0860
  418TMC3    C2 6234   2.306   3.288   0.721 -0.5353 -0.1041 -0.4526
  418TMC3    C3 6235   2.193   3.205   0.690  0.3439 -0.1603 -0.2555
  418TMC3    C4 6236   2.354   3.148   0.914 -0.2256  0.1692 -0.6144
  418TMC3    C5 6237   2.237   3.081   0.882  0.2310  0.4251  0.2497
  418TMC3    C6 6238   2.152   3.102   0.772  0.4617  0.2977  0.6130
  418TMC3     C 6239   2.516   3.302   0.836  0.2372  0.3445  0.6159
  418TMC3     O 6240   2.536   3.417   0.792 -0.4056 -0.6698  0.6276
  418TMC3     H 6241   2.340   3.375   0.666 -0.5224 -1.0882 -1.9859
  418TMC3    H1 6242   2.421   3.120   0.995  2.1144  1.5409 -2.0547
  418TMC3    H2 6243   2.058   3.049   0.765  0.8223 -0.0836 -1.3269
  418TMC3    C7 6244   2.212   2.962   0.963 -0.4990 -0.3296  0.2363
  418TMC3    C8 6245   2.169   3.192   0.550  0.0437 -0.1685 -1.0783
  418TMC3    O1 6246   2.160   2.865   0.907  0.1557 -0.0594 -0.5127
  418TMC3    O2 6247   2.182   3.292   0.483  0.1051 -0.6369  0.1616
  419MPD2     C 6248   1.297   1.742  12.202 -0.5108  0.0170 -0.9283
  419MPD2    C1 6249   1.228   1.862  12.230  0.0984 -0.3017 -0.0515
  419MPD2    C2 6250   1.201   1.892  12.367  0.0898  0.3694 -0.0378
  419MPD2    C3 6251   1.227   1.803  12.471  0.2469 -0.0036  0.3195
  419MPD2    C4 6252   1.299   1.694  12.436 -0.0405 -0.6705 -0.6410
  419MPD2    C5 6253   1.328   1.668  12.309  0.4181  0.1390  0.0914
  419MPD2     H 6254   1.143   1.979  12.395  0.9363  0.0029  2.8371
  419MPD2    H1 6255   1.336   1.627  12.512 -3.2337 -1.3417  0.3221
  419MPD2    H2 6256   1.321   1.702  12.104 -0.5485 -2.0941 -0.0817
  419MPD2    H3 6257   1.383   1.576  12.292 -0.0839 -0.5877  2.4422
  419MPD2     N 6258   1.185   1.835  12.603  0.6038 -0.1128 -0.1580
  419MPD2    H5 6259   1.152   1.929  12.622  1.7594  0.5668 -1.5485
  419MPD2    N1 6260   1.222   1.969  12.136 -0.0413 -0.1012 -0.3283
  419MPD2    H7 6261   1.194   2.061  12.167 -0.7855 -0.3729 -0.1824
  420TMC3    C1 6262   1.160   1.811  12.836  0.0002 -0.4333 -0.3046
  420TMC3    C2 6263   1.040   1.871  12.833  0.1789  0.0883 -0.0113
  420TMC3    C3 6264   0.994   1.910  12.956  0.2522 -0.2967  0.9172
  420TMC3    C4 6265   1.225   1.764  12.947  0.5601  1.1350 -0.8296
  420TMC3    C5 6266   1.176   1.815  13.065  0.1017  0.5829  0.6512
  420TMC3    C6 6267   1.059   1.887  13.074 -0.3020 -0.5780 -0.1862
  420TMC3     C 6268   1.205   1.751  12.713  0.2912  0.6393 -0.4182
  420TMC3     O 6269   1.247   1.638  12.726 -0.1206  0.3895 -0.2464
  420TMC3     H 6270   0.980   1.878  12.743 -0.0307  0.6926  0.1715
  420TMC3    H1 6271   1.329   1.733  12.945  0.9283  2.3558 -1.0380
  420TMC3    H2 6272   1.011   1.917  13.166 -0.6042 -1.7175  0.0339
  420TMC3    C7 6273   1.262   1.807  13.184  0.1718 -0.1902  0.7689
  420TMC3    C8 6274   0.875   1.989  12.962  0.4960 -0.0376  0.5551
  420TMC3    O1 6275   1.344   1.718  13.202 -0.3174  0.7166 -0.1602
  420TMC3    O2 6276   0.805   1.986  13.059 -0.2284 -0.8304 -0.3449
  421TMC3    C1 6277   3.419   3.549  13.782  0.8340 -0.5247  1.2650
  421TMC3    C2 6278   3.478   3.656  13.844 -0.2915  0.8438 -0.2823
  421TMC3    C3 6279   3.607   3.626  13.883  0.3447 -0.0657 -0.3475
  421TMC3    C4 6280   3.469   3.420  13.778 -0.6335  0.0729 -0.1588
  421TMC3    C5 6281   3.594   3.399  13.828 -0.5856 -0.4963 -0.5945
  421TMC3    C6 6282   3.663   3.504  13.882 -0.3930 -0.1068 -0.2361
  421TMC3     C 6283   3.324   3.585  13.682 -0.1579 -0.0673  0.0189
  421TMC3     O 6284   3.301   3.708  13.679 -0.2389  0.2262  0.1370
  421TMC3     H 6285   3.444   3.758  13.832  0.1864  0.7275 -2.6286
  421TMC3    H1 6286   3.407   3.344  13.732 -2.2785  2.2391 -1.5208
  421TMC3    H2 6287   3.755   3.488  13.936  0.2936 -1.6742 -1.8703
  421TMC3    C7 6288   3.658   3.268  13.816  0.6163  0.2057  0.0498
  421TMC3    C8 6289   3.672   3.721  13.975 -0.2935 -0.0819  0.1643
  421TMC3    O1 6290   3.760   3.248  13.885  0.9104 -0.2976 -0.1659
  421TMC3    O2 6291   3.788   3.708  13.998  0.1545 -0.1527  0.0768
  422TMC3    C1 6292   0.411   4.377  12.430 -0.3802  0.5502  0.2014
  422TMC3    C2 6293   0.403   4.493  12.502  0.1409  0.1632  0.2988
  422TMC3    C3 6294   0.286   4.520  12.562 -0.0263  0.2044 -0.5011
  422TMC3    C4 6295   0.298   4.291  12.421 -0.2814 -0.2233  0.1192
  422TMC3    C5 6296   0.180   4.334  12.472  0.2116  0.6767  0.9678
  422TMC3    C6 6297   0.173   4.454  12.540  0.3192  0.0575  0.5257
  422TMC3     C 6298   0.535   4.353  12.364 -0.4406  0.5585 -0.6941
  422TMC3     O 6299   0.621   4.439  12.375 -0.1098 -0.3585  0.0566
  422TMC3     H 6300   0.493   4.553  12.514  0.8970 -0.6443 -1.2568
  422TMC3    H1 6301   0.298   4.194  12.373 -1.5471  1.0016 -2.3386
  422TMC3    H2 6302   0.086   4.496  12.590  1.4960  0.4698  2.2372
  422TMC3    C7 6303   0.091   4.224  12.499  0.0030  0.7696 -0.1928
  422TMC3    C8 6304   0.282   4.635  12.652 -0.1064 -0.0653 -0.2389
  422TMC3    O1 6305   0.135   4.111  12.494 -0.1563 -0.2597 -0.5856
  422TMC3    O2 6306   0.386   4.696  12.644  0.3247  0.2916  0.5178
  423MPD2     C 6307   2.043   0.967   0.073 -0.3873  1.0170  0.2710
  423MPD2    C1 6308   1.927   0.890   0.069  0.2375  0.5241 -0.0509
  423MPD2    C2 6309   1.914   0.804  17.643  0.2634 -0.9185  0.8310
  423MPD2    C3 6310   2.010   0.806  17.539  0.1045 -0.4379 -0.2998
  423MPD2    C4 6311   2.116   0.895  17.541  0.6038 -0.2341  0.2691
  423MPD2    C5 6312   2.133   0.971  17.655  0.3294  0.5107 -0.0619
  423MPD2     H 6313   1.831   0.733  17.650  0.8592 -1.7996 -1.0691
  423MPD2    H1 6314   2.194   0.896  17.466 -0.4316 -0.7849 -0.8014
  423MPD2    H2 6315   2.072   1.037   0.150  1.9511  1.0892 -0.6955
  423MPD2    H3 6316   2.217   1.040  17.652  0.4220  0.4067  0.1423
  423MPD2     N 6317   1.998   0.710  17.433  0.0133 -0.2009 -0.4303
  423MPD2    H5 6318   2.078   0.692  17.374 -0.3666 -1.5859 -0.5260
  423MPD2    N1 6319   1.841   0.880   0.177  0.5410 -0.1617  0.5518
  423MPD2    H7 6320   1.762   0.817   0.169  2.0440 -2.2591  2.1466
  424TMC3    C1 6321   1.770   0.876   0.390 -0.6294 -0.6227 -0.3466
  424TMC3    C2 6322   1.822   0.826   0.506  0.7241 -0.9661  0.1094
  424TMC3    C3 6323   1.766   0.717   0.560  0.5025  0.7121  0.6252
  424TMC3    C4 6324   1.651   0.831   0.345 -0.0208  0.3351  0.4238
  424TMC3    C5 6325   1.592   0.719   0.397 -0.5048  0.3985 -0.0905
  424TMC3    C6 6326   1.645   0.661   0.505 -0.1294  0.2029  0.6248
  424TMC3     C 6327   1.865   0.938   0.298  0.3717  0.6674  0.0748
  424TMC3     O 6328   1.972   0.986   0.343 -0.0254 -0.2973 -0.5178
  424TMC3     H 6329   1.897   0.886   0.556  1.6356 -0.5471 -1.7439
  424TMC3    H1 6330   1.605   0.897   0.272  1.0845  1.5439  0.8185
  424TMC3    H2 6331   1.610   0.565   0.540 -0.1658  0.3681  1.0412
  424TMC3    C7 6332   1.447   0.709   0.385 -0.2338 -0.1995 -0.1896
  424TMC3    C8 6333   1.845   0.628   0.645 -0.7380 -0.5370  0.4477
  424TMC3    O1 6334   1.404   0.759   0.282  0.1799  0.0668  0.1010
  424TMC3    O2 6335   1.791   0.523   0.677  0.1515  0.4606 -0.1262
  425MPD2     C 6336   1.047   0.069  17.406 -0.4563 -0.2894 -0.6404
  425MPD2    C1 6337   0.958   4.689  17.392 -0.1952  0.2445  0.1230
  425MPD2    C2 6338   0.825   4.718  17.359  0.4099 -0.2395 -1.0129
  425MPD2    C3 6339   0.785   0.125  17.346  0.1943  1.0557 -0.1758
  425MPD2    C4 6340   0.877   0.230  17.362 -0.3846  0.0920  0.2717
  425MPD2    C5 6341   1.003   0.199  17.395 -0.3495 -0.0556  0.3960
  425MPD2     H 6342   0.755   4.638  17.340 -0.6915  0.1419  1.4670
  425MPD2    H1 6343   0.867   0.337  17.350  0.8242  0.1980  0.2635
  425MPD2    H2 6344   1.150   0.047  17.432  0.1042 -1.5738 -3.9971
  425MPD2    H3 6345   1.075   0.279  17.408  0.3522 -0.4549 -0.9909
  425MPD2     N 6346   0.645   0.137  17.325  0.6951  0.1570 -0.1247
  425MPD2    H5 6347   0.589   0.054  17.314  0.0444  0.6877 -0.8605
  425MPD2    N1 6348   1.007   4.559  17.420  1.2645 -0.3671 -0.3410
  425MPD2    H7 6349   1.105   4.541  17.437  1.4734  0.2668 -0.9250
  426TMC3    C1 6350   0.974   4.323  17.426  0.0744 -0.6097 -0.2891
  426TMC3    C2 6351   1.027   4.312  17.295 -0.2451 -0.1845 -0.0824
  426TMC3    C3 6352   1.018   4.191  17.240 -0.1771 -0.2977  0.1994
  426TMC3    C4 6353   0.901   4.219  17.474  0.8888 -0.0872  0.5290
  426TMC3    C5 6354   0.882   4.104  17.409 -0.1254 -0.3811  0.0521
  426TMC3    C6 6355   0.944   4.089  17.285 -0.9287  0.7174 -0.0043
  426TMC3     C 6356   0.920   4.453  17.436  0.1707  0.6218  0.1815
  426TMC3     O 6357   0.800   4.445  17.464 -0.3474  0.2459 -0.3355
  426TMC3     H 6358   1.079   4.392  17.243 -0.6493 -0.2459 -0.5795
  426TMC3    H1 6359   0.873   4.233  17.578 -1.2774  1.1865 -0.2112
  426TMC3    H2 6360   0.941   3.995  17.230  0.3118  0.3942  0.4759
  426TMC3    C7 6361   0.841   3.987  17.494  0.0555  0.4168  0.8539
  426TMC3    C8 6362   1.048   4.178  17.101  0.0633 -0.1944 -0.0334
  426TMC3    O1 6363   0.863   3.876  17.458  0.2651 -0.5175  0.2965
  426TMC3    O2 6364   1.092   4.067  17.071 -0.2510 -0.1766  0.0197
  427MPD2     C 6365   4.500   2.215  14.664  0.0402 -0.0526 -0.3119
  427MPD2    C1 6366   4.444   2.207  14.795  0.0624 -0.0946 -0.0663
  427MPD2    C2 6367   4.313   2.252  14.816  0.5366  0.0956  0.4043
  427MPD2    C3 6368   4.237   2.295  14.708 -0.7255 -0.3396 -0.2500
  427MPD2    C4 6369   4.291   2.301  14.586 -0.2038  0.0661 -0.1281
  427MPD2    C5 6370   4.422   2.266  14.559  0.2802 -0.2040 -1.2203
  427MPD2     H 6371   4.274   2.253  14.917  0.0977  0.7516  0.2245
  427MPD2    H1 6372   4.223   2.336  14.510  0.3271  0.5758 -0.3680
  427MPD2    H2 6373   4.600   2.186  14.633  0.3837  1.2348 -0.3784
  427MPD2    H3 6374   4.457   2.265  14.456 -1.1317  0.1921 -1.7024
  427MPD2     N 6375   4.106   2.342  14.713 -0.5122 -0.1432 -0.8255
  427MPD2    H5 6376   4.065   2.385  14.631 -0.2266  2.0751  0.1905
  427MPD2    N1 6377   4.514   2.152  14.908 -0.4606 -0.1092 -1.0159
  427MPD2    H7 6378   4.460   2.143  14.993  1.8236  1.9515  0.6169
  428TMC3    C1 6379   4.690   2.076  15.034 -0.1482 -0.0679 -1.4247
  428TMC3    C2 6380   4.613   1.977  15.098 -0.3192  0.5467 -0.7392
  428TMC3    C3 6381   4.653   1.931  15.222 -0.1082 -0.0746 -0.2892
  428TMC3    C4 6382   0.093   2.115  15.087 -0.3834  0.4917 -0.3534
  428TMC3    C5 6383   0.122   2.074  15.209  0.4210  0.4253 -0.2497
  428TMC3    C6 6384   0.043   1.986  15.282 -0.3140  0.2367 -0.1874
  428TMC3     C 6385   4.647   2.116  14.904  0.2323 -0.1119 -1.0996
  428TMC3     O 6386   0.016   2.141  14.821 -0.4547  0.2366  0.2436
  428TMC3     H 6387   4.545   1.916  15.041  0.0297  0.7991 -1.4273
  428TMC3    H1 6388   0.148   2.192  15.033 -2.2497  1.7651 -0.4488
  428TMC3    H2 6389   0.084   1.943  15.373 -0.5350  0.0148 -0.1900
  428TMC3    C7 6390   0.239   2.115  15.275  0.7386  0.0013 -0.5923
  428TMC3    C8 6391   4.636   1.792  15.269  0.3659 -0.5905  0.0595
  428TMC3    O1 6392   0.232   2.118  15.397 -0.9815 -0.2904  0.0570
  428TMC3    O2 6393   4.631   1.706  15.178  0.1047  0.3388 -0.7325
  429MPD2     C 6394   0.580   2.537  17.378 -0.6713  0.5705 -0.6426
  429MPD2    C1 6395   0.538   2.542  17.247 -0.3095  0.1381 -0.6848
  429MPD2    C2 6396   0.593   2.634  17.160 -0.1610 -0.2162  0.1935
  429MPD2    C3 6397   0.676   2.736  17.207  0.5906 -0.7424  0.2272
  429MPD2    C4 6398   0.705   2.740  17.345 -0.8528  0.1445 -0.2563
  429MPD2    C5 6399   0.660   2.636  17.424 -0.1753  0.0819  0.3756
  429MPD2     H 6400   0.577   2.625  17.053 -1.9326 -1.9697  0.6025
  429MPD2    H1 6401   0.763   2.822  17.388  2.6899 -2.0714 -0.8355
  429MPD2    H2 6402   0.554   2.461  17.451  0.7575  0.7927  0.0912
  429MPD2    H3 6403   0.702   2.624  17.523  0.2669 -3.2188 -0.2132
  429MPD2     N 6404   0.740   2.817  17.113  0.4906 -0.4758 -0.3708
  429MPD2    H5 6405   0.709   2.806  17.017  0.7350 -0.5856 -0.4349
  429MPD2    N1 6406   0.454   2.444  17.189  0.3104 -0.6359 -0.4637
  429MPD2    H7 6407   0.431   2.455  17.090 -0.2229 -1.8051 -0.4649
  430TMC3    C1 6408   0.907   2.940  17.021  0.0712  0.6293  0.0063
  430TMC3    C2 6409   0.835   2.987  16.913  1.5124 -0.1025 -0.4181
  430TMC3    C3 6410   0.881   2.970  16.789  0.1170  0.3010  0.4557
  430TMC3    C4 6411   1.022   2.877  16.995 -0.0045  0.5870  0.3795
  430TMC3    C5 6412   1.075   2.867  16.868 -0.1427 -0.1036 -0.6464
  430TMC3    C6 6413   1.005   2.907  16.760  0.3468  0.6203 -0.4295
  430TMC3     C 6414   0.843   2.903  17.142 -0.0830  0.4967 -0.1898
  430TMC3     O 6415   0.880   2.954  17.247 -0.1885 -0.0440 -0.3014
  430TMC3     H 6416   0.738   3.029  16.936  0.7185 -3.0561  1.6043
  430TMC3    H1 6417   1.063   2.829  17.083  0.9837 -2.1205 -1.5576
  430TMC3    H2 6418   1.025   2.890  16.655  0.6958 -0.6574 -0.1530
  430TMC3    C7 6419   1.163   2.767  16.845 -0.0033 -0.0872 -0.8221
  430TMC3    C8 6420   0.798   2.998  16.673 -0.5989 -0.1967  0.1135
  430TMC3    O1 6421   1.142   2.699  16.743 -0.8114  0.1589 -0.0558
  430TMC3    O2 6422   0.833   2.943  16.569 -0.3098 -0.0109 -0.5438
  431MPD2     C 6423   1.617   2.602  12.475  1.0866  0.0902  0.5490
  431MPD2    C1 6424   1.699   2.570  12.362 -0.6433  0.6914  1.4282
  431MPD2    C2 6425   1.640   2.494  12.267 -0.3357 -0.3200  0.0224
  431MPD2    C3 6426   1.503   2.460  12.272 -0.0670 -0.3519  0.2313
  431MPD2    C4 6427   1.428   2.497  12.378 -0.0720  0.4924 -0.3534
  431MPD2    C5 6428   1.487   2.564  12.478 -0.1364  0.5790  0.2490
  431MPD2     H 6429   1.699   2.464  12.181 -0.4289 -1.1805  0.2654
  431MPD2    H1 6430   1.333   2.447  12.397  0.5756 -0.9341 -0.8416
  431MPD2    H2 6431   1.668   2.645  12.561 -1.0608  2.6775  0.5373
  431MPD2    H3 6432   1.441   2.582  12.575 -0.3647  0.2419  0.2011
  431MPD2     N 6433   1.434   2.388  12.166  0.2149 -0.3000  0.2487
  431MPD2    H5 6434   1.340   2.356  12.186 -1.5050  3.7100 -1.4090
  431MPD2    N1 6435   1.838   2.597  12.351 -0.0882  0.0190 -0.0336
  431MPD2    H7 6436   1.877   2.576  12.260  0.2750  1.0095 -0.1092
  432TMC3    C1 6437   1.405   2.285  11.960 -0.3373 -0.5239 -0.0292
  432TMC3    C2 6438   1.434   2.288  11.822 -0.0856 -0.4684  0.3465
  432TMC3    C3 6439   1.397   2.182  11.753 -0.0886 -0.3729  0.0198
  432TMC3    C4 6440   1.334   2.188  12.018  0.5041  0.5037 -0.4265
  432TMC3    C5 6441   1.292   2.089  11.939 -0.3569 -0.2860  0.4091
  432TMC3    C6 6442   1.319   2.079  11.806 -0.0421  0.0772 -0.6164
  432TMC3     C 6443   1.488   2.366  12.042 -0.0849 -0.3915  0.3220
  432TMC3     O 6444   1.594   2.402  11.996  0.2222  0.2202 -0.4056
  432TMC3     H 6445   1.480   2.370  11.768  0.7711  1.0396  3.3545
  432TMC3    H1 6446   1.320   2.176  12.125  0.3490 -0.7617 -0.5874
  432TMC3    H2 6447   1.304   1.991  11.745 -0.0010  0.4167 -1.1187
  432TMC3    C7 6448   1.254   1.961  12.008 -0.2585 -0.3253 -0.1305
  432TMC3    C8 6449   1.508   2.134  11.671 -0.2363  0.4139  0.0600
  432TMC3    O1 6450   1.284   1.862  11.943  0.4058 -0.0271 -0.3889
  432TMC3    O2 6451   1.473   2.040  11.598  0.2172  0.3433  0.2512
  433MPD2     C 6452   0.378   0.697  10.732 -0.3461  0.0862  0.2378
  433MPD2    C1 6453   0.470   0.598  10.764  0.6505  0.5163  0.1897
  433MPD2    C2 6454   0.552   0.616  10.879  0.5622 -0.1989 -0.2471
  433MPD2    C3 6455   0.560   0.734  10.948  0.2635 -0.0311 -0.0677
  433MPD2    C4 6456   0.458   0.820  10.920 -0.1622 -0.3692  0.5942
  433MPD2    C5 6457   0.369   0.802  10.824  0.0324  0.1375  0.5502
  433MPD2     H 6458   0.627   0.541  10.901  0.8364 -0.4242 -1.9816
  433MPD2    H1 6459   0.430   0.906  10.980  2.7998  0.7479  0.3348
  433MPD2    H2 6460   0.308   0.696  10.649 -0.6521  1.3298  0.4779
  433MPD2    H3 6461   0.290   0.876  10.814 -1.7129 -1.8682 -0.6712
  433MPD2     N 6462   0.655   0.745  11.047  0.3530 -0.0584 -0.0376
  433MPD2    H5 6463   0.718   0.669  11.073 -0.5844 -0.1952  1.8234
  433MPD2    N1 6464   0.482   0.479  10.683  0.5869 -0.0167  0.3087
  433MPD2    H7 6465   0.530   0.395  10.716  0.4592 -0.7155 -1.2758
  434TMC3    C1 6466   0.479   0.344  10.487 -0.3176 -0.2641 -0.3777
  434TMC3    C2 6467   0.531   0.249  10.572  0.6087 -0.2916 -0.6242
  434TMC3    C3 6468   0.600   0.146  10.508 -0.5689 -0.6096  0.1276
  434TMC3    C4 6469   0.486   0.340  10.349 -0.0814  0.5831 -0.5730
  434TMC3    C5 6470   0.549   0.240  10.289  0.6955  0.1252  0.1125
  434TMC3    C6 6471   0.608   0.144  10.362  0.2908 -0.2657 -0.0120
  434TMC3     C 6472   0.439   0.467  10.550 -0.5743 -0.0902 -0.0391
  434TMC3     O 6473   0.399   0.560  10.476  0.1004 -0.1007  0.0034
  434TMC3     H 6474   0.512   0.244  10.679 -2.4483 -0.9862 -1.2025
  434TMC3    H1 6475   0.450   0.422  10.288 -2.9806  0.2006  0.6248
  434TMC3    H2 6476   0.670   0.068  10.316 -0.9935  0.0991 -2.3388
  434TMC3    C7 6477   0.482   0.210  10.163  0.1070  0.0227  0.5636
  434TMC3    C8 6478   0.684   0.062  10.594  0.7230 -0.5838 -0.7426
  434TMC3    O1 6479   0.454   0.304  10.087 -0.4603  0.1920  0.1428
  434TMC3    O2 6480   0.678   0.087  10.712 -0.4804  0.1636 -0.2640
  435MPD2     C 6481   2.401   0.718  15.289  1.0071 -0.3781 -0.3899
  435MPD2    C1 6482   2.362   0.706  15.418  0.0157  0.1683  0.7149
  435MPD2    C2 6483   2.464   0.695  15.511  0.6219  0.4373  0.0332
  435MPD2    C3 6484   2.595   0.675  15.473 -0.3381 -0.3404  0.8250
  435MPD2    C4 6485   2.623   0.692  15.341 -0.1191  0.6190  0.7156
  435MPD2    C5 6486   2.531   0.714  15.251 -0.7825  0.6647  0.0138
  435MPD2     H 6487   2.440   0.692  15.616  1.3755 -1.0787  0.1530
  435MPD2    H1 6488   2.721   0.688  15.295 -1.0785 -0.4296 -1.2685
  435MPD2    H2 6489   2.325   0.732  15.212  0.6315 -0.9606 -0.1250
  435MPD2    H3 6490   2.563   0.731  15.149 -0.5915  3.5246  0.5360
  435MPD2     N 6491   2.692   0.645  15.569 -0.2115 -0.7801  0.3480
  435MPD2    H5 6492   2.654   0.639  15.663  1.2770 -0.8900  0.9450
  435MPD2    N1 6493   2.225   0.693  15.462 -0.6577  0.6267 -0.1445
  435MPD2    H7 6494   2.217   0.669  15.561 -1.5555  2.5692  0.2523
  436TMC3    C1 6495   1.862   0.672  15.644  0.4149 -0.3390  0.2266
  436TMC3    C2 6496   1.986   0.706  15.593 -0.0441  0.4743 -0.7224
  436TMC3    C3 6497   1.990   0.714  15.457  0.8727 -0.1378  1.0024
  436TMC3    C4 6498   1.751   0.650  15.571  0.1712  0.2561  0.8946
  436TMC3    C5 6499   1.760   0.670  15.437 -0.6291 -0.3990 -0.0239
  436TMC3    C6 6500   1.880   0.703  15.379 -0.6718  0.3417  0.1811
  436TMC3     C 6501   1.852   0.645  15.779 -0.0517  0.4348 -0.6547
  436TMC3     O 6502   1.947   0.604  15.845  0.1789  0.1169  0.0182
  436TMC3     H 6503   2.075   0.719  15.654 -0.6391  0.9764  0.0287
  436TMC3    H1 6504   1.662   0.596  15.602  0.8373 -0.1666  2.0804
  436TMC3    H2 6505   1.896   0.698  15.272 -1.7016 -1.1335  0.0983
  436TMC3    C7 6506   1.644   0.636  15.352 -1.0007 -0.2031  0.0318
  436TMC3    C8 6507   2.116   0.729  15.388 -0.2088 -0.0694  0.0736
  436TMC3    O1 6508   1.653   0.615  15.232  0.0731 -0.5830  0.2562
  436TMC3    O2 6509   2.105   0.797  15.286 -0.9439 -0.1045  0.0472
  437TMC3    C1 6510   1.287   2.876  12.448 -0.2025  0.7390  0.8451
  437TMC3    C2 6511   1.218   2.847  12.333 -0.0730  0.3060  0.4668
  437TMC3    C3 6512   1.285   2.814  12.222  0.8674 -0.9930 -0.0746
  437TMC3    C4 6513   1.422   2.906  12.448  0.3452  0.0508 -0.5292
  437TMC3    C5 6514   1.484   2.892  12.324  0.5151  0.5864  0.5525
  437TMC3    C6 6515   1.420   2.839  12.212 -0.0521  0.3487 -0.4101
  437TMC3     C 6516   1.208   2.895  12.572  0.0652  0.3030  0.7675
  437TMC3     O 6517   1.277   2.889  12.673 -0.4001  0.9248 -0.0426
  437TMC3     H 6518   1.111   2.835  12.343  0.2320  0.1417  3.3921
  437TMC3    H1 6519   1.469   2.934  12.541 -1.2110 -1.3435  0.6711
  437TMC3    H2 6520   1.473   2.828  12.118 -0.4724 -1.8543 -0.3910
  437TMC3    C7 6521   1.614   2.950  12.296 -0.5334 -0.3800  0.6453
  437TMC3    C8 6522   1.213   2.790  12.100 -0.5400 -0.3175 -0.1269
  437TMC3    O1 6523   1.660   2.931  12.188  0.4156 -0.0538  0.6491
  437TMC3    O2 6524   1.269   2.826  11.993 -0.0291 -0.5862  0.3268
  438MPD2     C 6525   3.030   3.538  16.750 -0.4726  0.6201  0.0164
  438MPD2    C1 6526   3.129   3.476  16.827  0.2199  0.3771 -0.1510
  438MPD2    C2 6527   3.112   3.453  16.966  0.4979 -0.7214 -0.3532
  438MPD2    C3 6528   2.987   3.458  17.015 -0.5400 -0.4240 -0.5090
  438MPD2    C4 6529   2.886   3.502  16.930 -0.6221 -0.4316 -0.7342
  438MPD2    C5 6530   2.903   3.549  16.805 -0.3278  0.1777  0.7622
  438MPD2     H 6531   3.197   3.420  17.026  0.4391 -0.7207 -0.2691
  438MPD2    H1 6532   2.789   3.512  16.978  0.5202  1.3496  1.1928
  438MPD2    H2 6533   3.055   3.582  16.654 -1.0215 -0.6518 -0.7046
  438MPD2    H3 6534   2.819   3.596  16.755  0.4020  0.0220 -0.6166
  438MPD2     N 6535   2.950   3.448  17.148  0.1285  0.9224  0.3357
  438MPD2    H5 6536   2.850   3.445  17.166  0.2298 -1.0464  0.6249
  438MPD2    N1 6537   3.253   3.439  16.771  0.0574 -0.5794  1.5698
  438MPD2    H7 6538   3.326   3.406  16.834  3.0591  3.0596 -0.0055
  439TMC3    C1 6539   3.413   3.396  16.603  0.2141  0.5384  0.4100
  439TMC3    C2 6540   3.425   3.325  16.483  0.8037 -0.4788  0.5856
  439TMC3    C3 6541   3.538   3.247  16.469  0.2230 -0.3376 -0.9533
  439TMC3    C4 6542   3.514   3.407  16.694 -0.0383  0.5252 -0.7539
  439TMC3    C5 6543   3.626   3.328  16.669  1.2111  0.0171  0.5650
  439TMC3    C6 6544   3.648   3.254  16.552  0.4643  0.2135 -0.3477
  439TMC3     C 6545   3.281   3.446  16.639  0.2283 -0.7145 -0.0078
  439TMC3     O 6546   3.216   3.462  16.538 -0.5967  0.0958  0.1480
  439TMC3     H 6547   3.332   3.310  16.428  2.3398  0.5147 -2.2918
  439TMC3    H1 6548   3.497   3.470  16.780 -0.2971 -1.7127  0.8155
  439TMC3    H2 6549   3.733   3.188  16.544 -1.7105 -2.7565  1.0493
  439TMC3    C7 6550   3.727   3.308  16.777  0.2685  0.0127 -0.1687
  439TMC3    C8 6551   3.557   3.156  16.360  0.0004 -0.8138 -0.3250
  439TMC3    O1 6552   3.820   3.237  16.749 -0.3448 -0.0713  0.7490
  439TMC3    O2 6553   3.649   3.077  16.366 -0.6552 -0.2990  0.1029
  440MPD2     C 6554   2.032   4.021  15.074  0.5546 -0.0413 -0.3900
  440MPD2    C1 6555   2.126   4.088  15.148  0.4958 -0.1060 -0.2725
  440MPD2    C2 6556   2.259   4.063  15.123  0.2507  0.3119  0.6517
  440MPD2    C3 6557   2.298   3.979  15.017  0.1467 -0.1116  0.2592
  440MPD2    C4 6558   2.202   3.906  14.947 -0.1122 -0.1619  0.0499
  440MPD2    C5 6559   2.073   3.922  14.986  0.8156  0.8379  0.4731
  440MPD2     H 6560   2.335   4.117  15.179  1.9046  1.0382 -2.2780
  440MPD2    H1 6561   2.228   3.845  14.862 -1.3859 -0.7134  0.0638
  440MPD2    H2 6562   1.925   4.038  15.075  0.5021 -0.1282 -3.3251
  440MPD2    H3 6563   1.993   3.868  14.936  0.3973  0.9260  1.0519
  440MPD2     N 6564   2.430   3.946  14.984 -0.0479 -0.3959  0.1120
  440MPD2    H5 6565   2.442   3.857  14.936 -0.5710 -0.2767 -0.2364
  440MPD2    N1 6566   2.095   4.193  15.244 -0.3746 -0.3745 -0.2442
  440MPD2    H7 6567   2.174   4.247  15.276  0.4994 -1.4650 -0.5524
  441TMC3    C1 6568   2.674   3.948  15.001 -0.3827 -0.2547  0.1825
  441TMC3    C2 6569   2.782   4.035  15.031  0.1785 -0.4230  0.7742
  441TMC3    C3 6570   2.880   3.992  15.115 -0.8848 -0.2241 -0.1928
  441TMC3    C4 6571   2.682   3.814  15.040 -0.1281  0.1541 -0.1997
  441TMC3    C5 6572   2.790   3.774  15.103 -0.8998  0.2370  0.1885
  441TMC3    C6 6573   2.896   3.858  15.149 -0.9430  0.2683  0.3670
  441TMC3     C 6574   2.548   4.013  15.036 -0.1087  0.0159  0.3627
  441TMC3     O 6575   2.564   4.127  15.073  0.2455  0.2509  0.4288
  441TMC3     H 6576   2.780   4.138  14.998  1.5425 -0.5370  0.3504
  441TMC3    H1 6577   2.598   3.747  15.024 -0.7519  0.7323  0.6346
  441TMC3    H2 6578   2.974   3.820  15.214  0.0048 -0.7161 -1.3588
  441TMC3    C7 6579   2.779   3.640  15.164  0.6161  0.3493 -0.4400
  441TMC3    C8 6580   2.900   4.082  15.226 -0.2190 -0.2527  0.4692
  441TMC3    O1 6581   2.664   3.600  15.177 -0.2688  0.5661  0.0741
  441TMC3    O2 6582   2.994   4.087  15.303 -0.1918 -0.1307 -0.4936
  442MPD2     C 6583   0.552   4.566  16.676  0.7538  0.1370 -0.2904
  442MPD2    C1 6584   0.437   4.496  16.684  0.4583 -0.1971 -0.3143
  442MPD2    C2 6585   0.431   4.373  16.619  0.0596 -0.0650  0.4825
  442MPD2    C3 6586   0.542   4.315  16.560  0.0721  0.8571  0.5568
  442MPD2    C4 6587   0.663   4.390  16.552  0.1916  0.0812  0.8693
  442MPD2    C5 6588   0.663   4.513  16.614  0.1924 -0.6601  0.1826
  442MPD2     H 6589   0.337   4.320  16.611 -0.2953  1.0724 -3.0613
  442MPD2    H1 6590   0.751   4.345  16.506  0.6749 -1.3494  3.1544
  442MPD2    H2 6591   0.556   4.663  16.723 -2.3450  1.4688 -2.7766
  442MPD2    H3 6592   0.753   4.572  16.625 -0.5380  0.7063 -1.2031
  442MPD2     N 6593   0.549   4.183  16.505 -0.1354  0.8876 -0.5624
  442MPD2    H5 6594   0.643   4.156  16.477  0.9683  2.2006  1.8827
  442MPD2    N1 6595   0.318   4.546  16.736  0.2933  0.3050 -0.7759
  442MPD2    H7 6596   0.247   4.473  16.735  1.6142 -0.9911 -1.1430
  443TMC3    C1 6597   0.165   4.710  16.831 -0.4979  0.6047 -0.0363
  443TMC3    C2 6598   0.143   0.126  16.837 -0.8152  0.3327  0.1746
  443TMC3    C3 6599   0.011   0.160  16.826  1.4387  0.1274 -0.4101
  443TMC3    C4 6600   0.071   4.619  16.815  0.4977  0.1381 -0.5351
  443TMC3    C5 6601   4.658   4.660  16.823  0.3007  0.3837  0.0209
  443TMC3    C6 6602   4.629   0.073  16.835 -0.0260 -0.4073 -0.0120
  443TMC3     C 6603   0.299   4.672  16.792 -0.6533  0.0831  0.0442
  443TMC3     O 6604   0.375   0.045  16.813  0.1393 -0.6249 -0.2550
  443TMC3     H 6605   0.221   0.201  16.838  0.2983 -0.8124  0.4541
  443TMC3    H1 6606   0.096   4.513  16.816 -0.2294 -0.0147  1.2799
  443TMC3    H2 6607   4.528   0.111  16.827 -0.4144 -1.4538 -0.1222
  443TMC3    C7 6608   4.546   4.568  16.820 -0.5941  0.0658 -0.3536
  443TMC3    C8 6609   4.695   0.299  16.785  0.1147  0.4890 -0.4371
  443TMC3    O1 6610   4.458   4.597  16.902 -0.1940  0.5300 -0.4440
  443TMC3    O2 6611   4.607   0.353  16.851 -0.1619 -0.5337 -0.3335
  444MPD2     C 6612   0.776   3.925  16.753  0.3108  0.4819 -0.1738
  444MPD2    C1 6613   0.693   3.818  16.734 -0.1954  0.3879  0.1505
  444MPD2    C2 6614   0.736   3.705  16.672 -0.5526  0.1299  0.5164
  444MPD2    C3 6615   0.867   3.693  16.626 -0.1832 -0.2588  0.3373
  444MPD2    C4 6616   0.947   3.805  16.635  0.5073 -0.2174 -0.5324
  444MPD2    C5 6617   0.899   3.923  16.696 -0.3878 -0.2844  0.2348
  444MPD2     H 6618   0.660   3.632  16.644 -1.8780  1.3595  0.8939
  444MPD2    H1 6619   1.047   3.806  16.595 -0.4600  1.5512 -2.9201
  444MPD2    H2 6620   0.742   4.019  16.796 -5.4281 -1.4096 -0.5230
  444MPD2    H3 6621   0.957   4.014  16.705 -0.4169 -0.0082 -2.4356
  444MPD2     N 6622   0.911   3.568  16.577  0.5332 -0.2086 -0.2574
  444MPD2    H5 6623   0.842   3.501  16.544 -1.5932  2.1585 -0.6939
  444MPD2    N1 6624   0.554   3.822  16.769  0.8739  0.2291 -0.9164
  444MPD2    H7 6625   0.498   3.742  16.743  0.9007 -0.0081 -0.2453
  445TMC3    C1 6626   1.057   3.402  16.500 -0.4064  0.2803  0.4090
  445TMC3    C2 6627   0.953   3.359  16.421  0.1078 -0.0641  0.4064
  445TMC3    C3 6628   0.950   3.229  16.391 -0.0095  0.5050 -0.5157
  445TMC3    C4 6629   1.154   3.307  16.538  0.6844  0.0684  0.6145
  445TMC3    C5 6630   1.143   3.177  16.498  0.0487  0.2730  0.4455
  445TMC3    C6 6631   1.038   3.133  16.432 -0.2671 -0.3654  0.0031
  445TMC3     C 6632   1.048   3.528  16.578  0.1725  0.1518 -0.3647
  445TMC3     O 6633   1.146   3.587  16.623  0.2829 -0.2210  0.7552
  445TMC3     H 6634   0.894   3.434  16.371  0.2752  0.9621  1.7330
  445TMC3    H1 6635   1.224   3.340  16.613  0.4523 -1.5583  1.5516
  445TMC3    H2 6636   1.014   3.027  16.423  0.5136 -0.4787 -0.6912
  445TMC3    C7 6637   1.263   3.102  16.492  0.0996  0.2106 -0.6509
  445TMC3    C8 6638   0.834   3.189  16.314 -0.8327 -0.7042 -0.2171
  445TMC3    O1 6639   1.269   3.003  16.419  0.3660 -0.1815  0.0125
  445TMC3    O2 6640   0.730   3.248  16.338 -0.6706 -0.0612  0.3229
  446MPD2     C 6641   0.317   0.292  11.107 -0.0032 -0.2466  0.4529
  446MPD2    C1 6642   0.329   0.210  11.000  0.0106  0.3622 -0.6015
  446MPD2    C2 6643   0.459   0.205  10.949 -0.0815 -0.0262 -0.4123
  446MPD2    C3 6644   0.568   0.267  11.008  0.0566 -1.4807 -0.4958
  446MPD2    C4 6645   0.545   0.355  11.109  0.3814 -0.0765  0.1654
  446MPD2    C5 6646   0.422   0.364  11.156  0.1158  0.1228  0.8228
  446MPD2     H 6647   0.472   0.149  10.857  1.2554 -2.1211  1.0473
  446MPD2    H1 6648   0.618   0.421  11.153 -0.6398  0.2922  1.3189
  446MPD2    H2 6649   0.220   0.313  11.150 -1.3068 -2.2110 -1.6140
  446MPD2    H3 6650   0.417   0.430  11.242  0.3154  1.9203 -0.5567
  446MPD2     N 6651   0.697   0.262  10.944  0.8562 -0.0247  0.0001
  446MPD2    H5 6652   0.698   0.208  10.858  0.3591 -0.7952  0.4812
  446MPD2    N1 6653   0.225   0.128  10.954 -0.6411 -0.0807 -0.0584
  446MPD2    H7 6654   0.257   0.072  10.875  2.3277 -0.6864  1.5667
  447TMC3    C1 6655   0.916   0.327  10.896 -0.6658  0.1199  0.3547
  447TMC3    C2 6656   0.901   0.297  10.762 -0.2947  0.2263  0.3042
  447TMC3    C3 6657   1.008   0.285  10.671  0.3083  0.2048 -0.5753
  447TMC3    C4 6658   1.048   0.337  10.936 -0.0051  0.1488 -0.5012
  447TMC3    C5 6659   1.153   0.324  10.855  0.4128 -0.5561  0.4407
  447TMC3    C6 6660   1.135   0.282  10.727 -0.6076  0.1556 -0.8906
  447TMC3     C 6661   0.807   0.334  10.982 -0.5681 -0.5754  0.4268
  447TMC3     O 6662   0.831   0.365  11.100  0.3643  0.1273 -0.3561
  447TMC3     H 6663   0.803   0.303  10.717 -0.1331  0.7441  0.0224
  447TMC3    H1 6664   1.069   0.356  11.041 -0.6147  1.1435 -0.5532
  447TMC3    H2 6665   1.225   0.291  10.667 -0.5306  3.2308 -0.3559
  447TMC3    C7 6666   1.286   0.309  10.914  0.0849 -0.5698 -0.1463
  447TMC3    C8 6667   0.980   0.257  10.532  0.0421 -0.3551 -0.1166
  447TMC3    O1 6668   1.320   0.381  11.008  0.4238  0.3002  0.4722
  447TMC3    O2 6669   0.880   0.303  10.480  0.0879  0.2333 -0.3967
  448TMC3    C1 6670   3.782   0.533  16.940 -0.0127  0.1057  0.4558
  448TMC3    C2 6671   3.763   0.413  16.868  0.4780 -0.4040  0.2853
  448TMC3    C3 6672   3.844   0.308  16.899 -0.2092 -1.2161 -0.1720
  448TMC3    C4 6673   3.872   0.542  17.047  0.6918 -0.7783  0.2404
  448TMC3    C5 6674   3.950   0.434  17.071  0.7600 -0.4741 -0.2135
  448TMC3    C6 6675   3.936   0.315  17.001  0.4239  0.4685 -0.2782
  448TMC3     C 6676   3.715   0.656  16.908  0.2268 -0.7334 -1.1210
  448TMC3     O 6677   3.710   0.740  16.998  0.5293  0.1955 -0.1715
  448TMC3     H 6678   3.673   0.400  16.810  1.4227 -0.6675 -1.1257
  448TMC3    H1 6679   3.868   0.621  17.122 -0.7970  1.1475 -1.8772
  448TMC3    H2 6680   3.993   0.226  17.027 -2.1830 -0.3285  2.6911
  448TMC3    C7 6681   4.012   0.428  17.206 -0.2765  0.1436  0.1380
  448TMC3    C8 6682   3.824   0.178  16.838  0.3857  0.1565  0.0238
  448TMC3    O1 6683   4.029   0.538  17.261 -0.1087  0.2832  0.0961
  448TMC3    O2 6684   3.872   0.081  16.892 -0.6908  0.0698  0.1087
  449MPD2     C 6685   0.533   3.888  13.729  0.3925 -0.3594 -0.3502
  449MPD2    C1 6686   0.399   3.873  13.734 -0.8035  0.0971 -0.0190
  449MPD2    C2 6687   0.348   3.788  13.829 -1.4093 -0.9702 -0.6633
  449MPD2    C3 6688   0.428   3.721  13.921 -0.4507 -0.0426 -0.5914
  449MPD2    C4 6689   0.569   3.737  13.917  1.4818 -0.3292 -0.0354
  449MPD2    C5 6690   0.618   3.825  13.821 -0.1739 -0.0123 -0.0964
  449MPD2     H 6691   0.241   3.781  13.846 -1.6602 -1.7057 -2.5861
  449MPD2    H1 6692   0.642   3.693  13.985 -1.1220 -2.7296  1.2343
  449MPD2    H2 6693   0.584   3.950  13.656  0.5206  0.2263  0.2280
  449MPD2    H3 6694   0.724   3.847  13.816  0.4753 -2.7358  2.1206
  449MPD2     N 6695   0.366   3.636  14.012  0.1098 -0.2843 -0.1273
  449MPD2    H5 6696   0.265   3.627  14.003  0.2076 -1.0971 -0.4240
  449MPD2    N1 6697   0.314   3.919  13.638 -0.1778 -0.4906  0.5140
  449MPD2    H7 6698   0.216   3.899  13.654  0.0140 -0.2373  2.0632
  450TMC3    C1 6699   0.230   3.950  13.433 -0.7737  0.0639 -0.1860
  450TMC3    C2 6700   0.250   3.870  13.327  0.3225  0.1691  0.2667
  450TMC3    C3 6701   0.139   3.795  13.288 -0.6802 -0.3560  0.1023
  450TMC3    C4 6702   0.110   3.961  13.498 -0.5123 -0.1005 -0.4383
  450TMC3    C5 6703   4.720   3.892  13.455  0.3379  0.4657 -0.4382
  450TMC3    C6 6704   0.018   3.811  13.350  0.6251  0.9067  0.6333
  450TMC3     C 6705   0.345   3.978  13.513  0.2782  0.5670 -0.0238
  450TMC3     O 6706   0.448   3.992  13.456  0.3577  0.1654  0.0402
  450TMC3     H 6707   0.343   3.870  13.271  0.0665  1.7720 -0.1346
  450TMC3    H1 6708   0.095   4.033  13.577  0.1828 -1.1467  0.6470
  450TMC3    H2 6709   4.649   3.784  13.295  0.0896  0.2022  1.8336
  450TMC3    C7 6710   4.688   3.806  13.563 -1.0594  1.0813  0.3587
  450TMC3    C8 6711   0.149   3.694  13.185 -0.1116  0.1357  0.3276
  450TMC3    O1 6712   0.016   3.830  13.673 -0.3738  0.4503  0.2844
  450TMC3    O2 6713   0.056   3.615  13.164 -0.1414 -0.2289  0.1582
  451MPD2     C 6714   1.492   1.848   1.720  0.5492  0.0317 -0.3281
  451MPD2    C1 6715   1.494   1.900   1.597  0.5578 -0.9800  0.6404
  451MPD2    C2 6716   1.494   1.805   1.492  0.6264 -0.7871 -0.0036
  451MPD2    C3 6717   1.505   1.666   1.520  0.1211 -0.8755  0.3646
  451MPD2    C4 6718   1.511   1.621   1.647 -0.0773 -0.4175 -0.0313
  451MPD2    C5 6719   1.502   1.710   1.748 -1.2695  1.0877  0.5448
  451MPD2     H 6720   1.488   1.837   1.388 -0.7664 -0.9365  0.0254
  451MPD2    H1 6721   1.518   1.515   1.672 -1.4679 -0.2268  1.1482
  451MPD2    H2 6722   1.484   1.927   1.795 -0.0059  1.6075 -2.0503
  451MPD2    H3 6723   1.497   1.676   1.851 -1.0023  1.2751  0.6193
  451MPD2     N 6724   1.498   1.565   1.422 -0.0821  0.4110  0.3099
  451MPD2    H5 6725   1.512   1.469   1.454  0.0787  0.2328 -0.2971
  451MPD2    N1 6726   1.474   2.038   1.572 -0.6403 -0.2868  0.9215
  451MPD2    H7 6727   1.451   2.099   1.650 -0.9080  0.6522  0.1107
  452TMC3    C1 6728   1.464   1.462   1.213 -0.2410 -0.1775 -0.0736
  452TMC3    C2 6729   1.558   1.368   1.232  0.2344 -0.4238 -0.0162
  452TMC3    C3 6730   1.574   1.267   1.143  0.0336  0.1110  0.8172
  452TMC3    C4 6731   1.376   1.451   1.111  0.1510 -0.7728  0.5142
  452TMC3    C5 6732   1.392   1.346   1.025  0.8726  0.3694  0.2671
  452TMC3    C6 6733   1.479   1.237   1.051  0.2135 -0.1545  0.3261
  452TMC3     C 6734   1.470   1.588   1.289  0.6223  0.1576 -0.2201
  452TMC3     O 6735   1.433   1.691   1.236 -0.1397 -0.0299 -0.0920
  452TMC3     H 6736   1.632   1.378   1.311  0.2036 -0.1324 -0.0228
  452TMC3    H1 6737   1.288   1.512   1.101 -0.2919 -1.3958  0.5973
  452TMC3    H2 6738   1.491   1.152   0.984 -0.1988 -1.1696  1.5396
  452TMC3    C7 6739   1.319   1.340   0.897 -0.6631 -0.0209 -0.4407
  452TMC3    C8 6740   1.674   1.167   1.169 -0.0015 -0.1403 -0.5390
  452TMC3    O1 6741   1.284   1.449   0.845 -0.6412 -0.0821  0.3159
  452TMC3    O2 6742   1.641   1.055   1.130  0.0770 -0.5074  0.5352
  453TMC3    C1 6743   2.498   3.956  12.093 -0.0142  0.3396  0.1858
  453TMC3    C2 6744   2.475   3.821  12.122 -0.4190  0.2844  0.1475
  453TMC3    C3 6745   2.365   3.762  12.072 -0.3090 -0.3424  0.1252
  453TMC3    C4 6746   2.410   4.035  12.026 -0.6628  1.0186 -0.4016
  453TMC3    C5 6747   2.303   3.971  11.981  0.2408 -0.3893  0.2141
  453TMC3    C6 6748   2.275   3.835  12.005 -0.1518  0.0733  0.0607
  453TMC3     C 6749   2.592   4.023  12.181 -0.0421 -0.4862 -0.1034
  453TMC3     O 6750   2.623   4.140  12.151 -0.2281  0.2595 -0.2803
  453TMC3     H 6751   2.534   3.756  12.186  1.8985 -0.7424 -3.0352
  453TMC3    H1 6752   2.438   4.137  12.004  0.9398  0.3380 -1.5719
  453TMC3    H2 6753   2.189   3.789  11.957 -0.4436  0.2174  0.4498
  453TMC3    C7 6754   2.282   3.990  11.838 -0.1563 -0.2062  0.3068
  453TMC3    C8 6755   2.395   3.631  12.024 -0.6677  0.2647  0.6948
  453TMC3    O1 6756   2.291   3.887  11.769 -0.0915 -0.2332 -0.0636
  453TMC3    O2 6757   2.448   3.540  12.089 -0.0790 -0.4706 -0.0296
  454MPD2     C 6758   1.768   3.606  16.139  0.1262  0.3353 -0.5433
  454MPD2    C1 6759   1.660   3.675  16.080 -0.2008  0.2562 -0.7609
  454MPD2    C2 6760   1.608   3.791  16.126 -1.0273  0.1810  0.1195
  454MPD2    C3 6761   1.668   3.852  16.230  0.3101 -0.2515  0.0772
  454MPD2    C4 6762   1.774   3.785  16.295 -0.6343  0.3188 -0.3284
  454MPD2    C5 6763   1.832   3.667  16.243 -0.8503  0.5621  0.4632
  454MPD2     H 6764   1.529   3.833  16.064  1.4702  2.9123 -1.2245
  454MPD2    H1 6765   1.831   3.828  16.377  0.3618 -1.9396  0.1425
  454MPD2    H2 6766   1.788   3.501  16.120 -0.6069  0.0778  0.0887
  454MPD2    H3 6767   1.918   3.625  16.294  0.6879  0.7636 -1.9724
  454MPD2     N 6768   1.603   3.957  16.294  0.0443 -0.0544 -0.6356
  454MPD2    H5 6769   1.622   3.974  16.393 -0.1148 -0.8586 -0.4692
  454MPD2    N1 6770   1.574   3.620  15.980 -0.2339 -0.3841  0.2597
  454MPD2    H7 6771   1.484   3.665  15.963  0.2988  1.1585  1.5784
  455TMC3    C1 6772   1.391   4.043  16.299 -0.0926  0.1995 -0.4547
  455TMC3    C2 6773   1.404   4.060  16.436  0.1437 -0.4946 -0.5785
  455TMC3    C3 6774   1.372   3.968  16.527 -0.1133  0.6868  0.3365
  455TMC3    C4 6775   1.325   3.932  16.262 -0.6135  0.2088 -0.4590
  455TMC3    C5 6776   1.290   3.836  16.354 -0.2302  0.0565  0.4065
  455TMC3    C6 6777   1.320   3.842  16.487  0.4844 -0.0958  0.3025
  455TMC3     C 6778   1.516   4.038  16.227 -0.4256 -0.2812 -0.0342
  455TMC3     O 6779   1.504   4.057  16.104  0.5769  0.1723 -0.0146
  455TMC3     H 6780   1.460   4.145  16.475  0.5800 -0.2730 -1.7001
  455TMC3    H1 6781   1.295   3.912  16.160 -0.3270 -1.3854 -0.2205
  455TMC3    H2 6782   1.295   3.759  16.552 -0.8437 -1.0241 -1.3709
  455TMC3    C7 6783   1.281   3.701  16.298  0.6473 -0.1829 -0.1484
  455TMC3    C8 6784   1.287   4.017  16.633 -0.6476 -0.6329 -0.3556
  455TMC3    O1 6785   1.213   3.685  16.199  0.1366 -0.5058  0.4440
  455TMC3    O2 6786   1.262   3.944  16.729  0.3732 -0.2205 -0.1290
  456MPD2     C 6787   3.621   3.596  16.374 -0.1934  0.1918 -0.6434
  456MPD2    C1 6788   3.721   3.591  16.469  0.2624 -0.4776  0.3809
  456MPD2    C2 6789   3.708   3.663  16.584 -0.5736  0.1277 -0.0097
  456MPD2    C3 6790   3.603   3.754  16.606 -0.4769 -0.2175 -0.1814
  456MPD2    C4 6791   3.496   3.745  16.519  0.3237  0.3595 -0.0630
  456MPD2    C5 6792   3.507   3.659  16.409  0.4733 -0.3399  0.1735
  456MPD2     H 6793   3.789   3.656  16.656 -0.9046  0.8939  0.4299
  456MPD2    H1 6794   3.405   3.803  16.527  1.6372  2.1316  2.0388
  456MPD2    H2 6795   3.637   3.558  16.274  2.0974  0.4372 -0.3743
  456MPD2    H3 6796   3.420   3.645  16.345 -0.1598 -0.8754  1.1530
  456MPD2     N 6797   3.609   3.837  16.719 -0.2202  0.5591 -0.5894
  456MPD2    H5 6798   3.683   3.817  16.786 -1.1841 -0.5647  0.1204
  456MPD2    N1 6799   3.838   3.514  16.429  0.4195 -0.2649  0.2097
  456MPD2    H7 6800   3.826   3.459  16.344  0.3867  1.8698 -1.1732
  457TMC3    C1 6801   3.579   4.028  16.847  0.7917  0.1668 -0.0788
  457TMC3    C2 6802   3.588   4.157  16.803  0.2605 -0.2012 -0.3145
  457TMC3    C3 6803   3.689   4.227  16.856 -0.1661  0.4107 -0.1510
  457TMC3    C4 6804   3.661   3.977  16.947 -0.4345  0.1987 -0.0999
  457TMC3    C5 6805   3.746   4.062  17.011 -0.0829  0.1561  0.2845
  457TMC3    C6 6806   3.778   4.182  16.949 -0.4609 -0.5614  0.3732
  457TMC3     C 6807   3.526   3.940  16.751  0.3576 -0.8705  0.0498
  457TMC3     O 6808   3.425   3.984  16.698 -0.1359  0.3294  0.3686
  457TMC3     H 6809   3.517   4.189  16.729 -1.9026 -1.1558  1.3356
  457TMC3    H1 6810   3.639   3.881  16.993  2.1982 -0.9512 -1.2029
  457TMC3    H2 6811   3.864   4.242  16.976 -0.0852 -1.1747  0.5321
  457TMC3    C7 6812   3.846   4.006  17.101  0.0911 -0.4866  0.1556
  457TMC3    C8 6813   3.711   4.366  16.818  0.2815  0.0166 -0.1898
  457TMC3    O1 6814   3.860   3.881  17.097  0.6738 -0.3188 -0.2346
  457TMC3    O2 6815   3.803   4.429  16.870  0.1455  0.2221 -1.2316
  458MPD2     C 6816   2.084   3.133  12.388  0.2135 -0.7491 -0.3343
  458MPD2    C1 6817   2.034   3.090  12.501 -0.1551 -0.0214 -0.4969
  458MPD2    C2 6818   1.894   3.056  12.503  0.2281 -0.3749 -0.3771
  458MPD2    C3 6819   1.819   3.042  12.391  0.3099  0.9761 -0.2511
  458MPD2    C4 6820   1.873   3.089  12.268  0.2795 -0.0090  0.2718
  458MPD2    C5 6821   2.004   3.137  12.271 -0.7301 -0.4086 -0.5701
  458MPD2     H 6822   1.842   3.025  12.593  1.7886  2.1331  1.4018
  458MPD2    H1 6823   1.817   3.094  12.176 -0.7455  0.4431  0.9182
  458MPD2    H2 6824   2.187   3.166  12.384 -0.8738  2.4920 -0.8629
  458MPD2    H3 6825   2.051   3.175  12.181  0.6654 -0.1783  0.2483
  458MPD2     N 6826   1.690   2.991  12.401 -0.4943 -0.5089 -0.1509
  458MPD2    H5 6827   1.656   2.974  12.495  1.7227 -0.9660  0.5734
  458MPD2    N1 6828   2.114   3.109  12.611  0.2673 -0.3896  0.0007
  458MPD2    H7 6829   2.197   3.164  12.591  0.7735  0.3331  4.0162
  459TMC3    C1 6830   2.163   3.095  12.842  0.0418 -0.2632 -0.1221
  459TMC3    C2 6831   2.258   3.191  12.823 -0.1453 -0.3000 -0.0041
  459TMC3    C3 6832   2.358   3.211  12.910 -0.0219  0.4202  0.6247
  459TMC3    C4 6833   2.175   3.004  12.945  0.0586  0.0873  0.0033
  459TMC3    C5 6834   2.277   3.028  13.037  0.0999  0.1719 -0.2957
  459TMC3    C6 6835   2.358   3.134  13.021 -0.8296 -0.2563  0.0070
  459TMC3     C 6836   2.070   3.066  12.733  0.4556 -0.5133  0.0263
  459TMC3     O 6837   2.002   2.967  12.765  0.0889 -0.8036 -0.2435
  459TMC3     H 6838   2.239   3.270  12.751  1.8181  0.9276  0.8131
  459TMC3    H1 6839   2.106   2.920  12.948 -1.0292  0.9627 -0.4098
  459TMC3    H2 6840   2.437   3.139  13.095 -0.7349 -0.1834 -0.0992
  459TMC3    C7 6841   2.298   2.930  13.154  0.0943 -0.1367 -0.2286
  459TMC3    C8 6842   2.453   3.314  12.880  0.0205  0.1337  0.4470
  459TMC3    O1 6843   2.320   2.816  13.114 -0.3274 -0.4081  0.6577
  459TMC3    O2 6844   2.447   3.358  12.770  0.0555  0.2744 -0.0408
  460MPD2     C 6845   1.162   0.037  10.312  0.0299 -0.0695 -0.6044
  460MPD2    C1 6846   1.062   0.127  10.349 -0.1303 -0.2696  0.1844
  460MPD2    C2 6847   0.957   0.145  10.258  0.2950  0.0539 -0.2792
  460MPD2    C3 6848   0.947   0.072  10.139  0.4401 -0.0071 -0.1798
  460MPD2    C4 6849   1.049   4.703  10.102  0.3266 -0.2612  0.0555
  460MPD2    C5 6850   1.155   4.689  10.192 -0.1524 -0.4506 -0.1101
  460MPD2     H 6851   0.882   0.220  10.280 -1.1689 -1.5625  0.1876
  460MPD2    H1 6852   1.055   4.651  10.007 -0.3558  0.3437 -0.3145
  460MPD2    H2 6853   1.244   0.013  10.379  0.6141  3.1708 -0.1747
  460MPD2    H3 6854   1.240   4.627  10.165 -0.3849 -0.1051 -1.6263
  460MPD2     N 6855   0.841   0.106  10.039  0.1703 -0.0967 -0.6412
  460MPD2    H5 6856   0.795   0.195  10.052 -1.1954 -1.3121  2.9713
  460MPD2    N1 6857   1.077   0.189  10.470  0.3272  0.4511  0.2862
  460MPD2    H7 6858   1.153   0.147  10.522 -0.1679 -1.1439 -0.2732
  461TMC3    C1 6859   0.706   0.080   9.848  0.3080  0.3791 -0.5138
  461TMC3    C2 6860   0.655   4.704   9.766 -0.9681  0.3302 -0.5207
  461TMC3    C3 6861   0.571   0.020   9.670 -0.0487  0.2103 -0.6126
  461TMC3    C4 6862   0.659   0.214   9.835  0.2259  0.5673  0.3845
  461TMC3    C5 6863   0.565   0.245   9.739  0.2579 -0.4143 -0.0972
  461TMC3    C6 6864   0.533   0.152   9.646  0.3588  0.0882  0.0959
  461TMC3     C 6865   0.831   0.046   9.920  0.0392 -0.9180 -0.1831
  461TMC3     O 6866   0.883   4.665   9.879  0.0858 -0.2498  0.1680
  461TMC3     H 6867   0.695   4.603   9.762 -1.1718  0.2109  0.4368
  461TMC3    H1 6868   0.699   0.291   9.900 -0.1751 -0.7377  2.1846
  461TMC3    H2 6869   0.458   0.173   9.570 -1.0905  2.7412  2.2555
  461TMC3    C7 6870   0.508   0.381   9.732  0.0426  1.0472  0.8326
  461TMC3    C8 6871   0.537   4.645   9.565  0.3024 -0.4170  0.3395
  461TMC3    O1 6872   0.459   0.406   9.624 -0.1635 -0.6940 -0.7569
  461TMC3    O2 6873   0.505   4.695   9.458  0.7484  0.0962  0.0857
  462TMC3    C1 6874   0.475   1.807  17.035  0.3250 -0.5962 -0.6401
  462TMC3    C2 6875   0.469   1.694  16.955  0.4735 -0.0822 -0.6260
  462TMC3    C3 6876   0.493   1.570  17.014  0.1491  0.1218  0.4138
  462TMC3    C4 6877   0.524   1.802  17.161  0.5471  0.4552 -0.0627
  462TMC3    C5 6878   0.545   1.678  17.209 -0.7998 -0.1613 -1.3985
  462TMC3    C6 6879   0.535   1.559  17.144 -0.0955  0.3181 -0.0301
  462TMC3     C 6880   0.461   1.933  16.964  0.3479  0.4715  0.4985
  462TMC3     O 6881   0.525   2.035  16.988  0.0521 -0.6383  0.4762
  462TMC3     H 6882   0.454   1.695  16.847  0.2455 -2.4595 -0.6061
  462TMC3    H1 6883   0.553   1.897  17.204  1.7346 -1.2511  2.8666
  462TMC3    H2 6884   0.513   1.467  17.197 -1.5136 -0.0646 -1.2733
  462TMC3    C7 6885   0.631   1.663  17.321  0.1514  0.7426  0.6054
  462TMC3    C8 6886   0.521   1.454  16.929  0.0178 -0.3875  0.1974
  462TMC3    O1 6887   0.691   1.560  17.347 -0.4072 -0.3339 -0.5783
  462TMC3    O2 6888   0.465   1.443  16.820  0.2672 -0.2028  0.0253
  463MPD2     C 6889   2.049   4.651   1.671 -0.5721  0.1810 -0.9407
  463MPD2    C1 6890   1.933   4.692   1.607  0.5086  0.2065  0.1733
  463MPD2    C2 6891   1.942   0.074   1.512  0.1157  0.0479 -0.4697
  463MPD2    C3 6892   2.067   0.119   1.466 -0.6129  0.5036 -0.5120
  463MPD2    C4 6893   2.184   0.068   1.521  0.2808 -0.4670  0.6509
  463MPD2    C5 6894   2.162   4.703   1.624 -0.1161 -1.3448  0.0559
  463MPD2     H 6895   1.846   0.111   1.478  0.0922  0.4654  0.0524
  463MPD2    H1 6896   2.283   0.090   1.483  0.0872 -1.3411 -0.3430
  463MPD2    H2 6897   2.053   4.583   1.755  0.9198 -0.0792 -1.2251
  463MPD2    H3 6898   2.256   4.680   1.673  0.1973 -1.3438 -0.5493
  463MPD2     N 6899   2.075   0.223   1.380  0.3319  0.3817  0.1194
  463MPD2    H5 6900   2.167   0.260   1.359  1.4938 -3.2306 -1.2002
  463MPD2    N1 6901   1.805   4.662   1.645  0.2178  0.3131  0.5549
  463MPD2    H7 6902   1.732   0.001   1.607 -1.0609 -0.4294  1.8767
  464TMC3    C1 6903   1.625   4.535   1.728 -0.4152  0.1888  0.6700
  464TMC3    C2 6904   1.531   4.633   1.698  0.4320 -0.0406 -0.1046
  464TMC3    C3 6905   1.405   4.590   1.676 -0.4966  0.1528 -0.0797
  464TMC3    C4 6906   1.595   4.405   1.760  0.7518 -0.6266  0.8461
  464TMC3    C5 6907   1.464   4.379   1.724 -0.5785 -0.1681  0.2962
  464TMC3    C6 6908   1.368   4.459   1.673 -0.6230  0.2068 -0.5066
  464TMC3     C 6909   1.768   4.568   1.735  0.3025 -0.4160  0.0338
  464TMC3     O 6910   1.838   4.506   1.815 -0.1264  0.3249  0.4046
  464TMC3     H 6911   1.564   0.015   1.681  0.2435  0.0121 -0.1551
  464TMC3    H1 6912   1.673   4.336   1.790 -1.2217 -3.0973  0.2536
  464TMC3    H2 6913   1.269   4.416   1.665  0.0589 -1.5479  0.5188
  464TMC3    C7 6914   1.436   4.243   1.712 -0.0380  1.1638  0.4540
  464TMC3    C8 6915   1.294   4.678   1.686 -0.1406 -0.2868  0.0462
  464TMC3    O1 6916   1.485   4.175   1.800  0.5505  0.1224  0.1815
  464TMC3    O2 6917   1.183   4.635   1.663 -0.0584 -0.6534  0.5316
  465MPD2     C 6918   2.665   3.166  17.330 -0.5972  0.0325  0.4106
  465MPD2    C1 6919   2.563   3.259  17.370  0.6075 -0.7553  0.6186
  465MPD2    C2 6920   2.524   3.350  17.273 -0.2181  1.0256  0.6093
  465MPD2    C3 6921   2.550   3.325  17.137  0.6165 -0.5229  0.0426
  465MPD2    C4 6922   2.648   3.227  17.105 -0.0590  0.2013 -0.3730
  465MPD2    C5 6923   2.710   3.153  17.204 -0.4151  0.4136  0.0817
  465MPD2     H 6924   2.458   3.431  17.302  1.0438  2.5955 -0.9649
  465MPD2    H1 6925   2.661   3.202  17.000  0.8816  1.0724 -0.4710
  465MPD2    H2 6926   2.705   3.090  17.397 -2.3549 -0.7468  0.5708
  465MPD2    H3 6927   2.780   3.073  17.188 -0.3030  1.0261 -2.5971
  465MPD2     N 6928   2.484   3.408  17.045 -0.1406  0.6812  0.1917
  465MPD2    H5 6929   2.410   3.467  17.081 -0.7999 -0.4762  0.7443
  465MPD2    N1 6930   2.491   3.269  17.496 -0.2661  0.3577 -0.3280
  465MPD2    H7 6931   2.417   3.337  17.509 -0.0837  0.3653  0.6438
  466TMC3    C1 6932   2.220   3.597  16.900  0.1757 -0.2504 -0.1987
  466TMC3    C2 6933   2.260   3.692  16.811 -0.5122 -0.4162 -0.8608
  466TMC3    C3 6934   2.372   3.674  16.731  0.3198 -0.9219 -0.4410
  466TMC3    C4 6935   2.287   3.484  16.906 -0.6128  0.4166 -0.4465
  466TMC3    C5 6936   2.402   3.470  16.830  0.2384  0.2220 -0.0585
  466TMC3    C6 6937   2.449   3.560  16.744 -0.8098  1.1423 -0.4218
  466TMC3     C 6938   2.187   3.638  17.036 -0.7179 -0.3457 -0.3207
  466TMC3     O 6939   2.234   3.564  17.121  0.5189 -0.1137  0.4263
  466TMC3     H 6940   2.203   3.784  16.804  0.6759  0.3335 -0.7742
  466TMC3    H1 6941   2.250   3.399  16.963 -1.6529  0.3319 -1.2394
  466TMC3    H2 6942   2.546   3.550  16.696 -0.4442 -2.4574  1.0577
  466TMC3    C7 6943   2.507   3.407  16.905 -0.0646 -0.1907  0.1030
  466TMC3    C8 6944   2.408   3.785  16.647  0.1073 -0.0664  0.7647
  466TMC3    O1 6945   2.602   3.358  16.839 -0.0696 -0.1344  0.0115
  466TMC3    O2 6946   2.474   3.742  16.554 -0.5915  0.4202 -0.4508
  467TMC3    C1 6947   3.693   2.398  13.830 -0.2923 -0.4513  0.5177
  467TMC3    C2 6948   3.689   2.379  13.696 -0.2541 -0.3957 -0.4080
  467TMC3    C3 6949   3.575   2.411  13.632 -0.0526 -0.0581 -0.3968
  467TMC3    C4 6950   3.596   2.457  13.897  0.2100 -0.3442  0.4481
  467TMC3    C5 6951   3.486   2.488  13.828 -0.0153  0.6843 -0.0933
  467TMC3    C6 6952   3.476   2.481  13.695  0.1257 -0.3149  0.4746
  467TMC3     C 6953   3.820   2.375  13.898 -0.6252 -0.4845  0.1872
  467TMC3     O 6954   3.853   2.460  13.978  0.3719  0.5588 -0.1655
  467TMC3     H 6955   3.773   2.338  13.640  1.0110  0.4980  0.8392
  467TMC3    H1 6956   3.606   2.448  14.005  1.5936  2.3691  0.5407
  467TMC3    H2 6957   3.393   2.517  13.634 -0.9878  0.4604  2.4633
  467TMC3    C7 6958   3.372   2.552  13.882 -0.3585 -0.1015 -0.6269
  467TMC3    C8 6959   3.591   2.431  13.487  0.1307 -0.2711  0.2717
  467TMC3    O1 6960   3.325   2.639  13.808 -0.3667 -0.0262 -0.2918
  467TMC3    O2 6961   3.493   2.430  13.415 -0.2757  0.0234  0.0055
  468MPD2     C 6962   2.286   0.785  10.649  0.7185 -0.3798 -0.3922
  468MPD2    C1 6963   2.417   0.751  10.679 -0.6546 -0.5559 -0.4613
  468MPD2    C2 6964   2.450   0.629  10.741 -0.1677  0.3372 -0.8536
  468MPD2    C3 6965   2.350   0.540  10.773  0.6705  0.8827 -0.2335
  468MPD2    C4 6966   2.224   0.586  10.766 -0.8798  0.2547  0.4798
  468MPD2    C5 6967   2.191   0.704  10.699  0.4367  0.4015 -0.2726
  468MPD2     H 6968   2.553   0.596  10.750 -0.5498 -0.8495 -0.8440
  468MPD2    H1 6969   2.147   0.516  10.798 -0.3444 -0.5341  0.0419
  468MPD2    H2 6970   2.264   0.876  10.594 -1.5948  0.3440  1.7536
  468MPD2    H3 6971   2.089   0.738  10.680  0.6854  1.5830  0.4749
  468MPD2     N 6972   2.373   0.403  10.813 -0.6231 -0.3936 -0.3977
  468MPD2    H5 6973   2.290   0.346  10.825  1.2894 -3.0706  0.0922
  468MPD2    N1 6974   2.527   0.830  10.634 -0.2730 -0.3858  0.3458
  468MPD2    H7 6975   2.619   0.812  10.672  0.6178  0.3086 -1.4841
  469TMC3    C1 6976   2.662   0.977  10.502  0.3212 -0.3071  0.6438
  469TMC3    C2 6977   2.763   0.913  10.564 -0.4555 -0.6031  0.4347
  469TMC3    C3 6978   2.889   0.967  10.542  0.3564 -0.3480  0.2596
  469TMC3    C4 6979   2.684   1.071  10.405  0.2412 -0.1662 -0.4728
  469TMC3    C5 6980   2.809   1.112  10.380  0.1898 -0.2695  0.0183
  469TMC3    C6 6981   2.912   1.067  10.449 -0.2049  0.0631  0.1539
  469TMC3     C 6982   2.523   0.926  10.538  0.4936 -0.1241 -0.3963
  469TMC3     O 6983   2.430   0.961  10.465  0.3204  0.1849  0.0730
  469TMC3     H 6984   2.758   0.834  10.638  1.8255  0.0855  1.3079
  469TMC3    H1 6985   2.592   1.106  10.359  0.5241 -1.8020 -2.2684
  469TMC3    H2 6986   3.007   1.111  10.420 -0.1207  0.6277  1.3018
  469TMC3    C7 6987   2.833   1.182  10.255  0.7026 -0.3353 -0.2118
  469TMC3    C8 6988   2.998   0.921  10.630 -0.1407 -0.1988 -0.0859
  469TMC3    O1 6989   2.945   1.167  10.210  0.3570  0.5053  0.0270
  469TMC3    O2 6990   3.097   0.875  10.577 -0.1689 -0.5220 -0.1654
  470TMC3    C1 6991   0.823   1.283   0.545  1.6695 -0.0602 -0.9936
  470TMC3    C2 6992   0.770   1.411   0.561  0.5677  0.5009 -0.4179
  470TMC3    C3 6993   0.770   1.463   0.688 -0.6753  0.0408  0.0143
  470TMC3    C4 6994   0.869   1.209   0.650 -0.1622 -0.9087  0.5054
  470TMC3    C5 6995   0.859   1.268   0.778  0.3320  0.1840 -0.0486
  470TMC3    C6 6996   0.808   1.393   0.798 -0.2718 -0.8244 -0.5394
  470TMC3     C 6997   0.830   1.220   0.412  0.2238 -0.0862 -0.2016
  470TMC3     O 6998   0.848   1.292   0.318  0.3421  0.3600  0.9456
  470TMC3     H 6999   0.740   1.460   0.469 -0.6726  0.3254 -0.1090
  470TMC3    H1 7000   0.913   1.112   0.631 -2.1520 -1.1185 -2.9742
  470TMC3    H2 7001   0.808   1.436   0.897 -3.3970 -0.2730 -0.7752
  470TMC3    C7 7002   0.922   1.184   0.880 -0.3789 -0.4674  0.1773
  470TMC3    C8 7003   0.710   1.594   0.709  0.8830 -1.0711  0.2316
  470TMC3    O1 7004   0.916   1.067   0.858 -0.4573  0.0304  0.5739
  470TMC3    O2 7005   0.674   1.619   0.824 -0.2332  0.1055  0.4437
  471MPD2     C 7006   0.367   3.128  16.424  1.0727 -0.2219 -0.5000
  471MPD2    C1 7007   0.475   3.055  16.378 -0.4799  0.1278 -0.1139
  471MPD2    C2 7008   0.583   3.033  16.468 -0.3589 -0.3843  0.8792
  471MPD2    C3 7009   0.581   3.075  16.596  0.3559  0.1503  0.6511
  471MPD2    C4 7010   0.473   3.143  16.637 -0.2937 -0.2215 -0.0764
  471MPD2    C5 7011   0.376   3.181  16.553 -0.4900 -0.1178  0.1255
  471MPD2     H 7012   0.661   2.967  16.433  0.0412  0.2664  0.5350
  471MPD2    H1 7013   0.464   3.182  16.738  0.1258  0.5945 -0.3584
  471MPD2    H2 7014   0.282   3.147  16.359 -0.3598 -1.1401  1.1152
  471MPD2    H3 7015   0.286   3.226  16.591 -1.4177 -1.7359 -0.1328
  471MPD2     N 7016   0.680   3.053  16.698 -0.1755 -0.0977  0.1786
  471MPD2    H5 7017   0.664   3.098  16.788  1.8400  0.5950  0.1875
  471MPD2    N1 7018   0.472   2.979  16.261  0.1234  0.3726 -0.0195
  471MPD2    H7 7019   0.538   2.902  16.253  1.2301  1.5140 -2.0090
  472TMC3    C1 7020   0.381   2.900  16.064 -0.7642 -0.4878 -0.0850
  472TMC3    C2 7021   0.281   2.903  15.971 -0.2471 -0.4813 -0.3138
  472TMC3    C3 7022   0.245   2.783  15.921  0.0793 -0.2583  0.9133
  472TMC3    C4 7023   0.467   2.793  16.091  0.3788 -0.2825 -0.9833
  472TMC3    C5 7024   0.435   2.682  16.018 -0.1143  0.3180 -0.0153
  472TMC3    C6 7025   0.327   2.668  15.937 -0.1173  0.0355 -1.4593
  472TMC3     C 7026   0.382   3.007  16.163  0.3678 -0.3217  0.0621
  472TMC3     O 7027   0.319   3.111  16.136 -0.1907  0.0462  0.0707
  472TMC3     H 7028   0.219   2.992  15.967  1.2120  0.5570  0.4053
  472TMC3    H1 7029   0.562   2.798  16.143  1.0738 -2.4926 -2.0524
  472TMC3    H2 7030   0.288   2.573  15.903  1.7606 -0.5838 -1.8445
  472TMC3    C7 7031   0.511   2.567  16.044 -0.2788  0.6638 -0.5801
  472TMC3    C8 7032   0.115   2.783  15.853 -0.1287 -0.3738  0.9203
  472TMC3    O1 7033   0.588   2.566  16.135  0.4751  0.0527 -0.4125
  472TMC3    O2 7034   0.077   2.888  15.801 -0.1240  0.4086 -0.1370
  473MPD2     C 7035   0.504   4.671  13.892  0.4905  0.3119  0.2863
  473MPD2    C1 7036   0.479   0.075  13.848 -0.2725 -0.2015  0.1435
  473MPD2    C2 7037   0.556   0.174  13.903  0.0270 -0.0640 -0.4828
  473MPD2    C3 7038   0.651   0.155  14.006  0.2279  0.1675  0.3525
  473MPD2    C4 7039   0.674   0.029  14.047  0.9198  0.6854 -0.4469
  473MPD2    C5 7040   0.595   4.647  13.996  0.3627 -0.2450  0.0325
  473MPD2     H 7041   0.533   0.276  13.874 -1.8662 -0.6943 -1.1642
  473MPD2    H1 7042   0.741   0.004  14.128  1.8026  0.6651 -1.1895
  473MPD2    H2 7043   0.448   4.585  13.858 -0.0436  1.0170 -0.6112
  473MPD2    H3 7044   0.613   4.545  14.028 -1.7180 -0.6368 -0.0744
  473MPD2     N 7045   0.725   0.262  14.077 -0.4416  0.0972 -0.5303
  473MPD2    H5 7046   0.786   0.224  14.149 -1.0844 -1.3852 -0.7593
  473MPD2    N1 7047   0.395   0.109  13.741  0.0135 -0.2373  0.2349
  473MPD2    H7 7048   0.373   0.208  13.733 -1.3579 -0.7236 -1.9978
  474TMC3    C1 7049   0.751   0.487  14.164  0.7235  0.5317  0.6553
  474TMC3    C2 7050   0.693   0.615  14.153 -0.0128 -0.2851 -0.3105
  474TMC3    C3 7051   0.751   0.718  14.221 -0.9094  0.4936  0.7775
  474TMC3    C4 7052   0.865   0.456  14.233 -0.2348 -0.2650 -0.5571
  474TMC3    C5 7053   0.917   0.569  14.287  0.2458  0.5705 -0.0214
  474TMC3    C6 7054   0.866   0.694  14.293  0.2939 -0.5751 -0.2737
  474TMC3     C 7055   0.704   0.400  14.064 -0.5638  0.5013  0.2968
  474TMC3     O 7056   0.651   0.455  13.969  0.2530 -0.3294  0.8525
  474TMC3     H 7057   0.601   0.638  14.102 -1.0986 -0.1383  1.7139
  474TMC3    H1 7058   0.920   0.363  14.238 -1.7587 -1.1041  0.5495
  474TMC3    H2 7059   0.925   0.777  14.331 -0.9053  0.4800 -0.7359
  474TMC3    C7 7060   1.026   0.541  14.380  0.1891 -0.2629  0.2457
  474TMC3    C8 7061   0.721   0.853  14.170 -0.8583  0.4201  0.3258
  474TMC3    O1 7062   1.098   0.453  14.342 -0.2755 -0.5467 -0.2526
  474TMC3    O2 7063   0.739   0.945  14.249  0.6494  0.0922  0.8544
  475MPD2     C 7064   3.707   2.838   9.837  0.1988  0.5882 -0.1921
  475MPD2    C1 7065   3.782   2.892   9.940 -0.1075  0.1534  0.5531
  475MPD2    C2 7066   3.770   2.844  10.067  0.3766 -1.0040 -0.2361
  475MPD2    C3 7067   3.675   2.747  10.098 -0.4285  0.6830  1.0000
  475MPD2    C4 7068   3.592   2.701   9.996 -0.1833 -0.3289 -0.0841
  475MPD2    C5 7069   3.605   2.743   9.866  0.3003  0.0166 -0.2357
  475MPD2     H 7070   3.827   2.877  10.153  1.2730 -0.0353 -1.2026
  475MPD2    H1 7071   3.513   2.628  10.010  0.6898 -1.8653 -3.3573
  475MPD2    H2 7072   3.717   2.879   9.737  0.3284 -2.3972 -1.4044
  475MPD2    H3 7073   3.540   2.707   9.787 -2.4144  1.4674  1.3245
  475MPD2     N 7074   3.670   2.707  10.234  0.1504  0.8827  0.2522
  475MPD2    H5 7075   3.735   2.748  10.300 -1.5554  2.4356  0.9881
  475MPD2    N1 7076   3.880   2.984   9.905 -0.0823  0.6057  0.2370
  475MPD2    H7 7077   3.902   3.003   9.808 -1.3563  1.6106  0.1475
  476TMC3    C1 7078   3.886   3.118  10.113  0.6466 -0.6610  0.5417
  476TMC3    C2 7079   3.748   3.135  10.132  0.2660 -0.2826  0.3329
  476TMC3    C3 7080   3.704   3.180  10.253 -0.3152 -0.5559  0.1656
  476TMC3    C4 7081   3.972   3.177  10.202  0.7586 -0.3180  0.5438
  476TMC3    C5 7082   3.915   3.247  10.307  0.4618  0.2888  0.7586
  476TMC3    C6 7083   3.787   3.233  10.346 -1.0164  0.8269  0.5522
  476TMC3     C 7084   3.944   3.083   9.983  0.2965 -0.3967 -0.4653
  476TMC3     O 7085   4.019   3.170   9.939  0.0293 -0.0615  0.4581
  476TMC3     H 7086   3.683   3.100  10.053  0.5263  0.1949 -0.0907
  476TMC3    H1 7087   4.080   3.176  10.188  0.4390 -1.7691 -1.6776
  476TMC3    H2 7088   3.744   3.283  10.431  0.4952  0.1754  1.7022
  476TMC3    C7 7089   4.015   3.303  10.402  1.0348 -0.3753 -0.1743
  476TMC3    C8 7090   3.574   3.152  10.299 -0.5178  0.1832 -0.1175
  476TMC3    O1 7091   4.127   3.250  10.393 -0.2329 -0.3299 -0.0973
  476TMC3    O2 7092   3.519   3.235  10.364  0.6797 -0.4669 -0.0478
  477MPD2     C 7093   0.982   4.010  11.314 -0.3477  0.2133 -0.5306
  477MPD2    C1 7094   1.041   4.096  11.402  0.5009 -0.1285  0.2177
  477MPD2    C2 7095   1.016   4.080  11.538  0.0713 -0.5468 -0.1174
  477MPD2    C3 7096   0.951   3.968  11.588 -0.5195  0.4108 -0.6029
  477MPD2    C4 7097   0.900   3.879  11.501 -0.2009 -0.6004 -0.0500
  477MPD2    C5 7098   0.917   3.901  11.368 -0.2969  0.1789 -0.4211
  477MPD2     H 7099   1.054   4.145  11.617  0.4621  0.8045 -1.4267
  477MPD2    H1 7100   0.858   3.786  11.538  1.0780 -0.3924  1.9303
  477MPD2    H2 7101   0.990   4.012  11.206  1.5081 -0.2556 -0.3965
  477MPD2    H3 7102   0.872   3.834  11.296 -2.2888  0.7231  0.3238
  477MPD2     N 7103   0.961   3.940  11.725  0.3829  0.1214 -0.1990
  477MPD2    H5 7104   1.016   4.009  11.774  1.2887 -0.2197 -0.7251
  477MPD2    N1 7105   1.114   4.203  11.341 -0.0230 -0.1525  0.1387
  477MPD2    H7 7106   1.107   4.205  11.240  1.9531 -0.3047 -0.0018
  478TMC3    C1 7107   1.159   4.434  11.313 -0.6755 -0.2812 -0.4502
  478TMC3    C2 7108   1.217   4.541  11.367  0.6971 -0.6028 -0.3996
  478TMC3    C3 7109   1.243   4.648  11.291 -0.3813  0.0705  0.0101
  478TMC3    C4 7110   1.134   4.431  11.180 -0.3881  0.3757  0.0174
  478TMC3    C5 7111   1.155   4.540  11.105  0.8643 -0.1395 -0.1095
  478TMC3    C6 7112   1.213   4.657  11.157 -0.2719  0.4028 -0.2886
  478TMC3     C 7113   1.151   4.315  11.404  0.9319 -0.6338 -0.5456
  478TMC3     O 7114   1.133   4.352  11.520  0.3850 -0.1728 -0.0173
  478TMC3     H 7115   1.230   4.539  11.475  1.1768  0.2212 -0.4407
  478TMC3    H1 7116   1.092   4.346  11.128 -0.3949 -0.6943  1.7933
  478TMC3    H2 7117   1.232   0.028  11.102 -0.8008  0.0366 -1.0856
  478TMC3    C7 7118   1.163   4.512  10.968 -0.6303 -0.2745  0.9684
  478TMC3    C8 7119   1.311   0.029  11.359  0.5431  0.4824  0.6900
  478TMC3    O1 7120   1.260   4.449  10.926 -0.0977 -0.4629  0.0851
  478TMC3    O2 7121   1.393   4.716  11.442 -0.2844  0.2597 -0.2804
  479MPD2     C 7122   0.503   2.330  15.123 -0.5637 -0.8505  0.1151
  479MPD2    C1 7123   0.422   2.282  15.226 -0.9228 -0.3831 -0.0389
  479MPD2    C2 7124   0.427   2.340  15.351  0.6266  0.2111  0.4260
  479MPD2    C3 7125   0.502   2.453  15.376  0.3487  0.0227 -0.0354
  479MPD2    C4 7126   0.579   2.496  15.276 -0.2994 -0.2702 -0.6275
  479MPD2    C5 7127   0.586   2.434  15.156  0.0684 -1.2636  0.0073
  479MPD2     H 7128   0.383   2.296  15.440  1.6799  2.3021  1.9811
  479MPD2    H1 7129   0.640   2.583  15.297  2.2932 -1.8735 -1.6686
  479MPD2    H2 7130   0.507   2.285  15.025  0.7825 -0.3928 -0.0305
  479MPD2    H3 7131   0.662   2.474  15.090 -1.7870  2.7658  0.2870
  479MPD2     N 7132   0.504   2.532  15.496 -0.2460  0.2783 -0.1751
  479MPD2    H5 7133   0.593   2.576  15.518 -1.7717  2.8550  0.8012
  479MPD2    N1 7134   0.337   2.171  15.192 -0.2235  0.2898 -0.1120
  479MPD2    H7 7135   0.342   2.139  15.096  0.4868  0.8880 -0.2733
  480TMC3    C1 7136   0.104   2.336  15.581 -0.1715  0.2281  0.2746
  480TMC3    C2 7137   0.040   2.369  15.465 -0.7911 -0.2386 -0.1861
  480TMC3    C3 7138   0.098   2.466  15.393 -0.1763  0.2501  0.3465
  480TMC3    C4 7139   0.211   2.407  15.634 -0.3310  0.6906 -0.1499
  480TMC3    C5 7140   0.260   2.501  15.548 -0.0235 -0.3024 -0.0706
  480TMC3    C6 7141   0.203   2.538  15.430 -0.5962 -0.0929 -0.1918
  480TMC3     C 7142   0.053   2.222  15.656 -0.2519  0.3253  0.8930
  480TMC3     O 7143   0.131   2.168  15.733 -0.7639 -0.0806  0.0895
  480TMC3     H 7144   4.693   2.305  15.410  0.8076 -2.4383  0.4065
  480TMC3    H1 7145   0.253   2.392  15.732  2.9929  0.1281 -1.6750
  480TMC3    H2 7146   0.250   2.619  15.376  1.9945 -0.9616  0.7992
  480TMC3    C7 7147   0.396   2.547  15.580 -0.1084 -0.0108 -1.0599
  480TMC3    C8 7148   0.068   2.457  15.249  0.2814  0.0765  0.1996
  480TMC3    O1 7149   0.410   2.597  15.691 -0.4958  0.0269 -0.3202
  480TMC3    O2 7150   4.680   2.400  15.217  0.0197 -0.0008 -0.4178
  481MPD2     C 7151   2.033   1.657  14.155  0.5600  0.2255  0.5039
  481MPD2    C1 7152   1.922   1.600  14.219  0.4815 -0.0808 -0.7384
  481MPD2    C2 7153   1.938   1.530  14.340  0.1794  0.6012  0.4749
  481MPD2    C3 7154   2.060   1.532  14.400 -0.4570  0.4837  0.1646
  481MPD2    C4 7155   2.164   1.604  14.346  0.7725 -0.0874  0.2454
  481MPD2    C5 7156   2.152   1.664  14.226  0.0108 -0.1100 -0.0712
  481MPD2     H 7157   1.849   1.486  14.384 -0.1014 -2.1005 -2.8500
  481MPD2    H1 7158   2.261   1.611  14.395  0.2375  0.6394  1.1920
  481MPD2    H2 7159   2.037   1.688  14.051  1.8980 -0.0776  0.4692
  481MPD2    H3 7160   2.234   1.702  14.166 -0.5886 -0.2971 -1.0122
  481MPD2     N 7161   2.089   1.481  14.526 -0.2407 -0.6967 -0.2872
  481MPD2    H5 7162   2.178   1.499  14.571  0.3316  3.3232 -3.0184
  481MPD2    N1 7163   1.804   1.613  14.145 -0.1982 -0.0743 -0.4907
  481MPD2    H7 7164   1.818   1.659  14.055 -1.3373 -0.3643 -0.8206
  482TMC3    C1 7165   1.586   1.592  14.058 -0.1111  0.4176  0.2025
  482TMC3    C2 7166   1.492   1.491  14.038 -0.5228 -0.4211 -0.7967
  482TMC3    C3 7167   1.397   1.520  13.945  0.1715  0.0382  0.4129
  482TMC3    C4 7168   1.599   1.705  13.986  0.3417 -0.1480 -0.5718
  482TMC3    C5 7169   1.509   1.718  13.887 -0.3350 -0.1140 -0.1051
  482TMC3    C6 7170   1.412   1.624  13.859  0.3965  0.6042  0.0526
  482TMC3     C 7171   1.680   1.563  14.167  0.4295 -0.5854 -0.0680
  482TMC3     O 7172   1.643   1.480  14.249 -0.1658 -0.6717  0.1223
  482TMC3     H 7173   1.503   1.403  14.100 -1.7115 -0.8812 -1.2289
  482TMC3    H1 7174   1.674   1.781  13.998  0.4341 -0.5262  1.3569
  482TMC3    H2 7175   1.329   1.633  13.790  0.5209  1.9525  0.0853
  482TMC3    C7 7176   1.518   1.831  13.793  0.4755  0.7197  0.3195
  482TMC3    C8 7177   1.325   1.408  13.893  0.2293  0.8302  0.2581
  482TMC3    O1 7178   1.576   1.925  13.840  0.0746  0.2659  0.3131
  482TMC3    O2 7179   1.348   1.299  13.950 -0.6290 -0.6510  0.2662
  483TMC3    C1 7180   4.443   0.261   0.521  0.1904  0.3620 -0.0001
  483TMC3    C2 7181   4.492   0.375   0.458  0.3646 -0.2848 -0.0927
  483TMC3    C3 7182   4.521   0.482   0.540  0.7499  0.3345  0.8042
  483TMC3    C4 7183   4.419   0.249   0.650 -0.0746 -0.5756  0.2710
  483TMC3    C5 7184   4.448   0.362   0.726 -0.5444  0.1334  0.6429
  483TMC3    C6 7185   4.507   0.473   0.675  0.1974  0.0423 -0.0025
  483TMC3     C 7186   4.384   0.175   0.423  0.3070 -1.0618  0.7095
  483TMC3     O 7187   4.329   0.227   0.327 -0.1471  0.7630 -0.0239
  483TMC3     H 7188   4.514   0.371   0.351  0.5470 -0.6541 -0.0418
  483TMC3    H1 7189   4.371   0.162   0.693  0.6074 -0.8933  0.3922
  483TMC3    H2 7190   4.545   0.555   0.736  0.6817  1.3566 -2.0588
  483TMC3    C7 7191   4.437   0.347   0.872 -0.1487  0.0377 -0.0189
  483TMC3    C8 7192   4.631   0.562   0.489  0.3855 -0.3970 -0.4092
  483TMC3    O1 7193   4.403   0.237   0.922 -0.0374 -0.0057  0.9149
  483TMC3    O2 7194   4.617   0.614   0.378  0.5577 -0.1832 -0.4259
  484MPD2     C 7195   2.759   3.439  13.049  0.1099  0.3096 -0.3888
  484MPD2    C1 7196   2.679   3.395  12.941 -0.2519  0.1257  0.0322
  484MPD2    C2 7197   2.724   3.402  12.810  0.8870 -0.3816  0.2427
  484MPD2    C3 7198   2.845   3.467  12.788  0.2539 -0.5547 -0.9619
  484MPD2    C4 7199   2.911   3.518  12.900  0.1266  0.1311  0.8052
  484MPD2    C5 7200   2.873   3.501  13.026  0.1840  0.5629 -0.7137
  484MPD2     H 7201   2.664   3.365  12.727  1.4367  1.8690 -1.1595
  484MPD2    H1 7202   2.999   3.580  12.892 -0.2835  0.9341  2.5115
  484MPD2    H2 7203   2.717   3.426  13.148  1.8990  0.5616  0.4091
  484MPD2    H3 7204   2.935   3.544  13.104  0.2306 -0.4456 -0.1976
  484MPD2     N 7205   2.903   3.476  12.658  0.3696  0.3778 -0.0307
  484MPD2    H5 7206   2.992   3.521  12.644  0.4112  0.4271  0.3996
  484MPD2    N1 7207   2.549   3.345  12.969 -0.1526 -0.1179  0.5728
  484MPD2    H7 7208   2.532   3.319  13.066  1.4698 -0.0360  0.8800
  485TMC3    C1 7209   2.936   3.461  12.431  0.5002 -0.1183  0.2874
  485TMC3    C2 7210   3.068   3.439  12.443  0.1295 -0.5030  0.3208
  485TMC3    C3 7211   3.152   3.492  12.346 -0.1000  0.1429  0.4889
  485TMC3    C4 7212   2.882   3.538  12.336  0.1459  0.1379  0.2235
  485TMC3    C5 7213   2.965   3.598  12.245  0.9045 -0.4008 -0.2996
  485TMC3    C6 7214   3.101   3.581  12.255  0.3299  0.6525 -0.3190
  485TMC3     C 7215   2.850   3.427  12.542 -0.5290  0.0483 -0.3420
  485TMC3     O 7216   2.740   3.380  12.520  0.0749  0.3155  1.2882
  485TMC3     H 7217   3.100   3.381  12.530  1.7143 -0.2848 -0.1058
  485TMC3    H1 7218   2.774   3.541  12.325  0.4035 -0.8404 -2.4072
  485TMC3    H2 7219   3.165   3.629  12.182 -0.8424  0.3369 -1.5625
  485TMC3    C7 7220   2.914   3.605  12.107 -0.1319 -0.4641 -0.1769
  485TMC3    C8 7221   3.223   3.389  12.266  0.0919  0.4287 -0.5221
  485TMC3    O1 7222   2.806   3.669  12.089 -0.2451 -0.2551 -0.0007
  485TMC3    O2 7223   3.227   3.419  12.149  0.8067  0.0904  0.5709
  486MPD2     C 7224   4.588   2.204  13.070  0.5419 -0.1158 -0.3514
  486MPD2    C1 7225   4.458   2.188  13.032  0.1073  0.0560 -0.8999
  486MPD2    C2 7226   4.400   2.271  12.944  0.0455 -0.4780 -0.1094
  486MPD2    C3 7227   4.470   2.375  12.895 -0.0309 -0.0276  0.6924
  486MPD2    C4 7228   4.601   2.393  12.929 -0.3975  0.1336  0.4341
  486MPD2    C5 7229   4.655   2.312  13.021 -0.3574 -0.5701  0.1746
  486MPD2     H 7230   4.294   2.265  12.922 -0.1231 -2.0946  1.1390
  486MPD2    H1 7231   4.669   2.464  12.884  0.7546 -0.5660  1.0471
  486MPD2    H2 7232   4.644   2.134  13.132 -1.5741 -2.0533 -0.6421
  486MPD2    H3 7233   0.037   2.334  13.052 -1.0354  0.0545  1.9936
  486MPD2     N 7234   4.399   2.468  12.812  0.4718 -0.2161  0.0342
  486MPD2    H5 7235   4.302   2.445  12.796  0.6112  0.2008 -1.3956
  486MPD2    N1 7236   4.387   2.080  13.098 -0.5600 -0.0666  0.2578
  486MPD2    H7 7237   4.440   2.024  13.164 -1.1840  0.7838  1.4979
  487TMC3    C1 7238   4.193   1.951  13.166 -0.1793 -0.7216 -0.6243
  487TMC3    C2 7239   4.087   1.870  13.125  0.4259 -0.5472 -0.2341
  487TMC3    C3 7240   4.042   1.769  13.205 -0.3595 -0.0799  0.6673
  487TMC3    C4 7241   4.253   1.926  13.288 -0.4160 -0.5166 -0.5818
  487TMC3    C5 7242   4.209   1.819  13.366  0.1870 -0.0795 -0.4757
  487TMC3    C6 7243   4.105   1.739  13.322  0.2330  0.0438 -0.8747
  487TMC3     C 7244   4.258   2.040  13.068  0.2478  0.3261 -0.0690
  487TMC3     O 7245   4.201   2.046  12.960  0.4036  0.2653 -0.1914
  487TMC3     H 7246   4.048   1.892  13.026 -1.8810 -1.4933  0.4435
  487TMC3    H1 7247   4.317   2.006  13.325 -1.1559  0.3828 -1.2288
  487TMC3    H2 7248   4.084   1.641  13.364  0.1736  0.5256  0.2103
  487TMC3    C7 7249   4.209   1.836  13.512  0.3034  0.4544 -0.0231
  487TMC3    C8 7250   3.903   1.746  13.212 -0.2159  0.3271  0.0349
  487TMC3    O1 7251   4.319   1.812  13.573  0.1570 -0.1749  0.0545
  487TMC3    O2 7252   3.870   1.706  13.321 -0.2130  0.1926  0.0066
  488MPD2     C 7253   4.590   3.947  16.403  0.2089 -0.0882 -0.8136
  488MPD2    C1 7254   4.654   4.019  16.497 -0.0863  0.1974 -0.4184
  488MPD2    C2 7255   4.602   3.996  16.625  0.6925  0.0484 -0.1854
  488MPD2    C3 7256   4.494   3.915  16.661  0.5963 -0.0950 -0.2829
  488MPD2    C4 7257   4.434   3.856  16.560 -0.1749  0.2958 -0.7516
  488MPD2    C5 7258   4.478   3.874  16.429 -0.3933 -0.2540 -0.4203
  488MPD2     H 7259   4.656   4.039  16.709 -1.6655 -2.0775  2.4296
  488MPD2    H1 7260   4.355   3.785  16.581  0.4106 -0.3411 -0.6958
  488MPD2    H2 7261   4.609   3.964  16.297  2.6427  0.9362 -0.2195
  488MPD2    H3 7262   4.430   3.826  16.345  0.8467  0.0974 -1.3341
  488MPD2     N 7263   4.456   3.907  16.796  0.6230  0.1723 -0.1792
  488MPD2    H5 7264   4.515   3.951  16.867 -0.4341  1.4467 -0.0934
  488MPD2    N1 7265   0.026   4.123  16.463  0.8837  0.0621 -0.5007
  488MPD2    H7 7266   0.063   4.183  16.536  0.5590  0.2745 -0.5101
  489TMC3    C1 7267   4.315   3.863  16.968  0.4062  0.5074 -0.7076
  489TMC3    C2 7268   4.210   3.953  16.981 -0.3820 -0.2426  0.5681
  489TMC3    C3 7269   4.231   4.063  17.063 -0.2671  0.4465  0.1573
  489TMC3    C4 7270   4.416   3.851  17.055  0.0046 -0.0295 -0.3750
  489TMC3    C5 7271   4.429   3.954  17.143 -0.2725  0.4623  0.1259
  489TMC3    C6 7272   4.344   4.066  17.146 -0.5607  0.2230 -0.1881
  489TMC3     C 7273   4.336   3.844  16.831 -0.7387 -0.0605 -0.4779
  489TMC3     O 7274   4.233   3.824  16.768 -0.5207 -0.5517  0.0063
  489TMC3     H 7275   4.124   3.951  16.915 -1.1374  1.2488  1.5055
  489TMC3    H1 7276   4.490   3.772  17.049 -0.9541 -0.8128 -2.0242
  489TMC3    H2 7277   4.375   4.155  17.199  2.0273 -1.6362  1.3939
  489TMC3    C7 7278   4.523   3.949  17.253  0.8052  0.2496  0.3512
  489TMC3    C8 7279   4.222   4.194  16.987  0.0467  0.1053 -0.2243
  489TMC3    O1 7280   4.533   4.044  17.331 -0.2683 -0.4419  0.3818
  489TMC3    O2 7281   4.261   4.293  17.051  0.0817  0.2826 -0.0926
  490MPD2     C 7282   0.593   3.366  16.965 -0.3316  0.0806  0.6980
  490MPD2    C1 7283   0.647   3.326  17.083  0.0213  0.8390 -0.0374
  490MPD2    C2 7284   0.748   3.393  17.143 -0.2626 -0.0272  0.5325
  490MPD2    C3 7285   0.793   3.518  17.093 -0.3063  0.1682  0.9549
  490MPD2    C4 7286   0.746   3.552  16.968  0.1871 -0.0361  0.2576
  490MPD2    C5 7287   0.649   3.478  16.902 -0.4329 -0.0882 -0.5514
  490MPD2     H 7288   0.778   3.352  17.239 -0.7061 -2.4178 -0.3341
  490MPD2    H1 7289   0.782   3.639  16.915 -1.4507 -0.0728 -0.9118
  490MPD2    H2 7290   0.520   3.305  16.913 -2.5618  1.1888  2.5340
  490MPD2    H3 7291   0.609   3.517  16.809 -0.1897  0.9462 -0.2251
  490MPD2     N 7292   0.901   3.592  17.147 -0.2581 -0.1066 -0.0432
  490MPD2    H5 7293   0.927   3.677  17.098  1.2502  0.2989  1.4793
  490MPD2    N1 7294   0.603   3.215  17.157  0.3056  0.5242  0.5580
  490MPD2    H7 7295   0.637   3.214  17.252 -0.7025 -2.5468  0.8822
  491TMC3    C1 7296   0.488   3.019  17.214 -0.1048 -0.1171 -0.4229
  491TMC3    C2 7297   0.546   3.019  17.332  0.0932 -0.2432 -0.0710
  491TMC3    C3 7298   0.489   2.947  17.433  0.6561 -0.4708  0.2631
  491TMC3    C4 7299   0.370   2.945  17.185  0.5813 -0.7017  0.4802
  491TMC3    C5 7300   0.324   2.868  17.284  0.4271 -0.3384 -0.1529
  491TMC3    C6 7301   0.372   2.876  17.411  0.0233 -0.0669 -0.2427
  491TMC3     C 7302   0.516   3.123  17.117  0.3125 -0.6534  0.5418
  491TMC3     O 7303   0.474   3.102  17.002 -0.3916  0.0894  0.8328
  491TMC3     H 7304   0.650   3.048  17.343 -0.8771  3.6512 -1.2674
  491TMC3    H1 7305   0.344   2.933  17.080 -0.3748  1.4350  0.4693
  491TMC3    H2 7306   0.337   2.815  17.493 -0.3367  0.3110 -0.1163
  491TMC3    C7 7307   0.213   2.784  17.252 -0.2885 -0.3981 -0.3284
  491TMC3    C8 7308   0.532   2.953  17.574 -0.2112  0.3486 -0.5957
  491TMC3    O1 7309   0.146   2.809  17.153  0.0837 -0.5769  0.4336
  491TMC3    O2 7310   0.484   2.862  17.645 -0.7009  0.5596 -0.1313
  492MPD2     C 7311   0.484   3.062  11.099 -0.1840 -0.1399 -0.1608
  492MPD2    C1 7312   0.431   2.988  10.996 -0.7554  0.3207  0.1030
  492MPD2    C2 7313   0.353   2.878  11.026  0.1185  0.0469  0.1481
  492MPD2    C3 7314   0.321   2.849  11.162  0.2644 -0.4383  0.1545
  492MPD2    C4 7315   0.374   2.925  11.263 -0.1389 -0.3201  0.2343
  492MPD2    C5 7316   0.458   3.033  11.227  0.9133  0.5703 -0.0591
  492MPD2     H 7317   0.307   2.819  10.947  1.2107 -1.3549  0.5464
  492MPD2    H1 7318   0.353   2.916  11.369 -0.8660  0.1034  0.1223
  492MPD2    H2 7319   0.546   3.148  11.077 -1.9712  1.2970  0.3374
  492MPD2    H3 7320   0.498   3.091  11.309  1.5764  1.0987 -0.7617
  492MPD2     N 7321   0.235   2.743  11.205  0.1215 -0.4802  0.3385
  492MPD2    H5 7322   0.224   2.742  11.306 -0.3054  0.9188  0.2976
  492MPD2    N1 7323   0.452   3.039  10.864  0.2973 -0.1137  0.4278
  492MPD2    H7 7324   0.508   3.123  10.872 -2.6027  1.5404  3.1445
  493TMC3    C1 7325   0.463   3.069  10.634  0.2643 -0.1501 -0.0123
  493TMC3    C2 7326   0.593   3.118  10.651  0.3805  1.4234  0.6042
  493TMC3    C3 7327   0.655   3.163  10.535  0.2136  0.2563 -0.5851
  493TMC3    C4 7328   0.401   3.060  10.505  0.2827  0.4059 -0.5670
  493TMC3    C5 7329   0.475   3.098  10.395  0.7832  0.7051  0.2497
  493TMC3    C6 7330   0.601   3.153  10.408 -0.7616 -0.0986  0.9234
  493TMC3     C 7331   0.401   2.998  10.744  0.4083 -1.0609 -0.1278
  493TMC3     O 7332   0.321   2.912  10.716 -0.4828  0.3564  0.0367
  493TMC3     H 7333   0.654   3.130  10.739 -1.1300 -0.5691  1.9358
  493TMC3    H1 7334   0.309   3.002  10.505 -0.3447  1.4091 -1.4172
  493TMC3    H2 7335   0.656   3.193  10.324 -0.4779 -1.4981  0.4459
  493TMC3    C7 7336   0.414   3.093  10.266  0.6705  0.0136  0.0488
  493TMC3    C8 7337   0.797   3.188  10.548 -0.3476  0.1838 -0.5244
  493TMC3    O1 7338   0.328   3.006  10.269  0.4062  0.0769 -0.4519
  493TMC3    O2 7339   0.856   3.128  10.643 -0.1636  0.3295  0.4341
  494TMC3    C1 7340   1.165   0.235   0.653  0.1413  0.1305 -0.6099
  494TMC3    C2 7341   1.266   0.150   0.699 -0.8539 -0.0644 -0.0022
  494TMC3    C3 7342   1.387   0.145   0.625 -0.2468  0.5205  0.0303
  494TMC3    C4 7343   1.179   0.315   0.540 -0.2291 -0.3681  0.2300
  494TMC3    C5 7344   1.299   0.313   0.470  0.5434 -0.6024 -0.1938
  494TMC3    C6 7345   1.399   0.227   0.513 -0.5472  0.6085  0.4746
  494TMC3     C 7346   1.041   0.232   0.727  0.1251 -0.2482 -0.0745
  494TMC3     O 7347   1.046   0.207   0.844 -0.7098 -0.4041 -0.4131
  494TMC3     H 7348   1.255   0.105   0.797  1.1132 -0.2798  0.1211
  494TMC3    H1 7349   1.105   0.393   0.523  0.2782 -0.0783 -0.6455
  494TMC3    H2 7350   1.483   0.216   0.446 -2.0835 -0.1005 -1.3257
  494TMC3    C7 7351   1.316   0.365   0.331 -0.2060 -0.4007  0.8029
  494TMC3    C8 7352   1.461   0.017   0.603  0.9716  0.3735 -0.1197
  494TMC3    O1 7353   1.430   0.366   0.288  0.0388 -0.4770  0.1407
  494TMC3    O2 7354   1.531   0.016   0.500  0.8173 -0.2557  0.3319
  495TMC3    C1 7355   0.699   2.407  14.520  0.8597  0.3251  0.5773
  495TMC3    C2 7356   0.646   2.465  14.406  0.2934 -0.1828 -0.4578
  495TMC3    C3 7357   0.558   2.575  14.417  0.3510 -0.2030  0.7234
  495TMC3    C4 7358   0.693   2.475  14.643 -0.6614 -0.3362  0.2151
  495TMC3    C5 7359   0.609   2.580  14.656  1.6090  0.5937  0.4764
  495TMC3    C6 7360   0.532   2.628  14.544  0.7474 -0.4756  0.8624
  495TMC3     C 7361   0.764   2.281  14.510 -0.3069  0.4388 -0.3066
  495TMC3     O 7362   0.855   2.272  14.591 -0.1892 -0.6321 -0.0742
  495TMC3     H 7363   0.656   2.406  14.315  2.2241  2.8964 -2.2511
  495TMC3    H1 7364   0.747   2.429  14.725  0.6448  2.0337  0.6780
  495TMC3    H2 7365   0.491   2.728  14.553  1.6859  0.0872 -1.2676
  495TMC3    C7 7366   0.536   2.588  14.777  0.8083 -0.0421  0.6847
  495TMC3    C8 7367   0.428   2.557  14.354 -0.1876  0.1875  0.0265
  495TMC3    O1 7368   0.589   2.584  14.887  0.4099  0.1510  0.0974
  495TMC3    O2 7369   0.333   2.604  14.410 -0.3522 -0.5066 -0.4246
  496MPD2     C 7370   2.212   2.327  15.993 -0.2280  0.3461 -0.4288
  496MPD2    C1 7371   2.163   2.205  15.961  0.2682  0.4211 -0.3353
  496MPD2    C2 7372   2.096   2.137  16.058 -0.5728 -0.2312  0.1477
  496MPD2    C3 7373   2.078   2.180  16.188  0.0758 -0.2797  0.3387
  496MPD2    C4 7374   2.149   2.295  16.218  0.1313  0.0658  0.0257
  496MPD2    C5 7375   2.203   2.378  16.118 -0.1124 -0.0513  0.2456
  496MPD2     H 7376   2.064   2.034  16.046 -0.1191 -0.5352  1.5740
  496MPD2    H1 7377   2.156   2.330  16.321  0.1932  0.2391 -0.0384
  496MPD2    H2 7378   2.265   2.390  15.922 -0.6008  1.8784  0.6636
  496MPD2    H3 7379   2.259   2.466  16.147  1.2665 -1.0822  0.6889
  496MPD2     N 7380   2.005   2.113  16.292  0.2269  0.2073  0.1998
  496MPD2    H5 7381   2.004   2.158  16.382 -0.5494  1.8381 -0.6319
  496MPD2    N1 7382   2.187   2.159  15.835  0.7207 -0.4408 -0.5740
  496MPD2    H7 7383   2.243   2.218  15.775 -2.1969  0.4877 -2.3719
  497TMC3    C1 7384   1.851   1.971  16.390  1.0197 -0.0683 -0.6262
  497TMC3    C2 7385   1.744   1.888  16.356  0.3368  0.6120  0.0307
  497TMC3    C3 7386   1.709   1.773  16.426 -0.3128 -0.2766  0.1409
  497TMC3    C4 7387   1.926   1.932  16.496  0.3825 -0.3524 -0.4338
  497TMC3    C5 7388   1.898   1.818  16.572  0.4461  0.6761 -0.0575
  497TMC3    C6 7389   1.787   1.740  16.539  0.6240 -0.3880  0.0750
  497TMC3     C 7390   1.928   2.002  16.268  0.0605 -0.3369  0.2121
  497TMC3     O 7391   1.886   1.950  16.165 -0.1516  0.2257 -0.1849
  497TMC3     H 7392   1.665   1.931  16.295  0.6702  4.2993  2.1848
  497TMC3    H1 7393   2.021   1.980  16.517 -0.7707  1.6988  0.0686
  497TMC3    H2 7394   1.765   1.648  16.592 -0.9567 -0.2266 -0.3216
  497TMC3    C7 7395   1.943   1.816  16.708  0.2004 -0.3509 -0.1125
  497TMC3    C8 7396   1.687   1.663  16.334 -0.5023  0.1945 -0.3740
  497TMC3    O1 7397   1.861   1.801  16.795 -0.1582 -0.1137 -0.5109
  497TMC3    O2 7398   1.673   1.548  16.375 -0.1781  0.6095 -0.4673
  498MPD2     C 7399   2.587   3.260   9.777  0.1227  0.9250  0.0730
  498MPD2    C1 7400   2.589   3.128   9.797 -0.4360  0.3853  0.4812
  498MPD2    C2 7401   2.477   3.049   9.806 -0.1508  0.7390  0.1216
  498MPD2    C3 7402   2.356   3.105   9.777 -0.2666  0.1963 -0.1360
  498MPD2    C4 7403   2.351   3.239   9.747  0.6728 -0.5029 -0.6021
  498MPD2    C5 7404   2.464   3.312   9.736 -0.2872  0.8066 -0.2935
  498MPD2     H 7405   2.484   2.945   9.836 -2.7155  1.4108  3.1011
  498MPD2    H1 7406   2.261   3.291   9.717  2.3667  3.3212  0.8586
  498MPD2    H2 7407   2.670   3.330   9.783  0.5358  0.1519  3.5290
  498MPD2    H3 7408   2.452   3.413   9.699 -1.0537  0.0758 -2.0351
  498MPD2     N 7409   2.239   3.028   9.800  0.9276  0.1272 -0.0779
  498MPD2    H5 7410   2.247   2.937   9.844  0.9376  0.4792  0.6591
  498MPD2    N1 7411   2.719   3.083   9.839 -0.2041  0.4293 -0.3034
  498MPD2    H7 7412   2.790   3.154   9.853 -2.3640  2.1919  1.7023
  499TMC3    C1 7413   2.896   2.927   9.873  0.0463  0.0492 -0.5648
  499TMC3    C2 7414   2.942   2.801   9.867 -0.2177  0.4035  0.1137
  499TMC3    C3 7415   3.079   2.783   9.866 -0.1311  0.5987 -0.4411
  499TMC3    C4 7416   2.982   3.036   9.879 -0.5671 -0.1774  0.3042
  499TMC3    C5 7417   3.119   3.016   9.881  0.0330  0.6014 -0.0819
  499TMC3    C6 7418   3.169   2.888   9.880  0.9696  0.0626  0.8301
  499TMC3     C 7419   2.756   2.948   9.845  0.0241 -0.2799  1.3145
  499TMC3     O 7420   2.683   2.851   9.835  0.2377  0.1922 -0.1433
  499TMC3     H 7421   2.876   2.721   9.839  1.3204 -0.5767 -0.7369
  499TMC3    H1 7422   2.950   3.140   9.882 -0.9105 -0.2231 -1.6724
  499TMC3    H2 7423   3.277   2.877   9.880  1.0166  0.5499  1.8130
  499TMC3    C7 7424   3.211   3.134   9.900 -0.2858 -0.2579  0.6871
  499TMC3    C8 7425   3.142   2.663   9.821 -0.5888  0.7082 -0.6017
  499TMC3    O1 7426   3.153   3.229   9.944 -0.0734 -0.0743  0.1165
  499TMC3    O2 7427   3.258   2.681   9.784  0.3769  0.3041 -0.4471
  500MPD2     C 7428   4.466   4.015  10.225 -0.4665  0.3641 -0.1713
  500MPD2    C1 7429   4.545   4.133  10.225 -1.0845 -0.2617  0.1822
  500MPD2    C2 7430   4.479   4.255  10.227  0.3220  0.3240 -0.3562
  500MPD2    C3 7431   4.342   4.258  10.250 -0.2313 -0.7724  0.3851
  500MPD2    C4 7432   4.269   4.141  10.246  0.1912  0.1535 -0.2323
  500MPD2    C5 7433   4.333   4.019  10.235  0.4045  0.2965  0.4214
  500MPD2     H 7434   4.541   4.343  10.215 -1.7636  1.5963 -1.6885
  500MPD2    H1 7435   4.161   4.149  10.246  0.0543 -1.6847  3.0779
  500MPD2    H2 7436   4.504   3.914  10.216 -2.4153 -0.3796 -0.0633
  500MPD2    H3 7437   4.280   3.925  10.235  0.6319  0.1675  0.0725
  500MPD2     N 7438   4.264   4.378  10.245  0.2379 -0.2629 -0.5389
  500MPD2    H5 7439   4.164   4.363  10.250  0.0383  0.2838 -3.0984
  500MPD2    N1 7440   4.682   4.134  10.204 -0.4597 -0.5816  0.3714
  500MPD2    H7 7441   0.009   4.223  10.196 -1.4424 -0.1218 -0.2840
  501TMC3    C1 7442   0.176   4.038  10.189  0.8437  0.3350 -0.9926
  501TMC3    C2 7443   0.212   4.145  10.114 -0.4515  0.1324  0.8613
  501TMC3    C3 7444   0.346   4.171  10.095 -0.3072  0.1849 -0.3613
  501TMC3    C4 7445   0.264   3.960  10.262 -0.7806 -0.2837  0.6946
  501TMC3    C5 7446   0.391   4.001  10.252 -0.1029 -0.5803 -0.0216
  501TMC3    C6 7447   0.440   4.096  10.165 -0.2953  0.3558  0.6068
  501TMC3     C 7448   0.036   4.018  10.203 -0.5682  0.0126 -0.3379
  501TMC3     O 7449   0.006   3.905  10.238 -0.3046 -0.7475 -0.2791
  501TMC3     H 7450   0.138   4.194  10.052  1.6341  1.0379 -0.9285
  501TMC3    H1 7451   0.223   3.887  10.331  0.3333 -2.3252 -0.7848
  501TMC3    H2 7452   0.544   4.124  10.168  0.7499 -2.8374 -4.3025
  501TMC3    C7 7453   0.460   3.996  10.378 -0.3433  0.9609 -0.4231
  501TMC3    C8 7454   0.394   4.304  10.066  0.0940 -0.6169  0.0635
  501TMC3    O1 7455   0.463   3.897  10.450  0.3875  0.1233 -0.2128
  501TMC3    O2 7456   0.488   4.345  10.136  0.0391  0.3724 -0.5506
  502TMC3    C1 7457   4.273   3.040  14.975 -0.0611  0.6798  0.0018
  502TMC3    C2 7458   4.286   3.164  14.918 -0.1877 -0.1728  0.1347
  502TMC3    C3 7459   4.173   3.223  14.864 -0.0845 -0.1850 -0.6244
  502TMC3    C4 7460   4.145   2.981  14.992  0.3248  0.5607 -1.3617
  502TMC3    C5 7461   4.043   3.028  14.914 -0.5032  0.1198 -0.5190
  502TMC3    C6 7462   4.055   3.151  14.860  0.2791  0.5429 -0.2660
  502TMC3     C 7463   4.352   3.023  15.085 -0.0323  0.1865  0.4962
  502TMC3     O 7464   4.472   3.027  15.067  0.3701  0.0292  0.3587
  502TMC3     H 7465   4.383   3.212  14.908  0.6183 -1.6093  1.1510
  502TMC3    H1 7466   4.132   2.886  15.042  0.7753  1.6146  0.7646
  502TMC3    H2 7467   3.975   3.192  14.799 -0.6932 -0.5703  0.2483
  502TMC3    C7 7468   3.912   2.980  14.937  0.1923  0.3204  0.5330
  502TMC3    C8 7469   4.184   3.333  14.769 -0.2152 -0.1639  0.3799
  502TMC3    O1 7470   3.831   3.067  14.910  0.4931  0.6403 -0.3231
  502TMC3    O2 7471   4.093   3.338  14.685  0.0769  0.2244 -0.2996
  503MPD2     C 7472   1.781   3.817  16.826 -0.3321 -0.4410 -0.2542
  503MPD2    C1 7473   1.747   3.820  16.956  0.6326 -0.3962  0.2253
  503MPD2    C2 7474   1.777   3.708  17.032 -0.0548 -0.1803 -0.6035
  503MPD2    C3 7475   1.834   3.599  16.973 -1.3024  0.2697 -0.5530
  503MPD2    C4 7476   1.866   3.595  16.839  0.3046  0.1915 -0.1916
  503MPD2    C5 7477   1.837   3.705  16.770 -0.4387  0.6301 -0.3691
  503MPD2     H 7478   1.750   3.695  17.136  4.1061  0.5998  0.5705
  503MPD2    H1 7479   1.900   3.504  16.790 -0.2226  0.5660 -1.2407
  503MPD2    H2 7480   1.759   3.902  16.762  0.2625 -0.1191 -0.0342
  503MPD2    H3 7481   1.859   3.711  16.665 -0.8160  1.2317 -0.4178
  503MPD2     N 7482   1.878   3.486  17.054 -0.0769 -0.0764  0.2687
  503MPD2    H5 7483   1.866   3.508  17.152  0.5729  0.1499  0.2954
  503MPD2    N1 7484   1.667   3.923  17.018 -0.1811  0.3321  0.6833
  503MPD2    H7 7485   1.631   3.904  17.111  0.3316 -2.9370  0.2177
  504TMC3    C1 7486   1.993   3.296  17.125  0.3731 -0.1880 -0.3615
  504TMC3    C2 7487   2.012   3.351  17.251 -0.2143  0.0786  1.1379
  504TMC3    C3 7488   2.126   3.317  17.311  0.3844  0.6051 -0.4724
  504TMC3    C4 7489   2.085   3.213  17.074  0.7380 -0.2201  0.1364
  504TMC3    C5 7490   2.195   3.176  17.143 -0.3029  0.1737 -0.3667
  504TMC3    C6 7491   2.223   3.239  17.261  0.5396  0.0288 -0.9376
  504TMC3     C 7492   1.929   3.365  17.015  0.7199 -0.8843 -0.0999
  504TMC3     O 7493   1.920   3.317  16.903 -0.1740 -0.0428  0.2210
  504TMC3     H 7494   1.943   3.424  17.292 -1.2665 -0.0925 -0.3295
  504TMC3    H1 7495   2.068   3.163  16.980 -0.9030 -1.5420  1.1297
  504TMC3    H2 7496   2.314   3.216  17.316  0.9119  1.4375 -0.9616
  504TMC3    C7 7497   2.291   3.085  17.087  0.0470 -0.4311  0.3274
  504TMC3    C8 7498   2.137   3.346  17.453  0.0655 -0.5394 -0.8587
  504TMC3    O1 7499   2.285   3.066  16.970  0.1436 -0.4086 -0.1829
  504TMC3    O2 7500   2.248   3.379  17.500  0.2982 -0.4955  0.2778
  505MPD2     C 7501   1.097   2.089  10.365  0.3231 -0.1926 -0.3293
  505MPD2    C1 7502   1.202   2.034  10.301  0.4831  0.7637  0.3923
  505MPD2    C2 7503   1.330   2.028  10.361  0.4612 -0.1715 -0.9834
  505MPD2    C3 7504   1.346   2.089  10.486  0.2542  0.1836  0.1518
  505MPD2    C4 7505   1.236   2.138  10.556 -0.4348 -0.2611 -0.3129
  505MPD2    C5 7506   1.118   2.140  10.491 -0.2155  1.3144 -0.9206
  505MPD2     H 7507   1.420   1.994  10.311  1.1050 -1.2171  0.8857
  505MPD2    H1 7508   1.247   2.188  10.652  0.9492 -1.9727  0.4137
  505MPD2    H2 7509   0.993   2.090  10.335  0.2145  3.0502  0.0654
  505MPD2    H3 7510   1.031   2.185  10.538 -1.1133 -3.0488  1.6040
  505MPD2     N 7511   1.475   2.071  10.546 -0.2368 -0.0165 -0.5738
  505MPD2    H5 7512   1.544   2.032  10.483 -0.9076 -1.1728 -0.5945
  505MPD2    N1 7513   1.180   1.978  10.170  0.4932  0.0933  0.1356
  505MPD2    H7 7514   1.091   1.998  10.127 -0.9643 -1.5266  2.4082
  506TMC3    C1 7515   1.246   1.955   9.952 -0.1466  0.3899  0.0236
  506TMC3    C2 7516   1.198   2.086   9.921 -0.4898  0.2349 -0.1063
  506TMC3    C3 7517   1.246   2.148   9.808 -0.0285 -0.5493 -0.3626
  506TMC3    C4 7518   1.350   1.906   9.873 -0.3964 -0.3123  0.0678
  506TMC3    C5 7519   1.397   1.985   9.769  0.6522 -0.0075 -0.5699
  506TMC3    C6 7520   1.347   2.103   9.732 -0.1670  0.2792  0.2835
  506TMC3     C 7521   1.273   1.921  10.087  0.1061  0.4981 -0.5572
  506TMC3     O 7522   1.386   1.880  10.108  0.1351 -0.0712 -0.0739
  506TMC3     H 7523   1.126   2.135   9.985  2.5507  1.0602  2.6741
  506TMC3    H1 7524   1.386   1.806   9.894  1.4598  0.6573  1.5825
  506TMC3    H2 7525   1.389   2.138   9.638  0.2015  2.1965  1.1618
  506TMC3    C7 7526   1.541   1.978   9.764  0.9733  0.1832 -0.0703
  506TMC3    C8 7527   1.222   2.287   9.796  0.3732 -0.0507  0.3080
  506TMC3    O1 7528   1.603   2.033   9.671 -0.5987 -0.2500 -0.7792
  506TMC3    O2 7529   1.119   2.310   9.735 -0.3206 -0.6967  0.1724
  507TMC3    C1 7530   2.930   3.343  14.593  0.5802  0.1212  0.4056
  507TMC3    C2 7531   2.866   3.249  14.517 -0.3329  0.5784 -0.1101
  507TMC3    C3 7532   2.909   3.228  14.386 -0.2708  0.3688  0.8641
  507TMC3    C4 7533   3.048   3.406  14.554  0.0113 -0.1229  0.7032
  507TMC3    C5 7534   3.072   3.393  14.425 -0.6668 -0.8321  0.3416
  507TMC3    C6 7535   3.014   3.302  14.344 -0.4121  0.5441  0.3318
  507TMC3     C 7536   2.894   3.354  14.734  0.1565 -0.6256 -0.0774
  507TMC3     O 7537   2.958   3.426  14.809 -0.2902 -0.0619 -0.2118
  507TMC3     H 7538   2.781   3.188  14.544  0.4268 -0.2469  0.4064
  507TMC3    H1 7539   3.091   3.484  14.616 -2.7137  0.7102  1.5426
  507TMC3    H2 7540   3.039   3.305  14.239  3.5133  2.2117  1.3052
  507TMC3    C7 7541   3.066   3.522  14.353 -0.1171  0.5087 -0.4121
  507TMC3    C8 7542   2.791   3.223  14.304  0.1241  0.0112  0.2881
  507TMC3    O1 7543   2.999   3.523  14.250 -0.2558 -0.4955 -0.3368
  507TMC3    O2 7544   2.695   3.153  14.335  0.2812 -0.1324 -0.5175
  508MPD2     C 7545   3.286   1.208  15.881 -0.0650  0.3096 -0.4763
  508MPD2    C1 7546   3.388   1.301  15.888  0.3268  0.0613  0.2339
  508MPD2    C2 7547   3.457   1.336  15.773  0.1538  0.1548  0.1513
  508MPD2    C3 7548   3.441   1.265  15.658  0.0612  0.1590  0.3831
  508MPD2    C4 7549   3.360   1.159  15.657  0.5010  0.2724 -0.1267
  508MPD2    C5 7550   3.282   1.125  15.769 -0.2062 -0.0261  0.0665
  508MPD2     H 7551   3.537   1.409  15.772 -0.8414  1.2278 -1.5152
  508MPD2    H1 7552   3.335   1.108  15.565  0.3437 -1.1463  0.7090
  508MPD2    H2 7553   3.245   1.169  15.973 -0.0583  1.8059  0.1709
  508MPD2    H3 7554   3.209   1.044  15.772 -1.4798  1.0757 -1.5349
  508MPD2     N 7555   3.516   1.299  15.540 -0.0817 -0.0852 -0.4319
  508MPD2    H5 7556   3.575   1.381  15.554 -1.8460  1.2405 -0.6800
  508MPD2    N1 7557   3.437   1.369  16.007  0.4232  0.4576  0.2260
  508MPD2    H7 7558   3.512   1.434  15.985  0.0630  1.0001  0.5753
  509TMC3    C1 7559   3.537   1.504  15.151  0.0506  0.1142 -0.2685
  509TMC3    C2 7560   3.665   1.550  15.176 -0.6003  0.2611 -0.1375
  509TMC3    C3 7561   3.734   1.489  15.277 -0.6299  0.4019 -0.1003
  509TMC3    C4 7562   3.481   1.402  15.222 -0.5682  0.1651 -0.3288
  509TMC3    C5 7563   3.554   1.348  15.315 -0.0123  0.1291 -0.2855
  509TMC3    C6 7564   3.683   1.388  15.346  0.5912 -0.5316  0.1818
  509TMC3     C 7565   3.443   1.579  15.069 -0.5090 -0.1250 -0.6929
  509TMC3     O 7566   3.346   1.514  15.024  0.4194 -0.1401  0.2975
  509TMC3     H 7567   3.727   1.615  15.116 -2.4974  1.2122 -1.0570
  509TMC3    H1 7568   3.396   1.347  15.184 -1.5912  1.2128  0.4295
  509TMC3    H2 7569   3.741   1.342  15.425  1.0584 -0.1359  0.0711
  509TMC3    C7 7570   3.492   1.255  15.408  0.2870 -0.7758  1.3293
  509TMC3    C8 7571   3.874   1.510  15.291  0.0821 -0.9345  0.2231
  509TMC3    O1 7572   3.402   1.182  15.362  0.5324  0.0964 -0.1281
  509TMC3    O2 7573   3.951   1.420  15.312  0.0344 -0.4035  0.4327
  510MPD2     C 7574   1.592   2.756  14.641  0.0426 -0.5018 -0.0079
  510MPD2    C1 7575   1.663   2.657  14.712  0.2489 -0.2553  0.3074
  510MPD2    C2 7576   1.787   2.627  14.662  0.2310 -0.4819  0.0376
  510MPD2    C3 7577   1.842   2.691  14.559 -1.0332 -0.5255 -0.0672
  510MPD2    C4 7578   1.769   2.783  14.488 -0.4894  0.2389 -0.2318
  510MPD2    C5 7579   1.639   2.812  14.528 -0.4189  0.3037  0.1483
  510MPD2     H 7580   1.837   2.538  14.699  1.7342  0.8591  1.2367
  510MPD2    H1 7581   1.806   2.836  14.401  0.6001 -2.9216 -1.7221
  510MPD2    H2 7582   1.508   2.809  14.686  0.9086  2.3904 -1.8068
  510MPD2    H3 7583   1.586   2.892  14.478  1.6644  1.7795  0.2734
  510MPD2     N 7584   1.978   2.670  14.527  0.1769  0.3782  0.7989
  510MPD2    H5 7585   2.029   2.619  14.599 -0.3934 -1.7730 -0.3154
  510MPD2    N1 7586   1.619   2.611  14.837 -0.2687 -1.0418  0.0008
  510MPD2    H7 7587   1.521   2.634  14.850  0.1639 -0.3126  1.9303
  511TMC3    C1 7588   1.590   2.438  14.990 -0.2656 -0.8866 -0.0626
  511TMC3    C2 7589   1.488   2.489  15.057  0.3072  0.1444 -0.8915
  511TMC3    C3 7590   1.405   2.404  15.123  0.0856  0.3141 -0.2166
  511TMC3    C4 7591   1.619   2.302  14.993 -0.4040  0.1074  0.2372
  511TMC3    C5 7592   1.535   2.211  15.051 -0.1342  1.1400  0.0835
  511TMC3    C6 7593   1.422   2.264  15.124  0.5273 -0.5080  0.2826
  511TMC3     C 7594   1.683   2.520  14.914  0.2791 -0.2084  1.0370
  511TMC3     O 7595   1.803   2.491  14.916  0.4563 -0.0499 -0.2451
  511TMC3     H 7596   1.476   2.597  15.066  1.2396  0.1135  0.6102
  511TMC3    H1 7597   1.707   2.262  14.942 -1.6680  0.1316 -1.9720
  511TMC3    H2 7598   1.342   2.197  15.152  0.8056 -1.9758 -2.4353
  511TMC3    C7 7599   1.557   2.074  15.020 -0.0621  0.7726 -0.5068
  511TMC3    C8 7600   1.338   2.458  15.238 -0.0815 -0.7792 -0.0762
  511TMC3    O1 7601   1.636   2.050  14.931  0.3962  0.6469  0.2737
  511TMC3    O2 7602   1.294   2.574  15.223 -0.3304  0.4149  0.2961
  512TMC3    C1 7603   0.229   1.739  13.415  0.0224  0.3081 -0.9077
  512TMC3    C2 7604   0.353   1.761  13.477  0.0848  0.2749 -0.6393
  512TMC3    C3 7605   0.455   1.677  13.453  0.0069  0.1077  0.0444
  512TMC3    C4 7606   0.215   1.645  13.318 -0.3823  0.5869 -0.3750
  512TMC3    C5 7607   0.320   1.563  13.297  0.4823  0.1632 -0.0878
  512TMC3    C6 7608   0.436   1.572  13.366 -0.4228  0.5626  0.2535
  512TMC3     C 7609   0.117   1.831  13.425  0.0558  0.4434  0.3813
  512TMC3     O 7610   0.003   1.785  13.416 -0.2876  0.2198  0.4846
  512TMC3     H 7611   0.374   1.846  13.541 -1.2755 -0.4188  0.7112
  512TMC3    H1 7612   0.115   1.635  13.275 -0.4305 -1.1450  0.1620
  512TMC3    H2 7613   0.511   1.493  13.356  0.4853  1.5644 -0.8412
  512TMC3    C7 7614   0.308   1.450  13.211 -0.3073 -0.1076  0.1559
  512TMC3    C8 7615   0.591   1.698  13.500  0.2217 -0.2899  0.2502
  512TMC3    O1 7616   0.401   1.367  13.202  0.5331  0.0486  0.3766
  512TMC3    O2 7617   0.666   1.612  13.459 -0.6761  0.0794  0.6143
  513MPD2     C 7618   1.892   2.025  12.876  0.4480  0.0222 -0.2793
  513MPD2    C1 7619   1.973   1.932  12.814  0.5090 -0.2723 -0.8176
  513MPD2    C2 7620   2.101   1.964  12.788 -0.0779  0.3516 -0.2448
  513MPD2    C3 7621   2.156   2.080  12.839 -0.5623  0.4710 -0.5034
  513MPD2    C4 7622   2.084   2.169  12.918  0.1462 -0.4404  0.1984
  513MPD2    C5 7623   1.951   2.136  12.933 -0.2145 -0.1803  0.6417
  513MPD2     H 7624   2.167   1.892  12.742  1.2171  1.6333 -0.3872
  513MPD2    H1 7625   2.129   2.257  12.963  1.2402 -1.7747  1.7138
  513MPD2    H2 7626   1.785   2.014  12.887  0.7863 -2.0757  1.1599
  513MPD2    H3 7627   1.889   2.204  12.991  1.0770  0.5868  1.1081
  513MPD2     N 7628   2.296   2.097  12.801 -0.1346  0.9464  0.6842
  513MPD2    H5 7629   2.336   2.018  12.752  0.4940  1.3494  0.5433
  513MPD2    N1 7630   1.910   1.814  12.764  1.4582 -0.0445  0.7725
  513MPD2    H7 7631   1.808   1.818  12.770  1.5035  0.3781  1.1883
  514TMC3    C1 7632   1.861   1.646  12.605  0.2265  0.5278  0.7648
  514TMC3    C2 7633   1.743   1.706  12.579 -0.0026  0.2644 -0.1368
  514TMC3    C3 7634   1.713   1.751  12.450  0.2988 -0.2954  0.2956
  514TMC3    C4 7635   1.919   1.581  12.498  0.6278  0.3279 -0.6102
  514TMC3    C5 7636   1.883   1.620  12.373  0.4615  0.0026  0.6468
  514TMC3    C6 7637   1.783   1.707  12.346  0.0215 -0.6083  0.0102
  514TMC3     C 7638   1.966   1.720  12.684 -0.3776 -0.4058 -0.2651
  514TMC3     O 7639   2.078   1.709  12.640 -0.0527 -0.4808 -0.0786
  514TMC3     H 7640   1.691   1.750  12.663  1.5532  2.2144 -0.2184
  514TMC3    H1 7641   2.001   1.510  12.509 -0.0092 -0.3047  0.0802
  514TMC3    H2 7642   1.758   1.742  12.246 -0.7808 -2.1079 -0.3225
  514TMC3    C7 7643   2.000   1.639  12.280 -0.1496 -0.1112 -0.2364
  514TMC3    C8 7644   1.733   1.897  12.461 -0.5186  0.7520  0.3698
  514TMC3    O1 7645   1.972   1.663  12.160 -0.2251 -0.8076 -0.1270
  514TMC3    O2 7646   1.662   1.945  12.547  0.1499  0.0947 -0.0679
  515MPD2     C 7647   0.332   4.207  14.953  0.0211  0.1500 -0.7432
  515MPD2    C1 7648   0.405   4.083  14.937  0.2104 -0.5157 -0.0002
  515MPD2    C2 7649   0.480   4.026  15.040 -0.3796 -0.0794  0.0223
  515MPD2    C3 7650   0.488   4.096  15.161 -0.5728  0.5846 -0.9025
  515MPD2    C4 7651   0.435   4.218  15.167  0.2088 -0.0061  0.5837
  515MPD2    C5 7652   0.351   4.273  15.068 -0.8459  0.5882 -0.5307
  515MPD2     H 7653   0.519   3.925  15.032  0.0224  0.1883 -1.2962
  515MPD2    H1 7654   0.457   4.288  15.247  0.7049 -0.9056  1.2346
  515MPD2    H2 7655   0.263   4.250  14.880 -0.7358  0.1157 -0.0527
  515MPD2    H3 7656   0.296   4.365  15.084 -1.5410 -0.0860  0.8806
  515MPD2     N 7657   0.566   4.062  15.272  0.0910 -0.7727  0.3337
  515MPD2    H5 7658   0.582   4.140  15.335  1.5261 -1.7416  1.1806
  515MPD2    N1 7659   0.415   4.019  14.810  0.6354  0.1849  0.3015
  515MPD2    H7 7660   0.485   3.947  14.802  0.2805 -0.0078 -1.1036
  516TMC3    C1 7661   0.371   3.983  14.580 -0.5811 -0.7216  0.2494
  516TMC3    C2 7662   0.379   4.044  14.456 -0.4245 -0.5357 -0.6625
  516TMC3    C3 7663   0.431   3.958  14.360 -0.0896  0.7190  0.2476
  516TMC3    C4 7664   0.378   3.850  14.604  0.6195  0.2578  0.4379
  516TMC3    C5 7665   0.432   3.772  14.509  0.2201 -0.2721 -0.6683
  516TMC3    C6 7666   0.462   3.825  14.385 -0.1438  0.0519 -0.4331
  516TMC3     C 7667   0.359   4.072  14.691 -0.4435  0.1686  0.6163
  516TMC3     O 7668   0.298   4.177  14.675  0.0760  0.4555 -0.3814
  516TMC3     H 7669   0.362   4.151  14.443  1.8298 -0.1676 -0.5756
  516TMC3    H1 7670   0.349   3.807  14.700  0.0144 -0.7346 -0.1871
  516TMC3    H2 7671   0.470   3.756  14.302  1.9995  1.2960 -1.2689
  516TMC3    C7 7672   0.441   3.630  14.531  0.8363  0.3810 -0.0001
  516TMC3    C8 7673   0.343   3.962  14.248  0.5951  0.1069  0.1404
  516TMC3    O1 7674   0.353   3.577  14.598  0.1610 -0.5898 -0.1900
  516TMC3    O2 7675   0.272   3.864  14.229 -0.0436  0.0658  0.6111
  517MPD2     C 7676   0.106   0.713  17.311 -0.3917 -0.1649 -0.0570
  517MPD2    C1 7677   0.163   0.643  17.410  0.0748 -0.2491  0.5549
  517MPD2    C2 7678   0.227   0.710  17.508  0.0010 -0.4459  0.2596
  517MPD2    C3 7679   0.252   0.847  17.508  0.1434 -0.0654 -0.2361
  517MPD2    C4 7680   0.206   0.918  17.400  0.2207 -0.3133  0.3918
  517MPD2    C5 7681   0.124   0.847  17.311  0.2789  0.1757  0.6261
  517MPD2     H 7682   0.256   0.646  17.591  0.6050 -1.0782 -0.4335
  517MPD2    H1 7683   0.215   1.026  17.392  0.0572 -0.4334 -1.3154
  517MPD2    H2 7684   0.061   0.668  17.224  1.9483 -0.3786 -1.1680
  517MPD2    H3 7685   0.064   0.896  17.235  0.9283 -1.3196 -0.8412
  517MPD2     N 7686   0.325   0.898  17.621  0.6686 -0.1145 -0.0598
  517MPD2    H5 7687   0.368   0.832   0.001  2.1905  0.1581 -0.7727
  517MPD2    N1 7688   0.165   0.505  17.415 -0.4008 -0.3955  0.8647
  517MPD2    H7 7689   0.209   0.460  17.494 -1.7213  1.3848  2.6395
  518TMC3    C1 7690   0.212   0.313  17.312  0.1761  0.7167 -0.2231
  518TMC3    C2 7691   0.174   0.200  17.258 -0.3682 -0.5647  0.7863
  518TMC3    C3 7692   0.262   0.111  17.205  0.5945  0.4700  0.1199
  518TMC3    C4 7693   0.348   0.344  17.330 -0.2388 -0.1482  0.4613
  518TMC3    C5 7694   0.433   0.238  17.300 -0.4079  0.4096  0.3922
  518TMC3    C6 7695   0.391   0.121  17.241 -0.1920 -0.4318  0.1287
  518TMC3     C 7696   0.124   0.422  17.317  0.2281 -0.1447 -0.0182
  518TMC3     O 7697   0.045   0.444  17.228  0.0260 -0.6344  0.1006
  518TMC3     H 7698   0.066   0.195  17.242 -0.3776  1.8906 -0.0778
  518TMC3    H1 7699   0.384   0.427  17.389 -0.2139  1.2988 -1.6054
  518TMC3    H2 7700   0.460   0.058  17.186 -1.5211  0.7419 -2.8705
  518TMC3    C7 7701   0.577   0.256  17.312  0.4777 -0.2732  0.2105
  518TMC3    C8 7702   0.231   4.693  17.165  0.4415  0.3323 -0.1632
  518TMC3    O1 7703   0.620   0.367  17.336 -0.5434  0.3246  0.3236
  518TMC3    O2 7704   0.322   4.613  17.153  0.3947 -0.1482  0.0810
  519MPD2     C 7705   2.221   4.296  13.670 -0.0092  0.7781 -0.3092
  519MPD2    C1 7706   2.117   4.210  13.639 -0.2296 -0.1833 -0.0712
  519MPD2    C2 7707   2.147   4.078  13.621 -0.5186 -0.5195  0.7141
  519MPD2    C3 7708   2.273   4.027  13.631 -0.1515 -0.1458 -0.4269
  519MPD2    C4 7709   2.377   4.116  13.666 -0.0356 -0.4781 -0.1723
  519MPD2    C5 7710   2.350   4.248  13.689  0.1645 -0.3662  0.3106
  519MPD2     H 7711   2.069   4.008  13.595 -0.1186 -1.2791  1.5705
  519MPD2    H1 7712   2.475   4.072  13.680 -0.2335 -0.9165 -0.1671
  519MPD2    H2 7713   2.199   4.397  13.703  1.2447  0.8249  0.3813
  519MPD2    H3 7714   2.434   4.313  13.712 -2.2106  2.4524  0.9853
  519MPD2     N 7715   2.312   3.892  13.610  0.1024 -0.1539  0.2108
  519MPD2    H5 7716   2.408   3.864  13.625  0.0711 -0.3124  0.1223
  519MPD2    N1 7717   1.982   4.260  13.634  0.2002 -0.0947  0.1635
  519MPD2    H7 7718   1.957   4.357  13.649 -0.5308 -0.4822  1.4184
  520TMC3    C1 7719   2.277   3.654  13.569  0.2227  0.3798  0.0591
  520TMC3    C2 7720   2.205   3.561  13.495  0.2799  0.5680  0.3694
  520TMC3    C3 7721   2.256   3.435  13.486  0.4871 -0.9538 -0.3164
  520TMC3    C4 7722   2.397   3.627  13.626 -0.0758 -0.6125 -0.1737
  520TMC3    C5 7723   2.443   3.496  13.613  0.5617 -0.3382  0.2841
  520TMC3    C6 7724   2.377   3.401  13.540 -0.0111 -0.2020  0.1033
  520TMC3     C 7725   2.221   3.791  13.563 -0.6196  0.1498  0.4213
  520TMC3     O 7726   2.101   3.789  13.532 -0.3254  0.0212  0.6039
  520TMC3     H 7727   2.115   3.593  13.443  0.7889  0.6320 -0.4697
  520TMC3    H1 7728   2.442   3.693  13.699 -0.0404  0.6273 -1.3046
  520TMC3    H2 7729   2.412   3.298  13.538  3.3592  0.9760 -2.4086
  520TMC3    C7 7730   2.562   3.452  13.690 -0.5445 -0.5669 -0.5515
  520TMC3    C8 7731   2.183   3.338  13.416 -0.4958  0.7076 -0.4215
  520TMC3    O1 7732   2.566   3.333  13.715  0.4813  0.1025 -0.4758
  520TMC3    O2 7733   2.245   3.257  13.347 -0.0385 -0.1287 -0.2842
  521MPD2     C 7734   2.360   1.471   0.007 -0.3698 -0.6267  0.4304
  521MPD2    C1 7735   2.353   1.395  17.585  0.3258 -0.6088  1.2545
  521MPD2    C2 7736   2.465   1.385  17.499  0.0247 -0.0473  0.4303
  521MPD2    C3 7737   2.584   1.452  17.525  0.0355 -0.2359  0.9573
  521MPD2    C4 7738   2.598   1.519  17.646 -0.4172  0.9638  0.1413
  521MPD2    C5 7739   2.484   1.528   0.041  0.2141 -0.3104  0.2147
  521MPD2     H 7740   2.468   1.316  17.415  0.6861  0.1138  0.3223
  521MPD2    H1 7741   2.688   1.577  17.663  1.7943 -2.5214  0.3379
  521MPD2    H2 7742   2.277   1.489   0.075  0.7104  3.4703  0.6765
  521MPD2    H3 7743   2.492   1.577   0.137  1.4454 -2.5060  1.2295
  521MPD2     N 7744   2.681   1.426  17.428  0.4178 -0.1934  0.6236
  521MPD2    H5 7745   2.656   1.355  17.359  0.1652 -1.9342  2.5039
  521MPD2    N1 7746   2.239   1.332  17.550 -0.4162 -0.3745 -0.1198
  521MPD2    H7 7747   2.155   1.354  17.602  0.4131  0.6647  0.7853
  522TMC3    C1 7748   2.895   1.428  17.321  0.6542 -0.2651  0.8132
  522TMC3    C2 7749   3.028   1.424  17.342 -0.3240 -0.4118  0.9337
  522TMC3    C3 7750   3.103   1.340  17.271 -0.4491  0.1262  0.3830
  522TMC3    C4 7751   2.833   1.345  17.226 -0.1664  0.3548 -0.6305
  522TMC3    C5 7752   2.917   1.264  17.154 -0.4109  0.3222  0.5763
  522TMC3    C6 7753   3.053   1.261  17.169  0.2837 -0.0399  0.6606
  522TMC3     C 7754   2.804   1.487  17.423  0.3659  0.2537 -0.1435
  522TMC3     O 7755   2.855   1.570  17.496 -0.2208 -0.2517 -0.3194
  522TMC3     H 7756   3.071   1.488  17.418  3.3079 -0.6226 -0.9197
  522TMC3    H1 7757   2.733   1.361  17.187  0.0777  0.2905 -1.3007
  522TMC3    H2 7758   3.121   1.192  17.120 -1.5679 -0.1537 -1.7065
  522TMC3    C7 7759   2.874   1.215  17.030  0.1362 -0.5321 -0.7944
  522TMC3    C8 7760   3.237   1.398  17.245  0.0614 -0.6697  1.0087
  522TMC3    O1 7761   2.970   1.157  16.977  0.1341  0.2713  0.3864
  522TMC3    O2 7762   3.284   1.450  17.341  0.3474 -0.2384  0.4468
  523MPD2     C 7763   0.510   0.629  10.006 -1.2350  0.3282  0.2131
  523MPD2    C1 7764   0.483   0.582   9.877 -0.4438 -0.8014 -0.6347
  523MPD2    C2 7765   0.425   0.660   9.787  0.4967 -0.7596 -0.1605
  523MPD2    C3 7766   0.379   0.789   9.815 -0.2847  0.5643  0.0119
  523MPD2    C4 7767   0.392   0.834   9.947  0.0090 -0.6672  0.1506
  523MPD2    C5 7768   0.456   0.752  10.033  0.3449 -0.2950 -0.2683
  523MPD2     H 7769   0.418   0.632   9.683 -5.1140 -1.1983  0.3261
  523MPD2    H1 7770   0.344   0.924   9.986  0.1980 -0.7180  0.5060
  523MPD2    H2 7771   0.547   0.570  10.089  0.6652  2.7046  1.0660
  523MPD2    H3 7772   0.464   0.774  10.139 -2.4718 -1.0846  0.1076
  523MPD2     N 7773   0.314   0.875   9.726  0.2825 -0.5877 -0.0467
  523MPD2    H5 7774   0.303   0.970   9.759  1.4149  0.0559 -1.5427
  523MPD2    N1 7775   0.512   0.450   9.849 -0.0112  0.0090 -0.5703
  523MPD2    H7 7776   0.548   0.395   9.927 -0.2644 -2.8545 -2.4486
  524TMC3    C1 7777   0.209   0.959   9.538 -0.8804 -0.9436  0.2998
  524TMC3    C2 7778   0.184   0.948   9.407  0.4145 -0.1095  0.6389
  524TMC3    C3 7779   0.154   1.066   9.344 -0.6584  0.6702  0.3380
  524TMC3    C4 7780   0.185   1.070   9.611  0.1976  0.0440  0.7004
  524TMC3    C5 7781   0.154   1.187   9.548 -0.3946  0.4156  0.6646
  524TMC3    C6 7782   0.128   1.183   9.411 -0.1972  0.5988 -0.1914
  524TMC3     C 7783   0.272   0.844   9.602 -0.6155 -0.8284  0.4134
  524TMC3     O 7784   0.264   0.734   9.547 -0.0265 -0.3308  0.0046
  524TMC3     H 7785   0.221   0.859   9.356 -0.5644 -1.4213  2.2045
  524TMC3    H1 7786   0.196   1.070   9.719  0.4824 -0.2398  0.6723
  524TMC3    H2 7787   0.128   1.271   9.348 -0.8020  0.9623  0.3112
  524TMC3    C7 7788   0.087   1.288   9.627 -0.4389 -0.6779  0.1694
  524TMC3    C8 7789   0.168   1.069   9.201  0.3186  0.0537  0.0031
  524TMC3    O1 7790   0.098   1.286   9.747 -0.5654 -0.2329  0.5485
  524TMC3    O2 7791   0.259   0.997   9.171 -0.1519 -0.1204 -0.1069
  525MPD2     C 7792   3.370   3.267  14.252 -0.2463  0.9150  0.0666
  525MPD2    C1 7793   3.479   3.249  14.336  0.6534  0.3755 -0.3239
  525MPD2    C2 7794   3.580   3.341  14.334 -0.3755 -0.4088 -0.2576
  525MPD2    C3 7795   3.572   3.456  14.259  0.2898  0.2706 -0.6730
  525MPD2    C4 7796   3.460   3.481  14.186  0.5307  0.2731 -0.1248
  525MPD2    C5 7797   3.359   3.391  14.187 -0.1248 -0.4454  0.5718
  525MPD2     H 7798   3.658   3.325  14.407  0.1985  0.4634 -0.6835
  525MPD2    H1 7799   3.443   3.573  14.130 -0.5396  0.5429  0.6320
  525MPD2    H2 7800   3.290   3.195  14.246  0.4433  0.0636  1.0671
  525MPD2    H3 7801   3.280   3.391  14.113  1.4674  1.5074 -1.1535
  525MPD2     N 7802   3.659   3.568  14.270 -1.1275  1.1563 -0.5617
  525MPD2    H5 7803   3.625   3.656  14.234  0.3334  1.8127 -0.3272
  525MPD2    N1 7804   3.497   3.136  14.424 -0.2439 -0.0655 -0.0495
  525MPD2    H7 7805   3.573   3.139  14.491  0.5022  0.2316 -0.9134
  526TMC3    C1 7806   3.450   2.927  14.523 -0.0287  0.5447  0.3069
  526TMC3    C2 7807   3.371   2.860  14.608 -0.3742  0.4477 -0.4926
  526TMC3    C3 7808   3.423   2.776  14.706  0.9850  0.6882  0.2729
  526TMC3    C4 7809   3.587   2.909  14.524 -0.2852 -0.2435 -0.2129
  526TMC3    C5 7810   3.637   2.819  14.615 -0.4652  0.7437  0.7784
  526TMC3    C6 7811   3.559   2.751  14.709 -0.2002 -0.5398 -0.2583
  526TMC3     C 7812   3.401   3.037  14.434 -0.5050  0.0909  1.2928
  526TMC3     O 7813   3.289   3.026  14.391 -0.6226  0.1996 -0.5076
  526TMC3     H 7814   3.265   2.876  14.598 -0.5877 -1.1888 -0.7707
  526TMC3    H1 7815   3.656   2.951  14.451 -2.9875  1.1364 -1.9788
  526TMC3    H2 7816   3.596   2.674  14.776  0.9694 -0.9526 -1.3786
  526TMC3    C7 7817   3.780   2.809  14.629 -0.0067 -0.0211 -0.0745
  526TMC3    C8 7818   3.341   2.696  14.798 -0.7203  0.0798 -0.0996
  526TMC3    O1 7819   3.823   2.711  14.687  0.5528  0.2841  0.0902
  526TMC3    O2 7820   3.397   2.643  14.892  0.1416  0.2356 -0.6504
  527MPD2     C 7821   0.962   0.684   0.538  0.4530  0.3669 -0.3828
  527MPD2    C1 7822   1.046   0.671   0.651 -0.3908  0.0390 -0.1177
  527MPD2    C2 7823   1.185   0.673   0.635 -0.3159 -0.0119  0.0441
  527MPD2    C3 7824   1.232   0.683   0.507  0.7789 -0.3817  0.1747
  527MPD2    C4 7825   1.150   0.704   0.399  0.1868 -0.3878  0.0653
  527MPD2    C5 7826   1.016   0.699   0.413 -0.0789  0.1264  0.2175
  527MPD2     H 7827   1.237   0.663   0.729 -0.1087  0.9587  0.0324
  527MPD2    H1 7828   1.181   0.712   0.296  1.1469  0.2915  0.4102
  527MPD2    H2 7829   0.854   0.676   0.540  0.3252  2.1054 -0.5523
  527MPD2    H3 7830   0.941   0.708   0.335 -2.5385 -1.6636  2.3517
  527MPD2     N 7831   1.376   0.668   0.500 -0.2895 -0.0108 -0.2992
  527MPD2    H5 7832   1.418   0.621   0.579 -0.9950 -0.8036 -0.3997
  527MPD2    N1 7833   1.000   0.651   0.783  0.4206 -0.0991  0.5337
  527MPD2    H7 7834   1.065   0.633   0.859  0.3027 -1.0226  0.4171
  528TMC3    C1 7835   0.859   0.643   0.967 -0.4291 -0.9080 -0.1736
  528TMC3    C2 7836   0.940   0.553   1.036 -0.0524  0.3688  0.2732
  528TMC3    C3 7837   0.943   0.569   1.174  0.4021 -0.6969 -0.4781
  528TMC3    C4 7838   0.776   0.728   1.033 -0.0113 -0.8827  0.0770
  528TMC3    C5 7839   0.778   0.736   1.172  0.4796 -0.4074 -0.0262
  528TMC3    C6 7840   0.864   0.658   1.244  0.6948 -0.0246 -0.3987
  528TMC3     C 7841   0.872   0.676   0.825  0.1599 -0.0984 -0.4764
  528TMC3     O 7842   0.774   0.714   0.756 -0.7348 -0.1737  0.4028
  528TMC3     H 7843   0.994   0.480   0.977 -1.9364 -0.5513 -0.3266
  528TMC3    H1 7844   0.719   0.799   0.973  2.5562 -0.3578 -1.7585
  528TMC3    H2 7845   0.866   0.667   1.352 -2.3248  1.1001 -0.4381
  528TMC3    C7 7846   0.738   0.866   1.239  0.5489  0.3781  0.3929
  528TMC3    C8 7847   1.052   0.526   1.254  0.2018 -0.1158 -0.2918
  528TMC3    O1 7848   0.763   0.874   1.360 -0.4237  0.1195 -0.1405
  528TMC3    O2 7849   1.075   0.604   1.345  0.4468 -0.1537 -0.3382
  529MPD2     C 7850   4.138   4.103   0.756 -0.7580  0.5956  0.2991
  529MPD2    C1 7851   4.095   4.015   0.654  0.3193  0.0199 -0.5378
  529MPD2    C2 7852   4.074   4.063   0.527 -0.3745 -0.1491  0.3445
  529MPD2    C3 7853   4.101   4.202   0.497 -0.9202 -0.3718  0.0269
  529MPD2    C4 7854   4.152   4.283   0.591 -0.1893  0.7460  0.3576
  529MPD2    C5 7855   4.164   4.232   0.721  0.2200 -0.4255 -0.4542
  529MPD2     H 7856   4.028   4.001   0.450  0.5155  2.5774 -2.3508
  529MPD2    H1 7857   4.187   4.384   0.575  1.5607 -0.1167 -1.3464
  529MPD2    H2 7858   4.140   4.077   0.861  2.0657 -0.6847 -0.0685
  529MPD2    H3 7859   4.205   4.296   0.799 -0.5367  0.5749 -0.8775
  529MPD2     N 7860   4.066   4.266   0.372 -0.0978 -0.4037  0.5690
  529MPD2    H5 7861   4.052   4.366   0.375  0.2597 -0.4281  3.0186
  529MPD2    N1 7862   4.082   3.873   0.676 -0.1641  0.7244 -0.4100
  529MPD2    H7 7863   4.062   3.814   0.595  0.2707  0.8470 -0.6091
  530TMC3    C1 7864   4.102   3.665   0.806  0.0635 -0.9979 -0.8960
  530TMC3    C2 7865   4.156   3.620   0.931 -0.3106 -0.5295  0.2862
  530TMC3    C3 7866   4.105   3.498   0.966  0.1284 -0.3575 -0.3679
  530TMC3    C4 7867   4.011   3.599   0.731  0.5602 -0.2397  0.0377
  530TMC3    C5 7868   3.976   3.468   0.770 -0.3649  0.5212 -0.0857
  530TMC3    C6 7869   4.028   3.419   0.887 -0.2253 -0.3706  0.1736
  530TMC3     C 7870   4.103   3.810   0.797 -0.1851 -0.0416 -0.0019
  530TMC3     O 7871   4.127   3.863   0.907 -0.7283  0.6419 -0.2709
  530TMC3     H 7872   4.231   3.673   0.988  2.7787 -0.5430 -3.7083
  530TMC3    H1 7873   3.957   3.661   0.661  1.5991  0.4332 -0.1743
  530TMC3    H2 7874   4.001   3.327   0.939 -2.3855  0.9311  1.3403
  530TMC3    C7 7875   3.877   3.388   0.695  0.7058  0.0428 -0.2160
  530TMC3    C8 7876   4.141   3.455   1.101  0.5291  0.3212 -0.7541
  530TMC3    O1 7877   3.854   3.423   0.580 -0.1493  0.8340 -0.5673
  530TMC3    O2 7878   4.133   3.333   1.123  0.1642 -0.4094  0.1966
  531MPD2     C 7879   2.439   1.895  12.218  0.3196  0.2099  0.6433
  531MPD2    C1 7880   2.415   1.888  12.350  0.0570 -0.4662  0.3275
  531MPD2    C2 7881   2.307   1.814  12.391  0.8391  0.1293  0.0693
  531MPD2    C3 7882   2.219   1.751  12.304 -0.3094  0.0437 -0.1759
  531MPD2    C4 7883   2.248   1.757  12.175  0.1382  0.0531 -0.7949
  531MPD2    C5 7884   2.361   1.825  12.130  0.3087 -0.2192  0.4930
  531MPD2     H 7885   2.289   1.781  12.493 -0.4386 -0.0698 -0.2222
  531MPD2    H1 7886   2.191   1.725  12.088 -1.0570  2.2504 -0.8136
  531MPD2    H2 7887   2.518   1.961  12.183 -1.6346  2.0412 -0.2570
  531MPD2    H3 7888   2.389   1.831  12.026 -2.2779  1.0066 -0.1135
  531MPD2     N 7889   2.103   1.689  12.352 -1.5832 -0.7916  0.1457
  531MPD2    H5 7890   2.106   1.671  12.452 -0.8537 -0.9238  0.1022
  531MPD2    N1 7891   2.503   1.949  12.435  0.2591 -0.2315  0.0748
  531MPD2    H7 7892   2.572   2.014  12.400 -1.1490 -0.0220 -2.2942
  532TMC3    C1 7893   2.583   2.018  12.643 -0.2150 -0.1177  0.4405
  532TMC3    C2 7894   2.508   2.126  12.670 -0.1074  0.0268 -0.2726
  532TMC3    C3 7895   2.508   2.188  12.790  0.0103 -0.0228  0.6191
  532TMC3    C4 7896   2.664   1.974  12.738 -0.2459  0.8863  0.0981
  532TMC3    C5 7897   2.669   2.039  12.860 -0.2391 -0.6000  0.1777
  532TMC3    C6 7898   2.603   2.156  12.884  0.0701  0.2009 -0.2580
  532TMC3     C 7899   2.509   1.923  12.574  0.0577  0.6024  1.1009
  532TMC3     O 7900   2.433   1.856  12.643 -0.5231 -0.3431  0.1572
  532TMC3     H 7901   2.432   2.168  12.606  1.6221 -0.2518 -2.4709
  532TMC3    H1 7902   2.725   1.887  12.718 -1.7460 -0.4363  1.2499
  532TMC3    H2 7903   2.585   2.190  12.985 -1.7738  0.6492 -0.7433
  532TMC3    C7 7904   2.760   1.994  12.961  0.3821  0.2903 -0.4965
  532TMC3    C8 7905   2.378   2.198  12.846 -0.0768  0.2595  0.3401
  532TMC3    O1 7906   2.808   2.081  13.035  0.4982  0.8731 -0.3876
  532TMC3    O2 7907   2.352   2.302  12.903  0.5188 -0.1547  0.4615
  533TMC3    C1 7908   3.797   3.712  14.389 -0.0094  0.0296  0.5170
  533TMC3    C2 7909   3.925   3.740  14.423  0.3382  0.5439 -0.2218
  533TMC3    C3 7910   3.944   3.810  14.539  0.7697 -0.3350 -0.7900
  533TMC3    C4 7911   3.690   3.763  14.454  0.0740 -0.0501  0.2654
  533TMC3    C5 7912   3.711   3.826  14.575 -0.0050  0.3141 -0.3494
  533TMC3    C6 7913   3.841   3.850  14.620 -0.4084 -0.3816 -0.7998
  533TMC3     C 7914   3.774   3.572  14.349 -0.1094  0.2300 -0.2463
  533TMC3     O 7915   3.836   3.477  14.396  0.6375 -0.6092 -0.4352
  533TMC3     H 7916   4.004   3.691  14.368 -0.3137 -1.3267  0.4956
  533TMC3    H1 7917   3.587   3.758  14.421 -0.3651 -0.5568  1.7416
  533TMC3    H2 7918   3.854   3.922  14.700  4.0318  0.1140 -1.9584
  533TMC3    C7 7919   3.615   3.783  14.671 -0.0528  0.3001  0.7822
  533TMC3    C8 7920   4.070   3.861  14.572  0.3556 -0.1106  0.4698
  533TMC3    O1 7921   3.515   3.724  14.635 -0.0989  0.1827  0.0955
  533TMC3    O2 7922   4.091   3.906  14.685  0.3560  0.1640 -0.7024
  534MPD2     C 7923   1.333   3.962   1.656 -0.0511 -0.4845  0.2883
  534MPD2    C1 7924   1.309   4.077   1.579 -0.0750  0.1443 -0.2515
  534MPD2    C2 7925   1.218   4.050   1.479 -0.9116 -0.2948  0.3788
  534MPD2    C3 7926   1.153   3.925   1.459 -0.5584  0.1751 -0.6439
  534MPD2    C4 7927   1.192   3.815   1.534  0.4006 -0.0565  0.7094
  534MPD2    C5 7928   1.284   3.836   1.629  0.1979  0.3563 -0.4875
  534MPD2     H 7929   1.193   4.135   1.416 -1.6429 -0.5811  0.2787
  534MPD2    H1 7930   1.166   3.714   1.504  3.8698 -0.9310  0.6031
  534MPD2    H2 7931   1.401   3.972   1.740 -1.5053  2.8217  1.0727
  534MPD2    H3 7932   1.332   3.752   1.678  0.8803 -0.0431 -1.8648
  534MPD2     N 7933   1.060   3.889   1.362  0.1257  0.4053 -0.2537
  534MPD2    H5 7934   1.019   3.797   1.363 -0.0334  0.4245 -3.8056
  534MPD2    N1 7935   1.361   4.205   1.603  0.0220 -0.6273 -0.9228
  534MPD2    H7 7936   1.332   4.272   1.532  0.1330  1.9246  1.4159
  535TMC3    C1 7937   0.897   3.923   1.198  0.6351  0.1811 -0.0242
  535TMC3    C2 7938   0.804   3.840   1.260 -0.8808  0.1432 -0.3075
  535TMC3    C3 7939   0.699   3.798   1.189 -0.0956  0.5626 -0.2108
  535TMC3    C4 7940   0.867   3.988   1.079 -0.1224 -0.2027 -0.1384
  535TMC3    C5 7941   0.756   3.948   1.016  0.2681 -0.8410 -0.0285
  535TMC3    C6 7942   0.673   3.851   1.066  0.6938 -0.7739 -0.2474
  535TMC3     C 7943   1.009   3.978   1.267 -0.1449 -0.1814  0.2304
  535TMC3     O 7944   1.046   4.088   1.235 -0.3216 -0.1231  0.5248
  535TMC3     H 7945   0.831   3.819   1.363 -0.5804  0.3138 -0.3491
  535TMC3    H1 7946   0.938   4.054   1.030 -2.5970  2.2289 -0.4188
  535TMC3    H2 7947   0.594   3.811   1.004  0.1080  2.2003 -1.4500
  535TMC3    C7 7948   0.728   4.028   0.898 -0.0976 -0.2370  0.2715
  535TMC3    C8 7949   0.598   3.696   1.235  0.3731  0.0678  0.0213
  535TMC3    O1 7950   0.823   4.059   0.822  0.0220  0.1236  0.5646
  535TMC3    O2 7951   0.483   3.681   1.189 -0.4521 -0.0518  0.0414
  536MPD2     C 7952   4.570   2.639  16.377 -0.4434 -0.5481  0.7924
  536MPD2    C1 7953   4.441   2.606  16.410  0.1228 -0.8826  0.2355
  536MPD2    C2 7954   4.354   2.609  16.305  0.2721 -0.0076 -0.0317
  536MPD2    C3 7955   4.392   2.655  16.180 -0.7108  0.5483 -0.5882
  536MPD2    C4 7956   4.518   2.683  16.144 -0.3704 -0.3565  0.2418
  536MPD2    C5 7957   4.612   2.675  16.249 -0.1725 -0.3797 -0.2049
  536MPD2     H 7958   4.249   2.594  16.328  0.2242 -1.5038 -1.2409
  536MPD2    H1 7959   4.538   2.701  16.040  0.1440  1.7150  0.7087
  536MPD2    H2 7960   4.650   2.629  16.449  0.0650 -1.3284  0.1100
  536MPD2    H3 7961   4.717   2.688  16.225  0.9178 -1.5215  3.9631
  536MPD2     N 7962   4.299   2.669  16.079  0.0346  0.1165 -0.4686
  536MPD2    H5 7963   4.325   2.723  15.997 -1.3403  0.9505 -0.3580
  536MPD2    N1 7964   4.412   2.572  16.545 -0.7948 -0.1023 -0.4925
  536MPD2    H7 7965   4.483   2.571  16.618 -0.7400 -0.8578 -0.5525
  537TMC3    C1 7966   4.300   2.494  16.743 -1.3510 -0.3389  0.7155
  537TMC3    C2 7967   4.402   2.537  16.826  0.2344 -0.1492 -0.2402
  537TMC3    C3 7968   4.412   2.481  16.950 -0.2098  0.4366  0.7362
  537TMC3    C4 7969   4.205   2.404  16.783  0.2360 -0.0424 -0.0225
  537TMC3    C5 7970   4.226   2.340  16.905  0.6271  0.7460  0.1550
  537TMC3    C6 7971   4.330   2.377  16.990  0.4197 -0.0009 -0.7058
  537TMC3     C 7972   4.297   2.521  16.597 -0.4147 -0.5671 -0.3020
  537TMC3     O 7973   4.190   2.506  16.542  0.2728 -1.3655  0.2290
  537TMC3     H 7974   4.472   2.609  16.785 -0.2765  0.8378  0.6319
  537TMC3    H1 7975   4.126   2.387  16.710  1.1956  0.1348 -1.1055
  537TMC3    H2 7976   4.330   2.342  17.092  0.2228  0.2249 -0.6278
  537TMC3    C7 7977   4.177   2.208  16.933  0.2899 -0.0935  0.2035
  537TMC3    C8 7978   4.525   2.519  17.032 -0.2019  0.0830  0.1383
  537TMC3    O1 7979   4.232   2.151  17.029  0.6659  0.0252 -0.1283
  537TMC3    O2 7980   4.594   2.615  16.991  0.3305 -0.0199  0.7136
  538TMC3    C1 7981   1.352   0.774  11.059  0.4433 -0.0405  0.3304
  538TMC3    C2 7982   1.337   0.699  10.944  0.2427  0.7548  1.0864
  538TMC3    C3 7983   1.232   0.732  10.857 -0.4709  0.4499  0.3841
  538TMC3    C4 7984   1.266   0.880  11.088 -0.5149 -0.2013 -0.1473
  538TMC3    C5 7985   1.171   0.909  10.995 -0.6945 -0.7298 -0.0104
  538TMC3    C6 7986   1.155   0.846  10.876  0.3831 -0.4607 -0.5528
  538TMC3     C 7987   1.461   0.754  11.153  0.2695  0.2223 -0.7809
  538TMC3     O 7988   1.487   0.833  11.244  0.1447 -0.1361 -0.1696
  538TMC3     H 7989   1.399   0.613  10.923  2.0091  1.5442  3.1012
  538TMC3    H1 7990   1.274   0.933  11.183 -0.3793 -0.4903  0.0037
  538TMC3    H2 7991   1.062   0.856  10.821  0.6850  0.0009 -0.9709
  538TMC3    C7 7992   1.054   0.988  11.046 -0.0048 -0.1067 -0.3697
  538TMC3    C8 7993   1.232   0.664  10.729  0.0740 -0.1793  0.9353
  538TMC3    O1 7994   0.956   0.993  10.972 -0.3265  0.1771 -0.4928
  538TMC3    O2 7995   1.282   0.554  10.710  0.0262 -0.1170 -0.1524
  539MPD2     C 7996   1.410   0.293  11.444  0.8643  0.0708 -0.4679
  539MPD2    C1 7997   1.300   0.275  11.362  0.4599  0.5524  1.1920
  539MPD2    C2 7998   1.222   0.387  11.325  0.2681 -0.4292 -0.4636
  539MPD2    C3 7999   1.259   0.509  11.376  0.5467  0.4079 -0.6091
  539MPD2    C4 8000   1.376   0.530  11.447 -0.2418 -0.3673  0.1392
  539MPD2    C5 8001   1.454   0.419  11.487 -0.0452 -0.1347 -0.9346
  539MPD2     H 8002   1.139   0.374  11.257 -1.4477  1.1073  1.3296
  539MPD2    H1 8003   1.413   0.628  11.475  0.0594 -0.1784 -0.9135
  539MPD2    H2 8004   1.467   0.219  11.500 -0.5566 -2.2124 -2.0378
  539MPD2    H3 8005   1.549   0.427  11.538 -1.8296 -1.8489  2.7135
  539MPD2     N 8006   1.157   0.609  11.378  0.9618 -0.2966  0.4554
  539MPD2    H5 8007   1.170   0.686  11.443 -2.0271  0.9434 -0.4466
  539MPD2    N1 8008   1.251   0.147  11.333 -0.4457  0.2289 -0.2824
  539MPD2    H7 8009   1.159   0.138  11.290 -0.9123 -0.6327  0.8892
  540TMC3    C1 8010   0.965   0.732  11.304  0.7228  0.8041 -0.1215
  540TMC3    C2 8011   0.882   0.753  11.195 -0.0327  0.1017 -0.1436
  540TMC3    C3 8012   0.781   0.848  11.216 -0.4366  0.7093  0.1883
  540TMC3    C4 8013   0.951   0.791  11.429  0.0465 -0.2022 -0.8391
  540TMC3    C5 8014   0.850   0.880  11.438 -0.3554 -0.7016 -0.3151
  540TMC3    C6 8015   0.767   0.911  11.336  0.7221  0.1974 -0.6228
  540TMC3     C 8016   1.059   0.626  11.283 -0.3548  0.4016  0.0890
  540TMC3     O 8017   1.045   0.559  11.182  0.1575  0.0328  0.6477
  540TMC3     H 8018   0.924   0.725  11.100  2.8010  3.1381  0.2336
  540TMC3    H1 8019   1.010   0.762  11.515 -0.7080  0.1615 -0.1985
  540TMC3    H2 8020   0.689   0.987  11.339  0.8426  0.2688  0.8007
  540TMC3    C7 8021   0.814   0.940  11.568  0.1142  0.4274 -0.1351
  540TMC3    C8 8022   0.682   0.864  11.108 -0.8291  0.0985 -0.4217
  540TMC3    O1 8023   0.695   0.964  11.587  0.4787 -0.1635  0.8326
  540TMC3    O2 8024   0.625   0.973  11.096 -0.7005  0.2316 -0.1176
  541MPD2     C 8025   3.919   2.215  13.461 -0.0489 -0.0091 -0.4290
  541MPD2    C1 8026   3.820   2.163  13.380 -0.0081  0.3569  0.2986
  541MPD2    C2 8027   3.834   2.174  13.242 -0.6020 -0.3848  1.1803
  541MPD2    C3 8028   3.951   2.224  13.183 -0.0689 -0.1218  0.1307
  541MPD2    C4 8029   4.043   2.281  13.270 -1.1331 -0.3994  0.0518
  541MPD2    C5 8030   4.032   2.272  13.405  0.9460 -0.2962 -0.2165
  541MPD2     H 8031   3.759   2.124  13.181  0.0152  0.2385 -0.0923
  541MPD2    H1 8032   4.127   2.330  13.222 -0.9388  0.2414  1.0527
  541MPD2    H2 8033   3.910   2.220  13.569 -0.0668 -1.0757 -0.3749
  541MPD2    H3 8034   4.110   2.318  13.465 -0.8155  1.9444  0.3642
  541MPD2     N 8035   3.967   2.232  13.041  0.1866  0.2372  0.1495
  541MPD2    H5 8036   4.029   2.301  12.999  1.1304  0.0207  1.1831
  541MPD2    N1 8037   3.710   2.098  13.435 -0.3469  0.6464 -0.7577
  541MPD2    H7 8038   3.653   2.051  13.365 -0.1739  1.5761 -1.5167
  542TMC3    C1 8039   3.889   2.212  12.815 -0.1807 -0.0841  0.4693
  542TMC3    C2 8040   3.855   2.117  12.725  0.0367 -0.0104 -0.5469
  542TMC3    C3 8041   3.802   2.169  12.612  0.0456  0.0431 -0.7423
  542TMC3    C4 8042   3.875   2.349  12.799 -0.3111 -0.3769 -0.1120
  542TMC3    C5 8043   3.797   2.390  12.695  0.0458  0.2352  0.7140
  542TMC3    C6 8044   3.771   2.300  12.599  0.4872  0.0287  0.4308
  542TMC3     C 8045   3.895   2.160  12.950  0.2943  0.5420  0.1515
  542TMC3     O 8046   3.844   2.050  12.960 -0.4312 -0.2152 -0.4253
  542TMC3     H 8047   3.894   2.017  12.736  2.7091  1.1345  0.4951
  542TMC3    H1 8048   3.902   2.423  12.873  1.1564 -0.5655 -0.4605
  542TMC3    H2 8049   3.741   2.342  12.503  0.3574 -0.4585  0.2608
  542TMC3    C7 8050   3.735   2.521  12.690  0.1241  0.7006 -0.4325
  542TMC3    C8 8051   3.815   2.097  12.489 -0.1867  0.0192 -0.0769
  542TMC3    O1 8052   3.777   2.605  12.768 -0.0034  0.1764 -0.4667
  542TMC3    O2 8053   3.743   2.140  12.400 -0.2773  0.2897 -0.0461
  543TMC3    C1 8054   2.952   3.360  17.372 -0.1979  0.3753  0.7509
  543TMC3    C2 8055   2.990   3.238  17.423 -0.4956 -0.0457 -0.1163
  543TMC3    C3 8056   2.939   3.203  17.548  0.7262 -0.0942 -0.1213
  543TMC3    C4 8057   2.887   3.453  17.444 -0.5129  0.6118  0.1236
  543TMC3    C5 8058   2.845   3.414  17.569 -0.1764  0.3185 -0.2367
  543TMC3    C6 8059   2.860   3.289  17.617 -0.3940  0.5756 -0.1934
  543TMC3     C 8060   3.030   3.401  17.247 -0.4705 -0.0475 -0.3326
  543TMC3     O 8061   3.144   3.354  17.243 -0.2849 -0.2206  0.1858
  543TMC3     H 8062   3.071   3.182  17.378  0.1676  0.2078  0.7494
  543TMC3    H1 8063   2.871   3.551  17.401 -1.5554 -0.2648 -1.4583
  543TMC3    H2 8064   2.798   3.253   0.014 -0.3819  0.5749 -0.1846
  543TMC3    C7 8065   2.805   3.524  17.662  0.3216 -0.0359  0.6525
  543TMC3    C8 8066   2.930   3.055  17.565  0.5313 -1.1213  0.4720
  543TMC3    O1 8067   2.764   3.626  17.611  0.3898 -0.3069  0.2150
  543TMC3    O2 8068   2.960   2.989  17.469 -1.0253 -0.1504  0.3443
  544MPD2     C 8069   2.908   2.643   0.196 -0.1469  0.4146  0.1774
  544MPD2    C1 8070   2.883   2.656   0.059 -0.4087  0.4714  0.3408
  544MPD2    C2 8071   2.899   2.780  17.680  0.1413  0.4166 -0.0486
  544MPD2    C3 8072   2.928   2.895   0.070  0.5868  0.0460 -0.4619
  544MPD2    C4 8073   2.949   2.872   0.209  0.8187  0.1543  0.3946
  544MPD2    C5 8074   2.950   2.753   0.266 -0.0876 -0.0006 -0.0058
  544MPD2     H 8075   2.864   2.800  17.579  0.2753 -0.8855 -0.3556
  544MPD2    H1 8076   2.956   2.959   0.274 -0.5071  0.0993  0.6105
  544MPD2    H2 8077   2.892   2.547   0.244  0.6891  0.8350  1.2906
  544MPD2    H3 8078   2.973   2.742   0.372  0.3841  1.0304 -0.0016
  544MPD2     N 8079   2.929   3.023   0.019  0.0317 -0.2979 -0.6220
  544MPD2    H5 8080   2.939   3.101   0.084 -0.6909  0.6760 -1.6805
  544MPD2    N1 8081   2.848   2.538  17.678 -0.1239 -0.1947  0.5393
  544MPD2    H7 8082   2.828   2.459   0.053  0.2751 -0.5924  0.1450
  545TMC3    C1 8083   2.757   2.414  17.506  0.6136 -0.3367  0.5413
  545TMC3    C2 8084   2.637   2.435  17.457 -0.3812  0.2614  0.6909
  545TMC3    C3 8085   2.573   2.329  17.403 -0.4593  0.0575  0.1184
  545TMC3    C4 8086   2.827   2.298  17.493 -0.0921 -0.5749  0.1658
  545TMC3    C5 8087   2.757   2.192  17.444 -0.4131 -0.0888 -0.7638
  545TMC3    C6 8088   2.629   2.201  17.396 -0.0637  0.0235  0.2711
  545TMC3     C 8089   2.818   2.531  17.546  0.5319  0.4065 -0.0894
  545TMC3     O 8090   2.811   2.614  17.455  0.0739  0.2307 -0.2069
  545TMC3     H 8091   2.593   2.531  17.479  1.6788  1.0094  1.5210
  545TMC3    H1 8092   2.929   2.291  17.530 -0.6203 -2.3907  1.2678
  545TMC3    H2 8093   2.567   2.115  17.371 -1.4090  0.8394  0.8136
  545TMC3    C7 8094   2.821   2.062  17.452 -0.3439  0.4249  0.0398
  545TMC3    C8 8095   2.453   2.366  17.327  0.6364  0.0389 -0.1008
  545TMC3    O1 8096   2.757   1.962  17.435 -0.2888  0.5570 -0.1751
  545TMC3    O2 8097   2.398   2.466  17.367 -0.7255  0.3271  0.1780
  546MPD2     C 8098   0.172   3.235  17.358 -0.4521 -0.4740 -0.6901
  546MPD2    C1 8099   0.065   3.276  17.275 -0.2987 -0.0639  0.2640
  546MPD2    C2 8100   0.084   3.377  17.185  0.3434 -0.0181 -0.0044
  546MPD2    C3 8101   0.209   3.441  17.176 -0.5770 -0.5533 -0.6492
  546MPD2    C4 8102   0.312   3.396  17.251  0.1165 -0.3504 -0.3978
  546MPD2    C5 8103   0.296   3.295  17.343 -0.2752 -0.1047  0.6845
  546MPD2     H 8104   0.009   3.390  17.108 -2.1851  0.6629  2.5944
  546MPD2    H1 8105   0.414   3.428  17.230  0.0351 -1.5121 -2.5371
  546MPD2    H2 8106   0.161   3.170  17.444  1.9685 -1.5142 -1.1487
  546MPD2    H3 8107   0.380   3.277  17.410  0.1705  0.1388  0.1950
  546MPD2     N 8108   0.227   3.554  17.088 -0.2143  0.1500 -0.5832
  546MPD2    H5 8109   0.321   3.590  17.072 -0.3761  1.2365  0.9273
  546MPD2    N1 8110   4.669   3.195  17.285  0.4873 -0.5846 -0.2271
  546MPD2    H7 8111   4.674   3.101  17.322 -0.5161 -0.6928 -0.3565
  547TMC3    C1 8112   4.441   3.157  17.273 -0.0079 -0.6216 -0.0143
  547TMC3    C2 8113   4.314   3.201  17.239  0.1480  0.6684 -0.4256
  547TMC3    C3 8114   4.217   3.111  17.214 -0.2205  0.3450  0.4211
  547TMC3    C4 8115   4.464   3.024  17.288 -0.5108 -0.3045 -0.3536
  547TMC3    C5 8116   4.365   2.936  17.258 -1.1971  0.3000 -0.2859
  547TMC3    C6 8117   4.235   2.979  17.220 -0.1534 -0.9371  0.4409
  547TMC3     C 8118   4.548   3.252  17.271  0.0018  0.7146 -0.2332
  547TMC3     O 8119   4.507   3.356  17.216  0.2126  0.4221  0.2799
  547TMC3     H 8120   4.294   3.305  17.215 -3.3345  0.0407 -0.2221
  547TMC3    H1 8121   4.559   2.981  17.320 -0.1798  0.2430 -0.5958
  547TMC3    H2 8122   4.150   2.912  17.208 -0.7709 -0.0542 -0.1002
  547TMC3    C7 8123   4.366   2.830  17.353 -0.5118 -0.0595 -0.3335
  547TMC3    C8 8124   4.089   3.151  17.157  0.1089 -0.1456 -0.7241
  547TMC3    O1 8125   4.419   2.856  17.461  0.5250 -0.3526  0.4839
  547TMC3    O2 8126   4.051   3.083  17.062 -0.9942  0.2774 -0.0697
  548MPD2     C 8127   4.503   3.968  12.144  0.0997  0.9839 -0.4159
  548MPD2    C1 8128   4.476   3.849  12.195  0.0650  1.1700  0.1207
  548MPD2    C2 8129   4.522   3.734  12.134 -0.0508 -0.1522  1.1859
  548MPD2    C3 8130   4.588   3.733  12.012  0.1440  0.2922  0.4643
  548MPD2    C4 8131   4.607   3.858  11.955 -1.0029  0.0787 -0.4965
  548MPD2    C5 8132   4.554   3.967  12.020 -0.3959  0.2377  0.3834
  548MPD2     H 8133   4.506   3.637  12.181 -0.7462 -1.5347 -1.8917
  548MPD2    H1 8134   4.663   3.859  11.862  0.8816  0.1623  0.6326
  548MPD2    H2 8135   4.476   4.057  12.199  2.2248  0.5523  1.3546
  548MPD2    H3 8136   4.577   4.061  11.972  0.8369 -0.6726 -0.8036
  548MPD2     N 8137   4.635   3.610  11.957  0.0377  0.3592 -0.3106
  548MPD2    H5 8138   4.619   3.529  12.015  2.2181  0.5477  0.5556
  548MPD2    N1 8139   4.393   3.844  12.306 -0.2631 -0.5210 -0.1511
  548MPD2    H7 8140   4.348   3.933  12.324 -1.7876 -1.5786  1.3328
  549TMC3    C1 8141   4.228   3.770  12.468  0.4445  0.2539  0.5078
  549TMC3    C2 8142   4.165   3.893  12.465 -0.6004  0.6243  0.5109
  549TMC3    C3 8143   4.082   3.923  12.565  0.4665 -0.0706  0.2470
  549TMC3    C4 8144   4.178   3.671  12.549  0.3455 -0.0756  0.5236
  549TMC3    C5 8145   4.075   3.704  12.631  0.2423  0.0469 -0.1491
  549TMC3    C6 8146   4.029   3.832  12.645 -0.6317 -0.1430 -0.2363
  549TMC3     C 8147   4.336   3.733  12.376 -0.4445 -0.0615  0.4667
  549TMC3     O 8148   4.372   3.613  12.371  0.1860  0.7308  0.4250
  549TMC3     H 8149   4.190   3.976  12.400  1.2106 -0.8044 -0.6233
  549TMC3    H1 8150   4.216   3.571  12.531  1.0556 -0.0211  1.6943
  549TMC3    H2 8151   3.946   3.854  12.711 -1.5330 -0.3552 -1.3128
  549TMC3    C7 8152   3.977   3.607  12.688 -0.2583  0.5107  0.2003
  549TMC3    C8 8153   4.001   4.043  12.567  0.4849  0.3931 -0.1905
  549TMC3    O1 8154   3.861   3.639  12.690  0.3622 -0.2338  0.0354
  549TMC3    O2 8155   3.882   4.036  12.599  0.2586  0.3643 -0.1304
  550TMC3    C1 8156   3.436   1.803  12.219 -0.2335 -0.5962 -0.2951
  550TMC3    C2 8157   3.486   1.854  12.341  0.5432 -0.0022 -0.4394
  550TMC3    C3 8158   3.423   1.960  12.398  0.0787 -0.0034 -0.3944
  550TMC3    C4 8159   3.334   1.863  12.149  0.4161  0.1402 -0.9056
  550TMC3    C5 8160   3.274   1.969  12.210 -0.7706  0.6791 -0.0367
  550TMC3    C6 8161   3.320   2.021  12.332  0.6424  0.8848  0.1612
  550TMC3     C 8162   3.521   1.707  12.159  0.3778 -0.8626  0.3134
  550TMC3     O 8163   3.633   1.692  12.201 -0.4700  0.0063  0.2796
  550TMC3     H 8164   3.567   1.805  12.393 -0.6762 -2.0030 -0.4168
  550TMC3    H1 8165   3.307   1.835  12.048  1.3738  1.4660 -1.5203
  550TMC3    H2 8166   3.254   2.087  12.388 -0.0624 -1.0066  1.5383
  550TMC3    C7 8167   3.182   2.051  12.131  0.0355 -0.4631  0.5786
  550TMC3    C8 8168   3.468   1.992  12.534 -0.6338  0.7811  0.5925
  550TMC3    O1 8169   3.111   1.984  12.052  0.0888  0.1161 -0.4977
  550TMC3    O2 8170   3.540   1.907  12.581 -0.3025 -0.0094  0.5762
  551TMC3    C1 8171   0.676   4.165  13.139 -0.3034 -0.1097  0.2276
  551TMC3    C2 8172   0.771   4.207  13.050 -0.2359  0.5261 -0.1891
  551TMC3    C3 8173   0.861   4.297  13.100 -0.3343  0.3238  0.4739
  551TMC3    C4 8174   0.675   4.219  13.266 -0.2544  0.0163 -0.3047
  551TMC3    C5 8175   0.765   4.308  13.307  0.6211  0.2459 -0.1124
  551TMC3    C6 8176   0.861   4.357  13.225  0.0361  0.4849  0.9254
  551TMC3     C 8177   0.558   4.115  13.070 -0.4099 -0.3495  0.3883
  551TMC3     O 8178   0.574   4.043  12.968 -0.3586  0.2981  0.0175
  551TMC3     H 8179   0.776   4.158  12.954  1.8615 -2.1636  1.3175
  551TMC3    H1 8180   0.600   4.170  13.325  1.2749 -0.5766  1.1451
  551TMC3    H2 8181   0.938   4.426  13.257 -0.6127  2.3576 -1.5480
  551TMC3    C7 8182   0.791   4.341  13.453  0.5115  0.0324  0.0696
  551TMC3    C8 8183   0.942   4.361  12.997 -0.2588  0.1959 -0.0403
  551TMC3    O1 8184   0.888   4.408  13.482  0.0336  0.3589  0.5433
  551TMC3    O2 8185   0.976   4.293  12.900  0.1355  0.3637  0.0948
  552MPD2     C 8186   2.964   2.048  14.136 -0.2958  0.2551  0.1487
  552MPD2    C1 8187   2.961   1.920  14.190 -1.0713  0.0512  0.4283
  552MPD2    C2 8188   3.060   1.883  14.278  0.1537  0.4589  0.2360
  552MPD2    C3 8189   3.172   1.962  14.299 -0.4880  0.1590  0.1482
  552MPD2    C4 8190   3.183   2.083  14.231  0.7390  1.5134 -0.6935
  552MPD2    C5 8191   3.076   2.128  14.154 -0.0780 -0.4478 -0.2220
  552MPD2     H 8192   3.050   1.788  14.330 -1.8169 -0.0274 -1.0320
  552MPD2    H1 8193   3.271   2.146  14.244  0.6222  1.5945 -0.2986
  552MPD2    H2 8194   2.885   2.095  14.078  0.8717  3.4499  1.1481
  552MPD2    H3 8195   3.072   2.227  14.110 -0.0015 -0.0239  0.7226
  552MPD2     N 8196   3.275   1.934  14.396  0.3308 -0.7306  0.2927
  552MPD2    H5 8197   3.346   2.006  14.404 -0.2115  0.0563 -1.9656
  552MPD2    N1 8198   2.852   1.833  14.173 -0.0857  0.1383 -0.1268
  552MPD2    H7 8199   2.855   1.744  14.222  0.0862  0.7976  1.0687
  553TMC3    C1 8200   2.649   1.755  14.061  0.0939 -0.9759 -0.5664
  553TMC3    C2 8201   2.580   1.743  13.941 -0.2339 -0.7901  0.8793
  553TMC3    C3 8202   2.475   1.662  13.939 -0.5620  0.1623 -0.4363
  553TMC3    C4 8203   2.616   1.686  14.177 -0.1137  0.2864 -0.5361
  553TMC3    C5 8204   2.506   1.606  14.166  0.4340  0.4184 -0.2183
  553TMC3    C6 8205   2.436   1.594  14.049 -0.7592  0.4160  0.5529
  553TMC3     C 8206   2.760   1.846  14.068  0.3637 -0.4508 -0.4310
  553TMC3     O 8207   2.762   1.925  13.977  0.3735 -0.6070 -0.3001
  553TMC3     H 8208   2.613   1.795  13.851  1.6686  2.3587  3.4240
  553TMC3    H1 8209   2.661   1.694  14.275 -0.6932  2.5074 -0.4558
  553TMC3    H2 8210   2.356   1.520  14.046 -0.7614  0.4482 -0.1724
  553TMC3    C7 8211   2.504   1.477  14.231  0.3012  0.0796 -0.2771
  553TMC3    C8 8212   2.448   1.597  13.817  0.3935  0.8917 -0.0488
  553TMC3    O1 8213   2.413   1.423  14.293 -0.8432 -0.0000 -0.1097
  553TMC3    O2 8214   2.550   1.579  13.753 -0.1342 -0.0761  0.4527
  554TMC3    C1 8215   0.347   0.673  11.477  0.1539 -0.0924  0.0419
  554TMC3    C2 8216   0.261   0.598  11.398  0.9413 -0.4687  0.2213
  554TMC3    C3 8217   0.236   0.647  11.275  0.5323  0.5749  0.2558
  554TMC3    C4 8218   0.391   0.800  11.448 -0.0059 -0.5953  0.0183
  554TMC3    C5 8219   0.352   0.847  11.327  0.0570  0.2306  0.5597
  554TMC3    C6 8220   0.288   0.771  11.233 -0.1198  0.6571 -0.4678
  554TMC3     C 8221   0.377   0.615  11.608  0.7173  0.4295  0.3466
  554TMC3     O 8222   0.428   0.696  11.681 -0.2763  0.0799 -0.0375
  554TMC3     H 8223   0.218   0.501  11.422 -0.4821 -0.0064 -0.4441
  554TMC3    H1 8224   0.453   0.839  11.528  0.0056  0.4551 -0.5024
  554TMC3    H2 8225   0.252   0.818  11.142 -1.0404 -0.5626 -0.7367
  554TMC3    C7 8226   0.343   0.993  11.294 -0.2989 -0.1506 -0.0522
  554TMC3    C8 8227   0.123   0.598  11.199 -0.0237 -0.6309 -0.4077
  554TMC3    O1 8228   0.287   1.034  11.191  0.2459 -0.5317  0.0581
  554TMC3    O2 8229   0.140   0.630  11.082  0.2471 -0.1728  0.1754
  555TMC3    C1 8230   3.471   4.659  14.865  0.4830  0.1125  0.1129
  555TMC3    C2 8231   3.399   0.035  14.931  0.7138  0.2102  0.6846
  555TMC3    C3 8232   3.365   0.010  15.061  0.5437  0.3052  0.0228
  555TMC3    C4 8233   3.513   4.541  14.927  0.3283 -0.0269 -0.2702
  555TMC3    C5 8234   3.477   4.523  15.058  0.4602  0.6089  0.4080
  555TMC3    C6 8235   3.394   4.607  15.123  0.4321  0.6081 -0.5611
  555TMC3     C 8236   3.543   4.690  14.737 -0.1275  0.0552 -0.6278
  555TMC3     O 8237   3.628   4.607  14.704 -0.6337  0.2424  0.0892
  555TMC3     H 8238   3.373   0.132  14.889 -1.0177 -0.3755  0.3927
  555TMC3    H1 8239   3.571   4.460  14.884 -2.5107 -1.9834 -0.3651
  555TMC3    H2 8240   3.373   4.600  15.230 -1.0056  0.5015 -0.8464
  555TMC3    C7 8241   3.490   4.394  15.116  0.3632  0.1712 -0.0226
  555TMC3    C8 8242   3.344   0.126  15.149  0.6324 -0.2774 -0.1357
  555TMC3    O1 8243   3.409   4.366  15.207 -0.1142  0.3169  0.2146
  555TMC3    O2 8244   3.280   0.216  15.102  0.3247 -0.1659  0.1682
  556MPD2     C 8245   0.912   1.763  10.338  0.7986 -0.2651  0.1057
  556MPD2    C1 8246   1.040   1.726  10.371 -0.0248 -0.5316 -0.0781
  556MPD2    C2 8247   1.108   1.647  10.278  0.5032  0.4320  1.0619
  556MPD2    C3 8248   1.049   1.607  10.159 -0.2719 -0.0245  0.0965
  556MPD2    C4 8249   0.921   1.649  10.130 -0.0926  0.7804  0.4027
  556MPD2    C5 8250   0.847   1.721  10.219  0.6979  0.0350  0.1678
  556MPD2     H 8251   1.208   1.615  10.306  0.9670  0.1960 -0.8943
  556MPD2    H1 8252   0.861   1.616  10.046  0.5989  0.9009 -0.1324
  556MPD2    H2 8253   0.849   1.819  10.407 -1.5118 -1.6612 -0.8774
  556MPD2    H3 8254   0.742   1.741  10.204  0.5808 -0.3297  0.5278
  556MPD2     N 8255   1.122   1.510  10.083  0.2985 -0.0039  0.0668
  556MPD2    H5 8256   1.215   1.488  10.115 -0.6699 -1.7201  1.7030
  556MPD2    N1 8257   1.100   1.745  10.495  0.1784 -0.2486  0.5913
  556MPD2    H7 8258   1.198   1.720  10.505 -0.3870 -3.3676 -1.7278
  557TMC3    C1 8259   1.150   1.315   9.952  0.4276 -0.2227  0.3879
  557TMC3    C2 8260   1.097   1.257   9.843 -0.3469 -0.1147 -0.0236
  557TMC3    C3 8261   1.084   1.124   9.838 -0.2203 -0.1678 -0.0608
  557TMC3    C4 8262   1.192   1.247  10.061 -0.6981  0.0110 -0.8013
  557TMC3    C5 8263   1.175   1.113  10.060  0.1919 -0.1153  0.1039
  557TMC3    C6 8264   1.112   1.047   9.951  0.6493  0.8599  0.3614
  557TMC3     C 8265   1.076   1.438   9.977 -0.2439 -0.2622 -0.0016
  557TMC3     O 8266   0.972   1.447   9.916 -0.0560  0.0309 -0.1060
  557TMC3     H 8267   1.062   1.313   9.757 -0.3434  1.6824  1.1407
  557TMC3    H1 8268   1.225   1.307  10.145  0.5621 -2.2038  0.2764
  557TMC3    H2 8269   1.082   0.944   9.963  0.7885  0.5340 -2.1060
  557TMC3    C7 8270   1.193   1.045  10.189 -1.0441 -0.2052  0.1115
  557TMC3    C8 8271   1.071   1.067   9.702  0.0555  0.4772 -0.4594
  557TMC3    O1 8272   1.184   1.112  10.290 -0.1908  0.0398 -0.3273
  557TMC3    O2 8273   1.065   1.145   9.605 -0.2932 -0.0810  0.2973
  558TMC3    C1 8274   4.193   4.594  10.219 -0.0917  0.0647  0.3213
  558TMC3    C2 8275   4.079   4.578  10.296  0.3366 -0.1972  0.0805
  558TMC3    C3 8276   3.966   4.631  10.248  0.4440 -0.3068 -1.1029
  558TMC3    C4 8277   4.199   4.647  10.095  0.1349  0.1550 -0.3000
  558TMC3    C5 8278   4.082   4.687  10.039 -0.7302 -0.4343  0.3080
  558TMC3    C6 8279   3.968   4.678  10.112  0.2967 -0.3827  0.0520
  558TMC3     C 8280   4.308   4.507  10.236 -0.3762  0.7944  0.3605
  558TMC3     O 8281   4.421   4.550  10.208  0.2542  0.8523  0.1087
  558TMC3     H 8282   4.086   4.505  10.376 -3.0861 -0.2145  0.3864
  558TMC3    H1 8283   4.295   4.650  10.045  0.4182 -0.7253  0.1875
  558TMC3    H2 8284   3.887   0.006  10.059 -0.6804  2.6780  4.3760
  558TMC3    C7 8285   4.070   4.655   9.902  0.2085 -0.5432 -0.1344
  558TMC3    C8 8286   3.843   4.579  10.295 -0.2650 -0.2636 -0.3811
  558TMC3    O1 8287   4.161   4.682   9.822 -0.1020 -0.3560 -0.2269
  558TMC3    O2 8288   3.748   4.591  10.216 -0.3845  0.3665  0.0780
  559MPD2     C 8289   4.161   0.239  10.356  0.6907  0.1587  0.2399
  559MPD2    C1 8290   4.110   0.191  10.476 -0.1040 -0.3225 -0.2102
  559MPD2    C2 8291   4.197   0.128  10.557 -0.3424 -0.1839 -0.1147
  559MPD2    C3 8292   4.332   0.126  10.535 -0.0387 -0.4590 -0.4776
  559MPD2    C4 8293   4.374   0.178  10.417 -0.5618  0.2639 -0.1967
  559MPD2    C5 8294   4.290   0.228  10.326  0.5862  0.6440 -0.7667
  559MPD2     H 8295   4.158   0.097  10.654 -0.7669  0.4139 -0.0951
  559MPD2    H1 8296   4.478   0.178  10.384  0.1121 -0.0283  1.9615
  559MPD2    H2 8297   4.097   0.281  10.280 -1.4074 -4.2288 -0.4168
  559MPD2    H3 8298   4.328   0.257  10.229  0.2661 -0.6369 -1.2646
  559MPD2     N 8299   4.420   0.072  10.629 -0.2164 -0.3083  0.3343
  559MPD2    H5 8300   4.379   0.023  10.707 -2.6881 -0.8755 -1.3120
  559MPD2    N1 8301   3.979   0.205  10.497 -0.4369 -0.2777  0.2848
  559MPD2    H7 8302   3.935   0.278  10.442 -1.2514 -1.3288 -0.4418
  560TMC3    C1 8303   4.602   0.008  10.750 -0.6570  0.5919 -0.0328
  560TMC3    C2 8304   4.520   4.636  10.816  0.2921 -0.1174 -0.8069
  560TMC3    C3 8305   4.551   4.600  10.940 -0.2137  0.0176 -0.2571
  560TMC3    C4 8306   4.714   0.054  10.811 -0.4751 -0.0057  0.5455
  560TMC3    C5 8307   0.027   0.010  10.938  0.3641  0.0853  0.2413
  560TMC3    C6 8308   4.662   4.647  11.002 -0.7619  0.2688 -0.4441
  560TMC3     C 8309   4.558   0.088  10.638  0.2369  0.1448  0.2069
  560TMC3     O 8310   4.637   0.154  10.571  0.0824  0.2283  0.3542
  560TMC3     H 8311   4.436   4.588  10.766  0.1887 -0.4201 -0.3412
  560TMC3    H1 8312   0.052   0.126  10.755  0.3028 -0.2353  1.0572
  560TMC3    H2 8313   4.675   4.615  11.105 -0.0253 -0.8611 -0.8769
  560TMC3    C7 8314   0.101   0.106  11.014 -0.5564  0.3940  0.8221
  560TMC3    C8 8315   4.465   4.500  11.008  0.6298 -0.1273  0.4006
  560TMC3    O1 8316   0.063   0.128  11.131  0.0996 -0.8909 -0.7399
  560TMC3    O2 8317   4.370   4.474  10.941  0.4383  0.1572  0.6837
  561TMC3    C1 8318   1.929   4.061  11.397  0.2845 -0.2733 -0.7229
  561TMC3    C2 8319   1.905   4.005  11.519  0.0176  0.5142  0.2129
  561TMC3    C3 8320   1.820   4.072  11.602  0.2805  0.4885  0.0697
  561TMC3    C4 8321   1.895   4.189  11.364  0.1151 -0.6511 -0.1846
  561TMC3    C5 8322   1.825   4.259  11.456  0.4746 -0.2471 -0.8945
  561TMC3    C6 8323   1.779   4.202  11.574 -0.9701  0.0850  0.4847
  561TMC3     C 8324   1.905   3.973  11.287 -0.4607  0.3266 -0.0441
  561TMC3     O 8325   1.868   4.023  11.182  0.1026 -0.6069 -0.4799
  561TMC3     H 8326   1.934   3.903  11.541 -0.3562  0.0314 -1.5454
  561TMC3    H1 8327   1.929   4.234  11.271  0.4521  0.9881  0.7375
  561TMC3    H2 8328   1.717   4.262  11.641 -1.8570  0.3762 -0.5981
  561TMC3    C7 8329   1.851   4.406  11.458  0.5099  0.3936 -0.0219
  561TMC3    C8 8330   1.802   4.037  11.741  0.4108  0.6892 -0.0276
  561TMC3    O1 8331   1.779   4.466  11.537 -0.2360 -0.1344  0.4275
  561TMC3    O2 8332   1.880   3.966  11.799  0.6646 -0.3886  0.0513
  562TMC3    C1 8333   3.583   0.359  16.084 -0.0929 -1.3397  0.7683
  562TMC3    C2 8334   3.517   0.461  16.021 -0.1263  0.1651 -0.6145
  562TMC3    C3 8335   3.388   0.439  15.974 -0.3557  0.1278 -0.4319
  562TMC3    C4 8336   3.525   0.241  16.101 -0.0395 -0.4588 -0.0655
  562TMC3    C5 8337   3.393   0.228  16.070 -0.0548 -0.3452  0.3870
  562TMC3    C6 8338   3.324   0.325  15.998 -0.3888 -0.0506  0.1607
  562TMC3     C 8339   3.701   0.388  16.163 -0.0233  0.0418 -0.1098
  562TMC3     O 8340   3.776   0.298  16.201  0.1871 -0.0811  0.0835
  562TMC3     H 8341   3.563   0.556  15.997 -1.1167  0.0722 -2.9315
  562TMC3    H1 8342   3.569   0.159  16.157 -2.4220 -0.2792  2.1048
  562TMC3    H2 8343   3.219   0.318  15.971 -0.1833 -2.7966  0.0410
  562TMC3    C7 8344   3.336   0.094  16.037 -0.5418  0.4258  0.7332
  562TMC3    C8 8345   3.308   0.547  15.929 -0.1010  0.5146  0.3835
  562TMC3    O1 8346   3.219   0.085  16.005 -0.4809 -0.2314 -0.0238
  562TMC3    O2 8347   3.193   0.536  15.974  0.4661  0.1792  0.5614
  563MPD2     C 8348   0.901   1.493  15.358 -0.1001  0.8284 -0.0882
  563MPD2    C1 8349   0.969   1.604  15.396  0.1831  0.3812 -0.2649
  563MPD2    C2 8350   1.093   1.598  15.448  0.0721 -0.3749  0.4305
  563MPD2    C3 8351   1.154   1.476  15.461 -0.1339 -0.5299 -0.5225
  563MPD2    C4 8352   1.095   1.363  15.402  0.3834 -0.6723  0.9194
  563MPD2    C5 8353   0.967   1.372  15.352  0.7892  0.0698 -0.0095
  563MPD2     H 8354   1.134   1.686  15.497 -1.8133  1.3983 -1.1362
  563MPD2    H1 8355   1.130   1.262  15.419 -0.4754 -1.2751 -0.8744
  563MPD2    H2 8356   0.805   1.497  15.308 -0.1086  2.6186  0.0638
  563MPD2    H3 8357   0.924   1.284  15.306  0.7190  0.1521 -0.1012
  563MPD2     N 8358   1.276   1.465  15.534 -0.4892 -0.3516 -0.2021
  563MPD2    H5 8359   1.315   1.554  15.560 -0.2668 -0.0026 -1.7144
  563MPD2    N1 8360   0.900   1.724  15.383 -0.6864  0.6477 -0.3067
  563MPD2    H7 8361   0.799   1.713  15.384 -0.6878  0.5556 -2.0273
  564TMC3    C1 8362   0.895   1.913  15.526  0.6731  0.0740 -0.1482
  564TMC3    C2 8363   0.766   1.870  15.550 -0.3434  0.3665 -0.1261
  564TMC3    C3 8364   0.724   1.846  15.677 -0.4994  0.3119 -0.5884
  564TMC3    C4 8365   0.977   1.940  15.629  0.0703  0.3054 -0.1110
  564TMC3    C5 8366   0.936   1.906  15.755  0.0418 -0.1576 -0.2468
  564TMC3    C6 8367   0.817   1.859  15.781 -0.4230 -0.2650  0.3321
  564TMC3     C 8368   0.957   1.846  15.411 -0.7356  0.5958  0.7376
  564TMC3     O 8369   1.069   1.877  15.387 -0.4138  0.2057 -0.4897
  564TMC3     H 8370   0.686   1.858  15.478 -1.4716 -0.5272  1.2893
  564TMC3    H1 8371   1.084   1.948  15.617 -0.3804  1.4807 -3.3184
  564TMC3    H2 8372   0.787   1.824  15.879 -0.8016  1.3200  0.7863
  564TMC3    C7 8373   1.045   1.900  15.854 -0.6369  0.3159  0.1940
  564TMC3    C8 8374   0.623   1.743  15.713  0.0882  0.0367 -0.4818
  564TMC3    O1 8375   1.088   2.012  15.875 -0.3062 -0.4931 -0.0485
  564TMC3    O2 8376   0.593   1.723  15.829  0.1460  0.1044 -0.3233
  565TMC3    C1 8377   1.492   3.541  10.114  0.4459 -0.0062  0.8675
  565TMC3    C2 8378   1.412   3.444  10.165  0.1107  0.3288  0.2404
  565TMC3    C3 8379   1.293   3.418  10.106 -0.3422  1.3942  0.4913
  565TMC3    C4 8380   1.460   3.601   9.997 -0.0099  0.2299  0.4516
  565TMC3    C5 8381   1.345   3.564   9.929 -0.4565 -0.4697  0.0479
  565TMC3    C6 8382   1.249   3.488   9.992  0.5090 -0.1872  0.6081
  565TMC3     C 8383   1.630   3.560  10.158 -0.0787  0.3025 -0.8640
  565TMC3     O 8384   1.710   3.590  10.070 -0.0436  0.1221 -0.6284
  565TMC3     H 8385   1.435   3.386  10.253  1.3226  3.5709  2.0722
  565TMC3    H1 8386   1.530   3.677   9.963  0.6155 -0.5681 -0.0619
  565TMC3    H2 8387   1.162   3.455   9.937  0.7751 -1.8337  1.1676
  565TMC3    C7 8388   1.301   3.639   9.814 -0.0442 -0.3905 -0.4314
  565TMC3    C8 8389   1.219   3.298  10.151 -0.5380 -0.3117 -0.5463
  565TMC3    O1 8390   1.181   3.625   9.789 -0.5804 -0.5294  0.4865
  565TMC3    O2 8391   1.272   3.231  10.238  0.3115  0.6075  0.1218
  566MPD2     C 8392   2.890   0.105  13.883  0.0122 -0.1873 -1.1411
  566MPD2    C1 8393   2.984   0.009  13.903 -0.7126  0.4788  0.2798
  566MPD2    C2 8394   3.023   4.652  13.792  1.6167  0.5253  0.0002
  566MPD2    C3 8395   2.972   4.691  13.669 -1.0070 -0.2567  0.3731
  566MPD2    C4 8396   2.869   0.065  13.659 -0.4669 -0.2292 -0.0029
  566MPD2    C5 8397   2.834   0.137  13.765  0.3103 -0.2682 -0.1713
  566MPD2     H 8398   3.099   4.574  13.800  1.4980  0.3960 -0.1240
  566MPD2    H1 8399   2.815   0.089  13.568 -1.9773 -0.6041  0.7924
  566MPD2    H2 8400   2.846   0.143  13.975 -0.2358 -1.0479 -0.9031
  566MPD2    H3 8401   2.757   0.212  13.756  0.3378 -0.2549 -0.2937
  566MPD2     N 8402   3.015   4.618  13.554 -1.0431 -1.0658  0.1484
  566MPD2    H5 8403   2.978   4.651  13.466  1.1799 -1.1010 -0.7922
  566MPD2    N1 8404   3.036   4.699  14.032  0.6589  0.0133  0.5032
  566MPD2    H7 8405   3.047   0.057  14.095  1.4488 -0.8277  1.4022
  567TMC3    C1 8406   3.225   4.611  14.157  0.2912  1.3666 -0.2936
  567TMC3    C2 8407   3.312   4.708  14.119  0.2243 -0.1234 -0.6244
  567TMC3    C3 8408   3.438   4.706  14.172  0.5928  0.6950  0.3181
  567TMC3    C4 8409   3.262   4.503  14.232  0.4158 -0.1784  0.1234
  567TMC3    C5 8410   3.392   4.502  14.284 -0.0625 -0.4851  0.1202
  567TMC3    C6 8411   3.481   4.603  14.253 -0.5376  0.2932  0.6587
  567TMC3     C 8412   3.113   4.585  14.064 -0.1341 -0.1525  0.3149
  567TMC3     O 8413   3.110   4.471  14.019 -0.5039 -0.4776 -0.0148
  567TMC3     H 8414   3.273   0.070  14.061 -0.7502 -0.9644 -1.1614
  567TMC3    H1 8415   3.178   4.442  14.266  0.6073 -0.8474 -0.6045
  567TMC3    H2 8416   3.577   4.597  14.303  0.9143  1.2168 -2.0232
  567TMC3    C7 8417   3.422   4.409  14.396 -1.0947 -0.6223 -0.6202
  567TMC3    C8 8418   3.527   0.069  14.090 -0.1956 -0.1387  0.7379
  567TMC3    O1 8419   3.536   4.397  14.433  0.0377 -0.8103  0.3032
  567TMC3    O2 8420   3.478   0.154  14.016  0.3932 -0.0930 -0.6869
  568MPD2     C 8421   1.171   0.592  16.360  0.2689 -0.8598  0.0584
  568MPD2    C1 8422   1.092   0.649  16.450 -0.2446 -0.0001  1.1709
  568MPD2    C2 8423   1.014   0.761  16.408 -0.0805 -0.5308  0.7487
  568MPD2    C3 8424   1.026   0.803  16.276 -0.4337 -0.5351 -0.7548
  568MPD2    C4 8425   1.122   0.754  16.187  0.2364 -0.2227  0.1218
  568MPD2    C5 8426   1.191   0.646  16.231 -0.1315 -0.6296 -0.2532
  568MPD2     H 8427   0.944   0.804  16.479  1.2318  4.5756 -1.0404
  568MPD2    H1 8428   1.135   0.799  16.089 -0.6220  1.9001  0.9759
  568MPD2    H2 8429   1.235   0.508  16.382 -1.4721 -1.8721  1.1904
  568MPD2    H3 8430   1.264   0.608  16.161  0.0073  1.1409 -1.0555
  568MPD2     N 8431   0.939   0.907  16.228  0.1582 -0.3333 -0.4424
  568MPD2    H5 8432   0.938   0.907  16.126  0.6451 -2.5146 -0.4507
  568MPD2    N1 8433   1.079   0.585  16.573  0.1883 -0.5593  0.3565
  568MPD2    H7 8434   1.140   0.506  16.591  1.7536  1.0156  1.9346
  569TMC3    C1 8435   0.783   1.082  16.229  0.0357 -0.3269 -0.0132
  569TMC3    C2 8436   0.776   1.210  16.285 -0.6291  0.0642  0.1109
  569TMC3    C3 8437   0.686   1.296  16.230  0.2671 -0.2598  0.3520
  569TMC3    C4 8438   0.703   1.034  16.129 -0.0908  0.2693 -0.2351
  569TMC3    C5 8439   0.599   1.120  16.088 -0.1827  0.1415  0.3490
  569TMC3    C6 8440   0.600   1.249  16.133  0.2241 -0.4981 -0.1118
  569TMC3     C 8441   0.868   0.995  16.306 -0.1786 -0.3335 -0.2399
  569TMC3     O 8442   0.868   1.013  16.426  0.5625  0.4806  0.0936
  569TMC3     H 8443   0.858   1.234  16.352 -1.6639  0.8051  1.1148
  569TMC3    H1 8444   0.713   0.930  16.100  0.8333  0.5227 -0.8371
  569TMC3    H2 8445   0.512   1.310  16.112 -0.4676 -2.4195 -2.7607
  569TMC3    C7 8446   0.602   1.136  15.941 -0.3517 -0.4440 -0.1223
  569TMC3    C8 8447   0.704   1.442  16.232 -0.6844  0.2443  0.2485
  569TMC3    O1 8448   0.594   1.033  15.873 -0.1697  0.2405 -0.0558
  569TMC3    O2 8449   0.654   1.489  16.131  0.1394 -0.4368 -0.1059
  570TMC3    C1 8450   0.135   4.265  16.308  0.7934  0.2328 -0.8102
  570TMC3    C2 8451   0.249   4.265  16.235 -0.2030  0.1903 -0.5362
  570TMC3    C3 8452   0.342   4.365  16.251  0.6046 -0.2609  0.4463
  570TMC3    C4 8453   0.109   4.371  16.395 -0.3630  0.1760 -0.4900
  570TMC3    C5 8454   0.198   4.476  16.399 -0.5313 -0.3565 -0.0485
  570TMC3    C6 8455   0.319   4.472  16.328  0.1577  0.0532 -0.7409
  570TMC3     C 8456   0.074   4.141  16.329 -0.6404  0.6025  1.2881
  570TMC3     O 8457   0.088   4.053  16.247 -0.0588  0.7066 -0.2402
  570TMC3     H 8458   0.259   4.183  16.164  0.7413 -0.3911  0.2835
  570TMC3    H1 8459   0.011   4.385  16.439 -1.4063  0.6458 -2.9283
  570TMC3    H2 8460   0.397   4.543  16.351  0.4616 -0.9771  1.4942
  570TMC3    C7 8461   0.156   4.602  16.450 -0.4462  0.0489  0.1346
  570TMC3    C8 8462   0.426   4.400  16.139  0.1531  0.6325 -0.4203
  570TMC3    O1 8463   0.059   4.598  16.526  0.2774 -0.0972  0.1227
  570TMC3    O2 8464   0.411   4.517  16.115 -0.3536  0.2077 -0.0902
  571MPD2     C 8465   3.502   0.983  17.485  0.6934 -0.3605  0.3103
  571MPD2    C1 8466   3.386   0.988  17.411  0.7719  0.0350  0.2387
  571MPD2    C2 8467   3.280   1.069  17.446 -0.2133 -0.1283  0.3200
  571MPD2    C3 8468   3.291   1.153  17.556  0.0375 -0.9224  0.7871
  571MPD2    C4 8469   3.409   1.143  17.631  0.1983 -0.1937  0.0605
  571MPD2    C5 8470   3.514   1.070  17.596 -0.0303 -0.2654 -0.0211
  571MPD2     H 8471   3.185   1.061  17.394  0.6306  1.3086 -1.4359
  571MPD2    H1 8472   3.426   1.191   0.043  1.7589 -0.5301 -0.0485
  571MPD2    H2 8473   3.583   0.914  17.467 -1.2196 -2.5408  0.0298
  571MPD2    H3 8474   3.606   1.074  17.653  1.1541 -3.2691 -1.6939
  571MPD2     N 8475   3.183   1.233  17.596  0.1414  0.3712  0.0168
  571MPD2    H5 8476   3.092   1.226  17.553  0.0258 -0.1801  0.3545
  571MPD2    N1 8477   3.386   0.901  17.299  0.3440 -0.3562 -0.3377
  571MPD2    H7 8478   3.470   0.850  17.273  0.6637  0.1124 -0.2232
  572TMC3    C1 8479   3.058   1.366   0.038  0.0445 -0.3552 -0.2044
  572TMC3    C2 8480   2.957   1.278   0.035  0.4380  0.0175 -0.8255
  572TMC3    C3 8481   2.841   1.308   0.101 -0.0153  0.6298 -0.4230
  572TMC3    C4 8482   3.053   1.495   0.087 -0.2626  0.0002  0.0886
  572TMC3    C5 8483   2.933   1.523   0.153  0.6885 -0.0861 -0.7197
  572TMC3    C6 8484   2.822   1.432   0.158 -0.3019 -0.2218  0.1307
  572TMC3     C 8485   3.196   1.326   0.006  0.9784  0.4725 -0.0149
  572TMC3     O 8486   3.291   1.386   0.057 -0.1641 -0.1544  0.3892
  572TMC3     H 8487   2.978   1.177   0.004 -0.7601 -0.3063 -0.5831
  572TMC3    H1 8488   3.139   1.559   0.071 -1.0386  1.2540  0.8663
  572TMC3    H2 8489   2.728   1.469   0.197 -1.7805 -2.4312 -1.3474
  572TMC3    C7 8490   2.906   1.653   0.201 -0.3331  0.2977  0.2865
  572TMC3    C8 8491   2.738   1.203   0.106 -0.4317  0.1143 -0.2835
  572TMC3    O1 8492   2.801   1.674   0.254 -0.0682 -0.2259  0.0403
  572TMC3    O2 8493   2.770   1.094   0.058  0.5058  0.0903 -0.7425
  573MPD2     C 8494   4.409   2.006  17.541 -0.3077  0.0200  1.0259
  573MPD2    C1 8495   4.296   1.963  17.615  0.0319 -0.0894 -0.6696
  573MPD2    C2 8496   4.178   1.950  17.541 -0.0825  0.1100 -0.4430
  573MPD2    C3 8497   4.173   1.981  17.408 -0.5195  0.6192  0.9995
  573MPD2    C4 8498   4.281   2.034  17.344 -0.3671  0.3942 -0.0381
  573MPD2    C5 8499   4.397   2.056  17.412 -1.0366  0.1469 -0.2512
  573MPD2     H 8500   4.091   1.917  17.597  1.1843 -0.1929  1.3930
  573MPD2    H1 8501   4.273   2.075  17.244  0.8906  2.6496  0.7794
  573MPD2    H2 8502   4.505   2.020  17.589  0.1959  0.6833 -0.1462
  573MPD2    H3 8503   4.484   2.099  17.364  1.3687 -3.1163  1.1743
  573MPD2     N 8504   4.056   1.974  17.335 -0.3776 -0.2830 -0.1562
  573MPD2    H5 8505   4.044   2.028  17.250  0.0469  0.6168  0.3435
  573MPD2    N1 8506   4.309   1.932   0.068  0.1735  0.7031 -0.0654
  573MPD2    H7 8507   4.405   1.912   0.095  0.6118  0.5481 -1.7823
  574TMC3    C1 8508   3.842   1.906  17.280 -0.2083  0.9395  0.3483
  574TMC3    C2 8509   3.729   1.842  17.321 -0.4444 -0.0433 -0.1041
  574TMC3    C3 8510   3.607   1.884  17.284  0.1761 -0.1566  0.7545
  574TMC3    C4 8511   3.837   2.022  17.203  0.0542 -0.4713 -0.2568
  574TMC3    C5 8512   3.709   2.054  17.164  0.9238  0.0493 -0.5892
  574TMC3    C6 8513   3.597   1.992  17.208 -0.5793  0.3916  0.3716
  574TMC3     C 8514   3.959   1.882  17.358  0.2113  0.0948  0.0685
  574TMC3     O 8515   3.959   1.793  17.442 -0.2423 -0.5057 -0.3861
  574TMC3     H 8516   3.726   1.744  17.369  0.6524 -0.1837 -0.3144
  574TMC3    H1 8517   3.923   2.056  17.146  0.9919  0.9725  2.0412
  574TMC3    H2 8518   3.501   2.012  17.163 -0.8188 -0.1357  0.6540
  574TMC3    C7 8519   3.697   2.170  17.087 -0.4470  0.4988  0.0907
  574TMC3    C8 8520   3.489   1.828  17.333 -0.3715 -0.1288  0.7652
  574TMC3    O1 8521   3.797   2.233  17.056 -0.2897 -0.6135 -0.0660
  574TMC3    O2 8522   3.499   1.715  17.374 -0.0263 -0.4237 -0.7894
  575TMC3    C1 8523   1.094   2.670  10.720  0.5059  0.0055 -0.2670
  575TMC3    C2 8524   1.024   2.558  10.695 -0.5962  0.0598 -0.2180
  575TMC3    C3 8525   0.964   2.552  10.572  0.7102 -0.2858  0.2433
  575TMC3    C4 8526   1.113   2.769  10.628 -0.3560 -0.0524 -0.4612
  575TMC3    C5 8527   1.047   2.764  10.511  0.2880 -0.7138 -0.6729
  575TMC3    C6 8528   0.979   2.655  10.472 -0.2343 -0.1998  1.1653
  575TMC3     C 8529   1.123   2.701  10.861  0.1249  0.2386 -0.4764
  575TMC3     O 8530   1.160   2.817  10.889  0.0545 -0.2945 -0.0011
  575TMC3     H 8531   0.991   2.474  10.755 -2.6361  0.4610 -0.7942
  575TMC3    H1 8532   1.141   2.869  10.660 -2.4949  0.4605 -0.1846
  575TMC3    H2 8533   0.948   2.641  10.369  1.3314  0.5180  0.5936
  575TMC3    C7 8534   1.057   2.881  10.426 -0.3264 -0.1252  0.1499
  575TMC3    C8 8535   0.882   2.441  10.536  0.0996  0.4899 -0.1604
  575TMC3    O1 8536   1.158   2.953  10.435 -0.6356  0.5722  0.0857
  575TMC3    O2 8537   0.822   2.392  10.631 -0.0694 -0.0839  0.5412
  576MPD2     C 8538   0.527   3.923  12.443  0.1379  0.8131 -0.1558
  576MPD2    C1 8539   0.650   3.985  12.437 -0.0187 -0.2849  0.0359
  576MPD2    C2 8540   0.676   4.089  12.532 -0.1690  0.0027  0.2505
  576MPD2    C3 8541   0.582   4.142  12.619  0.1724 -0.3795  0.1837
  576MPD2    C4 8542   0.457   4.082  12.614  0.4328 -0.3079 -0.5745
  576MPD2    C5 8543   0.436   3.978  12.527 -1.0434 -0.0585  0.4146
  576MPD2     H 8544   0.770   4.143  12.531 -0.1405 -0.0316  0.9938
  576MPD2    H1 8545   0.374   4.122  12.672 -0.6022 -0.0177 -2.2567
  576MPD2    H2 8546   0.477   3.854  12.376  2.3104 -0.2239 -0.7080
  576MPD2    H3 8547   0.335   3.939  12.519 -1.6640  1.7452 -0.5789
  576MPD2     N 8548   0.604   4.261  12.698 -0.1702  0.3163 -0.1565
  576MPD2    H5 8549   0.695   4.302  12.679 -0.2106  0.0683 -0.8794
  576MPD2    N1 8550   0.752   3.954  12.342  0.3912 -0.3532  0.0302
  576MPD2    H7 8551   0.834   4.012  12.351 -0.5377  0.9908 -0.1323
  577TMC3    C1 8552   0.854   3.857  12.157  0.3202 -0.3841  0.3205
  577TMC3    C2 8553   0.974   3.900  12.199  0.1176 -0.0843  0.0809
  577TMC3    C3 8554   1.075   3.905  12.106  0.3535  0.6569 -0.2588
  577TMC3    C4 8555   0.835   3.832  12.024  0.0675  0.1606 -0.6748
  577TMC3    C5 8556   0.936   3.842  11.931  0.2847  0.3101 -0.3158
  577TMC3    C6 8557   1.058   3.887  11.970 -0.5100  0.1000  0.4822
  577TMC3     C 8558   0.733   3.868  12.241 -0.0161 -0.5942  0.1239
  577TMC3     O 8559   0.643   3.793  12.201  0.2811  0.7762 -0.4610
  577TMC3     H 8560   1.002   3.920  12.302  0.3294 -1.2303  0.2483
  577TMC3    H1 8561   0.744   3.796  11.978  1.3526  0.4469 -3.4466
  577TMC3    H2 8562   1.131   3.898  11.890 -1.7602  3.1278 -0.2462
  577TMC3    C7 8563   0.902   3.831  11.789  0.0849  0.3183  0.7520
  577TMC3    C8 8564   1.203   3.960  12.143 -0.3896  0.0523  0.2873
  577TMC3    O1 8565   0.800   3.770  11.763  0.0130 -0.7138  0.3355
  577TMC3    O2 8566   1.223   3.969  12.267 -0.0231  0.0796  0.4450
  578MPD2     C 8567   4.461   4.184   0.981 -0.3366  0.2346  1.3267
  578MPD2    C1 8568   4.451   4.054   0.927  0.2098 -0.0577  0.1045
  578MPD2    C2 8569   4.456   3.943   1.013 -0.9397  0.1503  0.2237
  578MPD2    C3 8570   4.474   3.962   1.147  0.0399  0.4399  0.5020
  578MPD2    C4 8571   4.486   4.092   1.200  0.4827 -0.6404  0.5841
  578MPD2    C5 8572   4.477   4.199   1.114  0.2540 -0.1138  0.0115
  578MPD2     H 8573   4.441   3.842   0.977  0.8495 -0.3271  0.8679
  578MPD2    H1 8574   4.505   4.115   1.304  2.0436  0.1272  0.1201
  578MPD2    H2 8575   4.472   4.272   0.917 -0.4176 -1.2702 -0.7490
  578MPD2    H3 8576   4.489   4.300   1.150  1.3711 -0.2641  0.0368
  578MPD2     N 8577   4.495   3.848   1.223 -0.0557  0.4403 -0.2911
  578MPD2    H5 8578   4.493   3.768   1.160  0.0988  1.9494 -2.1985
  578MPD2    N1 8579   4.457   4.042   0.784  0.3027 -0.1265  0.0435
  578MPD2    H7 8580   4.455   4.127   0.729  1.0102 -1.6222 -2.2965
  579TMC3    C1 8581   4.558   3.709   1.406 -1.4463  0.0540  0.6309
  579TMC3    C2 8582   4.649   3.710   1.512  0.6522 -0.8803 -0.1470
  579TMC3    C3 8583   0.000   3.598   1.533 -0.1750  0.0809 -0.3497
  579TMC3    C4 8584   4.531   3.604   1.325  0.1247  0.0033  0.0034
  579TMC3    C5 8585   4.602   3.489   1.352 -0.5032  0.0094 -0.6810
  579TMC3    C6 8586   4.699   3.489   1.452 -0.3710  0.2716  0.0584
  579TMC3     C 8587   4.522   3.842   1.358 -0.5693  0.3966 -0.5054
  579TMC3     O 8588   4.538   3.929   1.440 -0.2264 -0.2811  0.1852
  579TMC3     H 8589   4.669   3.792   1.581  1.5464 -0.2507 -1.1702
  579TMC3    H1 8590   4.459   3.610   1.245 -0.1476 -0.9285  0.1805
  579TMC3    H2 8591   0.044   3.402   1.450 -1.7034 -0.7579  0.8823
  579TMC3    C7 8592   4.587   3.363   1.281  0.0239  0.4452  0.5925
  579TMC3    C8 8593   0.135   3.639   1.549 -0.3039  0.4048  0.4574
  579TMC3    O1 8594   4.651   3.272   1.335 -0.2530  0.1779 -0.2552
  579TMC3    O2 8595   0.170   3.748   1.502  0.1250 -0.8939  0.3335
  580TMC3    C1 8596   3.562   3.516  12.195  0.6222 -0.7072  0.4330
  580TMC3    C2 8597   3.627   3.630  12.242 -0.2142 -0.4182 -0.2612
  580TMC3    C3 8598   3.745   3.615  12.307 -0.2181 -0.2736 -0.6514
  580TMC3    C4 8599   3.610   3.388  12.229 -0.5714 -0.0379 -0.0099
  580TMC3    C5 8600   3.735   3.383  12.288 -1.0622  0.6016  0.1267
  580TMC3    C6 8601   3.802   3.493  12.317 -0.3225  0.3644  0.4468
  580TMC3     C 8602   3.551   3.530  12.055 -0.4785  0.3689  0.0693
  580TMC3     O 8603   3.652   3.575  12.008 -0.7341 -0.8351  0.6137
  580TMC3     H 8604   3.593   3.730  12.221  4.1183  1.6566  2.6758
  580TMC3    H1 8605   3.557   3.295  12.213  1.0519 -1.0950  0.7916
  580TMC3    H2 8606   3.900   3.482  12.362  0.1673  3.9458  0.2564
  580TMC3    C7 8607   3.793   3.251  12.310 -0.4523  0.2815  1.2270
  580TMC3    C8 8608   3.846   3.722  12.292 -0.8053  0.2415  0.6980
  580TMC3    O1 8609   3.867   3.245  12.406 -0.1183  0.0343 -0.2680
  580TMC3    O2 8610   3.809   3.830  12.335  0.1307 -0.0703 -0.1055
  581MPD2     C 8611   2.249   2.955  14.717  0.5128  1.0175 -0.3139
  581MPD2    C1 8612   2.116   2.982  14.699 -0.0505 -0.9624 -0.0330
  581MPD2    C2 8613   2.077   3.065  14.590 -0.2762  0.1197  0.5774
  581MPD2    C3 8614   2.174   3.115  14.509 -0.6296  0.2617  0.3048
  581MPD2    C4 8615   2.312   3.077  14.525  0.2559  0.8072  0.4210
  581MPD2    C5 8616   2.344   2.997  14.628  0.1610 -0.4813  0.0997
  581MPD2     H 8617   1.976   3.102  14.579 -0.2025  0.8627  2.2803
  581MPD2    H1 8618   2.392   3.105  14.457  0.2774 -0.3790 -0.0323
  581MPD2    H2 8619   2.278   2.895  14.803  4.1650  1.4019 -1.2922
  581MPD2    H3 8620   2.446   2.967  14.650  0.5862  0.5689 -0.4304
  581MPD2     N 8621   2.137   3.216  14.419 -0.2597  0.0223  0.5006
  581MPD2    H5 8622   2.036   3.219  14.408 -0.2151 -1.8476 -0.5402
  581MPD2    N1 8623   2.025   2.941  14.801  0.1531  0.7101 -0.6661
  581MPD2    H7 8624   2.069   2.897  14.881 -0.5331  0.4273 -0.4425
  582TMC3    C1 8625   1.808   2.902  14.910 -0.2876  0.3685  0.7657
  582TMC3    C2 8626   1.870   2.816  15.001 -0.4870 -0.0517 -0.9631
  582TMC3    C3 8627   1.787   2.770  15.103  0.0839  0.0475  0.9268
  582TMC3    C4 8628   1.684   2.947  14.918  0.2639  0.5790  0.1715
  582TMC3    C5 8629   1.605   2.894  15.017  0.8983  0.3805 -0.2537
  582TMC3    C6 8630   1.658   2.813  15.119  0.0113  0.5807 -0.3166
  582TMC3     C 8631   1.888   2.956  14.799  0.0237 -1.2612 -0.1735
  582TMC3     O 8632   1.818   3.021  14.723 -0.5886  0.0472 -0.3808
  582TMC3     H 8633   1.971   2.782  14.983 -0.2206  0.0927  0.2133
  582TMC3    H1 8634   1.630   2.994  14.837  0.8124 -0.5347 -0.8380
  582TMC3    H2 8635   1.601   2.796  15.209  0.0029  0.0126 -0.4279
  582TMC3    C7 8636   1.500   2.979  15.061 -0.3905 -0.2228  0.5498
  582TMC3    C8 8637   1.851   2.680  15.205 -0.2289  0.7236  0.4883
  582TMC3    O1 8638   1.410   2.936  15.128  0.1085 -0.1174  0.2447
  582TMC3    O2 8639   1.950   2.615  15.177  0.2451 -0.3465 -0.2921
  583MPD2     C 8640   1.907   4.517  16.833 -0.2507  0.5272 -0.5936
  583MPD2    C1 8641   1.881   4.649  16.800 -0.1465 -0.5588 -0.3589
  583MPD2    C2 8642   1.787   0.000  16.874 -0.0123 -0.0236 -0.6137
  583MPD2    C3 8643   1.708   4.662  16.975 -0.2914  0.1541 -0.2218
  583MPD2    C4 8644   1.737   4.528  17.001  1.0025 -0.0876 -0.2219
  583MPD2    C5 8645   1.826   4.457  16.927  0.4609  0.3893  0.4502
  583MPD2     H 8646   1.764   0.105  16.858  3.4129  0.5909 -1.6497
  583MPD2    H1 8647   1.688   4.481  17.085  0.3223 -2.1867 -1.7815
  583MPD2    H2 8648   1.993   4.466  16.791 -0.5344  1.0439 -1.7777
  583MPD2    H3 8649   1.856   4.361  16.967  1.0777 -0.2536 -1.5512
  583MPD2     N 8650   1.619   0.021  17.043 -0.0699  0.4156 -0.3274
  583MPD2    H5 8651   1.601   0.115  17.009  2.0942  0.3549 -1.6308
  583MPD2    N1 8652   1.943   4.713  16.695  0.7299 -0.5411 -0.2574
  583MPD2    H7 8653   1.917   0.087  16.667  0.5882 -0.2193  0.9367
  584TMC3    C1 8654   1.449   0.085  17.178 -0.0864  0.6275 -0.4345
  584TMC3    C2 8655   1.460   0.187  17.085 -0.1618  0.3307  0.5941
  584TMC3    C3 8656   1.473   0.315  17.133 -0.2276  0.5044  0.1361
  584TMC3    C4 8657   1.448   0.106  17.314 -0.2837 -0.3760  1.3725
  584TMC3    C5 8658   1.445   0.236  17.356  0.0185  0.7726 -0.4129
  584TMC3    C6 8659   1.472   0.339  17.272  0.0543 -0.1175  0.4763
  584TMC3     C 8660   1.538   4.700  17.145 -0.1249  0.2886  0.1702
  584TMC3     O 8661   1.562   4.605  17.223 -0.4766  0.3287  0.2418
  584TMC3     H 8662   1.455   0.177  16.977  0.1517  0.9653  0.5239
  584TMC3    H1 8663   1.440   0.026  17.387 -1.3219  0.4082  2.1204
  584TMC3    H2 8664   1.483   0.441  17.307  3.3693 -0.5362  0.6611
  584TMC3    C7 8665   1.399   0.268  17.497  0.1484 -0.2254 -0.0095
  584TMC3    C8 8666   1.570   0.387  17.063  0.1934  0.2578 -0.0325
  584TMC3    O1 8667   1.442   0.199  17.589 -0.2053  0.0633  0.3567
  584TMC3    O2 8668   1.613   0.329  16.964  0.5295  0.5081 -0.0416
  585MPD2     C 8669   1.052   3.990   0.331  0.5570  1.0674  0.0398
  585MPD2    C1 8670   1.025   4.069   0.223  0.0839  0.6520  0.2310
  585MPD2    C2 8671   1.056   4.026   0.096 -1.3827 -0.1283  0.1275
  585MPD2    C3 8672   1.113   3.899   0.076 -0.6391  0.2383 -0.3981
  585MPD2    C4 8673   1.127   3.822   0.193 -0.8333  0.1499 -0.3076
  585MPD2    C5 8674   1.094   3.865   0.314 -0.1890  0.9790 -0.0978
  585MPD2     H 8675   1.032   4.097   0.018  0.4783 -0.5383 -0.8282
  585MPD2    H1 8676   1.160   3.719   0.180  1.8178  0.9664 -0.1502
  585MPD2    H2 8677   1.038   4.028   0.432  1.8934 -0.6409  0.8662
  585MPD2    H3 8678   1.108   3.791   0.392  1.4399  1.5840  0.1784
  585MPD2     N 8679   1.141   3.832  17.640  0.2819 -0.0159 -0.3598
  585MPD2    H5 8680   1.144   3.730  17.640  0.5441 -0.0075  0.5235
  585MPD2    N1 8681   0.956   4.186   0.253 -0.5972 -1.0161  0.4167
  585MPD2    H7 8682   0.912   4.193   0.344 -1.4969 -0.4877 -0.0486
  586TMC3    C1 8683   1.172   3.816  17.409 -0.4219  0.0819 -0.7701
  586TMC3    C2 8684   1.233   3.865  17.302  0.0949  0.5417  0.5239
  586TMC3    C3 8685   1.242   3.796  17.187  0.0436 -0.7507 -0.3699
  586TMC3    C4 8686   1.095   3.698  17.403 -0.5725  0.2503  0.0313
  586TMC3    C5 8687   1.087   3.637  17.283  0.1910  0.1078  0.0277
  586TMC3    C6 8688   1.162   3.684  17.178  0.2048 -0.3667  0.4451
  586TMC3     C 8689   1.155   3.905  17.525 -0.2089  0.2215 -0.4811
  586TMC3     O 8690   1.172   4.023  17.503  0.3354  0.2434  0.3607
  586TMC3     H 8691   1.297   3.952  17.296 -1.2989  1.4096 -1.9904
  586TMC3    H1 8692   1.044   3.657  17.489  0.8163  1.9780  1.6736
  586TMC3    H2 8693   1.148   3.622  17.090 -1.7806  0.3784  0.2526
  586TMC3    C7 8694   0.976   3.546  17.253  0.3941  0.7480 -0.0834
  586TMC3    C8 8695   1.376   3.771  17.137  0.0485  0.6432 -0.3378
  586TMC3    O1 8696   0.951   3.455  17.333 -0.2403  0.2771 -0.0278
  586TMC3    O2 8697   1.472   3.781  17.216  0.4056 -0.7675 -0.6921
  587TMC3    C1 8698   3.675   2.038  16.369  0.0070 -0.5931  0.0216
  587TMC3    C2 8699   3.646   2.167  16.403 -0.2207  0.4633 -0.1886
  587TMC3    C3 8700   3.744   2.251  16.435  0.3535 -0.3010  0.1411
  587TMC3    C4 8701   3.803   1.988  16.388  0.1902 -0.0553 -0.3024
  587TMC3    C5 8702   3.900   2.073  16.441 -0.0827 -0.1169  0.3869
  587TMC3    C6 8703   3.874   2.206  16.452  0.1653 -0.1540 -0.1634
  587TMC3     C 8704   3.573   1.935  16.373  0.1797  0.3124 -0.2572
  587TMC3     O 8705   3.615   1.831  16.322  0.8627  0.4139 -0.3605
  587TMC3     H 8706   3.545   2.205  16.396 -0.6328 -0.6860 -0.3761
  587TMC3    H1 8707   3.840   1.887  16.373  0.2321 -0.2559  1.0891
  587TMC3    H2 8708   3.940   2.271  16.508 -0.7186 -0.9647  1.8089
  587TMC3    C7 8709   4.022   2.011  16.500 -0.6429  0.2134 -0.0827
  587TMC3    C8 8710   3.732   2.397  16.430  0.5059  0.0765 -0.0705
  587TMC3    O1 8711   4.008   1.894  16.534  0.3567  0.4137 -0.7641
  587TMC3    O2 8712   3.833   2.463  16.418  0.4845  0.2114 -0.0109
  588TMC3    C1 8713   0.830   4.648   9.273 -0.5557  0.4092  0.0222
  588TMC3    C2 8714   0.866   4.518   9.259  1.0926  0.2458  0.4743
  588TMC3    C3 8715   0.959   4.461   9.343 -0.5726  0.0159 -1.1394
  588TMC3    C4 8716   0.873   4.720   9.372  1.2909 -0.3672  0.9853
  588TMC3    C5 8717   0.975   4.665   9.450 -0.3768 -0.4650 -0.2118
  588TMC3    C6 8718   1.020   4.536   9.435  0.4847 -0.3895 -0.2083
  588TMC3     C 8719   0.724   4.708   9.188 -0.2772  0.0783  0.5802
  588TMC3     O 8720   0.645   4.626   9.143 -0.3747 -0.2639  0.7286
  588TMC3     H 8721   0.801   4.456   9.198  2.8927 -0.8303 -0.3451
  588TMC3    H1 8722   0.827   0.095   9.395 -0.5698 -0.6209 -1.7517
  588TMC3    H2 8723   1.098   4.499   9.500 -0.7349 -1.2980  0.7347
  588TMC3    C7 8724   1.031   0.021   9.562 -1.0873  0.0941 -0.7233
  588TMC3    C8 8725   0.931   4.317   9.358  0.4189 -0.3212  0.2342
  588TMC3    O1 8726   1.098   4.696   9.654  0.1801  0.6645 -0.4517
  588TMC3    O2 8727   0.898   4.257   9.255 -0.0420 -0.3130  0.2092
  589TMC3    C1 8728   0.182   2.319   0.948 -0.1305  0.8374 -0.1056
  589TMC3    C2 8729   0.230   2.364   1.071 -0.5829  0.7872  0.3184
  589TMC3    C3 8730   0.352   2.300   1.111  0.8350  0.9290 -0.3970
  589TMC3    C4 8731   0.240   2.214   0.883  0.5631 -0.3002  0.6547
  589TMC3    C5 8732   0.355   2.157   0.933 -0.2255  0.3003 -0.1265
  589TMC3    C6 8733   0.418   2.207   1.036  0.6855 -0.3401  0.4439
  589TMC3     C 8734   0.051   2.366   0.900 -0.0184  0.7173 -0.0999
  589TMC3     O 8735   0.020   2.334   0.785  0.4790 -0.3787  0.1714
  589TMC3     H 8736   0.195   2.443   1.136 -1.9587  0.9478 -0.6329
  589TMC3    H1 8737   0.198   2.179   0.789  0.5499  2.3162 -0.3159
  589TMC3    H2 8738   0.496   2.144   1.080  2.0574  0.8357 -0.3049
  589TMC3    C7 8739   0.425   2.051   0.865 -0.2484 -0.8118 -0.8729
  589TMC3    C8 8740   0.405   2.341   1.239 -0.3060  0.1161 -0.2090
  589TMC3    O1 8741   0.487   1.971   0.932  0.0763 -0.1388  0.0712
  589TMC3    O2 8742   0.324   2.383   1.319  0.1507 -0.3577 -0.4915
  590MPD2     C 8743   4.054   1.196  16.531  0.5455 -0.5010 -0.2148
  590MPD2    C1 8744   4.019   1.288  16.434  0.3764  0.5652 -0.7362
  590MPD2    C2 8745   4.123   1.352  16.371  0.6225 -0.4937 -0.0934
  590MPD2    C3 8746   4.253   1.320  16.401 -0.1717 -0.7798 -0.4097
  590MPD2    C4 8747   4.290   1.231  16.495 -0.1009  0.1998 -0.7516
  590MPD2    C5 8748   4.187   1.167  16.557 -0.4803  0.8965 -0.2533
  590MPD2     H 8749   4.103   1.429  16.297  3.4417  0.0832 -0.2621
  590MPD2    H1 8750   4.392   1.210  16.526 -0.1723 -0.6333 -1.0686
  590MPD2    H2 8751   3.987   1.123  16.576 -0.3759  1.2979  1.3042
  590MPD2    H3 8752   4.214   1.095  16.633 -1.6177 -0.2416 -0.9189
  590MPD2     N 8753   4.353   1.381  16.319 -0.1188  0.5277  0.0713
  590MPD2    H5 8754   4.311   1.446  16.253 -0.6952  0.7560  0.6560
  590MPD2    N1 8755   3.877   1.318  16.414  0.9929 -0.0474 -0.2445
  590MPD2    H7 8756   3.811   1.273  16.476  0.7646 -0.3495 -0.7130
  591TMC3    C1 8757   4.546   1.444  16.212 -0.3269 -0.8852  0.2370
  591TMC3    C2 8758   4.654   1.388  16.154 -0.3002 -0.5725 -0.9033
  591TMC3    C3 8759   4.719   1.456  16.055  0.9697  0.0058  0.5004
  591TMC3    C4 8760   4.485   1.558  16.170 -0.1070  0.4327  0.3026
  591TMC3    C5 8761   4.562   1.635  16.077 -1.1037 -0.1722 -0.8625
  591TMC3    C6 8762   4.674   1.582  16.015 -0.5007  0.3452  0.1046
  591TMC3     C 8763   4.486   1.362  16.318 -0.2471  1.5593  0.5167
  591TMC3     O 8764   4.557   1.287  16.384 -0.2685  0.8739  0.1258
  591TMC3     H 8765   4.680   1.284  16.169  2.1196  0.3663  1.3852
  591TMC3    H1 8766   4.397   1.603  16.216  0.1889  0.4283  0.8646
  591TMC3    H2 8767   0.005   1.640  15.939 -0.2117 -0.4660 -0.3172
  591TMC3    C7 8768   4.484   1.724  15.993 -0.2231 -0.3383  0.0899
  591TMC3    C8 8769   0.067   1.372  15.955 -0.2576 -0.5268 -0.0624
  591TMC3    O1 8770   4.362   1.714  16.005  0.3715 -0.1561  0.1472
  591TMC3    O2 8771   0.068   1.251  15.970  0.1286  0.0131 -0.2154
  592MPD2     C 8772   4.381   2.688  11.122  0.2857 -0.1334 -0.0235
  592MPD2    C1 8773   4.379   2.795  11.213  0.1049 -0.2798  0.0353
  592MPD2    C2 8774   4.317   2.767  11.334  0.1883  0.0289 -0.5422
  592MPD2    C3 8775   4.275   2.639  11.375 -0.2424 -0.6006 -0.3209
  592MPD2    C4 8776   4.275   2.529  11.285 -0.6064  0.6329  0.1907
  592MPD2    C5 8777   4.325   2.564  11.160  1.1804 -0.7413  0.2207
  592MPD2     H 8778   4.290   2.846  11.403  0.2311 -0.0877 -0.3918
  592MPD2    H1 8779   4.242   2.428  11.306 -1.3679  1.1042  1.2753
  592MPD2    H2 8780   4.423   2.704  11.023  0.4411  1.6910  0.3227
  592MPD2    H3 8781   4.317   2.485  11.087  0.6097 -0.4083 -0.0852
  592MPD2     N 8782   4.226   2.625  11.511  0.3431  0.9723  0.3874
  592MPD2    H5 8783   4.206   2.705  11.569  0.5941  1.7818 -0.6354
  592MPD2    N1 8784   4.445   2.917  11.188  0.2302  0.4201  0.2867
  592MPD2    H7 8785   4.515   2.915  11.114 -0.0651 -0.2672  0.0315
  593TMC3    C1 8786   4.542   3.121  11.270 -0.0150  0.2292  0.5720
  593TMC3    C2 8787   4.574   3.150  11.401 -0.1271  0.1360  0.0585
  593TMC3    C3 8788   4.706   3.183  11.434  0.6542  0.3957  0.5530
  593TMC3    C4 8789   4.644   3.085  11.184  0.3676  0.1573  0.7568
  593TMC3    C5 8790   0.053   3.115  11.217 -0.2226  0.7659 -0.6598
  593TMC3    C6 8791   0.086   3.157  11.341 -0.0877  0.3184  0.0971
  593TMC3     C 8792   4.424   3.036  11.261  0.4619  0.5057 -0.6769
  593TMC3     O 8793   4.339   3.057  11.345 -0.3914  0.5858 -0.1985
  593TMC3     H 8794   4.493   3.154  11.473 -0.5132 -0.6757 -0.3218
  593TMC3    H1 8795   4.620   3.058  11.082 -0.9442 -2.0380  1.6324
  593TMC3    H2 8796   0.191   3.167  11.367 -0.0091  0.1322 -0.1450
  593TMC3    C7 8797   0.127   3.161  11.096  0.1686 -0.3245 -0.0310
  593TMC3    C8 8798   0.017   3.133  11.572 -0.2026 -0.1823  1.0814
  593TMC3    O1 8799   0.096   3.108  10.991 -0.2226  0.4387 -0.3092
  593TMC3    O2 8800   4.641   3.087  11.632 -1.0970  0.0157 -0.0529
  594MPD2     C 8801   4.078   1.928  14.602  0.8843 -0.6418  0.8626
  594MPD2    C1 8802   3.967   1.967  14.536  0.4505 -0.9906 -0.1502
  594MPD2    C2 8803   3.981   2.033  14.416 -0.2743  0.5904 -0.2588
  594MPD2    C3 8804   4.110   2.058  14.370  0.5527  0.3138  0.6732
  594MPD2    C4 8805   4.220   2.003  14.429 -0.1479 -0.4082 -0.3591
  594MPD2    C5 8806   4.203   1.935  14.546 -0.5180  0.5475  0.1707
  594MPD2     H 8807   3.900   2.088  14.371  0.1591  0.5106 -1.1344
  594MPD2    H1 8808   4.317   2.007  14.381 -0.6013  0.3739 -1.1994
  594MPD2    H2 8809   4.073   1.870  14.694  1.4544 -2.5239 -0.2906
  594MPD2    H3 8810   4.282   1.885  14.602 -2.3472 -2.1377  0.3699
  594MPD2     N 8811   4.125   2.150  14.259 -0.4284 -0.3942 -0.5793
  594MPD2    H5 8812   4.047   2.215  14.248  0.4826  0.7168 -0.5019
  594MPD2    N1 8813   3.845   1.936  14.606 -0.2328  0.1293  0.0107
  594MPD2    H7 8814   3.851   1.881  14.691  2.3295 -0.5059 -0.5870
  595TMC3    C1 8815   4.483   2.415  14.259 -0.2282  0.8406 -0.2500
  595TMC3    C2 8816   4.424   2.322  14.179  0.3821  0.5135  0.1072
  595TMC3    C3 8817   4.288   2.305  14.175 -0.2576  0.6379  0.6524
  595TMC3    C4 8818   4.410   2.504  14.329 -0.3672  0.0797 -0.8793
  595TMC3    C5 8819   4.273   2.496  14.322 -0.2740 -0.7139  0.5046
  595TMC3    C6 8820   4.214   2.393  14.250  0.8753 -0.3998 -0.1380
  595TMC3     C 8821   4.630   2.435  14.251  1.1748  0.0108  0.1053
  595TMC3     O 8822   4.682   2.508  14.335  0.2525  0.3814 -0.4010
  595TMC3     H 8823   4.488   2.257  14.119 -1.8546 -2.2922  0.7350
  595TMC3    H1 8824   4.457   2.574  14.397 -0.4553  1.7640 -2.5728
  595TMC3    H2 8825   4.106   2.401  14.242  1.1404  0.8342 -2.2246
  595TMC3    C7 8826   4.185   2.583  14.399 -0.2006  0.5933 -0.4636
  595TMC3    C8 8827   4.244   2.167  14.186  0.0558 -0.1641 -0.1351
  595TMC3    O1 8828   4.085   2.529  14.445 -0.6660  0.5324  0.0221
  595TMC3    O2 8829   4.324   2.079  14.149 -0.2266  0.1953 -0.5846
  596MPD2     C 8830   2.813   4.227  16.620  0.4876  0.6256  0.1958
  596MPD2    C1 8831   2.813   4.351  16.579 -0.9193 -0.0340 -0.3819
  596MPD2    C2 8832   2.791   4.381  16.447  0.2625  0.4333  0.4267
  596MPD2    C3 8833   2.765   4.278  16.356  0.0602 -0.2924 -0.2253
  596MPD2    C4 8834   2.773   4.149  16.397  0.1566  0.8256 -0.6483
  596MPD2    C5 8835   2.793   4.125  16.531  0.7005 -0.5390 -0.1599
  596MPD2     H 8836   2.781   4.487  16.426  1.6228  0.2455 -1.1272
  596MPD2    H1 8837   2.746   4.074  16.324  2.6915 -1.5609  0.8848
  596MPD2    H2 8838   2.831   4.196  16.723  0.9289  0.9055  0.2054
  596MPD2    H3 8839   2.776   4.032  16.583 -0.1907  0.0957  0.6966
  596MPD2     N 8840   2.715   4.303  16.229 -0.0644  0.0345  0.4111
  596MPD2    H5 8841   2.718   4.217  16.175  1.3182 -1.8306  3.4423
  596MPD2    N1 8842   2.825   4.465  16.659 -0.0344 -1.1293 -0.6729
  596MPD2    H7 8843   2.822   4.555  16.612  2.4917 -0.4129  0.5126
  597TMC3    C1 8844   2.854   4.597  16.859 -0.5535  0.4583  0.0592
  597TMC3    C2 8845   2.949   4.670  16.786  0.1230  0.3512  0.3164
  597TMC3    C3 8846   2.993   0.062  16.859  0.8321 -0.3934  1.3246
  597TMC3    C4 8847   2.803   4.630  16.978 -0.3180  0.0722 -0.0454
  597TMC3    C5 8848   2.839   0.025  17.034  0.0598  0.3942  0.2199
  597TMC3    C6 8849   2.936   0.100  16.982 -0.0217 -0.6299 -0.1923
  597TMC3     C 8850   2.807   4.469  16.795  0.1685  0.2757 -0.3019
  597TMC3     O 8851   2.782   4.380  16.872  0.1868  0.2076 -0.4686
  597TMC3     H 8852   3.016   4.622  16.715 -0.5796 -0.2841  0.0875
  597TMC3    H1 8853   2.718   4.576  17.018 -1.4595  1.4943 -0.5444
  597TMC3    H2 8854   2.979   0.182  17.040 -1.6453  0.6758 -0.8434
  597TMC3    C7 8855   2.765   0.071  17.151 -0.0914  0.6125 -0.3739
  597TMC3    C8 8856   3.070   0.161  16.790 -0.1007 -0.3581  0.0702
  597TMC3    O1 8857   2.668   0.011  17.195 -0.1463 -0.3549 -0.1273
  597TMC3    O2 8858   3.100   0.268  16.844 -0.1033  0.1369 -0.3727
  598TMC3    C1 8859   0.800   1.336  15.048  0.0478 -0.8412  0.0122
  598TMC3    C2 8860   0.716   1.442  15.068 -0.4344  0.4934  0.6390
  598TMC3    C3 8861   0.767   1.569  15.062  0.1702  0.1567  0.6184
  598TMC3    C4 8862   0.937   1.350  15.027  1.3225 -0.1587 -0.4750
  598TMC3    C5 8863   0.981   1.475  15.030 -0.0487  0.2329  0.8546
  598TMC3    C6 8864   0.901   1.586  15.042  0.1491 -0.6186  0.1792
  598TMC3     C 8865   0.732   1.210  15.077  0.0686  0.0029  0.1670
  598TMC3     O 8866   0.648   1.216  15.162 -0.1500 -0.4466 -0.0539
  598TMC3     H 8867   0.617   1.439  15.113 -1.7210  0.3767 -2.1709
  598TMC3    H1 8868   1.007   1.268  15.019  2.4114  0.6916  0.3095
  598TMC3    H2 8869   0.941   1.687  15.048 -0.9092 -0.2534  1.0301
  598TMC3    C7 8870   1.124   1.485  15.009  0.0328 -0.6438  0.2256
  598TMC3    C8 8871   0.681   1.681  15.025 -0.3023 -0.3632  0.6757
  598TMC3    O1 8872   1.177   1.395  14.945 -0.0473  0.5394 -0.5035
  598TMC3    O2 8873   0.710   1.789  15.067 -0.2045  0.2404  0.5511
  599MPD2     C 8874   1.087   3.971  15.930 -0.0004  0.5378 -0.5005
  599MPD2    C1 8875   1.054   3.842  15.958  0.1575  0.3046 -0.0102
  599MPD2    C2 8876   0.961   3.807  16.054 -0.1579 -0.1239 -0.1401
  599MPD2    C3 8877   0.902   3.915  16.117 -0.4197  0.1295 -0.1820
  599MPD2    C4 8878   0.939   4.040  16.090  0.2322  0.3914 -0.4745
  599MPD2    C5 8879   1.025   4.072  15.997  1.1444  0.0776 -0.4218
  599MPD2     H 8880   0.937   3.704  16.077 -0.8333  0.2841  1.0051
  599MPD2    H1 8881   0.900   4.118  16.154  0.8095  0.1280  0.1938
  599MPD2    H2 8882   1.166   3.994  15.860  1.4712 -1.3357  0.5452
  599MPD2    H3 8883   1.040   4.177  15.974  3.5647 -0.7577 -2.6307
  599MPD2     N 8884   0.804   3.895  16.222 -0.3291 -0.2799  0.0600
  599MPD2    H5 8885   0.790   3.974  16.285 -1.0107 -0.0195 -0.4175
  599MPD2    N1 8886   1.131   3.737  15.894 -0.7237  0.4171 -0.2241
  599MPD2    H7 8887   1.222   3.770  15.863 -0.5933 -0.4383 -0.7481
  600TMC3    C1 8888   0.644   3.810  16.369 -0.1371  0.1580  0.1723
  600TMC3    C2 8889   0.553   3.708  16.384 -0.3181  0.4841 -0.4762
  600TMC3    C3 8890   0.437   3.737  16.452 -0.1293  0.2529 -0.1117
  600TMC3    C4 8891   0.616   3.938  16.400  0.1103  0.2527  0.4092
  600TMC3    C5 8892   0.488   3.962  16.447  0.3526  0.7946  0.0612
  600TMC3    C6 8893   0.396   3.865  16.468 -0.0353 -0.1173 -0.0375
  600TMC3     C 8894   0.740   3.780  16.262 -0.4217 -0.1063  0.3905
  600TMC3     O 8895   0.740   3.671  16.204 -0.5250 -0.1351  0.1245
  600TMC3     H 8896   0.574   3.604  16.359 -0.1169  0.2541  0.6482
  600TMC3    H1 8897   0.686   4.019  16.388  0.5694  0.0560  1.7048
  600TMC3    H2 8898   0.303   3.878  16.523 -0.4201  0.4856 -0.8331
  600TMC3    C7 8899   0.442   4.094  16.485 -0.3046 -0.3592  0.4122
  600TMC3    C8 8900   0.368   3.641  16.530  0.4169  0.1548 -0.1719
  600TMC3    O1 8901   0.327   4.096  16.526 -0.1598  0.3617  0.3873
  600TMC3    O2 8902   0.423   3.598  16.629 -0.3153  0.6253 -0.0773
  601MPD2     C 8903   2.956   2.168   0.170  0.4249 -0.1054  0.2250
  601MPD2    C1 8904   2.845   2.081   0.159 -0.3984  0.0007 -0.4948
  601MPD2    C2 8905   2.857   1.947   0.167  0.1365  0.3181 -0.0221
  601MPD2    C3 8906   2.976   1.886   0.174  0.1720  0.3010 -0.0360
  601MPD2    C4 8907   3.087   1.959   0.181 -0.5424 -0.0679 -0.6832
  601MPD2    C5 8908   3.076   2.100   0.176  0.6627 -0.8289  0.1828
  601MPD2     H 8909   2.767   1.888   0.155 -0.2285  0.8371  0.1428
  601MPD2    H1 8910   3.187   1.917   0.177 -0.7431 -0.5632 -0.5870
  601MPD2    H2 8911   2.949   2.275   0.189  1.6100  0.0690 -0.3448
  601MPD2    H3 8912   3.170   2.153   0.183  0.9247 -1.0291 -1.7003
  601MPD2     N 8913   2.996   1.744   0.161  1.3030  0.3320 -0.2911
  601MPD2    H5 8914   3.086   1.716   0.124  1.5111  0.5772  0.0250
  601MPD2    N1 8915   2.711   2.136   0.145 -0.1274  0.2226 -1.0510
  601MPD2    H7 8916   2.647   2.063   0.115 -1.9692  1.5785 -0.4189
  602TMC3    C1 8917   2.540   2.316   0.100  0.5386 -0.0063 -0.4378
  602TMC3    C2 8918   2.517   2.453   0.082 -0.3826  0.5604 -0.3303
  602TMC3    C3 8919   2.400   2.498   0.033  0.2069 -0.2399  0.1125
  602TMC3    C4 8920   2.448   2.225   0.047  0.1703 -0.1040 -0.2013
  602TMC3    C5 8921   2.342   2.279  17.663 -0.0964 -0.7120  0.0463
  602TMC3    C6 8922   2.305   2.410  17.669  0.2432 -0.0431  0.0325
  602TMC3     C 8923   2.667   2.276   0.147 -0.1815  0.1411  0.5553
  602TMC3     O 8924   2.741   2.372   0.165  0.3243  0.1612 -0.1494
  602TMC3     H 8925   2.591   2.531   0.095  1.0060 -0.7247 -0.5305
  602TMC3    H1 8926   2.462   2.118   0.053 -3.5548 -0.6336 -0.7673
  602TMC3    H2 8927   2.217   2.446  17.617 -0.3202 -1.7120 -0.1659
  602TMC3    C7 8928   2.251   2.187  17.593  0.7417 -0.1650 -0.2594
  602TMC3    C8 8929   2.388   2.641   0.005  0.6102  0.0799  0.0483
  602TMC3    O1 8930   2.254   2.067  17.619  0.4105 -0.0823  0.0664
  602TMC3    O2 8931   2.445   2.715   0.082  0.2485 -0.4296  0.3880
  603TMC3    C1 8932   0.518   2.685  10.513  0.7559  0.0387  0.5594
  603TMC3    C2 8933   0.572   2.640  10.626 -0.4120  0.3795  0.3813
  603TMC3    C3 8934   0.498   2.581  10.724  0.0598 -0.5485  0.4165
  603TMC3    C4 8935   0.379   2.662  10.506 -0.2398 -0.2642 -0.1724
  603TMC3    C5 8936   0.312   2.631  10.621 -0.3728  0.5429 -0.2363
  603TMC3    C6 8937   0.369   2.583  10.735  0.7300 -0.1815 -0.1945
  603TMC3     C 8938   0.592   2.685  10.388 -0.4493  0.0085  0.0682
  603TMC3     O 8939   0.713   2.687  10.395 -0.3047  0.1611  0.3420
  603TMC3     H 8940   0.676   2.611  10.619 -0.0965  1.4046  0.7268
  603TMC3    H1 8941   0.320   2.683  10.417 -0.1088  1.5820  0.1758
  603TMC3    H2 8942   0.327   2.535  10.822 -1.4404  2.3349  0.1468
  603TMC3    C7 8943   0.173   2.605  10.600 -0.1396 -0.3985 -0.1903
  603TMC3    C8 8944   0.556   2.555  10.851 -0.1322 -0.1812 -0.1361
  603TMC3    O1 8945   0.125   2.612  10.490 -0.6840  0.6298  0.5243
  603TMC3    O2 8946   0.515   2.472  10.924  0.4394 -0.2581  0.7474
  604MPD2     C 8947   1.648   0.692  16.231  0.1622  1.1548  0.1942
  604MPD2    C1 8948   1.558   0.752  16.142  0.5170 -0.2661  0.2967
  604MPD2    C2 8949   1.590   0.740  16.009  0.3797 -0.0097 -0.3036
  604MPD2    C3 8950   1.689   0.660  15.961  0.7704 -0.5644 -0.0873
  604MPD2    C4 8951   1.768   0.594  16.050  0.5286  0.2860  0.1483
  604MPD2    C5 8952   1.746   0.616  16.182  0.5287 -0.1255  0.1322
  604MPD2     H 8953   1.549   0.807  15.935 -1.6773 -0.9706 -0.0191
  604MPD2    H1 8954   1.857   0.539  16.020 -1.0626 -2.7680  1.1090
  604MPD2    H2 8955   1.655   0.709  16.338  1.7347 -2.0954  0.6017
  604MPD2    H3 8956   1.818   0.564  16.245 -0.1061 -2.2052 -0.8716
  604MPD2     N 8957   1.725   0.671  15.824  0.2730 -0.6041  0.7294
  604MPD2    H5 8958   1.668   0.716  15.754  1.5611  0.3429  0.2996
  604MPD2    N1 8959   1.458   0.841  16.199  0.1755 -0.0371  0.0747
  604MPD2    H7 8960   1.451   0.849  16.300  0.2375  2.2307 -0.1170
  605TMC3    C1 8961   1.297   1.008  16.214 -0.4251 -0.9459  0.8628
  605TMC3    C2 8962   1.292   0.987  16.349  0.7238  0.2587  0.5563
  605TMC3    C3 8963   1.254   1.096  16.427  0.3359 -0.4763  0.6434
  605TMC3    C4 8964   1.245   1.126  16.161  0.0099 -0.1851 -1.0982
  605TMC3    C5 8965   1.196   1.224  16.240  0.1148  0.0916  0.3089
  605TMC3    C6 8966   1.198   1.211  16.377 -0.2342 -0.2784  0.3700
  605TMC3     C 8967   1.388   0.933  16.127  0.7989  0.4898 -0.0799
  605TMC3     O 8968   1.400   0.959  16.009  0.5528 -0.3081 -0.3177
  605TMC3     H 8969   1.328   0.899  16.401 -0.1673  0.1717  1.0353
  605TMC3    H1 8970   1.249   1.136  16.053  0.5873 -0.7915 -1.1356
  605TMC3    H2 8971   1.147   1.288  16.433  0.1736 -1.6797  2.6414
  605TMC3    C7 8972   1.122   1.330  16.187  0.0108 -0.2844 -0.9890
  605TMC3    C8 8973   1.320   1.102  16.558 -0.1046 -0.2595  0.3149
  605TMC3    O1 8974   1.122   1.431  16.257 -0.5628 -0.2078  0.6566
  605TMC3    O2 8975   1.376   0.997  16.592  0.3911 -0.0155  0.4001
  606TMC3    C1 8976   3.218   4.236  16.848  1.0006 -0.5874  0.2807
  606TMC3    C2 8977   3.305   4.248  16.957 -0.9160 -0.0204  0.2365
  606TMC3    C3 8978   3.296   4.141  17.046  0.7090 -0.3382 -0.0290
  606TMC3    C4 8979   3.138   4.129  16.825 -0.1882  0.1795  0.3647
  606TMC3    C5 8980   3.136   4.032  16.925 -0.5736  0.7272  0.0525
  606TMC3    C6 8981   3.203   4.043  17.041  0.4329 -0.2527 -0.6487
  606TMC3     C 8982   3.229   4.345  16.759 -0.0285 -0.2844  0.4574
  606TMC3     O 8983   3.241   4.461  16.796  0.3597 -0.0445  0.2103
  606TMC3     H 8984   3.362   4.338  16.976 -1.0965  0.5385 -1.8800
  606TMC3    H1 8985   3.059   4.144  16.753  2.7442  1.5845 -2.5488
  606TMC3    H2 8986   3.204   3.969  17.119  1.0758 -1.2201 -1.5673
  606TMC3    C7 8987   3.015   3.958  16.925  0.0823  0.2826  0.0502
  606TMC3    C8 8988   3.414   4.120  17.135 -0.9149  0.4559 -0.5764
  606TMC3    O1 8989   2.965   3.930  16.817 -0.0918 -0.0975 -0.2124
  606TMC3    O2 8990   3.491   4.215  17.154 -0.3835  0.5455 -0.1800
  607MPD2     C 8991   0.026   1.991  11.468 -0.5578  0.0527 -0.1357
  607MPD2    C1 8992   0.003   2.111  11.524  0.6223  0.1795  0.4501
  607MPD2    C2 8993   4.710   2.118  11.661 -0.1674 -0.3557  0.0472
  607MPD2    C3 8994   0.021   2.009  11.744 -1.0995  0.8991  0.9779
  607MPD2    C4 8995   0.060   1.891  11.679 -0.4979  0.0106 -0.7148
  607MPD2    C5 8996   0.055   1.880  11.543 -0.3609  0.1205 -0.1491
  607MPD2     H 8997   4.672   2.208  11.706  0.5191 -1.0732  2.0501
  607MPD2    H1 8998   0.087   1.800  11.730 -1.1861  0.9340  1.2970
  607MPD2    H2 8999   0.021   1.974  11.361 -3.2343 -1.2499  0.2111
  607MPD2    H3 9000   0.088   1.789  11.495 -0.0323 -0.2195  0.7391
  607MPD2     N 9001   4.719   2.030  11.878 -0.3084 -0.1528 -0.2732
  607MPD2    H5 9002   4.673   2.119  11.893 -0.8622 -0.2781 -1.2805
  607MPD2    N1 9003   4.702   2.228  11.451  0.6592 -0.0731 -0.5662
  607MPD2    H7 9004   4.683   2.310  11.508  0.7084  0.9360 -1.9887
  608TMC3    C1 9005   4.697   2.382  11.283 -0.3646  1.5142 -0.5237
  608TMC3    C2 9006   4.629   2.456  11.381 -0.5002  0.5826 -0.0142
  608TMC3    C3 9007   4.641   2.594  11.383  0.5934  0.7267 -0.1598
  608TMC3    C4 9008   0.058   2.440  11.189  0.4874 -0.0031 -0.0702
  608TMC3    C5 9009   0.076   2.577  11.213  0.2615 -0.6945 -0.5640
  608TMC3    C6 9010   0.015   2.655  11.303 -0.3545  0.1315  0.4966
  608TMC3     C 9011   4.708   2.240  11.316 -0.3587  0.7235  1.0587
  608TMC3     O 9012   0.042   2.163  11.231  0.1483  0.1936 -0.2250
  608TMC3     H 9013   4.537   2.420  11.426  0.3879 -0.1528  1.2176
  608TMC3    H1 9014   0.117   2.382  11.120 -0.4370 -1.5480  0.4560
  608TMC3    H2 9015   0.017   2.763  11.303 -0.2241  0.1299 -0.6857
  608TMC3    C7 9016   0.170   2.643  11.132  0.1181 -0.0725  0.0530
  608TMC3    C8 9017   4.603   2.668  11.504 -0.5073  0.1538 -0.2168
  608TMC3    O1 9018   0.180   2.612  11.015 -0.1402 -0.6018 -0.0404
  608TMC3    O2 9019   4.639   2.780  11.519 -0.3883  0.1303 -0.3223
  609TMC3    C1 9020   4.294   1.224   8.601  0.5563  0.0402 -0.1913
  609TMC3    C2 9021   4.385   1.227   8.500  0.1519 -0.1267  0.1139
  609TMC3    C3 9022   4.510   1.186   8.534 -0.2469 -1.1574 -0.5521
  609TMC3    C4 9023   4.323   1.199   8.728 -0.2019  0.0568  0.7716
  609TMC3    C5 9024   4.447   1.156   8.758 -0.0556 -0.3906  0.4388
  609TMC3    C6 9025   4.536   1.139   8.662  0.8235 -0.4278  0.1418
  609TMC3     C 9026   4.164   1.275   8.588  0.1203  0.5081  0.3154
  609TMC3     O 9027   4.116   1.319   8.690  0.9206 -0.0548 -0.0337
  609TMC3     H 9028   4.368   1.281   8.407  1.3092  1.2418  0.6904
  609TMC3    H1 9029   4.253   1.193   8.811  0.5015  0.5890  1.4069
  609TMC3    H2 9030   4.637   1.112   8.693  1.0333 -2.1218 -2.0465
  609TMC3    C7 9031   4.482   1.120   8.890  0.4152 -0.4082  0.0556
  609TMC3    C8 9032   4.610   1.178   8.428  0.6527  0.7456 -0.1328
  609TMC3    O1 9033   4.427   1.181   8.980 -0.1390 -0.4939 -0.1481
  609TMC3    O2 9034   4.593   1.252   8.334 -0.0383  0.0765  0.3655
  610TMC3    C1 9035   0.027   1.930  12.921 -0.1002 -0.2501  0.3499
  610TMC3    C2 9036   4.672   1.990  12.822 -0.0176  0.4325 -0.7900
  610TMC3    C3 9037   0.014   2.088  12.753 -0.6188 -0.2067 -0.3374
  610TMC3    C4 9038   0.148   1.974  12.961 -0.0725  0.1283 -0.5787
  610TMC3    C5 9039   0.205   2.080  12.896  0.3236  0.0769 -0.3174
  610TMC3    C6 9040   0.135   2.138  12.790 -1.0039  0.3580  0.4060
  610TMC3     C 9041   4.696   1.817  12.998  0.4267 -0.1646 -0.1482
  610TMC3     O 9042   0.052   1.781  13.088  0.0716 -0.2899 -0.2731
  610TMC3     H 9043   4.576   1.952  12.790  1.2933 -2.4858 -1.2166
  610TMC3    H1 9044   0.204   1.936  13.046  0.1849 -1.7134 -1.5732
  610TMC3    H2 9045   0.185   2.212  12.728  1.1877 -1.2100  0.2695
  610TMC3    C7 9046   0.345   2.102  12.912  0.8310  0.7433  0.4242
  610TMC3    C8 9047   4.649   2.157  12.649 -0.2047  0.5381 -0.2073
  610TMC3    O1 9048   0.398   2.029  13.000  0.6247 -0.3058  0.2860
  610TMC3    O2 9049   4.565   2.082  12.608  0.0376 -0.2852 -0.2650
  611MPD2     C 9050   3.574   1.966  10.260  0.5121 -0.2520 -0.0277
  611MPD2    C1 9051   3.655   1.915  10.172  0.2654 -0.1539  0.2014
  611MPD2    C2 9052   3.776   1.977  10.149 -0.5049  0.3353 -0.0963
  611MPD2    C3 9053   3.812   2.094  10.215  0.0348  0.4970 -0.3022
  611MPD2    C4 9054   3.726   2.140  10.313  0.2088 -0.0625  0.3437
  611MPD2    C5 9055   3.604   2.079  10.332  0.2826  0.6490 -1.1829
  611MPD2     H 9056   3.847   1.945  10.074 -0.1677  1.7491 -0.3690
  611MPD2    H1 9057   3.743   2.223  10.380 -0.1254  0.4783 -0.2427
  611MPD2    H2 9058   3.476   1.920  10.270  0.1222  1.1147  2.2636
  611MPD2    H3 9059   3.535   2.115  10.407  1.8123  1.4504 -0.1575
  611MPD2     N 9060   3.931   2.165  10.206 -0.1886 -0.4572 -0.1446
  611MPD2    H5 9061   3.950   2.238  10.274  0.9788 -2.0380  1.2097
  611MPD2    N1 9062   3.621   1.793  10.121  0.2190 -0.3226 -0.6801
  611MPD2    H7 9063   3.550   1.736  10.166  1.8591 -2.2761 -0.5756
  612TMC3    C1 9064   4.151   2.209  10.153  0.2941  0.4645 -0.0625
  612TMC3    C2 9065   4.194   2.209  10.280  0.1122  0.2993  0.7870
  612TMC3    C3 9066   4.320   2.250  10.309  0.4738  0.1504 -0.0971
  612TMC3    C4 9067   4.233   2.247  10.055  0.1405  0.7085 -0.4702
  612TMC3    C5 9068   4.361   2.284  10.087  0.3295 -0.0949  0.4683
  612TMC3    C6 9069   4.404   2.290  10.211 -1.1565 -0.5443 -0.1185
  612TMC3     C 9070   4.029   2.142  10.119  0.1372 -0.0871 -0.3842
  612TMC3     O 9071   4.033   2.077  10.014  0.2806 -0.0674 -0.0419
  612TMC3     H 9072   4.127   2.181  10.361  0.6750 -0.1385  1.0963
  612TMC3    H1 9073   4.202   2.246   9.951  2.4572 -0.7799 -1.1680
  612TMC3    H2 9074   4.502   2.333  10.227 -0.7452 -1.1474 -1.0329
  612TMC3    C7 9075   4.456   2.307   9.978  1.0711  0.3721  0.4575
  612TMC3    C8 9076   4.347   2.276  10.454  0.0643 -0.3430 -0.2919
  612TMC3    O1 9077   4.407   2.334   9.870 -0.2853 -0.2386 -0.6394
  612TMC3    O2 9078   4.259   2.251  10.536 -0.1711 -0.4129  0.3226
  613MPD2     C 9079   4.430   0.046  15.937  0.1488 -0.0599 -0.7456
  613MPD2    C1 9080   4.292   0.051  15.945  0.2947 -0.5198  0.4176
  613MPD2    C2 9081   4.226   4.649  15.909 -0.1652 -0.6059 -0.8487
  613MPD2    C3 9082   4.300   4.531  15.883  0.1096  0.1268  0.1988
  613MPD2    C4 9083   4.429   4.544  15.862  0.4926 -0.1992 -0.4598
  613MPD2    C5 9084   4.492   4.658  15.885  0.4393 -0.9236  0.7469
  613MPD2     H 9085   4.118   4.651  15.905 -0.1904  1.6566  0.7297
  613MPD2    H1 9086   4.488   4.455  15.843  1.8944  0.5784  0.2594
  613MPD2    H2 9087   4.482   0.138  15.956 -0.3887  0.1259 -0.1583
  613MPD2    H3 9088   4.597   4.661  15.858  0.0605  2.2828 -0.3609
  613MPD2     N 9089   4.239   4.413  15.857  0.3549  0.1822  0.3862
  613MPD2    H5 9090   4.282   4.339  15.802  1.4004  1.6429 -0.7337
  613MPD2    N1 9091   4.236   0.177  15.956 -0.0919  0.3410 -0.2716
  613MPD2    H7 9092   4.287   0.262  15.977 -1.1560  1.1781 -1.0528
  614TMC3    C1 9093   4.078   0.319  15.868  0.0505  0.3930 -0.0159
  614TMC3    C2 9094   4.172   0.338  15.768 -0.3783  0.4322  0.4439
  614TMC3    C3 9095   4.128   0.335  15.635 -0.1589 -0.7410 -0.3364
  614TMC3    C4 9096   3.943   0.340  15.832 -0.2412  0.0166  0.4394
  614TMC3    C5 9097   3.908   0.349  15.702  0.1974  0.1180  0.3286
  614TMC3    C6 9098   3.996   0.333  15.598  0.0331  0.0527  0.1022
  614TMC3     C 9099   4.098   0.201  15.945  0.2335  0.0010 -0.3761
  614TMC3     O 9100   4.004   0.126  15.966 -0.2793  0.6886 -0.3576
  614TMC3     H 9101   4.279   0.327  15.779 -0.1907  1.8521  0.1488
  614TMC3    H1 9102   3.871   0.336  15.913  0.8795 -0.5855  1.4287
  614TMC3    H2 9103   3.969   0.338  15.493 -0.2918 -0.5314  0.1548
  614TMC3    C7 9104   3.768   0.369  15.675 -0.1412 -0.2644 -0.0268
  614TMC3    C8 9105   4.226   0.265  15.556  0.1426 -0.3687 -0.3594
  614TMC3    O1 9106   3.693   0.383  15.766  0.0049  0.0459 -0.1510
  614TMC3    O2 9107   4.338   0.315  15.551  0.2291  0.1227 -0.1214
  615MPD2     C 9108   3.247   1.590  15.538 -0.2415  0.0698  1.0602
  615MPD2    C1 9109   3.183   1.518  15.639 -0.5783 -0.3949  0.2138
  615MPD2    C2 9110   3.114   1.405  15.612 -0.7010 -0.7496  0.1864
  615MPD2    C3 9111   3.113   1.354  15.484  0.1559 -0.5643  0.4924
  615MPD2    C4 9112   3.157   1.434  15.376  0.1697  0.4736  0.2074
  615MPD2    C5 9113   3.219   1.552  15.407 -0.4416 -0.4115 -0.3717
  615MPD2     H 9114   3.071   1.349  15.694 -3.7436 -2.0647 -2.3528
  615MPD2    H1 9115   3.135   1.414  15.271  0.7577  1.7019 -0.1496
  615MPD2    H2 9116   3.291   1.688  15.554  0.6489 -0.1110 -0.2474
  615MPD2    H3 9117   3.243   1.622  15.329  0.4728 -0.2748  0.0365
  615MPD2     N 9118   3.029   1.244  15.447 -0.2244 -0.4287  0.0347
  615MPD2    H5 9119   3.035   1.223  15.348  3.1106  0.7042  0.0119
  615MPD2    N1 9120   3.175   1.576  15.772 -0.8519  0.5544 -0.1598
  615MPD2    H7 9121   3.109   1.538  15.838 -1.6633  1.1656 -0.6248
  616TMC3    C1 9122   3.235   1.740  15.942  0.0159  0.5111  0.3826
  616TMC3    C2 9123   3.318   1.842  15.972 -0.0373 -0.3748  0.3266
  616TMC3    C3 9124   3.263   1.942  16.051 -0.6703  0.9723  0.7526
  616TMC3    C4 9125   3.105   1.735  15.983 -0.6199  0.3052  0.3130
  616TMC3    C5 9126   3.060   1.828  16.075  0.4412 -0.2107 -0.5553
  616TMC3    C6 9127   3.143   1.930  16.114  0.1566 -0.2030 -0.8910
  616TMC3     C 9128   3.267   1.660  15.822  0.1780  0.4321  0.0928
  616TMC3     O 9129   3.378   1.681  15.777 -0.4665  0.1674 -0.5036
  616TMC3     H 9130   3.410   1.861  15.918 -1.1041 -0.5754 -1.5642
  616TMC3    H1 9131   3.041   1.657  15.943  0.7651 -0.3171 -0.6605
  616TMC3    H2 9132   3.105   2.010  16.177 -3.0104 -1.2925 -1.4085
  616TMC3    C7 9133   2.965   1.788  16.169 -0.3256  0.2528  0.1051
  616TMC3    C8 9134   3.332   2.063  16.082  0.1726  0.6432  1.1372
  616TMC3    O1 9135   2.932   1.870  16.256 -0.3637  0.2382  0.6108
  616TMC3    O2 9136   3.269   2.154  16.133 -0.1393 -0.3326 -0.0077
  617MPD2     C 9137   1.639   0.018  13.421 -0.3188  0.8569 -0.1988
  617MPD2    C1 9138   1.717   4.686  13.520  0.0816 -0.0229 -0.0332
  617MPD2    C2 9139   1.664   4.632  13.635  0.5904 -0.5251 -0.4460
  617MPD2    C3 9140   1.529   4.628  13.638  0.3440  0.0446  0.2342
  617MPD2    C4 9141   1.446   4.693  13.543  0.0306 -0.0023  0.8457
  617MPD2    C5 9142   1.503   0.025  13.430  0.0123  0.3117  0.3570
  617MPD2     H 9143   1.731   4.603  13.714  0.9710 -0.1527 -0.6322
  617MPD2    H1 9144   1.339   4.682  13.557 -0.0609  0.1885  0.3054
  617MPD2    H2 9145   1.686   0.056  13.331 -2.3970 -0.6810 -1.9522
  617MPD2    H3 9146   1.429   0.057  13.358 -1.4659 -3.1653  0.3159
  617MPD2     N 9147   1.466   4.538  13.727 -0.2457 -0.7106  0.2087
  617MPD2    H5 9148   1.365   4.546  13.724 -0.3499 -2.2002  0.0354
  617MPD2    N1 9149   1.856   4.681  13.485  0.6847  0.8796 -0.6053
  617MPD2    H7 9150   1.885   0.009  13.400 -1.3442 -0.4755 -2.0566
  618TMC3    C1 9151   2.090   4.653  13.521  0.4958 -0.1877  0.4739
  618TMC3    C2 9152   2.179   4.687  13.618 -0.4842 -0.2671 -0.2771
  618TMC3    C3 9153   2.314   4.677  13.593 -0.3769 -0.1106 -0.1325
  618TMC3    C4 9154   2.127   4.613  13.397 -0.2964 -0.5123 -0.2235
  618TMC3    C5 9155   2.261   4.608  13.366  0.4145 -0.0631  0.4432
  618TMC3    C6 9156   2.354   4.641  13.463  0.1691  0.0607 -0.1771
  618TMC3     C 9157   1.951   4.616  13.560 -0.0025 -0.3855 -0.0958
  618TMC3     O 9158   1.941   4.544  13.656 -0.0893 -0.0954  0.4266
  618TMC3     H 9159   2.135   4.694  13.717 -0.1656  1.3967 -0.2612
  618TMC3    H1 9160   2.057   4.571  13.326 -0.4158 -1.2497  0.3386
  618TMC3    H2 9161   2.458   4.641  13.432  0.2476  1.5685  0.0637
  618TMC3    C7 9162   2.292   4.572  13.231 -0.7632 -0.9004  0.4325
  618TMC3    C8 9163   2.405   4.661  13.703  0.3274  0.6686  0.1567
  618TMC3    O1 9164   2.201   4.554  13.148  0.4169 -0.3781 -0.1748
  618TMC3    O2 9165   2.351   4.685  13.810  0.4369  0.5619  0.4798
  619MPD2     C 9166   2.793   0.897  13.716 -0.3654  0.3696  0.0794
  619MPD2    C1 9167   2.708   1.002  13.681 -0.0683 -0.3299 -0.4569
  619MPD2    C2 9168   2.628   1.040  13.778  0.4433  0.5684 -0.2869
  619MPD2    C3 9169   2.615   0.992  13.907  0.2130  0.4638  1.1332
  619MPD2    C4 9170   2.704   0.902  13.940 -0.4045 -0.2969  0.1408
  619MPD2    C5 9171   2.800   0.859  13.852  0.4725 -0.8218 -0.7193
  619MPD2     H 9172   2.549   1.106  13.744  0.8567  0.5542 -1.2828
  619MPD2    H1 9173   2.711   0.857  14.038  1.1110  1.4325  0.8343
  619MPD2    H2 9174   2.846   0.844  13.637  1.1522  0.5753  0.9808
  619MPD2    H3 9175   2.878   0.790  13.884 -0.6457 -1.2480  1.0743
  619MPD2     N 9176   2.507   1.032  13.995  0.2342 -0.1261 -0.2255
  619MPD2    H5 9177   2.491   0.971  14.075 -2.3113 -0.2711 -0.8460
  619MPD2    N1 9178   2.701   1.061  13.548 -0.0498 -0.1318 -0.1409
  619MPD2    H7 9179   2.631   1.132  13.531  0.6878  0.6152 -0.0346
  620TMC3    C1 9180   2.727   1.068  13.327 -0.6955 -0.4414  0.0321
  620TMC3    C2 9181   2.595   1.038  13.335 -0.0721  0.7776  0.0114
  620TMC3    C3 9182   2.508   1.117  13.265  0.5543  0.0766  0.4420
  620TMC3    C4 9183   2.778   1.176  13.255  0.2336 -0.2130  0.5310
  620TMC3    C5 9184   2.685   1.248  13.183  0.1463  0.0089 -0.1490
  620TMC3    C6 9185   2.551   1.217  13.182 -0.3678 -0.0828 -0.0177
  620TMC3     C 9186   2.790   1.041  13.448  0.3906  0.0979  0.1787
  620TMC3     O 9187   2.900   0.985  13.449  0.1059  0.0291  0.4692
  620TMC3     H 9188   2.551   0.969  13.406 -0.9486 -0.1809 -1.4651
  620TMC3    H1 9189   2.881   1.199  13.277 -0.1442 -0.2409  2.3099
  620TMC3    H2 9190   2.478   1.270  13.123 -0.2335  1.1900  0.9404
  620TMC3    C7 9191   2.716   1.389  13.146  0.4193  0.0011  0.1671
  620TMC3    C8 9192   2.388   1.153  13.344  0.0856 -0.1636  0.1339
  620TMC3    O1 9193   2.621   1.460  13.120  0.4028  0.1415 -0.8625
  620TMC3    O2 9194   2.288   1.083  13.329  0.2951 -0.6995 -0.4302
  621MPD2     C 9195   4.129   0.808   9.261  0.1038  0.0709 -0.1858
  621MPD2    C1 9196   4.001   0.836   9.310 -0.6008 -0.9114 -0.3788
  621MPD2    C2 9197   3.991   0.889   9.437 -0.5417  0.7364  0.2875
  621MPD2    C3 9198   4.106   0.905   9.517 -0.4280  0.5102 -0.1467
  621MPD2    C4 9199   4.228   0.871   9.463 -0.5403  0.0137 -0.3333
  621MPD2    C5 9200   4.236   0.815   9.337 -0.6743  0.1472 -0.4175
  621MPD2     H 9201   3.890   0.916   9.467 -0.7875  0.6068 -0.4348
  621MPD2    H1 9202   4.320   0.862   9.520 -0.2245  1.8065 -0.5432
  621MPD2    H2 9203   4.152   0.777   9.160 -0.3402  3.3813 -1.2942
  621MPD2    H3 9204   4.331   0.792   9.291  0.5974  0.5314  2.0004
  621MPD2     N 9205   4.090   0.967   9.641  0.0906 -0.4601 -0.1535
  621MPD2    H5 9206   3.996   0.999   9.662  0.7726  0.7267  1.0983
  621MPD2    N1 9207   3.889   0.812   9.228  0.2683 -0.3541  0.0155
  621MPD2    H7 9208   3.798   0.837   9.264 -1.1809  1.0194 -4.5112
  622TMC3    C1 9209   3.764   0.741   9.038 -0.8275 -0.7469  0.4530
  622TMC3    C2 9210   3.653   0.707   9.108  0.7473 -0.0763  0.1179
  622TMC3    C3 9211   3.536   0.691   9.034  0.4053  0.7787 -0.3033
  622TMC3    C4 9212   3.772   0.749   8.902 -0.2594 -0.5428 -0.4616
  622TMC3    C5 9213   3.650   0.731   8.837 -0.7774  0.5151  0.1393
  622TMC3    C6 9214   3.530   0.708   8.900  0.5278  0.0924  0.5363
  622TMC3     C 9215   3.893   0.759   9.102 -0.0302 -0.6728 -0.3291
  622TMC3     O 9216   3.979   0.694   9.041  0.1815  0.0039 -0.7155
  622TMC3     H 9217   3.662   0.678   9.212  0.0904 -0.7958 -0.0207
  622TMC3    H1 9218   3.865   0.747   8.847 -0.7953 -0.6955 -1.3709
  622TMC3    H2 9219   3.452   0.662   8.840  0.5718  0.8314 -0.0943
  622TMC3    C7 9220   3.654   0.741   8.694 -0.0771  0.0813  0.6917
  622TMC3    C8 9221   3.416   0.643   9.096 -0.6055 -0.2164 -0.0527
  622TMC3    O1 9222   3.760   0.700   8.645 -0.3938 -0.0524  0.2475
  622TMC3    O2 9223   3.333   0.587   9.023 -0.3001 -0.6099 -0.9864
  623MPD2     C 9224   1.917   0.977  15.931  0.2485 -0.0423 -0.3810
  623MPD2    C1 9225   1.809   1.027  16.001  0.1371  0.4448  0.4355
  623MPD2    C2 9226   1.817   1.002  16.138  0.4040 -0.3843 -0.5274
  623MPD2    C3 9227   1.919   0.930  16.198 -0.0281 -0.1374  0.5552
  623MPD2    C4 9228   2.024   0.878  16.124  0.7794 -0.1888 -0.6289
  623MPD2    C5 9229   2.026   0.911  15.993 -0.6038  0.5227  0.5670
  623MPD2     H 9230   1.736   1.033  16.202 -0.4993 -0.3078 -1.7056
  623MPD2    H1 9231   2.098   0.812  16.167  1.3324  0.2044 -0.9756
  623MPD2    H2 9232   1.918   0.972  15.823 -0.2642  2.7002 -0.5052
  623MPD2    H3 9233   2.100   0.861  15.930 -1.0201  1.9085 -1.0338
  623MPD2     N 9234   1.913   0.930  16.345 -0.4604 -0.6699 -1.2173
  623MPD2    H5 9235   1.832   0.976  16.385 -0.8033 -1.4241 -1.0465
  623MPD2    N1 9236   1.703   1.110  15.953 -0.4307 -0.2728 -0.1194
  623MPD2    H7 9237   1.630   1.130  16.021 -0.4247 -0.2198 -0.1288
  624TMC3    C1 9238   2.134   1.013  16.753 -0.4404 -0.5022 -0.0917
  624TMC3    C2 9239   2.019   1.041  16.823 -0.1301 -0.5368  1.0023
  624TMC3    C3 9240   1.902   1.004  16.764 -0.1858 -0.3031  0.2780
  624TMC3    C4 9241   2.139   0.952  16.626 -0.2419  0.3330 -0.4002
  624TMC3    C5 9242   2.014   0.932  16.563 -0.2392 -0.1577  0.1826
  624TMC3    C6 9243   1.897   0.964  16.629  0.2949 -0.1375  0.3447
  624TMC3     C 9244   2.256   1.049  16.821 -0.8571 -0.6271  0.1704
  624TMC3     O 9245   2.261   1.056  16.944 -0.0914  0.0655  0.2595
  624TMC3     H 9246   2.020   1.068  16.928  1.8535  0.5544  0.7023
  624TMC3    H1 9247   2.227   0.914  16.576  1.7839  2.8600  1.2737
  624TMC3    H2 9248   1.802   0.941  16.582  1.2432 -2.5956 -0.3783
  624TMC3    C7 9249   2.013   0.882  16.422  0.5908  0.2723 -0.7789
  624TMC3    C8 9250   1.772   1.025  16.819  0.3339  0.1382 -1.0450
  624TMC3    O1 9251   2.110   0.817  16.383  0.1479  0.1481 -0.3452
  624TMC3    O2 9252   1.702   0.928  16.803  0.1517  0.7309  0.0230
  625MPD2     C 9253   1.802   2.318   0.450  0.9586  0.0972 -0.2103
  625MPD2    C1 9254   1.871   2.409   0.533  0.3081  0.1739  0.0708
  625MPD2    C2 9255   1.963   2.371   0.624  0.3240  0.2588 -0.3495
  625MPD2    C3 9256   2.003   2.242   0.626 -1.2037  0.0243  0.1093
  625MPD2    C4 9257   1.934   2.147   0.550 -0.4945 -0.3312 -1.1234
  625MPD2    C5 9258   1.833   2.181   0.467 -0.1895 -0.7052  0.0997
  625MPD2     H 9259   2.003   2.441   0.695  1.5709 -1.0450  0.2406
  625MPD2    H1 9260   1.956   2.041   0.554 -1.4245 -0.4242  1.6330
  625MPD2    H2 9261   1.728   2.346   0.376  0.2977  0.5999  0.6376
  625MPD2    H3 9262   1.776   2.108   0.412 -0.7358 -1.8090  2.1327
  625MPD2     N 9263   2.112   2.195   0.710  0.0236  0.6157 -0.3448
  625MPD2    H5 9264   2.138   2.097   0.706 -3.5163 -0.3759  1.0859
  625MPD2    N1 9265   1.860   2.551   0.523  0.1174 -0.3929 -0.0276
  625MPD2    H7 9266   1.923   2.602   0.584  1.4436 -0.8719 -1.0114
  626TMC3    C1 9267   1.781   2.766   0.457 -0.5569 -0.3202  0.1046
  626TMC3    C2 9268   1.755   2.851   0.353  0.2858 -0.2775 -0.2072
  626TMC3    C3 9269   1.763   2.990   0.361 -0.1777 -0.5764 -0.5120
  626TMC3    C4 9270   1.815   2.820   0.575  0.1490  0.4774 -0.3460
  626TMC3    C5 9271   1.812   2.959   0.585  0.0948  0.2628 -0.0677
  626TMC3    C6 9272   1.787   3.044   0.483 -0.5907 -0.2127 -0.4120
  626TMC3     C 9273   1.769   2.620   0.446 -0.1728  0.1462  0.6013
  626TMC3     O 9274   1.683   2.576   0.373  0.0582 -0.3913 -0.5930
  626TMC3     H 9275   1.742   2.812   0.252  1.0349  1.0774 -0.8230
  626TMC3    H1 9276   1.828   2.755   0.661  2.9198  0.2938 -0.9256
  626TMC3    H2 9277   1.783   3.152   0.495  2.3502 -0.3921  2.2144
  626TMC3    C7 9278   1.813   2.997   0.725 -0.2000 -0.6064 -0.5994
  626TMC3    C8 9279   1.791   3.065   0.234 -0.0102 -0.6682  0.0195
  626TMC3    O1 9280   1.845   2.913   0.808 -0.7555 -0.1423 -0.0343
  626TMC3    O2 9281   1.769   3.007   0.126 -0.1124  0.6390  0.3207
  627MPD2     C 9282   1.889   3.063  13.796 -0.3807 -0.3145  0.3646
  627MPD2    C1 9283   1.819   3.121  13.892  0.6789 -0.5303  0.5079
  627MPD2    C2 9284   1.684   3.082  13.905 -0.1746 -0.0573  0.0656
  627MPD2    C3 9285   1.626   2.972  13.843 -0.0879  0.0250  0.1064
  627MPD2    C4 9286   1.704   2.909  13.750 -0.2278  0.0639  0.1641
  627MPD2    C5 9287   1.828   2.960  13.725 -0.1779 -0.3244 -0.2079
  627MPD2     H 9288   1.622   3.134  13.977 -1.4319  0.7388 -1.5887
  627MPD2    H1 9289   1.666   2.828  13.690 -1.9272  2.0387 -1.4248
  627MPD2    H2 9290   1.990   3.095  13.772 -1.4531  3.1105  0.3922
  627MPD2    H3 9291   1.898   2.908  13.661 -0.6905 -0.2736 -0.8208
  627MPD2     N 9292   1.502   2.931  13.889  0.0624 -0.3684 -0.2409
  627MPD2    H5 9293   1.458   2.980  13.966  5.0001  2.9005  0.5062
  627MPD2    N1 9294   1.889   3.215  13.968  0.0881 -0.3915  0.2804
  627MPD2    H7 9295   1.983   3.238  13.937  0.1345 -1.5130 -0.3818
  628TMC3    C1 9296   1.927   3.381  14.126  0.8923  0.4185 -0.3841
  628TMC3    C2 9297   2.040   3.311  14.172 -0.5250 -0.6739 -0.3084
  628TMC3    C3 9298   2.117   3.379  14.268 -0.1437  0.7659 -0.7390
  628TMC3    C4 9299   1.892   3.509  14.150 -0.0518 -0.6228  0.5269
  628TMC3    C5 9300   1.980   3.577  14.243  0.1232  0.3721  0.0631
  628TMC3    C6 9301   2.092   3.514  14.289 -0.0766  0.3550 -0.3020
  628TMC3     C 9302   1.833   3.300  14.061 -0.0859 -0.0224 -1.0047
  628TMC3     O 9303   1.719   3.299  14.106  0.1779 -0.2005 -0.2075
  628TMC3     H 9304   2.039   3.203  14.175 -1.1002 -0.6675 -0.3446
  628TMC3    H1 9305   1.789   3.544  14.140  0.1770 -0.2213 -0.5020
  628TMC3    H2 9306   2.136   3.556  14.378 -2.1540 -0.9507  1.3485
  628TMC3    C7 9307   1.903   3.652  14.339 -0.1473 -0.0675 -0.3087
  628TMC3    C8 9308   2.207   3.304  14.351 -0.0994  0.2336 -0.0330
  628TMC3    O1 9309   1.905   3.604  14.452 -0.8655  0.1866 -0.1967
  628TMC3    O2 9310   2.323   3.335  14.372  1.0949  0.0570 -0.6896
  629MPD2     C 9311   3.732   2.371  16.079 -0.4603 -0.1017  0.2386
  629MPD2    C1 9312   3.777   2.241  16.085 -0.2758 -0.4252 -0.0145
  629MPD2    C2 9313   3.689   2.142  16.071 -0.6757 -0.3317 -0.2374
  629MPD2    C3 9314   3.554   2.175  16.074 -0.0890  0.3643 -0.0941
  629MPD2    C4 9315   3.509   2.302  16.088  0.6685  0.3138 -0.2105
  629MPD2    C5 9316   3.601   2.401  16.083 -0.0495 -0.4113  0.1928
  629MPD2     H 9317   3.723   2.046  16.035  0.5583 -0.5183  1.3764
  629MPD2    H1 9318   3.406   2.334  16.074  1.0090  1.7245  0.5459
  629MPD2    H2 9319   3.794   2.460  16.080 -0.3119 -0.2026 -0.1713
  629MPD2    H3 9320   3.565   2.503  16.084  0.1565 -0.3405  1.2035
  629MPD2     N 9321   3.467   2.063  16.057 -0.4100 -0.8655 -0.6449
  629MPD2    H5 9322   3.508   1.976  16.025  1.6247 -0.5758  1.2057
  629MPD2    N1 9323   3.919   2.216  16.080  0.2871 -0.8632 -0.1920
  629MPD2    H7 9324   3.985   2.294  16.077 -0.2764 -0.4118 -0.9470
  630TMC3    C1 9325   4.125   2.110  16.089 -0.2039  0.0682  0.2220
  630TMC3    C2 9326   4.200   2.206  16.027 -0.0627  0.1530  0.9814
  630TMC3    C3 9327   4.337   2.188  16.037  0.3141 -1.0315  0.5373
  630TMC3    C4 9328   4.178   2.007  16.160  0.0540  0.0412  0.0836
  630TMC3    C5 9329   4.311   1.990  16.167 -0.2842  0.0511  0.1717
  630TMC3    C6 9330   4.395   2.096  16.128  0.0264  0.0231 -0.0147
  630TMC3     C 9331   3.979   2.091  16.077 -0.0178  0.5566  0.5566
  630TMC3     O 9332   3.931   1.979  16.068  0.7949 -0.2247  0.0502
  630TMC3     H 9333   4.159   2.274  15.954  3.3019  0.8059 -0.2899
  630TMC3    H1 9334   4.115   1.928  16.199  1.6803 -0.5029  1.5631
  630TMC3    H2 9335   4.502   2.082  16.130 -0.0165 -0.4294 -1.1253
  630TMC3    C7 9336   4.354   1.888  16.264  0.2970  0.1848  0.0677
  630TMC3    C8 9337   4.432   2.288  15.994 -0.3186 -0.7919 -0.3725
  630TMC3    O1 9338   4.271   1.798  16.294  0.7115 -0.2477  0.1338
  630TMC3    O2 9339   4.538   2.287  16.046  0.1162 -0.1830  0.0612
  631MPD2     C 9340   2.293   1.410  15.799 -0.8980 -0.3663  0.1539
  631MPD2    C1 9341   2.342   1.459  15.684 -0.0435 -1.0144 -0.0413
  631MPD2    C2 9342   2.413   1.371  15.597 -0.6841 -0.0967  0.2561
  631MPD2    C3 9343   2.428   1.239  15.632  0.1797 -0.1095 -0.5082
  631MPD2    C4 9344   2.373   1.192  15.750  0.4779 -0.6858  0.3229
  631MPD2    C5 9345   2.306   1.280  15.826  0.2198  0.5835  0.3898
  631MPD2     H 9346   2.454   1.409  15.504  1.7209  1.2000  1.8426
  631MPD2    H1 9347   2.390   1.092  15.789 -0.6317 -0.3274  1.7257
  631MPD2    H2 9348   2.242   1.478  15.866 -0.8957  0.1230 -0.3460
  631MPD2    H3 9349   2.269   1.252  15.924 -1.4514  0.2172 -0.3602
  631MPD2     N 9350   2.503   1.150  15.546 -0.4137  1.1477 -0.5277
  631MPD2    H5 9351   2.535   1.181  15.454 -2.7300  1.0476 -1.3695
  631MPD2    N1 9352   2.335   1.601  15.675 -0.2708  0.4529  0.4700
  631MPD2    H7 9353   2.302   1.653  15.756  1.2613  0.7045  0.9182
  632TMC3    C1 9354   2.342   1.815  15.576  0.5059  0.0834 -0.7892
  632TMC3    C2 9355   2.235   1.858  15.647 -0.0002 -0.2866  0.0633
  632TMC3    C3 9356   2.216   1.993  15.658  0.1082 -0.1018  0.0613
  632TMC3    C4 9357   2.413   1.901  15.496 -0.0472 -0.2634  0.6317
  632TMC3    C5 9358   2.372   2.033  15.499 -0.0856 -0.6113 -0.4881
  632TMC3    C6 9359   2.293   2.083  15.599  1.1652  0.0766 -0.0465
  632TMC3     C 9360   2.369   1.673  15.565  0.4976 -0.1091 -0.0174
  632TMC3     O 9361   2.425   1.635  15.463  0.6604 -0.4747  0.1313
  632TMC3     H 9362   2.159   1.796  15.694  1.2662  0.0927  2.6602
  632TMC3    H1 9363   2.508   1.863  15.458  0.7134  1.2482  1.0210
  632TMC3    H2 9364   2.253   2.184  15.596  1.3528  0.1449 -0.2976
  632TMC3    C7 9365   2.477   2.133  15.460  0.0579  1.1297 -0.3265
  632TMC3    C8 9366   2.146   2.037  15.780 -0.3798 -0.5954  0.0191
  632TMC3    O1 9367   2.496   2.214  15.551 -0.1156 -0.2778  0.5305
  632TMC3    O2 9368   2.075   1.954  15.833  0.1825  0.0862  0.7510
  633MPD2     C 9369   2.366   4.660  17.513 -0.3876  0.9283  0.6022
  633MPD2    C1 9370   2.401   4.566  17.422  0.3387 -0.1017  0.3537
  633MPD2    C2 9371   2.440   4.441  17.465  0.5687  0.2768 -0.0862
  633MPD2    C3 9372   2.445   4.406  17.598 -0.1067 -0.2322  0.3286
  633MPD2    C4 9373   2.418   4.509   0.006  0.9990 -0.0959 -0.4583
  633MPD2    C5 9374   2.378   4.631  17.644  0.9458  0.1591  0.8902
  633MPD2     H 9375   2.466   4.374  17.384  0.1257 -2.3033  1.8830
  633MPD2    H1 9376   2.437   4.499   0.113 -1.0634  1.6448  0.0752
  633MPD2    H2 9377   2.337   0.039  17.483 -3.3600 -0.7154 -1.8513
  633MPD2    H3 9378   2.356   4.704   0.037 -0.0316  1.7431 -0.8783
  633MPD2     N 9379   2.469   4.275  17.646 -0.1691 -0.6857  0.2013
  633MPD2    H5 9380   2.454   4.260   0.061 -1.8352 -1.0701 -0.1139
  633MPD2    N1 9381   2.394   4.580  17.280  0.3269  0.0389 -0.0431
  633MPD2    H7 9382   2.439   4.506  17.226  0.7727 -0.2056  0.6606
  634TMC3    C1 9383   2.364   4.671  17.065 -0.0907  0.6321  0.4229
  634TMC3    C2 9384   2.424   4.558  17.010 -0.3228 -0.0573 -1.1451
  634TMC3    C3 9385   2.450   4.557  16.877  0.2065 -0.3659  0.5947
  634TMC3    C4 9386   2.316   0.058  16.995  0.5699 -0.9001 -0.1114
  634TMC3    C5 9387   2.339   0.051  16.858 -0.3490  0.3727  0.1373
  634TMC3    C6 9388   2.411   4.665  16.802 -0.1132 -0.1298 -0.1891
  634TMC3     C 9389   2.352   4.692  17.209  0.2912 -0.1517 -0.2048
  634TMC3     O 9390   2.301   0.072  17.255  0.1771  0.1564 -0.4543
  634TMC3     H 9391   2.443   4.469  17.069  0.3266  1.6427  1.1884
  634TMC3    H1 9392   2.257   0.137  17.041  0.6400  0.1208 -1.7581
  634TMC3    H2 9393   2.429   4.671  16.696 -1.3964 -0.9356 -0.4509
  634TMC3    C7 9394   2.345   0.180  16.784 -0.4635 -0.4389  0.5327
  634TMC3    C8 9395   2.440   4.421  16.817  0.1331  0.5291  0.3217
  634TMC3    O1 9396   2.395   0.179  16.674 -0.3818  0.2419  0.0358
  634TMC3    O2 9397   2.407   4.331  16.894 -0.0640 -0.4597  0.4065
  635TMC3    C1 9398   3.305   0.795  17.106  0.7980  0.1982 -0.6416
  635TMC3    C2 9399   3.380   0.683  17.117 -0.6890  0.6970  0.0114
  635TMC3    C3 9400   3.383   0.586  17.020  0.3961  0.4813  0.8899
  635TMC3    C4 9401   3.217   0.811  17.004  0.6968 -0.5920  0.1732
  635TMC3    C5 9402   3.224   0.714  16.906  1.0566 -0.1372 -0.4089
  635TMC3    C6 9403   3.302   0.607  16.913 -0.0266  0.1638  0.7152
  635TMC3     C 9404   3.278   0.879  17.219 -0.1830 -0.6727  0.0304
  635TMC3     O 9405   3.174   0.943  17.209 -0.1735  0.4688  0.1711
  635TMC3     H 9406   3.448   0.672  17.201 -0.2105  2.0634 -0.2044
  635TMC3    H1 9407   3.146   0.894  17.006  1.4083  0.0322 -0.5592
  635TMC3    H2 9408   3.292   0.533  16.834 -1.9012  0.0027  1.1143
  635TMC3    C7 9409   3.151   0.723  16.781  0.0399  0.8095 -0.4261
  635TMC3    C8 9410   3.431   0.455  17.059  0.2141  0.1169 -0.0439
  635TMC3    O1 9411   3.094   0.624  16.733 -0.5808 -0.1439  0.6241
  635TMC3    O2 9412   3.475   0.444  17.172  0.0058  0.2967  0.3550
  636MPD2     C 9413   3.299   4.530  15.949  0.3083  0.4746 -0.1123
  636MPD2    C1 9414   3.417   4.590  15.972 -0.1342  0.7362  0.4533
  636MPD2    C2 9415   3.533   4.526  15.934  0.1478  0.8360  0.4376
  636MPD2    C3 9416   3.535   4.407  15.864  0.4537 -0.5074  0.4055
  636MPD2    C4 9417   3.415   4.349  15.843 -0.0793  0.1292 -0.7764
  636MPD2    C5 9418   3.299   4.411  15.888  0.2344 -0.1906 -0.3797
  636MPD2     H 9419   3.633   4.565  15.951  0.9300 -0.4860 -1.1377
  636MPD2    H1 9420   3.413   4.263  15.777 -1.5549  0.9156 -1.7595
  636MPD2    H2 9421   3.204   4.564  15.990  0.6847  2.3139 -0.7835
  636MPD2    H3 9422   3.199   4.376  15.867  0.2582 -0.3359 -0.2512
  636MPD2     N 9423   3.662   4.365  15.828 -0.3893 -0.0158 -0.4575
  636MPD2    H5 9424   3.740   4.423  15.857 -0.6236  0.1071 -0.0701
  636MPD2    N1 9425   3.431   4.714  16.036  0.4306 -0.3905 -0.3715
  636MPD2    H7 9426   3.525   0.024  16.057  0.5812  0.0483 -1.7030
  637TMC3    C1 9427   3.833   4.253  15.728  0.1285  0.0109  1.1632
  637TMC3    C2 9428   3.915   4.281  15.836 -0.4346  0.3118 -0.2210
  637TMC3    C3 9429   4.051   4.282  15.822 -0.0943  0.0323 -0.4970
  637TMC3    C4 9430   3.883   4.231  15.603  0.0870  0.0768 -0.4709
  637TMC3    C5 9431   4.021   4.236  15.591  0.0041  0.0921  0.3310
  637TMC3    C6 9432   4.109   4.241  15.703 -0.4558  0.5710 -0.4851
  637TMC3     C 9433   3.693   4.262  15.744 -0.3029 -0.3123 -0.2816
  637TMC3     O 9434   3.613   4.197  15.676 -0.1738 -0.3404  0.3785
  637TMC3     H 9435   3.869   4.308  15.931 -1.2512 -1.4244 -0.1383
  637TMC3    H1 9436   3.816   4.222  15.518 -1.4898 -0.5336  0.8470
  637TMC3    H2 9437   4.216   4.238  15.685 -0.1778 -1.1748  1.4563
  637TMC3    C7 9438   4.059   4.347  15.501  0.3238 -0.0002 -1.1984
  637TMC3    C8 9439   4.116   4.380  15.900 -0.6124  0.1981  0.1217
  637TMC3    O1 9440   3.966   4.419  15.468 -0.1706 -0.4719 -0.0399
  637TMC3    O2 9441   4.043   4.444  15.976 -0.0622 -0.1036  0.3813
  638MPD2     C 9442   3.721   3.737  15.014  0.4294 -0.4387  0.4197
  638MPD2    C1 9443   3.629   3.726  14.913  0.2196  0.1803  0.1608
  638MPD2    C2 9444   3.517   3.640  14.919  0.0180  0.2745  0.9253
  638MPD2    C3 9445   3.502   3.559  15.035  0.5725 -0.2652 -0.5268
  638MPD2    C4 9446   3.596   3.569  15.137  0.2203 -0.1583 -0.1913
  638MPD2    C5 9447   3.703   3.653  15.125  0.1455  0.9576  0.4058
  638MPD2     H 9448   3.457   3.628  14.829 -0.4774  1.1886  1.1291
  638MPD2    H1 9449   3.587   3.516  15.231  1.9421 -0.2748 -0.0790
  638MPD2    H2 9450   3.814   3.791  15.005 -0.0071  0.3055  0.4266
  638MPD2    H3 9451   3.783   3.640  15.197 -0.5038 -0.6660  0.8496
  638MPD2     N 9452   3.402   3.461  15.042  0.4152 -0.0925  0.1604
  638MPD2    H5 9453   3.326   3.467  14.974  0.1932 -0.8863  0.3422
  638MPD2    N1 9454   3.670   3.794  14.795 -0.2944 -0.1859 -0.5945
  638MPD2    H7 9455   3.752   3.853  14.800  1.8743 -3.1322 -2.2210
  639TMC3    C1 9456   3.294   3.256  15.122  0.3427 -0.2584 -0.4414
  639TMC3    C2 9457   3.214   3.245  15.007  0.3954  0.4575  0.1388
  639TMC3    C3 9458   3.145   3.128  14.984 -0.5678 -0.2869  0.1570
  639TMC3    C4 9459   3.302   3.148  15.204  0.0595 -0.4582 -0.4584
  639TMC3    C5 9460   3.226   3.030  15.176  0.5131  1.4074  0.5637
  639TMC3    C6 9461   3.145   3.019  15.069  1.3660 -0.5174 -0.3175
  639TMC3     C 9462   3.398   3.360  15.129  0.7770  0.2697 -0.0694
  639TMC3     O 9463   3.481   3.333  15.216  0.1102  0.4846  0.3566
  639TMC3     H 9464   3.211   3.321  14.929 -1.5266 -2.5880 -2.6999
  639TMC3    H1 9465   3.371   3.144  15.288  0.2386 -1.5561 -0.6532
  639TMC3    H2 9466   3.097   2.925  15.042  2.3976 -0.4753 -2.2938
  639TMC3    C7 9467   3.312   2.916  15.191 -0.2091 -0.1003 -0.2715
  639TMC3    C8 9468   3.127   3.101  14.844  0.3347 -0.4182 -0.2664
  639TMC3    O1 9469   3.259   2.811  15.229  0.5063 -0.2884  0.1515
  639TMC3    O2 9470   3.190   3.150  14.750 -0.2287  0.0595 -0.1888
  640MPD2     C 9471   3.782   2.238   9.863 -0.0189  0.1750  0.2884
  640MPD2    C1 9472   3.675   2.150   9.844 -0.1977  0.5577 -0.8454
  640MPD2    C2 9473   3.559   2.175   9.908  0.2960 -0.5607  0.3741
  640MPD2    C3 9474   3.549   2.285   9.992  0.8467  0.4021  0.1068
  640MPD2    C4 9475   3.657   2.374  10.002 -0.3809  0.0837  0.6978
  640MPD2    C5 9476   3.774   2.339   9.942 -0.2410 -0.1256  0.3909
  640MPD2     H 9477   3.472   2.122   9.869 -2.0651  3.4893  0.1244
  640MPD2    H1 9478   3.655   2.452  10.077  2.8162  1.7713 -0.9682
  640MPD2    H2 9479   3.876   2.218   9.812 -0.9049 -0.1491 -1.2330
  640MPD2    H3 9480   3.856   2.409   9.947  0.1315 -0.4425 -1.2126
  640MPD2     N 9481   3.431   2.321  10.060  0.3421 -0.4205  0.2915
  640MPD2    H5 9482   3.439   2.401  10.122  0.4547 -1.4908  1.6785
  640MPD2    N1 9483   3.690   2.042   9.753  0.1685  0.5769  0.0124
  640MPD2    H7 9484   3.788   2.030   9.728 -0.1167  0.1486 -0.9246
  641TMC3    C1 9485   3.651   1.857   9.618  0.3796 -0.2983 -0.2092
  641TMC3    C2 9486   3.758   1.794   9.667 -0.7030 -0.1356  0.5261
  641TMC3    C3 9487   3.835   1.718   9.579 -0.0427 -0.1499  0.0201
  641TMC3    C4 9488   3.596   1.834   9.498 -0.2948  0.1787  0.2663
  641TMC3    C5 9489   3.668   1.751   9.413 -0.3161  0.1120 -0.1572
  641TMC3    C6 9490   3.790   1.694   9.454 -0.3545 -0.3511 -0.2059
  641TMC3     C 9491   3.587   1.953   9.705 -0.0455 -0.5224  0.3939
  641TMC3     O 9492   3.466   1.963   9.710  0.4805  0.3382  0.5148
  641TMC3     H 9493   3.796   1.822   9.764  2.2116 -0.6156 -0.4752
  641TMC3    H1 9494   3.508   1.889   9.466  1.3599  1.7961 -1.4496
  641TMC3    H2 9495   3.857   1.648   9.382  1.1427 -0.9923  1.5850
  641TMC3    C7 9496   3.646   1.769   9.275  0.0368 -0.5258 -0.0340
  641TMC3    C8 9497   3.948   1.638   9.627  0.6784  0.0797 -0.5670
  641TMC3    O1 9498   3.752   1.773   9.210 -0.3515 -0.1091 -0.0151
  641TMC3    O2 9499   4.004   1.569   9.544  0.4170  0.2023  0.3083
  642TMC3    C1 9500   0.028   3.458  11.859 -0.4313  0.1045  0.4818
  642TMC3    C2 9501   0.137   3.442  11.937  0.0430 -0.8935  0.4541
  642TMC3    C3 9502   0.154   3.338  12.018  0.1049  0.5802 -0.4704
  642TMC3    C4 9503   4.645   3.368  11.871  0.7932  0.7155  0.1097
  642TMC3    C5 9504   4.662   3.269  11.960 -0.1447  0.5613  0.8207
  642TMC3    C6 9505   0.054   3.246  12.037  0.2697 -0.0623 -0.6138
  642TMC3     C 9506   4.717   3.595  11.852 -0.2037  0.2381 -0.3039
  642TMC3     O 9507   0.070   3.677  11.801  0.0803 -0.0419  0.1296
  642TMC3     H 9508   0.207   3.525  11.939  0.2557 -1.0416 -0.8377
  642TMC3    H1 9509   4.561   3.369  11.803 -0.2162  0.6198  1.3429
  642TMC3    H2 9510   0.069   3.157  12.098  0.8276 -0.2469 -1.0191
  642TMC3    C7 9511   4.533   3.196  11.979 -0.3366 -0.0612  1.0540
  642TMC3    C8 9512   0.285   3.309  12.070  0.1874 -0.1266 -1.0508
  642TMC3    O1 9513   4.464   3.192  11.876 -0.0286 -0.0545  0.2357
  642TMC3    O2 9514   0.290   3.244  12.176  0.2500 -0.0780  0.2893
  643TMC3    C1 9515   4.364   2.705   0.372 -0.1110  0.2275  0.3604
  643TMC3    C2 9516   4.238   2.739   0.346  0.3291 -0.4132 -0.2433
  643TMC3    C3 9517   4.157   2.656   0.272  0.3989  0.3453 -0.0766
  643TMC3    C4 9518   4.418   2.590   0.313 -0.3593  0.1213 -0.6461
  643TMC3    C5 9519   4.331   2.514   0.243 -0.5612 -0.7412 -0.1803
  643TMC3    C6 9520   4.194   2.534   0.237 -0.1492 -0.0003 -0.5425
  643TMC3     C 9521   4.447   2.791   0.461  0.0093  0.7740 -0.6901
  643TMC3     O 9522   4.390   2.894   0.492  0.1191 -0.1175 -0.4212
  643TMC3     H 9523   4.192   2.831   0.379 -0.5412 -0.6396 -0.8454
  643TMC3    H1 9524   4.522   2.561   0.321 -1.0785 -2.3893 -0.4654
  643TMC3    H2 9525   4.128   2.475   0.176  1.5821 -0.8058 -1.6498
  643TMC3    C7 9526   4.372   2.525   0.109  0.1895 -0.4773  0.8016
  643TMC3    C8 9527   4.075   2.726   0.170  0.8465  0.1781 -0.6950
  643TMC3    O1 9528   4.458   2.607   0.078  0.1361 -0.3079  0.7251
  643TMC3    O2 9529   3.987   2.666   0.109  0.0439  0.2259 -0.0600
  644MPD2     C 9530   3.978   2.404   9.567 -0.8212  0.0184 -0.2082
  644MPD2    C1 9531   3.909   2.297   9.514  0.9375  0.4213 -0.0637
  644MPD2    C2 9532   3.774   2.304   9.495  0.3339 -0.3911  0.0835
  644MPD2    C3 9533   3.709   2.427   9.514  0.3231  0.2701  0.2438
  644MPD2    C4 9534   3.781   2.537   9.564  0.0799 -0.3338 -0.1649
  644MPD2    C5 9535   3.920   2.525   9.592 -0.1024 -0.2336  0.0751
  644MPD2     H 9536   3.718   2.214   9.472 -2.5471  1.4043 -0.0244
  644MPD2    H1 9537   3.732   2.632   9.581  0.5281 -0.3723  1.4269
  644MPD2    H2 9538   4.084   2.387   9.578 -0.6307  0.4475 -1.4033
  644MPD2    H3 9539   3.978   2.609   9.628 -1.3839  2.0098 -3.1078
  644MPD2     N 9540   3.570   2.434   9.471 -0.1470  0.3237 -0.5486
  644MPD2    H5 9541   3.527   2.348   9.438 -0.1813 -1.0162  3.0480
  644MPD2    N1 9542   3.981   2.170   9.499  0.3417 -0.0734  0.1971
  644MPD2    H7 9543   4.078   2.168   9.530  0.1034 -0.7839  0.9036
  645TMC3    C1 9544   3.350   2.525   9.437  0.9013 -0.1625  0.4775
  645TMC3    C2 9545   3.256   2.630   9.466  0.2479  0.2155 -0.4054
  645TMC3    C3 9546   3.125   2.611   9.439  0.3903 -0.9330 -0.4064
  645TMC3    C4 9547   3.302   2.411   9.380 -0.5659  0.5147  0.3022
  645TMC3    C5 9548   3.165   2.387   9.381 -0.0132 -0.5155 -0.1823
  645TMC3    C6 9549   3.078   2.488   9.410  0.6517 -0.0074  0.4076
  645TMC3     C 9550   3.492   2.547   9.464 -0.4404  0.6398  0.0064
  645TMC3     O 9551   3.524   2.659   9.500  0.1351 -0.7695  0.0987
  645TMC3     H 9552   3.294   2.710   9.528  0.6182  0.0564 -0.4218
  645TMC3    H1 9553   3.374   2.332   9.359  0.3069  1.6316 -0.8929
  645TMC3    H2 9554   2.973   2.480   9.383  0.6645  0.5639  0.1737
  645TMC3    C7 9555   3.123   2.250   9.343 -0.0518  0.1946  0.2192
  645TMC3    C8 9556   3.031   2.709   9.492  0.6885  0.3603 -0.2846
  645TMC3    O1 9557   3.000   2.250   9.326  0.0097  0.0162 -0.0116
  645TMC3    O2 9558   2.919   2.665   9.518 -0.1054  0.1143  0.3711
  646MPD2     C 9559   3.820   2.626  14.244 -1.2144 -1.1252 -0.1463
  646MPD2    C1 9560   3.714   2.589  14.323 -0.1671 -0.2316  0.4594
  646MPD2    C2 9561   3.587   2.634  14.289 -0.1765 -0.0535  0.3837
  646MPD2    C3 9562   3.571   2.732  14.190 -0.0817 -0.1196  0.0942
  646MPD2    C4 9563   3.676   2.762  14.111  0.6970  0.2414  0.5122
  646MPD2    C5 9564   3.795   2.707  14.137  0.2907 -0.0893 -0.4526
  646MPD2     H 9565   3.494   2.613  14.341  0.2702 -4.0757 -0.4819
  646MPD2    H1 9566   3.683   2.831  14.028  0.0430 -0.2512  0.0582
  646MPD2    H2 9567   3.923   2.595  14.259 -0.7313  1.2778  1.6504
  646MPD2    H3 9568   3.872   2.747  14.073  1.5660  0.2635  1.2996
  646MPD2     N 9569   3.448   2.786  14.159 -0.2335 -0.2002  0.4140
  646MPD2    H5 9570   3.366   2.746  14.204 -1.5837  0.5561 -1.3650
  646MPD2    N1 9571   3.735   2.506  14.439  0.3046  0.1387 -0.0480
  646MPD2    H7 9572   3.830   2.480  14.461  1.0827  0.1408 -3.3559
  647TMC3    C1 9573   3.699   2.419  14.654 -0.0565 -0.7316 -1.0252
  647TMC3    C2 9574   3.612   2.381  14.748  0.3279 -0.2077  0.0721
  647TMC3    C3 9575   3.663   2.322  14.860 -0.2501  0.1362  0.0237
  647TMC3    C4 9576   3.837   2.410  14.675 -0.4953  0.2620  0.2926
  647TMC3    C5 9577   3.881   2.385  14.803 -0.4262 -0.0479 -0.2092
  647TMC3    C6 9578   3.792   2.337  14.899 -0.3752 -0.2898 -0.4054
  647TMC3     C 9579   3.638   2.466  14.530 -0.4771 -0.0722  0.2910
  647TMC3     O 9580   3.519   2.484  14.525 -0.2426 -0.3772  0.2125
  647TMC3     H 9581   3.511   2.369  14.710 -0.4524 -1.7271  2.6512
  647TMC3    H1 9582   3.902   2.455  14.600 -0.4835  1.2300  0.8803
  647TMC3    H2 9583   3.824   2.291  14.992  0.0766 -0.5570 -0.6915
  647TMC3    C7 9584   4.016   2.343  14.821  0.5876 -0.0865 -1.0254
  647TMC3    C8 9585   3.616   2.184  14.888  0.3650 -0.3281  0.1481
  647TMC3    O1 9586   4.045   2.299  14.934 -0.6489  0.2309  0.4547
  647TMC3    O2 9587   3.702   2.110  14.932 -0.0291 -0.5696 -0.2219
  648TMC3    C1 9588   2.612   4.419  16.044  0.1248 -0.5311  0.1703
  648TMC3    C2 9589   2.634   4.307  15.968 -0.3338  0.1271  0.0146
  648TMC3    C3 9590   2.555   4.301  15.864 -0.1039 -0.4849 -0.3677
  648TMC3    C4 9591   2.538   4.530  16.002 -0.0530  0.9523 -0.5114
  648TMC3    C5 9592   2.471   4.517  15.880 -0.5452  0.6324  0.7428
  648TMC3    C6 9593   2.486   4.403  15.809  0.0939 -0.5452  0.1666
  648TMC3     C 9594   2.657   4.425  16.183  0.1128 -0.7852 -0.3739
  648TMC3     O 9595   2.642   4.537  16.236  0.0846 -0.7047  0.6197
  648TMC3     H 9596   2.676   4.220  16.016 -1.1290 -0.4942 -0.4158
  648TMC3    H1 9597   2.541   4.623  16.057  1.1876  1.0414 -0.7217
  648TMC3    H2 9598   2.435   4.382  15.715 -1.7053  1.4716  0.6861
  648TMC3    C7 9599   2.461   4.641  15.797  0.6356  0.3973 -0.3921
  648TMC3    C8 9600   2.546   4.179  15.786  0.8902 -0.5323 -0.5726
  648TMC3    O1 9601   2.506   4.627  15.686  0.2724 -0.3366  0.2340
  648TMC3    O2 9602   2.436   4.151  15.747  0.0609 -0.3687 -0.1586
  649TMC3    C1 9603   1.644   1.094  12.822  0.4484  0.6551  0.0886
  649TMC3    C2 9604   1.755   1.168  12.858  0.0209 -0.3722 -0.3398
  649TMC3    C3 9605   1.822   1.120  12.966  0.0512 -0.5887  0.5106
  649TMC3    C4 9606   1.609   0.974  12.881  0.6448 -0.1770 -0.0162
  649TMC3    C5 9607   1.689   0.924  12.981  0.2593  0.3382  0.3778
  649TMC3    C6 9608   1.792   0.999  13.027  0.1388  0.7707  0.4526
  649TMC3     C 9609   1.562   1.133  12.708 -0.2388  0.0570 -0.5164
  649TMC3     O 9610   1.444   1.104  12.718 -0.1311 -0.3344 -0.1478
  649TMC3     H 9611   1.762   1.271  12.824  1.5783  0.2799  1.8712
  649TMC3    H1 9612   1.522   0.922  12.842  1.7908 -0.8825 -1.6626
  649TMC3    H2 9613   1.853   0.969  13.112  0.1590 -0.1667  0.1117
  649TMC3    C7 9614   1.621   0.854  13.088 -0.1521 -0.2286 -0.2591
  649TMC3    C8 9615   1.927   1.201  13.034 -0.3236  0.1926  0.4741
  649TMC3    O1 9616   1.516   0.907  13.114 -0.1212 -0.3479 -0.3559
  649TMC3    O2 9617   1.960   1.160  13.147 -0.3504  0.1467 -0.0203
  650TMC3    C1 9618   4.330   2.682  12.710 -0.4763 -0.3186  0.1767
  650TMC3    C2 9619   4.339   2.819  12.751  0.1909  0.1693 -0.5801
  650TMC3    C3 9620   4.219   2.890  12.751 -0.0243  0.1661  0.2000
  650TMC3    C4 9621   4.226   2.635  12.637 -0.0221 -0.4029  0.7321
  650TMC3    C5 9622   4.120   2.719  12.623  0.4460  0.2897 -0.2249
  650TMC3    C6 9623   4.108   2.844  12.685  0.9910 -0.3594 -0.1314
  650TMC3     C 9624   4.440   2.598  12.764  0.0320 -0.1140 -0.2328
  650TMC3     O 9625   4.550   2.653  12.784 -0.1833  0.0568 -0.2497
  650TMC3     H 9626   4.427   2.858  12.802 -1.7090 -0.3751  3.1006
  650TMC3    H1 9627   4.240   2.539  12.588  1.7842  0.5498 -0.6364
  650TMC3    H2 9628   4.025   2.910  12.663  0.1321 -0.7410  1.9550
  650TMC3    C7 9629   4.045   2.698  12.500  0.2782  0.6165 -0.3081
  650TMC3    C8 9630   4.218   3.024  12.798  0.1532  0.1066  0.4929
  650TMC3    O1 9631   4.061   2.599  12.429 -0.1424  0.0322 -0.2401
  650TMC3    O2 9632   4.319   3.086  12.819 -0.1190 -0.3541 -0.1296
  651MPD2     C 9633   3.013   4.546  10.824 -0.1563  0.3957  0.5682
  651MPD2    C1 9634   2.975   4.678  10.806 -0.0497 -0.0118 -0.3356
  651MPD2    C2 9635   3.077   0.048  10.773  0.1604 -0.5440 -0.1559
  651MPD2    C3 9636   3.206   0.005  10.735 -0.3142 -0.4691  0.1418
  651MPD2    C4 9637   3.228   4.590  10.754 -0.0669  0.8263  0.4450
  651MPD2    C5 9638   3.136   4.497  10.795 -0.7970 -0.2390 -0.0946
  651MPD2     H 9639   3.054   0.154  10.783 -0.9855 -0.8713  0.6711
  651MPD2    H1 9640   3.326   4.544  10.752 -0.1590  0.6563 -0.1805
  651MPD2    H2 9641   2.941   4.468  10.846  1.0415 -0.9821 -0.4335
  651MPD2    H3 9642   3.161   4.392  10.807 -4.8364 -1.0893  0.8940
  651MPD2     N 9643   3.312   0.094  10.714 -0.8279  0.1918  0.5136
  651MPD2    H5 9644   3.291   0.193  10.723 -0.3739  0.2414  0.9571
  651MPD2    N1 9645   2.841   0.001  10.832  0.0136  0.4789 -0.2425
  651MPD2    H7 9646   2.829   0.101  10.842  2.8775  1.0700 -2.4766
  652TMC3    C1 9647   3.765   0.217  10.611 -0.3268  0.4396  0.1160
  652TMC3    C2 9648   3.662   0.132  10.589 -0.0866  0.1773 -0.3011
  652TMC3    C3 9649   3.543   0.164  10.668 -0.5377 -0.4141  0.8508
  652TMC3    C4 9650   3.754   0.324  10.698 -0.3880  0.2999  0.4300
  652TMC3    C5 9651   3.635   0.356  10.758 -0.1879  0.3391 -0.7823
  652TMC3    C6 9652   3.528   0.278  10.743 -0.0071  0.5893  0.7459
  652TMC3     C 9653   3.901   0.162  10.602  0.4148  0.7875  0.7234
  652TMC3     O 9654   3.931   0.068  10.674 -0.2851  0.1105 -0.2491
  652TMC3     H 9655   3.668   0.045  10.525  1.1594  0.2964 -0.3369
  652TMC3    H1 9656   3.851   0.372  10.707 -0.6024  0.5900  1.1906
  652TMC3    H2 9657   3.449   0.297  10.815 -1.2420  0.2064 -0.5221
  652TMC3    C7 9658   3.648   0.433  10.881  0.2140 -0.3993 -0.3859
  652TMC3    C8 9659   3.434   0.059  10.668  0.1931 -0.2038  0.3784
  652TMC3    O1 9660   3.578   0.398  10.972  0.1818  0.2786 -0.4913
  652TMC3    O2 9661   3.463   4.675  10.612 -0.1658  0.0773 -0.2122
  653MPD2     C 9662   2.031   4.564  17.509 -0.0556 -0.2819 -0.3216
  653MPD2    C1 9663   1.941   4.648  17.441  0.0646  0.0942 -0.3416
  653MPD2    C2 9664   1.822   4.592  17.394  0.2542  0.3930  0.0530
  653MPD2    C3 9665   1.805   4.455  17.405 -0.2125  0.0530 -0.5829
  653MPD2    C4 9666   1.905   4.376  17.456  0.1727 -0.0119  0.3178
  653MPD2    C5 9667   2.015   4.435  17.517 -0.2280 -0.4704  0.5656
  653MPD2     H 9668   1.738   4.651  17.360  0.6222 -2.0251 -4.9978
  653MPD2    H1 9669   1.903   4.267  17.458  2.6583 -0.0310  2.1449
  653MPD2    H2 9670   2.129   4.600  17.538  0.5581 -3.3141  1.3377
  653MPD2    H3 9671   2.088   4.372  17.567  1.0989  1.4975  1.0786
  653MPD2     N 9672   1.683   4.397  17.346 -0.4421 -0.1674  0.0134
  653MPD2    H5 9673   1.618   4.459  17.299  1.6137  1.1264 -1.1113
  653MPD2    N1 9674   1.972   0.066  17.440  0.7679  0.4134 -0.0513
  653MPD2    H7 9675   2.058   0.093  17.487  0.8638  1.0991 -0.6194
  654TMC3    C1 9676   1.556   4.232  17.245 -0.5224 -0.4655 -0.5257
  654TMC3    C2 9677   1.473   4.332  17.194 -0.2679  0.2797 -0.0586
  654TMC3    C3 9678   1.421   4.312  17.070 -0.6592  0.1778 -0.3576
  654TMC3    C4 9679   1.581   4.115  17.170 -0.6490 -0.1761 -0.6242
  654TMC3    C5 9680   1.533   4.112  17.038  0.1025  0.6272  0.6841
  654TMC3    C6 9681   1.456   4.211  16.985  0.5164  0.1249  1.1624
  654TMC3     C 9682   1.658   4.260  17.345  0.5905  0.3673  0.4196
  654TMC3     O 9683   1.692   4.166  17.420 -0.2804  0.0697  0.1191
  654TMC3     H 9684   1.442   4.424  17.242  2.0484  1.7301 -1.3396
  654TMC3    H1 9685   1.634   4.034  17.218 -2.3782 -1.1740 -0.3903
  654TMC3    H2 9686   1.410   4.195  16.888  1.4341 -1.1902  0.9357
  654TMC3    C7 9687   1.608   4.025  16.950 -0.2592 -0.0225  0.1916
  654TMC3    C8 9688   1.360   4.430  17.012  0.4754  0.2217  0.4249
  654TMC3    O1 9689   1.616   4.058  16.833 -0.7755 -0.2591  0.2815
  654TMC3    O2 9690   1.264   4.473  17.068  0.7539  0.5254  0.2146
  655MPD2     C 9691   3.220   0.010  15.561 -0.2529  0.3993  0.4004
  655MPD2    C1 9692   3.108   0.075  15.530  0.7044  0.5476 -0.0530
  655MPD2    C2 9693   3.026   0.019  15.436  0.4353  0.3328 -0.0794
  655MPD2    C3 9694   3.069   4.627  15.370  0.6973  0.0739 -0.3486
  655MPD2    C4 9695   3.179   4.553  15.409  0.0717 -0.2653 -0.4824
  655MPD2    C5 9696   3.246   4.611  15.506 -0.4271 -0.1567 -0.3687
  655MPD2     H 9697   2.928   0.063  15.424  1.0365  1.3750 -1.2267
  655MPD2    H1 9698   3.223   4.463  15.368  2.7361  0.7805  0.0620
  655MPD2    H2 9699   3.285   0.055  15.635  2.1782 -2.6915  0.1410
  655MPD2    H3 9700   3.341   4.572  15.543  0.5533  1.3046 -1.3739
  655MPD2     N 9701   2.997   4.569  15.263 -0.1221 -0.0679 -0.3639
  655MPD2    H5 9702   3.034   4.481  15.228 -1.8295 -0.1738 -1.9406
  655MPD2    N1 9703   3.065   0.195  15.589 -0.5739  0.3987  0.0648
  655MPD2    H7 9704   2.973   0.228  15.561 -1.2554 -0.9536  0.7228
  656TMC3    C1 9705   3.054   0.374  15.727 -0.2665 -0.2984 -0.3135
  656TMC3    C2 9706   2.976   0.335  15.834  0.7597  0.0297  0.0393
  656TMC3    C3 9707   2.858   0.395  15.861 -0.0877 -0.0095 -0.2285
  656TMC3    C4 9708   3.011   0.464  15.630  0.1208 -0.2472  0.9658
  656TMC3    C5 9709   2.882   0.522  15.656  0.0847  0.5979 -0.1359
  656TMC3    C6 9710   2.812   0.494  15.777  0.3188  1.0468 -0.6683
  656TMC3     C 9711   3.136   0.267  15.686 -0.1712  0.2290  0.2753
  656TMC3     O 9712   3.245   0.253  15.731  0.2397  0.2119  0.1269
  656TMC3     H 9713   3.012   0.257  15.900  0.0654 -1.3204 -1.1883
  656TMC3    H1 9714   3.071   0.484  15.542 -2.4874  0.2141 -0.6937
  656TMC3    H2 9715   2.721   0.539  15.814 -0.0894  0.1491 -0.5826
  656TMC3    C7 9716   2.817   0.594  15.542  0.9136 -0.4951 -0.5072
  656TMC3    C8 9717   2.839   0.422  16.003  0.1562 -0.3789 -0.5619
  656TMC3    O1 9718   2.869   0.567  15.435  0.7073 -0.6105  0.6695
  656TMC3    O2 9719   2.826   0.536  16.047  0.7109  0.0966 -0.7726
  657TMC3    C1 9720   1.970   4.360  15.358  0.5102  0.2087  0.5983
  657TMC3    C2 9721   2.041   4.347  15.470 -0.2665 -0.0418 -0.3243
  657TMC3    C3 9722   2.015   4.441  15.566  0.2135  0.1144  0.1556
  657TMC3    C4 9723   1.863   4.440  15.348  0.4745  0.0551 -0.3138
  657TMC3    C5 9724   1.831   4.521  15.450 -0.3904  0.1477 -0.0512
  657TMC3    C6 9725   1.909   4.530  15.564 -0.7997  0.7573 -0.2753
  657TMC3     C 9726   1.972   4.245  15.261  0.4591 -0.6589  0.1209
  657TMC3     O 9727   1.860   4.214  15.216 -0.5460 -0.2186  0.1066
  657TMC3     H 9728   2.124   4.276  15.474 -0.6687 -0.4569  0.9445
  657TMC3    H1 9729   1.795   4.438  15.263  1.4223  2.7766 -1.1600
  657TMC3    H2 9730   1.896   4.608  15.638 -0.9659 -0.3948  0.9180
  657TMC3    C7 9731   1.692   4.568  15.475  0.1375  0.3446 -0.4646
  657TMC3    C8 9732   2.085   4.408  15.690  0.7276  0.1401 -0.3116
  657TMC3    O1 9733   1.648   4.593  15.587 -0.6863 -0.2495 -0.1601
  657TMC3    O2 9734   2.189   4.346  15.667 -0.5043 -0.7670  0.1882
  658MPD2     C 9735   3.287   4.221  14.849  0.0478  0.1450  0.1759
  658MPD2    C1 9736   3.174   4.277  14.794  0.2083  0.4412  0.7808
  658MPD2    C2 9737   3.180   4.316  14.663  0.0050  0.1133  0.0349
  658MPD2    C3 9738   3.300   4.321  14.594 -0.0616 -0.7380 -0.3787
  658MPD2    C4 9739   3.413   4.266  14.651 -0.5529  0.3896 -0.3314
  658MPD2    C5 9740   3.396   4.201  14.774 -0.0598  0.0700 -0.1584
  658MPD2     H 9741   3.104   4.381  14.620 -0.2736 -0.1836  0.0778
  658MPD2    H1 9742   3.500   4.243  14.591  0.6390 -0.5074  1.7413
  658MPD2    H2 9743   3.283   4.171  14.945 -2.2717 -0.6605 -0.3484
  658MPD2    H3 9744   3.473   4.142  14.822  0.4611  0.1690 -0.8775
  658MPD2     N 9745   3.302   4.384  14.467 -0.5627  0.7823  0.3765
  658MPD2    H5 9746   3.220   4.436  14.437  1.2657  2.3737 -1.8691
  658MPD2    N1 9747   3.062   4.303  14.881 -0.1705 -0.8277  0.1621
  658MPD2    H7 9748   3.076   4.298  14.981  0.2808 -0.6981  0.1016
  659TMC3    C1 9749   2.855   4.400  14.931  0.0147  0.6299  0.4964
  659TMC3    C2 9750   2.910   4.466  15.033  0.3200  0.3107  0.3315
  659TMC3    C3 9751   2.827   4.539  15.109  0.3587 -0.9386  0.4717
  659TMC3    C4 9752   2.720   4.397  14.914 -0.1858  0.2224 -0.0872
  659TMC3    C5 9753   2.637   4.466  14.997 -1.2852 -0.0994 -0.1258
  659TMC3    C6 9754   2.691   4.553  15.092  0.0456  0.0207  0.5748
  659TMC3     C 9755   2.937   4.326  14.837 -0.7169  0.3778 -0.0193
  659TMC3     O 9756   2.892   4.292  14.729 -0.4979 -0.2749 -0.7178
  659TMC3     H 9757   3.015   4.489  15.047  0.9131 -1.5129 -1.0556
  659TMC3    H1 9758   2.687   4.335  14.831  3.5139  1.5617 -2.5473
  659TMC3    H2 9759   2.632   4.609  15.164 -2.6609 -1.6883 -0.3048
  659TMC3    C7 9760   2.493   4.483  14.964 -0.2712  0.0188  0.5942
  659TMC3    C8 9761   2.875   4.616  15.219  0.5671  0.1638 -0.2567
  659TMC3    O1 9762   2.442   4.569  15.034  0.0013 -0.5820  0.6800
  659TMC3    O2 9763   2.816   4.720  15.252 -0.0702 -0.1301 -0.0634
  660MPD2     C 9764   1.371   3.214  12.304  0.2591 -0.3164  0.6294
  660MPD2    C1 9765   1.236   3.189  12.317 -0.5185 -0.5818  0.1296
  660MPD2    C2 9766   1.170   3.223  12.437  0.0649 -0.2315 -0.8312
  660MPD2    C3 9767   1.246   3.252  12.549  0.0221 -0.0874  0.3318
  660MPD2    C4 9768   1.383   3.258  12.532 -0.1348 -0.5799  0.1001
  660MPD2    C5 9769   1.445   3.249  12.414 -0.7809 -0.3838 -0.3238
  660MPD2     H 9770   1.063   3.208  12.444  0.3041 -1.6315 -0.2852
  660MPD2    H1 9771   1.447   3.290  12.614 -1.4450  0.4936  0.6980
  660MPD2    H2 9772   1.423   3.198  12.210 -1.6885 -2.5663 -0.0423
  660MPD2    H3 9773   1.553   3.255  12.404 -0.9011  1.7900 -0.2656
  660MPD2     N 9774   1.196   3.272  12.679 -0.4476 -0.3574 -0.4028
  660MPD2    H5 9775   1.261   3.286  12.755  0.4868  0.6313 -1.3836
  660MPD2    N1 9776   1.158   3.149  12.206  0.5271  0.1404  0.1617
  660MPD2    H7 9777   1.204   3.157  12.116  0.9849 -1.2639  0.2748
  661TMC3    C1 9778   0.969   3.073  12.083  0.2725  0.4454 -0.7004
  661TMC3    C2 9779   1.028   3.117  11.964  0.3522  0.0335  1.2004
  661TMC3    C3 9780   0.948   3.121  11.854 -0.1221 -0.3665 -0.0722
  661TMC3    C4 9781   0.834   3.049  12.087  0.0412  0.3297  0.0502
  661TMC3    C5 9782   0.758   3.059  11.971 -0.1020 -0.5153  0.1112
  661TMC3    C6 9783   0.812   3.103  11.854  0.0300 -0.1353  0.2103
  661TMC3     C 9784   1.030   3.101  12.211  0.1735  0.3504 -0.4837
  661TMC3     O 9785   0.974   3.051  12.309  0.1896  0.2517  0.2189
  661TMC3     H 9786   1.135   3.126  11.949  0.0846 -0.9104 -1.3788
  661TMC3    H1 9787   0.789   2.998  12.171  0.9868  0.7561  0.8113
  661TMC3    H2 9788   0.751   3.121  11.766  0.0534  1.0548  0.4410
  661TMC3    C7 9789   0.617   3.020  11.980  0.4119 -1.2260 -0.2393
  661TMC3    C8 9790   1.014   3.165  11.736 -0.7726 -0.1670 -0.1623
  661TMC3    O1 9791   0.579   2.961  12.081  0.7933  0.5091 -0.5563
  661TMC3    O2 9792   1.127   3.207  11.740  0.3328  0.1192  0.2221
  662MPD2     C 9793   1.561   3.360  16.912 -0.3571  0.1037 -0.1977
  662MPD2    C1 9794   1.556   3.397  17.047  0.5270 -0.5357  0.6930
  662MPD2    C2 9795   1.500   3.518  17.073  0.9645  0.0754 -0.4998
  662MPD2    C3 9796   1.448   3.598  16.979 -0.3199  0.0605 -0.4402
  662MPD2    C4 9797   1.448   3.554  16.850 -0.2075  0.0079 -0.3525
  662MPD2    C5 9798   1.514   3.441  16.810  0.6978 -0.1269 -0.4057
  662MPD2     H 9799   1.496   3.544  17.179  2.3530  2.2571 -0.9740
  662MPD2    H1 9800   1.387   3.599  16.773 -2.0694  1.6060  2.0494
  662MPD2    H2 9801   1.609   3.268  16.881 -0.0478  0.9659 -2.2876
  662MPD2    H3 9802   1.525   3.414  16.706  2.0938 -1.6884  0.1544
  662MPD2     N 9803   1.372   3.712  17.014  0.0820  0.0601  0.0409
  662MPD2    H5 9804   1.295   3.732  16.950 -0.2655 -1.4820 -0.0377
  662MPD2    N1 9805   1.597   3.316  17.152 -0.5340 -0.2646 -0.2449
  662MPD2    H7 9806   1.593   3.353  17.247  0.7120  0.2857 -0.4026
  663TMC3    C1 9807   1.651   3.123  17.272 -0.8589  0.6722 -0.3909
  663TMC3    C2 9808   1.684   3.201  17.380 -0.3114 -0.0794  0.4185
  663TMC3    C3 9809   1.671   3.164  17.514  0.8731  0.0789 -0.7413
  663TMC3    C4 9810   1.578   3.012  17.290  0.1746  0.2259 -0.2159
  663TMC3    C5 9811   1.560   2.973  17.417 -0.5117 -1.0188 -0.4168
  663TMC3    C6 9812   1.605   3.043  17.529 -0.1925  0.6953  0.0774
  663TMC3     C 9813   1.635   3.183  17.142 -0.4684 -0.0472  0.5492
  663TMC3     O 9814   1.604   3.114  17.049  0.1796 -0.3224  0.9595
  663TMC3     H 9815   1.748   3.284  17.353  0.0880 -1.0038 -1.4900
  663TMC3    H1 9816   1.554   2.946  17.207 -1.3645 -0.7107  0.9764
  663TMC3    H2 9817   1.557   3.025  17.625 -0.2649 -0.5298 -0.1992
  663TMC3    C7 9818   1.492   2.842  17.436 -0.3577  0.2543  0.5786
  663TMC3    C8 9819   1.613   3.277  17.581  0.0672 -0.4508 -0.3058
  663TMC3    O1 9820   1.415   2.802  17.349 -0.2406  0.3181  0.0952
  663TMC3    O2 9821   1.623   3.382  17.517 -0.3141 -0.5177  0.1655
  664MPD2     C 9822   4.641   1.262  17.358 -0.2969  0.3505  0.2089
  664MPD2    C1 9823   4.603   1.393  17.353  0.3359 -0.0421  0.1123
  664MPD2    C2 9824   4.620   1.468  17.468 -0.3359 -0.0752  0.6381
  664MPD2    C3 9825   4.683   1.421  17.583 -0.1286  0.2732 -0.3376
  664MPD2    C4 9826   4.714   1.285  17.590 -0.1870  0.0929  1.0099
  664MPD2    C5 9827   4.702   1.211  17.472 -0.1286 -0.0883  0.4754
  664MPD2     H 9828   4.593   1.573  17.465 -2.3999 -0.6154  0.3215
  664MPD2    H1 9829   0.053   1.247  17.671  0.2087 -1.4842 -0.0319
  664MPD2    H2 9830   4.609   1.192  17.282 -1.0867  0.1265  0.7518
  664MPD2    H3 9831   0.013   1.108  17.480 -0.9658 -0.4371 -0.7135
  664MPD2     N 9832   4.714   1.517  17.675 -0.0529  0.1763  0.1655
  664MPD2    H5 9833   4.684   1.611  17.651 -2.3434 -0.6424 -0.1981
  664MPD2    N1 9834   4.546   1.458  17.244 -0.3637 -0.2412 -0.3288
  664MPD2    H7 9835   4.512   1.552  17.263  1.4566  0.2437  0.5140
  665TMC3    C1 9836   0.099   1.613   0.178 -0.1055 -0.6324 -0.3894
  665TMC3    C2 9837   0.182   1.594   0.286 -0.2923 -0.9514 -0.2325
  665TMC3    C3 9838   0.195   1.694   0.383  0.1276 -0.4003 -0.2586
  665TMC3    C4 9839   0.031   1.731   0.167 -0.5792 -0.2949  0.5913
  665TMC3    C5 9840   0.032   1.820   0.263  0.2884  0.6219 -0.1965
  665TMC3    C6 9841   0.120   1.808   0.369 -0.3256 -0.4982  0.8719
  665TMC3     C 9842   0.067   1.493   0.106  0.0223 -0.6137  0.1605
  665TMC3     O 9843   0.094   1.386   0.160  0.7592  0.1149 -0.4014
  665TMC3     H 9844   0.237   1.501   0.293  0.2312 -0.4514  2.4818
  665TMC3    H1 9845   4.700   1.748   0.073  0.9965 -2.2579 -0.6439
  665TMC3    H2 9846   0.140   1.889   0.438  2.5300 -0.5991  0.1761
  665TMC3    C7 9847   4.638   1.908   0.269  0.4418 -0.0265 -0.2625
  665TMC3    C8 9848   0.235   1.660   0.519 -0.7389  0.3154 -0.1168
  665TMC3    O1 9849   4.575   1.926   0.168  0.5175  0.3045  0.0576
  665TMC3    O2 9850   0.185   1.735   0.600  0.0126 -0.1658  0.4834
  666TMC3    C1 9851   4.115   1.000   9.872 -0.3635  0.1774 -0.5871
  666TMC3    C2 9852   4.195   1.022   9.985  0.1587 -0.5430 -0.0188
  666TMC3    C3 9853   4.135   1.051  10.103 -0.0411  0.5369  0.2887
  666TMC3    C4 9854   3.981   1.025   9.884 -0.7329 -0.0345  0.2082
  666TMC3    C5 9855   3.921   1.066   9.997 -0.8631 -0.2377 -0.1412
  666TMC3    C6 9856   4.003   1.078  10.108 -0.4052 -0.2107  0.4908
  666TMC3     C 9857   4.177   0.962   9.748 -0.1140  0.3403 -0.6366
  666TMC3     O 9858   4.291   0.920   9.742  0.6337  0.1355 -0.5361
  666TMC3     H 9859   4.298   0.989   9.987  0.6040  0.9025  0.8440
  666TMC3    H1 9860   3.918   0.997   9.801  0.2191 -4.0031  0.8480
  666TMC3    H2 9861   3.970   1.117  10.204 -0.3543  0.9951  0.0237
  666TMC3    C7 9862   3.790   1.124   9.990  0.6619  0.1670 -0.4779
  666TMC3    C8 9863   4.212   1.049  10.228  0.4110  0.1636  0.0052
  666TMC3    O1 9864   3.734   1.122  10.101 -0.0855  0.5441 -0.5632
  666TMC3    O2 9865   4.153   1.002  10.325  0.4126  0.2938  0.6232
  667MPD2     C 9866   1.070   1.892  14.772  0.2490  0.4426  0.0719
  667MPD2    C1 9867   0.961   1.972  14.794 -0.3481 -0.3497  0.1259
  667MPD2    C2 9868   0.837   1.923  14.762 -0.0520  0.4735 -0.4692
  667MPD2    C3 9869   0.826   1.799  14.696 -0.0431  0.1267  0.0459
  667MPD2    C4 9870   0.934   1.715  14.680 -0.4275  0.5274 -0.4203
  667MPD2    C5 9871   1.057   1.764  14.720 -0.2434  0.0134  0.4745
  667MPD2     H 9872   0.751   1.988  14.780 -0.4507 -0.4638  1.0070
  667MPD2    H1 9873   0.929   1.619  14.630  0.8460  1.0599 -1.5423
  667MPD2    H2 9874   1.168   1.935  14.789  0.8495 -1.5915  1.7569
  667MPD2    H3 9875   1.144   1.702  14.701 -0.4514  0.4565 -1.9696
  667MPD2     N 9876   0.698   1.751  14.656  0.9376 -0.0636  0.0370
  667MPD2    H5 9877   0.691   1.654  14.628 -1.4504 -0.0517  0.5488
  667MPD2    N1 9878   0.982   2.100  14.848 -0.2241  0.3244 -0.6392
  667MPD2    H7 9879   1.073   2.145  14.850 -0.1291 -0.0476  3.7207
  668TMC3    C1 9880   0.943   2.287  14.960  0.6077 -0.2294 -0.3769
  668TMC3    C2 9881   0.983   2.377  14.863 -0.5441 -0.5165 -0.5220
  668TMC3    C3 9882   1.016   2.501  14.906 -0.1017 -0.4201  0.7939
  668TMC3    C4 9883   0.913   2.327  15.089 -0.0746 -0.0201 -0.2032
  668TMC3    C5 9884   0.966   2.449  15.127  0.1839 -0.4687 -0.3669
  668TMC3    C6 9885   1.007   2.542  15.038  0.6884  0.5774 -0.2518
  668TMC3     C 9886   0.881   2.172  14.915  0.3011 -0.4541  0.5118
  668TMC3     O 9887   0.774   2.138  14.956  0.0852  0.5551 -0.5068
  668TMC3     H 9888   0.987   2.347  14.759 -0.7054 -1.3647 -0.2816
  668TMC3    H1 9889   0.865   2.265  15.165 -1.5709 -0.8681 -1.8263
  668TMC3    H2 9890   1.031   2.644  15.067 -0.4312  0.1186  2.2735
  668TMC3    C7 9891   0.952   2.496  15.262 -0.3956 -0.4282  0.7030
  668TMC3    C8 9892   1.026   2.600  14.800 -0.4616  0.6156 -0.0095
  668TMC3    O1 9893   0.946   2.619  15.270  0.1178 -0.3055  0.6153
  668TMC3    O2 9894   1.020   2.716  14.846 -0.2084 -0.0623 -0.6388
  669TMC3    C1 9895   3.534   1.665  14.648 -0.2692 -0.5657 -1.0853
  669TMC3    C2 9896   3.406   1.696  14.610  0.1445 -0.0268  0.4032
  669TMC3    C3 9897   3.391   1.820  14.561 -0.0362 -0.1651 -0.9169
  669TMC3    C4 9898   3.641   1.753  14.639 -0.0673 -0.5364  0.2574
  669TMC3    C5 9899   3.612   1.879  14.606 -0.2829 -0.6865 -0.3284
  669TMC3    C6 9900   3.490   1.916  14.556  0.1480 -0.5451 -0.1859
  669TMC3     C 9901   3.556   1.547  14.728  0.5518 -0.2733  0.3309
  669TMC3     O 9902   3.459   1.471  14.733 -0.3639 -0.5024  0.5096
  669TMC3     H 9903   3.330   1.622  14.633 -0.0228 -0.3958 -1.3018
  669TMC3    H1 9904   3.742   1.714  14.643  1.4634  3.1474 -2.5028
  669TMC3    H2 9905   3.458   2.019  14.547 -0.2148 -0.8215 -2.0397
  669TMC3    C7 9906   3.722   1.970  14.568  0.2252 -0.3409  0.5681
  669TMC3    C8 9907   3.266   1.838  14.489  0.1633  0.3774  0.2946
  669TMC3    O1 9908   3.695   2.060  14.490 -0.0167 -0.4036 -0.1417
  669TMC3    O2 9909   3.174   1.766  14.518  0.1226  0.4289 -0.5366
  670MPD2     C 9910   1.616   4.521  12.921  0.0304 -0.3492 -0.0846
  670MPD2    C1 9911   1.732   4.460  12.959  0.0476 -0.0185 -0.2863
  670MPD2    C2 9912   1.743   4.424  13.097 -0.2307 -0.0233 -0.0821
  670MPD2    C3 9913   1.630   4.439  13.181 -0.3650  0.5413  0.4491
  670MPD2    C4 9914   1.513   4.493  13.134 -0.1112  0.1651  0.6338
  670MPD2    C5 9915   1.509   4.543  13.011  0.0390  0.2265  0.1780
  670MPD2     H 9916   1.836   4.386  13.138  0.4853  1.4227 -0.3473
  670MPD2    H1 9917   1.428   4.495  13.201  0.9176 -0.1172  1.9371
  670MPD2    H2 9918   1.602   4.575  12.828 -2.2073 -0.9165 -0.0851
  670MPD2    H3 9919   1.423   4.595  12.970 -1.4320 -0.3866  2.4793
  670MPD2     N 9920   1.648   4.377  13.309 -0.5523 -0.1425  0.3174
  670MPD2    H5 9921   1.741   4.343  13.330  1.2897  2.8631 -2.8526
  670MPD2    N1 9922   1.843   4.437  12.868  0.0736 -0.0796 -0.1737
  670MPD2    H7 9923   1.924   4.388  12.907 -0.2401 -3.3585 -3.6300
  671TMC3    C1 9924   1.592   4.287  13.520  0.2040  0.2378 -1.1133
  671TMC3    C2 9925   1.716   4.324  13.572  0.2465 -0.6851 -0.3440
  671TMC3    C3 9926   1.750   4.238  13.674 -0.3940 -0.2055  0.2039
  671TMC3    C4 9927   1.508   4.200  13.578  0.3618  0.3227 -0.0065
  671TMC3    C5 9928   1.547   4.122  13.680 -0.1293  0.3315 -0.5328
  671TMC3    C6 9929   1.673   4.138  13.730  0.5221  0.1258 -0.6794
  671TMC3     C 9930   1.548   4.357  13.401 -0.0808 -0.3544 -0.1721
  671TMC3     O 9931   1.423   4.367  13.382 -0.3078 -0.4531  0.4987
  671TMC3     H 9932   1.781   4.392  13.520 -0.5708  1.0707  0.9188
  671TMC3    H1 9933   1.408   4.190  13.537  0.8350  0.5149 -1.2056
  671TMC3    H2 9934   1.710   4.071  13.806 -0.2599 -0.3857 -0.7472
  671TMC3    C7 9935   1.492   3.985  13.687 -0.0906 -0.3116  0.2009
  671TMC3    C8 9936   1.872   4.178  13.632  0.1389  0.2676 -0.7922
  671TMC3    O1 9937   1.436   3.939  13.592 -0.5341  0.4661  0.1525
  671TMC3    O2 9938   1.854   4.057  13.619  0.3069  0.7146 -0.5394
  672MPD2     C 9939   1.745   4.179   1.520  0.3599  0.6111 -0.0058
  672MPD2    C1 9940   1.698   4.217   1.399 -0.5268  0.4298  0.1695
  672MPD2    C2 9941   1.749   4.335   1.347 -0.2154 -0.3590  0.3648
  672MPD2    C3 9942   1.862   4.403   1.402 -0.0994  0.4039 -0.1974
  672MPD2    C4 9943   1.905   4.358   1.524 -0.0214 -0.2250 -0.2599
  672MPD2    C5 9944   1.850   4.245   1.578 -0.3631  0.0420  0.1212
  672MPD2     H 9945   1.710   4.368   1.252 -0.7678 -1.0587  0.3463
  672MPD2    H1 9946   1.978   4.413   1.582  0.4188  1.5093 -2.4384
  672MPD2    H2 9947   1.713   4.084   1.560  0.7019  1.3150  1.9551
  672MPD2    H3 9948   1.892   4.212   1.672 -0.4200  1.0769  0.5125
  672MPD2     N 9949   1.939   4.492   1.329 -0.3389 -0.0961 -0.5417
  672MPD2    H5 9950   2.028   4.505   1.376  0.1677 -0.9571 -1.2583
  672MPD2    N1 9951   1.601   4.151   1.327  0.1223  0.0865  0.5362
  672MPD2    H7 9952   1.554   4.204   1.254  2.9865 -0.4648 -1.7152
  673TMC3    C1 9953   1.458   3.990   1.240  1.0134 -0.3765 -0.5911
  673TMC3    C2 9954   1.464   3.865   1.191 -1.1890  0.7372  0.5704
  673TMC3    C3 9955   1.447   3.844   1.061 -0.5790  0.3909 -0.0340
  673TMC3    C4 9956   1.421   4.097   1.155  0.5184 -0.5377 -0.1495
  673TMC3    C5 9957   1.391   4.066   1.022  1.3989 -0.5892 -0.1115
  673TMC3    C6 9958   1.416   3.944   0.969 -0.3336 -0.1092  0.2476
  673TMC3     C 9959   1.551   4.021   1.347  0.0476  0.2923  0.1160
  673TMC3     O 9960   1.596   3.935   1.419 -0.2477 -0.2728 -0.3400
  673TMC3     H 9961   1.505   3.787   1.255  0.4284  1.3018  0.2281
  673TMC3    H1 9962   1.395   4.195   1.191  0.6053 -0.8963  0.8786
  673TMC3    H2 9963   1.404   3.916   0.865  1.7391 -1.2079  0.3083
  673TMC3    C7 9964   1.388   4.178   0.940 -0.2885 -0.6317 -0.1246
  673TMC3    C8 9965   1.530   3.736   1.012 -0.3144 -0.6494  0.2445
  673TMC3    O1 9966   1.340   4.279   0.983 -0.1588 -0.7670 -0.0935
  673TMC3    O2 9967   1.489   3.673   0.916 -0.2468 -0.5209 -0.1029
  674MPD2     C 9968   1.199   0.029   0.297 -0.1446 -0.0491  0.5583
  674MPD2    C1 9969   1.072   0.010   0.344  0.1278  0.0986  0.6683
  674MPD2    C2 9970   0.962   0.013   0.260  0.2475  0.1779  0.3329
  674MPD2    C3 9971   0.979   0.036   0.124 -0.3472  0.3535  0.3274
  674MPD2    C4 9972   1.111   0.049   0.078  0.4906 -0.0553  0.4018
  674MPD2    C5 9973   1.221   0.049   0.163 -0.2458 -0.3590  0.3786
  674MPD2     H 9974   0.859   0.004   0.295  0.5272 -3.2941  0.1691
  674MPD2    H1 9975   1.126   0.087  17.663  0.7837 -1.5632 -0.1277
  674MPD2    H2 9976   1.287   0.016   0.359 -0.8644 -2.9213  0.9999
  674MPD2    H3 9977   1.321   0.082   0.135  0.4701 -2.7749  0.0657
  674MPD2     N 9978   0.876   0.043   0.026 -0.0925 -0.4707  0.3482
  674MPD2    H5 9979   0.891   0.090  17.622  0.8236  0.2172  0.8704
  674MPD2    N1 9980   1.056   4.697   0.482  0.1299  0.4118  0.3767
  674MPD2    H7 9981   1.142   4.694   0.537  0.8702 -1.2654 -0.8575
  675TMC3    C1 9982   0.973   4.574   0.660 -0.1900 -0.5374  0.0010
  675TMC3    C2 9983   1.048   4.464   0.635  0.0136 -0.7093  0.0114
  675TMC3    C3 9984   1.032   4.354   0.711 -0.4228 -0.4930 -0.2588
  675TMC3    C4 9985   0.865   4.566   0.747  0.1914 -0.2013 -0.3854
  675TMC3    C5 9986   0.857   4.456   0.828 -1.2108 -0.3179 -0.7464
  675TMC3    C6 9987   0.936   4.347   0.811 -0.4429  0.3446  0.7548
  675TMC3     C 9988   0.941   4.656   0.548  0.3354  0.1196 -0.3622
  675TMC3     O 9989   0.825   4.644   0.511 -0.3929  0.0428  0.9059
  675TMC3     H 9990   1.129   4.471   0.564 -0.4100  1.6699 -0.2533
  675TMC3    H1 9991   0.801   4.649   0.774  0.3776 -0.8228  1.9234
  675TMC3    H2 9992   0.930   4.263   0.880 -0.7337 -0.5013 -0.3085
  675TMC3    C7 9993   0.752   4.459   0.927 -0.0309  0.4103  0.2292
  675TMC3    C8 9994   1.111   4.242   0.658  0.0184 -0.7841 -0.2321
  675TMC3    O1 9995   0.651   4.521   0.898  0.2520  0.4907  0.2270
  675TMC3    O2 9996   1.177   4.262   0.559  0.1266 -0.0672  0.2161
  676MPD2     C 9997   4.042   2.454  11.023  0.4803  0.5837  0.2605
  676MPD2    C1 9998   3.990   2.380  11.130 -0.1128  0.3263 -0.0124
  676MPD2    C2 9999   4.026   2.248  11.144 -0.4214 -0.1601 -0.5636
  676MPD2    C310000   4.121   2.188  11.050  0.4871 -0.3872 -0.1738
  676MPD2    C410001   4.174   2.269  10.948 -0.0576  0.7375  0.6786
  676MPD2    C510002   4.128   2.394  10.941 -0.4522 -0.2738  0.1621
  676MPD2     H10003   3.970   2.191  11.218 -0.9913 -0.0056 -0.8745
  676MPD2    H110004   4.231   2.236  10.862 -1.8716  0.1232 -0.2906
  676MPD2    H210005   4.008   2.555  11.004  0.0251 -0.2627 -3.5593
  676MPD2    H310006   4.161   2.443  10.850 -1.1859  0.6605  0.4055
  676MPD2     N10007   4.157   2.052  11.057 -0.4077  0.3444  0.8388
  676MPD2    H510008   4.245   2.028  11.014 -0.8365 -2.3308  1.5069
  676MPD2    N110009   3.885   2.425  11.207  0.3223  0.0949 -0.2380
  676MPD2    H710010   3.839   2.354  11.263  0.5293  0.8304  0.8605
  677TMC3    C110011   3.770   2.585  11.346  0.3005 -0.0205  0.5100
  677TMC3    C210012   3.655   2.508  11.365 -0.6436  0.1301 -0.3181
  677TMC3    C310013   3.562   2.564  11.451 -0.0519 -0.2151  0.2323
  677TMC3    C410014   3.783   2.712  11.398  0.1581  0.2632  0.1109
  677TMC3    C510015   3.681   2.766  11.477 -0.4487 -0.3273 -0.0888
  677TMC3    C610016   3.579   2.684  11.505 -0.2121  0.5467 -0.0319
  677TMC3     C10017   3.860   2.558  11.234 -0.0739  0.2141  0.4992
  677TMC3     O10018   3.919   2.655  11.194 -0.3510  0.4006 -0.4209
  677TMC3     H10019   3.649   2.409  11.322 -3.3180 -0.2133  0.8329
  677TMC3    H110020   3.874   2.770  11.392 -0.7586  1.4496 -2.2739
  677TMC3    H210021   3.502   2.725  11.570  0.0296  0.6305  0.2039
  677TMC3    C710022   3.729   2.840  11.592  0.0024  0.0506  0.3113
  677TMC3    C810023   3.428   2.502  11.456 -0.4184 -0.3617 -0.5325
  677TMC3    O110024   3.674   2.815  11.698  0.6444  0.0257  0.1938
  677TMC3    O210025   3.390   2.482  11.342  0.0797 -0.0573 -0.0797
  678MPD2     C10026   0.797   2.412   1.562  0.4375  0.4340  0.1547
  678MPD2    C110027   0.854   2.390   1.440 -0.1328 -0.2644 -0.2129
  678MPD2    C210028   0.761   2.380   1.328  0.1907  1.2056  0.5372
  678MPD2    C310029   0.625   2.375   1.351  0.3486 -0.3775 -0.5923
  678MPD2    C410030   0.580   2.403   1.474  0.0645 -0.1900  0.5538
  678MPD2    C510031   0.665   2.424   1.576  0.6163 -0.1244  0.1630
  678MPD2     H10032   0.792   2.369   1.225 -0.6823  1.5928  0.2400
  678MPD2    H110033   0.475   2.403   1.502 -0.1079  0.3930 -0.0773
  678MPD2    H210034   0.859   2.432   1.649  1.1230 -1.5428  0.1223
  678MPD2    H310035   0.626   2.451   1.674  0.0518 -1.6736  0.3664
  678MPD2     N10036   0.540   2.342   1.246  0.1468 -0.7699 -0.7014
  678MPD2    H510037   0.587   2.311   1.161  2.3517 -1.1918  0.6531
  678MPD2    N110038   0.997   2.367   1.426  0.1331  0.3674  0.1286
  678MPD2    H710039   1.034   2.364   1.331  2.7119  0.3538  1.1233
  679TMC3    C110040   1.430   2.237   1.446  0.0790  0.1273 -0.3424
  679TMC3    C210041   1.317   2.266   1.519  0.5976 -0.3167  0.0038
  679TMC3    C310042   1.228   2.363   1.478 -0.2563 -0.0418  1.2812
  679TMC3    C410043   1.453   2.295   1.319  0.2565  0.5649 -0.5335
  679TMC3    C510044   1.364   2.397   1.287 -0.1846 -0.1122 -0.0476
  679TMC3    C610045   1.255   2.437   1.368 -0.3983 -0.4459  0.1745
  679TMC3     C10046   1.484   2.105   1.453 -0.0752  0.2384 -0.2485
  679TMC3     O10047   1.527   2.062   1.346  1.0401  0.0078  0.0233
  679TMC3     H10048   1.300   2.200   1.604  1.7299  0.7486  1.0672
  679TMC3    H110049   1.530   2.262   1.250  1.5444  0.2998  1.0169
  679TMC3    H210050   1.196   2.524   1.346  0.0017 -0.1917  0.1072
  679TMC3    C710051   1.415   2.506   1.199 -0.7765 -0.4097  0.4796
  679TMC3    C810052   1.093   2.356   1.526  0.4685  0.9423 -0.3811
  679TMC3    O110053   1.373   2.618   1.212  0.3625 -0.0789  0.3948
  679TMC3    O210054   1.080   2.319   1.642  0.7212 -0.3600 -0.4947
  680MPD2     C10055   0.966   1.202  13.575  0.3270 -0.4507  0.4925
  680MPD2    C110056   1.067   1.139  13.648  0.3253  0.0756  0.0737
  680MPD2    C210057   1.152   1.213  13.724  0.3465 -0.4816 -0.1511
  680MPD2    C310058   1.126   1.350  13.739 -0.0392  0.3007 -0.4302
  680MPD2    C410059   1.035   1.417  13.665 -0.7568  0.1243 -0.0231
  680MPD2    C510060   0.958   1.342  13.582  0.3993 -1.1860  0.2833
  680MPD2     H10061   1.232   1.155  13.769  0.6511 -1.1118 -1.4969
  680MPD2    H110062   1.034   1.525  13.654 -0.0793  0.0615 -0.6985
  680MPD2    H210063   0.903   1.156  13.500  1.1242 -0.5226 -0.1287
  680MPD2    H310064   0.888   1.384  13.510  2.4539  1.0822 -0.3811
  680MPD2     N10065   1.218   1.441  13.813  0.2632  0.7820 -0.2552
  680MPD2    H510066   1.198   1.540  13.803 -0.3612  0.3745 -2.9061
  680MPD2    N110067   1.087   0.997  13.637 -0.0695  0.1866 -0.1187
  680MPD2    H710068   1.167   0.954  13.682 -0.8234  0.3414  1.3687
  681TMC3    C110069   1.028   0.775  13.596  0.0771 -0.2618 -0.7568
  681TMC3    C210070   0.932   0.696  13.656  0.2198  0.2986 -0.1974
  681TMC3    C310071   0.977   0.592  13.726 -0.6060  0.0078  0.5314
  681TMC3    C410072   1.157   0.739  13.587 -0.7214 -0.1430  0.4976
  681TMC3    C510073   1.197   0.615  13.637  0.0708  0.3665  0.6681
  681TMC3    C610074   1.106   0.548  13.713  0.7422 -0.1274  0.2362
  681TMC3     C10075   0.992   0.914  13.568  0.0499  0.3776 -0.4100
  681TMC3     O10076   0.882   0.939  13.518  0.0907 -0.1776  0.3592
  681TMC3     H10077   0.835   0.742  13.673  0.6914 -0.1418  3.7137
  681TMC3    H110078   1.234   0.801  13.543  1.2389 -1.4944  1.9819
  681TMC3    H210079   1.150   0.467  13.769  1.7791 -0.5036 -1.1231
  681TMC3    C710080   1.297   0.528  13.577 -0.0343  0.5680  0.2793
  681TMC3    C810081   0.946   0.620  13.870  0.6157 -0.0378  0.6451
  681TMC3    O110082   1.296   0.408  13.588 -0.1559  0.0502  0.5149
  681TMC3    O210083   0.834   0.664  13.890 -0.2435 -0.3951  0.9140
  682MPD2     C10084   3.165   2.034  10.446  0.1811 -0.0684  0.6546
  682MPD2    C110085   3.080   1.936  10.489 -0.5437  1.2223  0.3646
  682MPD2    C210086   3.000   1.962  10.598  0.1856 -0.8431 -0.0176
  682MPD2    C310087   2.999   2.085  10.657  0.3096  0.5759  0.1584
  682MPD2    C410088   3.085   2.181  10.605 -0.3072 -0.0144 -0.0733
  682MPD2    C510089   3.177   2.151  10.507 -0.0428  0.7113 -0.0931
  682MPD2     H10090   2.946   1.882  10.648 -2.9976  1.2546 -0.0781
  682MPD2    H110091   3.102   2.273  10.661  1.3596 -0.5385  0.3024
  682MPD2    H210092   3.236   2.015  10.367  0.3028 -2.1122  1.2475
  682MPD2    H310093   3.250   2.226  10.479  0.0751  1.4678  2.2433
  682MPD2     N10094   2.917   2.121  10.768 -0.2755  0.3976 -0.2726
  682MPD2    H510095   2.937   2.207  10.819 -2.5461  1.2141 -0.7544
  682MPD2    N110096   3.086   1.807  10.438  0.5945 -0.6426  0.1038
  682MPD2    H710097   3.051   1.728  10.490  0.3948  0.2202  1.2686
  683TMC3    C110098   2.798   2.157  11.155 -0.2297 -0.0264  0.0116
  683TMC3    C210099   2.723   2.053  11.203  0.8120 -0.2786  0.2245
  683TMC3    C310100   2.651   1.984  11.110  0.0659 -0.4774  0.4243
  683TMC3    C410101   2.821   2.170  11.021 -0.6992 -0.6370 -0.0727
  683TMC3    C510102   2.751   2.091  10.932  0.9723  0.1734 -0.1277
  683TMC3    C610103   2.662   1.999  10.982  0.4039 -0.3554  0.6363
  683TMC3     C10104   2.853   2.263  11.247 -0.3352  0.4036 -0.3170
  683TMC3     O10105   2.926   2.349  11.204  0.4275 -0.0724 -0.0908
  683TMC3     H10106   2.708   2.034  11.309 -2.6134 -0.8140 -0.3483
  683TMC3    H110107   2.876   2.257  10.988  0.4959 -2.6898 -3.4742
  683TMC3    H210108   2.612   1.930  10.915 -1.9456  3.2984 -1.4135
  683TMC3    C710109   2.815   2.045  10.812 -0.0123 -0.4366 -0.3776
  683TMC3    C810110   2.609   1.851  11.152 -0.4512  0.1400 -0.4493
  683TMC3    O110111   2.763   1.952  10.750 -0.0807 -0.4440  0.4249
  683TMC3    O210112   2.496   1.816  11.123 -0.3798 -0.0920 -0.6505
  684MPD2     C10113   1.333   1.723  16.159 -0.4544  0.0076 -0.0275
  684MPD2    C110114   1.421   1.736  16.055  0.4372 -0.2239 -0.0159
  684MPD2    C210115   1.457   1.863  16.014 -0.0231 -0.8753 -0.2211
  684MPD2    C310116   1.412   1.978  16.079 -0.1986 -0.4581 -0.3367
  684MPD2    C410117   1.330   1.961  16.192 -0.6944 -0.2345  0.7074
  684MPD2    C510118   1.287   1.832  16.223 -0.6411 -0.5050  0.2813
  684MPD2     H10119   1.521   1.869  15.927  0.6570  0.9153  0.4066
  684MPD2    H110120   1.291   2.047  16.246  0.4963 -0.2085  1.5453
  684MPD2    H210121   1.286   1.629  16.186  0.5401 -0.7851 -1.0556
  684MPD2    H310122   1.219   1.824  16.307  1.2394  0.6113  1.9028
  684MPD2     N10123   1.444   2.113  16.044  0.3101 -0.4012 -0.2902
  684MPD2    H510124   1.420   2.181  16.116  0.9263  0.8901 -1.3061
  684MPD2    N110125   1.453   1.623  15.979 -0.2899 -0.3105 -0.1859
  684MPD2    H710126   1.496   1.649  15.891 -0.2521  0.0746 -0.0514
  685TMC3    C110127   1.467   1.407  15.897 -0.4113  0.5383  0.3768
  685TMC3    C210128   1.413   1.437  15.775  0.2789  0.6899  0.4068
  685TMC3    C310129   1.434   1.350  15.669  1.0009 -0.4895 -0.8771
  685TMC3    C410130   1.530   1.293  15.933  0.1814  0.4234 -0.0563
  685TMC3    C510131   1.550   1.216  15.821  0.2590  0.1996 -0.1919
  685TMC3    C610132   1.508   1.238  15.697  0.0697 -0.5521  0.0521
  685TMC3     C10133   1.431   1.492  16.010  0.5139  0.7968 -0.6085
  685TMC3     O10134   1.406   1.439  16.113 -0.5597  0.5465  0.4245
  685TMC3     H10135   1.348   1.525  15.774  1.0409  1.2148 -1.6519
  685TMC3    H110136   1.534   1.266  16.038 -0.8380 -0.0751 -0.1481
  685TMC3    H210137   1.538   1.171  15.617  1.8726 -0.3230  0.5209
  685TMC3    C710138   1.671   1.139  15.824  0.2326  0.1208  0.2324
  685TMC3    C810139   1.336   1.350  15.564 -0.9290  0.2153 -0.1856
  685TMC3    O110140   1.732   1.116  15.721 -0.0259  0.3922 -0.9314
  685TMC3    O210141   1.319   1.234  15.528 -0.0884  0.7226 -0.5425
  686MPD2     C10142   2.928   1.535  15.123  0.8601 -0.3167 -0.4443
  686MPD2    C110143   2.863   1.478  15.232 -0.4635 -0.3756  0.7715
  686MPD2    C210144   2.803   1.350  15.217 -0.1030 -0.3904 -0.7730
  686MPD2    C310145   2.811   1.285  15.095 -0.0468  0.1718 -0.0695
  686MPD2    C410146   2.879   1.342  14.987  0.3288 -0.6156 -0.0029
  686MPD2    C510147   2.937   1.461  15.008 -0.5501  0.6089  0.4257
  686MPD2     H10148   2.750   1.300  15.297  0.0823 -2.4424 -1.9323
  686MPD2    H110149   2.897   1.285  14.897 -0.1702  1.6559 -1.5338
  686MPD2    H210150   2.972   1.633  15.136 -1.6639  0.4388  2.4011
  686MPD2    H310151   2.989   1.511  14.928 -2.5360  2.0690  0.0515
  686MPD2     N10152   2.750   1.160  15.066 -0.2366 -0.1044  0.1317
  686MPD2    H510153   2.752   1.137  14.967 -1.5609  3.0105 -0.6106
  686MPD2    N110154   2.858   1.557  15.351 -0.2276 -0.5468  0.0825
  686MPD2    H710155   2.896   1.650  15.339 -1.3728 -0.1746 -0.7477
  687TMC3    C110156   2.734   1.050  15.281  0.5106  0.0328  0.3934
  687TMC3    C210157   2.635   1.009  15.364  0.0268  0.1127 -0.5983
  687TMC3    C310158   2.658   0.988  15.492  0.1653 -0.5539  0.8738
  687TMC3    C410159   2.861   1.081  15.330  0.1186 -0.4512  0.4483
  687TMC3    C510160   2.879   1.073  15.470  0.0202 -0.7485 -1.0288
  687TMC3    C610161   2.778   1.021  15.547 -0.3256  0.0098  0.3227
  687TMC3     C10162   2.697   1.059  15.144 -1.2639  1.0106  0.0091
  687TMC3     O10163   2.619   0.974  15.106 -0.2525 -0.6289  0.0579
  687TMC3     H10164   2.532   0.996  15.333  0.2705 -1.2240 -0.8537
  687TMC3    H110165   2.942   1.096  15.259  1.5255  0.0026  2.1526
  687TMC3    H210166   2.786   1.032  15.655  2.0236  0.3682  0.1120
  687TMC3    C710167   2.970   1.158  15.537 -0.4141  0.1072 -0.6941
  687TMC3    C810168   2.543   1.024  15.575  0.5686  0.1433  0.4856
  687TMC3    O110169   2.975   1.142  15.657  0.5854  0.4904  0.0281
  687TMC3    O210170   2.543   0.964  15.682  0.2201 -0.7724  0.1614
  688MPD2     C10171   2.564   0.466  17.401 -0.6225  0.0551 -0.3171
  688MPD2    C110172   2.508   0.362  17.337  0.0072 -0.4379 -0.1576
  688MPD2    C210173   2.582   0.268  17.271  0.0784  0.1667 -0.4343
  688MPD2    C310174   2.717   0.282  17.259  0.0644 -0.0106  0.7312
  688MPD2    C410175   2.774   0.385  17.332 -0.8632 -0.2309 -0.2053
  688MPD2    C510176   2.693   0.473  17.399  0.1582 -0.1698  0.5546
  688MPD2     H10177   2.530   0.195  17.209 -1.5163  0.2003  0.8668
  688MPD2    H110178   2.882   0.397  17.344 -0.8648 -0.7946  0.3391
  688MPD2    H210179   2.505   0.539  17.455  1.3091  2.1273 -1.0226
  688MPD2    H310180   2.735   0.551  17.462 -0.2529  0.0143  0.6024
  688MPD2     N10181   2.807   0.186  17.204 -0.4476 -0.1206 -0.0701
  688MPD2    H510182   2.907   0.198  17.206 -0.5556  0.6566  0.4210
  688MPD2    N110183   2.369   0.353  17.325 -0.0707  0.3202 -0.0331
  688MPD2    H710184   2.341   0.263  17.286  1.1318 -0.2604  0.4707
  689TMC3    C110185   2.146   0.427  17.312 -0.8246 -0.4361  0.3873
  689TMC3    C210186   2.068   0.538  17.290  0.0106  0.6333 -0.8832
  689TMC3    C310187   1.933   0.527  17.320 -0.1152  0.2067 -0.1392
  689TMC3    C410188   2.094   0.307  17.355  0.1381 -0.5444  0.7804
  689TMC3    C510189   1.961   0.305  17.388 -0.8137  0.2743 -0.4400
  689TMC3    C610190   1.873   0.406  17.358  0.2687 -0.8062 -0.4779
  689TMC3     C10191   2.283   0.457  17.355  1.1592  0.1547  0.0872
  689TMC3     O10192   2.292   0.570  17.399  0.4590  0.5837 -0.6417
  689TMC3     H10193   2.117   0.623  17.245  3.7426 -1.0742 -0.0094
  689TMC3    H110194   2.149   0.217  17.380  1.3779  0.5423  1.9390
  689TMC3    H210195   1.769   0.393  17.385  0.4218 -3.5079 -1.2410
  689TMC3    C710196   1.888   0.174  17.402 -0.5247  0.2982  0.1256
  689TMC3    C810197   1.891   0.628  17.415  0.2552  0.6252 -0.1710
  689TMC3    O110198   1.776   0.164  17.359  0.3509 -0.8877 -0.6370
  689TMC3    O210199   1.791   0.607  17.487  0.0351  0.3889 -0.7678
  690MPD2     C10200   4.244   2.697  14.862  0.4819  0.5126 -0.2108
  690MPD2    C110201   4.334   2.647  14.945 -0.1607  0.5001 -0.1846
  690MPD2    C210202   4.465   2.675  14.921 -0.0908  0.0528  1.0973
  690MPD2    C310203   4.513   2.753  14.815  0.7157 -0.0247  0.2497
  690MPD2    C410204   4.420   2.808  14.727  0.9735  0.6002 -0.0914
  690MPD2    C510205   4.288   2.780  14.755 -0.1651  0.1142 -0.1338
  690MPD2     H10206   4.539   2.635  14.990  0.1987  0.1414  0.8407
  690MPD2    H110207   4.447   2.864  14.638  0.4072  0.6659 -0.2176
  690MPD2    H210208   4.137   2.678  14.857  0.3058  0.7732  2.9194
  690MPD2    H310209   4.221   2.834  14.688  0.7559  1.6851  0.2114
  690MPD2     N10210   4.652   2.774  14.813  0.0022  0.0648  0.0393
  690MPD2    H510211   4.704   2.736  14.891  1.6602  0.3164 -0.9628
  690MPD2    N110212   4.288   2.578  15.059 -0.0969  0.1019  0.2312
  690MPD2    H710213   4.367   2.551  15.116 -0.9759 -1.5292  0.6680
  691TMC3    C110214   4.136   2.465  15.189 -0.0392  0.6123 -0.8973
  691TMC3    C210215   4.022   2.471  15.262 -0.7286  0.0009  0.1571
  691TMC3    C310216   4.005   2.360  15.348 -0.0965  0.6615  0.3897
  691TMC3    C410217   4.234   2.367  15.197  0.3435  0.0819 -0.1760
  691TMC3    C510218   4.219   2.268  15.287  0.1466  0.2611 -0.1268
  691TMC3    C610219   4.105   2.273  15.370 -0.5082  0.1634 -0.3546
  691TMC3     C10220   4.155   2.570  15.093 -0.3560  0.9415  0.6170
  691TMC3     O10221   4.061   2.649  15.077 -0.8627  0.0705  0.1938
  691TMC3     H10222   3.939   2.536  15.236 -0.0336  1.5934  1.9167
  691TMC3    H110223   4.310   2.357  15.121 -0.6074 -1.5700 -0.9188
  691TMC3    H210224   4.096   2.183  15.431 -0.8844  0.1557 -0.4177
  691TMC3    C710225   4.251   2.129  15.236  0.1913 -0.4859  0.3115
  691TMC3    C810226   3.889   2.285  15.322  0.4288 -0.1275  0.5496
  691TMC3    O110227   4.337   2.115  15.147  0.0951  0.3262 -0.0446
  691TMC3    O210228   3.896   2.163  15.323  0.4071 -0.3998  0.1745
  692TMC3    C110229   1.226   3.527  15.847 -0.9076  0.1404  0.6780
  692TMC3    C210230   1.341   3.546  15.913 -0.0343 -0.5572  0.9184
  692TMC3    C310231   1.434   3.450  15.909 -0.0288 -0.3062  0.5322
  692TMC3    C410232   1.208   3.416  15.766  0.2185 -0.3905  0.8298
  692TMC3    C510233   1.315   3.332  15.748 -0.6229  0.6328 -0.6855
  692TMC3    C610234   1.430   3.347  15.820  0.1995  0.4080 -0.0772
  692TMC3     C10235   1.107   3.601  15.884  0.2053 -0.0585  0.0087
  692TMC3     O10236   1.000   3.537  15.896  0.0205  0.0400  0.0800
  692TMC3     H10237   1.338   3.611  16.000  1.0594  1.3516 -0.4666
  692TMC3    H110238   1.115   3.398  15.714 -0.0280  0.2794  1.0395
  692TMC3    H210239   1.517   3.285  15.803  0.7211  0.6377  1.7246
  692TMC3    C710240   1.305   3.226  15.653  0.5722  0.9803 -0.4469
  692TMC3    C810241   1.571   3.492  15.939  0.2988  0.5669  0.1598
  692TMC3    O110242   1.245   3.241  15.544  0.0979 -0.2684  0.2588
  692TMC3    O210243   1.657   3.409  15.947 -0.1460  0.3267 -0.0946
  693MPD2     C10244   0.779   1.281  11.352 -0.4556 -0.0366  0.0261
  693MPD2    C110245   0.756   1.249  11.224  0.4165 -0.5399  0.0463
  693MPD2    C210246   0.862   1.190  11.153  0.2419 -0.8664  0.6963
  693MPD2    C310247   0.971   1.133  11.223 -0.0353 -0.3949 -0.3973
  693MPD2    C410248   0.982   1.171  11.350 -0.1129  0.1810 -0.1677
  693MPD2    C510249   0.896   1.257  11.414  0.1946 -0.0779  0.2929
  693MPD2     H10250   0.861   1.177  11.045 -1.9700 -2.1337  0.8785
  693MPD2    H110251   1.067   1.143  11.411  0.3522 -1.8954 -1.7498
  693MPD2    H210252   0.720   1.357  11.403 -0.0570 -0.9539  1.8671
  693MPD2    H310253   0.916   1.296  11.513 -1.9224  1.0809  0.2548
  693MPD2     N10254   1.074   1.050  11.167 -0.6521  0.3394  0.0036
  693MPD2    H510255   1.164   1.043  11.214 -1.8858 -0.2456  2.2941
  693MPD2    N110256   0.640   1.298  11.159 -0.0759 -0.1874 -0.0108
  693MPD2    H710257   0.568   1.330  11.222  0.5960 -0.3009  0.8077
  694TMC3    C110258   0.478   1.330  10.992  0.4600  0.2460 -0.2972
  694TMC3    C210259   0.414   1.248  10.901 -0.1055 -0.0545  0.3371
  694TMC3    C310260   0.278   1.251  10.898 -0.1076  0.2464  0.1698
  694TMC3    C410261   0.407   1.406  11.077  0.2499 -1.5829 -0.6690
  694TMC3    C510262   0.271   1.402  11.065  0.0168 -0.0719  0.1987
  694TMC3    C610263   0.203   1.332  10.972  0.5129  0.2065  0.4625
  694TMC3     C10264   0.615   1.290  11.026 -0.5711  0.2389  0.7374
  694TMC3     O10265   0.681   1.274  10.924 -0.3172 -0.0901  0.1234
  694TMC3     H10266   0.469   1.193  10.826  1.0485  1.4178  0.1087
  694TMC3    H110267   0.449   1.474  11.150 -0.9924 -0.3752 -1.0775
  694TMC3    H210268   0.097   1.318  10.990  0.2021  1.0597 -0.7591
  694TMC3    C710269   0.197   1.497  11.149 -0.2380 -0.5894 -0.4872
  694TMC3    C810270   0.212   1.160  10.810  0.0293  0.6670  0.4880
  694TMC3    O110271   0.102   1.551  11.096 -0.1227  0.0428 -0.4207
  694TMC3    O210272   0.093   1.144  10.823 -0.0414 -0.4701  0.2023
  695MPD2     C10273   1.966   3.217  13.266 -0.0682 -0.0103 -0.0829
  695MPD2    C110274   1.947   3.298  13.373 -0.8559 -0.9628  0.4611
  695MPD2    C210275   1.818   3.354  13.390 -0.1051 -0.1275 -0.1252
  695MPD2    C310276   1.715   3.324  13.310 -0.4779  0.1937 -0.0713
  695MPD2    C410277   1.737   3.230  13.210  0.5076  0.1700  0.3120
  695MPD2    C510278   1.866   3.176  13.191  0.1245 -0.1971 -0.3723
  695MPD2     H10279   1.807   3.421  13.475  2.1344 -0.0019  0.0675
  695MPD2    H110280   1.660   3.204  13.138 -0.1778  1.5541  0.5496
  695MPD2    H210281   2.060   3.173  13.235  0.3288  1.4915 -0.9778
  695MPD2    H310282   1.885   3.106  13.111 -2.0947 -1.0620 -0.1575
  695MPD2     N10283   1.587   3.377  13.331  0.2199 -0.1308  0.3046
  695MPD2    H510284   1.580   3.431  13.416  1.7538  0.8958 -0.2342
  695MPD2    N110285   2.053   3.351  13.450  0.0153  0.1830 -0.1766
  695MPD2    H710286   2.034   3.423  13.520  0.9060  0.3025 -0.0551
  696TMC3    C110287   1.353   3.426  13.315 -0.0149  0.3432  0.5267
  696TMC3    C210288   1.318   3.402  13.445  0.2744  0.2371 -0.5427
  696TMC3    C310289   1.208   3.462  13.500  0.0322 -0.3939  0.2877
  696TMC3    C410290   1.269   3.506  13.237  0.4643 -0.3249  0.0392
  696TMC3    C510291   1.158   3.563  13.292 -0.4438 -0.2783 -0.4340
  696TMC3    C610292   1.123   3.536  13.419 -0.6404 -0.4498  0.2398
  696TMC3     C10293   1.474   3.372  13.254  0.3749  0.3805  0.3886
  696TMC3     O10294   1.466   3.339  13.136  0.0112 -0.0290 -0.1273
  696TMC3     H10295   1.392   3.348  13.502  0.5759 -1.4860 -2.5623
  696TMC3    H110296   1.303   3.541  13.141 -1.5461  1.9179  0.1711
  696TMC3    H210297   1.023   3.554  13.454  0.2167  1.0035  1.9455
  696TMC3    C710298   1.130   3.695  13.249  0.2850  0.9648 -0.3672
  696TMC3    C810299   1.238   3.546  13.613 -0.2364  0.0651  0.6959
  696TMC3    O110300   1.173   3.719  13.136  0.0256 -0.2992 -0.1137
  696TMC3    O210301   1.179   3.655  13.607  0.1716 -0.4875  0.1284
  697MPD2     C10302   0.577   0.674  15.557 -0.9518  0.1109 -0.1990
  697MPD2    C110303   0.640   0.593  15.472  0.7955 -0.8939 -0.1580
  697MPD2    C210304   0.734   0.649  15.392 -0.0526 -0.6308  0.5247
  697MPD2    C310305   0.771   0.784  15.405 -0.4435  0.1097 -0.3758
  697MPD2    C410306   0.702   0.864  15.495  0.0667  0.2585 -0.2662
  697MPD2    C510307   0.594   0.810  15.560  0.4736 -0.0642 -0.4680
  697MPD2     H10308   0.788   0.580  15.328 -0.3419  2.6721 -3.3271
  697MPD2    H110309   0.724   0.968  15.510 -2.1854  0.3539  2.3979
  697MPD2    H210310   0.496   0.633  15.616 -0.1072 -0.3645  0.6139
  697MPD2    H310311   0.531   0.872  15.623  0.6366 -0.1913 -0.1814
  697MPD2     N10312   0.886   0.845  15.338 -0.4380 -0.3852 -0.2087
  697MPD2    H510313   0.914   0.798  15.253  1.0208  1.4757 -0.7673
  697MPD2    N110314   0.626   0.451  15.462 -0.3855  0.5184 -0.1131
  697MPD2    H710315   0.694   0.408  15.399 -2.0848 -2.0922 -0.1623
  698TMC3    C110316   1.067   0.980  15.290  0.4035 -0.4446  0.3087
  698TMC3    C210317   1.187   1.007  15.352 -0.1222  0.5863  0.0142
  698TMC3    C310318   1.292   1.002  15.263  0.2667  0.1626  0.0459
  698TMC3    C410319   1.060   0.953  15.158  0.5596 -0.4058 -0.4742
  698TMC3    C510320   1.171   0.948  15.077 -0.7830 -0.5450 -0.3047
  698TMC3    C610321   1.296   0.965  15.129 -0.6298 -0.0725 -0.2109
  698TMC3     C10322   0.957   0.953  15.377 -0.0462  0.1885 -0.5356
  698TMC3     O10323   0.957   1.004  15.490 -0.1716  0.4012 -0.0852
  698TMC3     H10324   1.196   1.026  15.459 -1.3847  1.0494  0.0447
  698TMC3    H110325   0.960   0.946  15.115  0.6442  0.1953 -0.7615
  698TMC3    H210326   1.386   0.957  15.069 -1.0051  0.5731 -0.8579
  698TMC3    C710327   1.142   0.890  14.950 -0.1004 -0.1206  0.2266
  698TMC3    C810328   1.418   0.993  15.334  0.0421  0.3158 -0.3206
  698TMC3    O110329   1.038   0.919  14.900 -0.4178 -0.4754  0.2400
  698TMC3    O210330   1.423   0.954  15.451 -0.1307  0.4278  0.1596
  699TMC3    C110331   1.033   3.315  12.839  0.1272 -0.8251  0.2840
  699TMC3    C210332   1.099   3.246  12.945  0.3966 -0.1674 -0.0543
  699TMC3    C310333   1.059   3.281  13.072 -0.6578  0.6864 -0.3568
  699TMC3    C410334   0.915   3.383  12.869  0.1481 -0.7543  0.2843
  699TMC3    C510335   0.878   3.403  12.998  0.0708  0.4024 -0.1933
  699TMC3    C610336   0.943   3.346  13.097  0.3593 -1.0460 -0.0298
  699TMC3     C10337   1.063   3.291  12.699  0.4539  0.4349  0.7761
  699TMC3     O10338   0.978   3.340  12.623  0.3031 -0.4118 -0.0866
  699TMC3     H10339   1.189   3.189  12.923  0.6165 -0.0434  0.5226
  699TMC3    H110340   0.863   3.430  12.786  2.2131  3.1764  1.2327
  699TMC3    H210341   0.910   3.370  13.197  1.9495 -1.6791  0.6368
  699TMC3    C710342   0.746   3.459  13.036 -0.2627 -0.8631 -0.3680
  699TMC3    C810343   1.097   3.192  13.180 -0.6166 -0.1487 -0.5096
  699TMC3    O110344   0.722   3.469  13.155 -0.4358 -0.4226  0.3978
  699TMC3    O210345   1.031   3.183  13.285  0.3644 -0.2241  0.0895
  700TMC3    C110346   0.156   1.145  16.789 -0.3245 -0.0794  0.2907
  700TMC3    C210347   0.202   1.029  16.851 -0.5342  0.3872  0.6889
  700TMC3    C310348   0.224   1.037  16.986  0.3753 -0.0875 -0.0031
  700TMC3    C410349   0.141   1.261  16.857 -0.0405 -0.4729 -0.7512
  700TMC3    C510350   0.174   1.263  16.993  0.2542 -0.0869 -1.2259
  700TMC3    C610351   0.226   1.155  17.062  0.1338 -0.2936 -0.1815
  700TMC3     C10352   0.176   1.164  16.651  0.5019  0.0514 -0.0880
  700TMC3     O10353   0.159   1.064  16.581 -0.2980  0.1393  0.0087
  700TMC3     H10354   0.242   0.953  16.785 -3.1646 -0.4293  0.0297
  700TMC3    H110355   0.084   1.341  16.810 -1.2471 -2.2449 -2.2895
  700TMC3    H210356   0.267   1.166  17.162 -0.2713 -0.3136 -0.0147
  700TMC3    C710357   0.160   1.392  17.070 -1.0531  0.0304 -0.2241
  700TMC3    C810358   0.294   0.923  17.033  0.3177  0.3893 -0.7021
  700TMC3    O110359   0.132   1.484  16.998  0.4015 -0.7980  0.3522
  700TMC3    O210360   0.399   0.948  17.093  0.1915  0.5577 -0.5438
  701TMC3    C110361   0.116   4.445  15.947  0.7235 -0.2655 -0.1124
  701TMC3    C210362   0.100   4.372  15.829  0.1518  0.0575  0.4280
  701TMC3    C310363   0.157   4.423  15.720 -0.8188  0.2303  0.5140
  701TMC3    C410364   0.171   4.573  15.954 -0.1877 -0.8754 -0.5366
  701TMC3    C510365   0.212   4.620  15.830  0.2797  0.1292 -0.7363
  701TMC3    C610366   0.203   4.547  15.712 -0.0639  0.3905  0.6011
  701TMC3     C10367   0.014   4.441  16.054 -0.2816 -0.2869 -0.0611
  701TMC3     O10368   0.010   4.541  16.124 -0.0517 -0.5941 -0.3893
  701TMC3     H10369   0.049   4.277  15.825 -0.1326  0.2136  0.3411
  701TMC3    H110370   0.197   4.618  16.049  0.5925 -0.6306 -0.8650
  701TMC3    H210371   0.246   4.588  15.622 -0.8693 -0.6312 -0.2464
  701TMC3    C710372   0.208   0.042  15.810  0.3124  0.8079  0.4296
  701TMC3    C810373   0.182   4.337  15.606  0.7455 -0.3101  0.1723
  701TMC3    O110374   0.224   0.089  15.694  0.4722 -0.4111 -0.3350
  701TMC3    O210375   0.212   4.380  15.493 -0.7407 -0.0330 -0.1177
  702MPD2     C10376   4.297   1.512  10.561  0.2816  0.2453  0.3142
  702MPD2    C110377   4.170   1.531  10.616  0.0449 -0.0140  0.0830
  702MPD2    C210378   4.053   1.495  10.552  0.0352 -0.6230 -0.1713
  702MPD2    C310379   4.061   1.442  10.420  0.4245  0.3907  0.2916
  702MPD2    C410380   4.187   1.419  10.362  0.4776 -0.5576  0.5855
  702MPD2    C510381   4.304   1.449  10.435 -0.2887 -0.3126  0.1793
  702MPD2     H10382   3.957   1.521  10.594 -0.2060 -0.3125 -0.9215
  702MPD2    H110383   4.191   1.380  10.261  3.0946 -0.0722  0.5184
  702MPD2    H210384   4.389   1.526  10.617 -0.3049  0.0501  1.3244
  702MPD2    H310385   4.407   1.429  10.408 -0.6488  0.6955 -1.9367
  702MPD2     N10386   3.931   1.427  10.359 -0.6102  0.3172  0.2528
  702MPD2    H510387   3.848   1.446  10.413 -1.3803 -1.5848 -0.2624
  702MPD2    N110388   4.163   1.587  10.747  0.2900  0.1625 -0.6230
  702MPD2    H710389   4.077   1.570  10.798 -0.5278  3.5412 -0.8688
  703TMC3    C110390   3.776   1.410  10.180  0.3898 -0.6417 -0.0912
  703TMC3    C210391   3.683   1.405  10.282  0.1423  0.1821  0.9096
  703TMC3    C310392   3.570   1.475  10.251 -0.3019 -0.5144 -0.3773
  703TMC3    C410393   3.770   1.493  10.068 -0.2468  0.0198  0.2308
  703TMC3    C510394   3.663   1.575  10.054  0.2511 -0.5503  0.3242
  703TMC3    C610395   3.555   1.560  10.138  0.1478 -0.7503 -0.1003
  703TMC3     C10396   3.912   1.390  10.228 -0.1689 -0.5247  0.1549
  703TMC3     O10397   3.997   1.367  10.144  0.0780 -0.1604  0.1315
  703TMC3     H10398   3.698   1.333  10.362 -1.8987 -2.8765 -1.4660
  703TMC3    H110399   3.858   1.509  10.006  0.9122  1.0015  2.1491
  703TMC3    H210400   3.462   1.612  10.117 -1.0747 -1.9734  2.3543
  703TMC3    C710401   3.696   1.717  10.036  0.3815 -0.5119 -0.1115
  703TMC3    C810402   3.493   1.531  10.366 -0.8464 -0.0801 -0.4521
  703TMC3    O110403   3.803   1.732   9.977  0.0789 -0.8621 -0.0631
  703TMC3    O210404   3.414   1.627  10.343  0.2928 -0.7241  0.6159
  704TMC3    C110405   1.870   0.530  12.401  0.1670  0.1041 -0.0754
  704TMC3    C210406   2.004   0.541  12.423 -0.0375 -0.1949 -0.9583
  704TMC3    C310407   2.049   0.470  12.534  0.2236  0.0381  0.0767
  704TMC3    C410408   1.781   0.453  12.467 -0.1876 -0.4586  0.4227
  704TMC3    C510409   1.831   0.371  12.563  0.0764 -0.4783  0.1244
  704TMC3    C610410   1.962   0.385  12.598 -0.0734  0.3012  0.1149
  704TMC3     C10411   1.831   0.576  12.271 -1.0897  0.2365 -0.1041
  704TMC3     O10412   1.719   0.621  12.268 -0.3944 -0.2838  0.1718
  704TMC3     H10413   2.067   0.588  12.349  0.8901 -1.8487 -1.2022
  704TMC3    H110414   1.686   0.439  12.418  0.8967 -4.2406 -0.6410
  704TMC3    H210415   2.001   0.323  12.678  0.2813  1.5222  0.8910
  704TMC3    C710416   1.805   0.244  12.507 -0.1533  0.6541  0.3489
  704TMC3    C810417   2.187   0.426  12.515  0.0183 -0.5752  0.1161
  704TMC3    O110418   1.898   0.167  12.483 -0.3807  0.1582 -0.0617
  704TMC3    O210419   2.240   0.466  12.413 -0.2309 -0.1947 -0.5329
  705MPD2     C10420   1.731   2.975  16.625 -0.1282 -0.1585  0.2247
  705MPD2    C110421   1.670   2.968  16.504  0.3797  0.0825  0.1834
  705MPD2    C210422   1.535   3.003  16.498  0.6595 -0.0108 -0.4373
  705MPD2    C310423   1.471   3.058  16.608 -0.1898  0.6193 -0.1373
  705MPD2    C410424   1.537   3.058  16.729  0.0019 -0.0850  0.1380
  705MPD2    C510425   1.660   3.012  16.740 -1.1896  0.0425 -0.0794
  705MPD2     H10426   1.489   2.991  16.401 -0.4864 -0.8625  0.2141
  705MPD2    H110427   1.493   3.085  16.824  0.0914  0.2092  0.0958
  705MPD2    H210428   1.835   2.947  16.640 -0.0891 -1.4488 -2.5127
  705MPD2    H310429   1.708   3.028  16.836 -0.4851  0.9041 -0.5621
  705MPD2     N10430   1.339   3.113  16.606  0.2714  0.2167 -0.1013
  705MPD2    H510431   1.308   3.163  16.689 -1.7249 -3.5016  1.3716
  705MPD2    N110432   1.738   2.928  16.386  1.2925  0.0926  0.4097
  705MPD2    H710433   1.686   2.906  16.301  3.5026 -0.1609 -0.8642
  706TMC3    C110434   1.914   2.856  16.024  0.5701 -0.8836  0.1651
  706TMC3    C210435   2.022   2.934  15.990 -0.4620 -0.1655  0.0252
  706TMC3    C310436   2.084   3.011  16.083  0.4382  0.5255  0.3794
  706TMC3    C410437   1.866   2.853  16.155  0.3624 -0.6455  1.1317
  706TMC3    C510438   1.943   2.910  16.253  0.5420 -0.2512  0.1080
  706TMC3    C610439   2.045   2.996  16.214 -0.3292  0.5281 -0.2461
  706TMC3     C10440   1.900   2.730  15.945 -0.0310 -0.0328 -0.5991
  706TMC3     O10441   1.902   2.622  16.000 -0.5403  0.4357 -1.0270
  706TMC3     H10442   2.057   2.946  15.889  1.9050  0.3611  0.9016
  706TMC3    H110443   1.793   2.786  16.200  1.3793 -2.4124  0.1536
  706TMC3    H210444   2.094   3.045  16.297 -0.6510 -1.5996  1.2126
  706TMC3    C710445   1.879   2.946  16.377  0.4261 -0.6731  0.3079
  706TMC3    C810446   2.116   3.148  16.040 -0.2568 -0.8431  0.3071
  706TMC3    O110447   1.955   2.991  16.461  0.1582 -0.1896 -0.2969
  706TMC3    O210448   2.050   3.186  15.943  0.4608 -0.1087  0.3529
  707TMC3    C110449   3.937   2.102   1.278 -0.7501  0.1935 -0.0339
  707TMC3    C210450   4.034   2.057   1.360  0.3441  0.3222 -0.1053
  707TMC3    C310451   4.008   2.059   1.494 -0.2747 -0.2286  0.2176
  707TMC3    C410452   3.817   2.153   1.319 -0.0497  0.5166  0.0592
  707TMC3    C510453   3.794   2.160   1.455 -0.9619  0.1772  0.4881
  707TMC3    C610454   3.888   2.111   1.541  0.9126  0.2026 -0.3832
  707TMC3     C10455   3.955   2.066   1.137  0.1975 -0.0634  0.4919
  707TMC3     O10456   4.059   2.008   1.106  0.3463  0.3789  0.0820
  707TMC3     H10457   4.124   2.012   1.320  1.9342  2.0509  1.5196
  707TMC3    H110458   3.750   2.207   1.253 -1.2440 -2.3134 -1.0419
  707TMC3    H210459   3.886   2.124   1.648  1.8737 -0.2714 -0.3043
  707TMC3    C710460   3.678   2.220   1.506 -0.3922 -0.1810  0.1843
  707TMC3    C810461   4.122   2.067   1.584  0.0739 -0.6718 -0.8026
  707TMC3    O110462   3.678   2.226   1.628 -0.5018 -0.5165 -0.5516
  707TMC3    O210463   4.108   2.132   1.687 -0.2352 -0.2041  0.2544
  708MPD2     C10464   4.593   2.001  13.965 -0.5262  0.5067  0.5637
  708MPD2    C110465   4.592   1.890  14.045  0.7241 -1.2350 -0.6849
  708MPD2    C210466   4.693   1.797  14.023 -0.4125  0.3084 -0.4608
  708MPD2    C310467   0.066   1.820  13.925  0.0387  0.3882 -0.2168
  708MPD2    C410468   0.060   1.937  13.843 -0.1626  0.3151 -0.4581
  708MPD2    C510469   4.675   2.024  13.859 -0.5729 -0.1390 -0.2594
  708MPD2     H10470   4.700   1.708  14.085 -0.6725  1.5245  1.3256
  708MPD2    H110471   0.127   1.947  13.759  1.2894  1.2445  0.8169
  708MPD2    H210472   4.512   2.073  13.971 -0.4632  0.6192  0.0822
  708MPD2    H310473   4.661   2.112  13.797  3.6629  1.2251  0.7265
  708MPD2     N10474   0.168   1.725  13.915  0.3143 -0.8008 -0.3409
  708MPD2    H510475   0.149   1.648  13.979 -0.6622 -2.0810 -2.1810
  708MPD2    N110476   4.487   1.872  14.147 -0.4576 -0.0542  0.0095
  708MPD2    H710477   4.420   1.949  14.148  2.8652  2.8515 -0.4170
  709TMC3    C110478   4.369   1.748  14.306 -0.0145 -0.3893 -0.5805
  709TMC3    C210479   4.276   1.724  14.208  0.1903 -0.3542  0.0681
  709TMC3    C310480   4.192   1.626  14.225  0.1214  0.5128  0.3911
  709TMC3    C410481   4.379   1.665  14.410 -0.8541  0.1800 -0.0717
  709TMC3    C510482   4.302   1.552  14.416 -0.4574  0.1780  0.0200
  709TMC3    C610483   4.206   1.529  14.322 -0.0263  0.2482  0.2867
  709TMC3     C10484   4.502   1.789  14.256  0.3979 -0.7505  0.2196
  709TMC3     O10485   4.591   1.706  14.280  0.3737  0.0816 -0.0488
  709TMC3     H10486   4.258   1.797  14.130  3.5359  0.8054  0.3756
  709TMC3    H110487   4.447   1.685  14.491  0.5210  0.9838 -1.4206
  709TMC3    H210488   4.137   1.447  14.341  0.0723  0.8124  2.9586
  709TMC3    C710489   4.379   1.439  14.461 -0.4747  0.5831 -0.0892
  709TMC3    C810490   4.075   1.640  14.141  1.0884  0.0996  0.5647
  709TMC3    O110491   4.327   1.335  14.508 -0.0765  0.4653 -0.7723
  709TMC3    O210492   3.963   1.626  14.191 -0.3021 -0.1367 -0.8268
  710TMC3    C110493   1.155   3.207   0.775  0.4417  0.6215 -0.3762
  710TMC3    C210494   1.231   3.266   0.672  0.1458  0.7310  0.7827
  710TMC3    C310495   1.340   3.190   0.622 -0.4748 -0.1746  0.0221
  710TMC3    C410496   1.172   3.079   0.813 -0.8205  0.2761  0.4623
  710TMC3    C510497   1.284   3.022   0.767  0.1034 -0.2522  0.4347
  710TMC3    C610498   1.367   3.061   0.665 -0.4879 -0.1970  0.2022
  710TMC3     C10499   1.032   3.280   0.818 -0.6264 -0.7602 -1.0456
  710TMC3     O10500   0.997   3.382   0.757  0.2472 -0.4006 -0.7836
  710TMC3     H10501   1.195   3.360   0.632 -0.1393  0.6021  0.7352
  710TMC3    H110502   1.119   3.040   0.899 -0.6618 -0.9754 -0.0088
  710TMC3    H210503   1.451   3.007   0.623 -0.0972  0.2803  0.3660
  710TMC3    C710504   1.334   2.920   0.856  0.2795  0.8253  0.5532
  710TMC3    C810505   1.425   3.238   0.510  0.6234 -0.5930 -0.3688
  710TMC3    O110506   1.316   2.937   0.975 -0.3104  0.2092 -0.2134
  710TMC3    O210507   1.516   3.161   0.483 -0.2254 -0.4951 -0.0493
  711TMC3    C110508   0.732   3.949  15.399 -0.5938 -0.4314 -0.0356
  711TMC3    C210509   0.782   3.830  15.440  0.1736 -0.3742 -0.9303
  711TMC3    C310510   0.887   3.835  15.525  0.0104  0.7363 -0.0465
  711TMC3    C410511   0.774   4.068  15.452  0.1916 -0.2820 -0.4299
  711TMC3    C510512   0.875   4.062  15.548  0.2939  0.1433  0.1417
  711TMC3    C610513   0.926   3.948  15.588 -0.1156 -0.3277 -0.4719
  711TMC3     C10514   0.637   3.945  15.289  1.0130  0.5128 -0.0830
  711TMC3     O10515   0.646   3.847  15.216  0.3293 -0.0264  0.2340
  711TMC3     H10516   0.752   3.735  15.398  1.7845 -0.4792 -1.8383
  711TMC3    H110517   0.717   4.159  15.436  0.5762  0.3082  1.5725
  711TMC3    H210518   0.992   3.944  15.674 -1.4420  3.0606  0.7218
  711TMC3    C710519   0.982   4.146  15.509  0.1157 -0.4564 -0.2340
  711TMC3    C810520   0.989   3.735  15.504  0.0995 -0.4509  0.5478
  711TMC3    O110521   1.090   4.107  15.554  0.0881 -0.0222  0.2118
  711TMC3    O210522   0.969   3.640  15.432  0.2419 -0.2414 -0.6838
  712MPD2     C10523   2.218   0.402  14.084  0.2978  0.4631  0.5670
  712MPD2    C110524   2.119   0.461  14.008  0.3710  0.1173  0.0470
  712MPD2    C210525   2.080   0.595  14.046 -0.2281 -0.1329 -0.0307
  712MPD2    C310526   2.146   0.667  14.152 -0.0602 -0.6467 -0.6358
  712MPD2    C410527   2.237   0.599  14.225  0.2692 -0.2443  0.0732
  712MPD2    C510528   2.260   0.465  14.197  0.5859 -0.1465  0.2219
  712MPD2     H10529   2.000   0.638  13.988  1.4112  2.0679 -0.6312
  712MPD2    H110530   2.296   0.642  14.305  3.5527  1.0161 -3.0506
  712MPD2    H210531   2.249   0.300  14.061  0.6342  0.1629  2.3397
  712MPD2    H310532   2.338   0.411  14.248 -0.4270 -1.2846  0.5698
  712MPD2     N10533   2.121   0.801  14.171 -0.1770  0.5757 -0.1303
  712MPD2    H510534   2.186   0.853  14.229  0.7277 -0.3197 -0.3657
  712MPD2    N110535   2.057   0.396  13.900  0.7291 -0.1635 -0.5540
  712MPD2    H710536   1.989   0.445  13.842 -1.7545  0.2795  2.6883
  713TMC3    C110537   2.104   1.014  14.080  0.6487  0.5158 -0.1200
  713TMC3    C210538   2.240   1.025  14.074 -0.1201 -0.2286 -0.6733
  713TMC3    C310539   2.295   1.146  14.045  0.3604  0.0211 -0.2916
  713TMC3    C410540   2.021   1.120  14.063  0.3968  0.0002  0.2346
  713TMC3    C510541   2.078   1.241  14.042  0.1879 -0.3005 -0.0962
  713TMC3    C610542   2.216   1.258  14.029 -0.3246 -0.0027 -0.1132
  713TMC3     C10543   2.048   0.883  14.087  0.3055  1.1910 -0.6101
  713TMC3     O10544   1.935   0.863  14.049 -0.3126 -0.0663  0.3600
  713TMC3     H10545   2.300   0.936  14.085 -0.4581 -0.4277 -0.4584
  713TMC3    H110546   1.916   1.111  14.089  1.1007  0.5543  3.1865
  713TMC3    H210547   2.262   1.350  13.993 -1.0515  0.7304  0.8458
  713TMC3    C710548   2.006   1.342  13.966 -0.2370  0.4781 -0.2858
  713TMC3    C810549   2.428   1.143  13.978 -0.1498  0.3391 -0.0697
  713TMC3    O110550   2.067   1.446  13.967  0.2590  0.0422  0.4292
  713TMC3    O210551   2.463   1.240  13.913  0.1614  0.7847 -0.4677
  714MPD2     C10552   4.286   3.530   1.600  0.2167  0.0157  0.3528
  714MPD2    C110553   4.274   3.412   1.525  0.5105 -0.1224 -0.0171
  714MPD2    C210554   4.224   3.421   1.394 -0.3266  0.2562  0.1706
  714MPD2    C310555   4.190   3.543   1.331 -0.6854 -0.9063  0.5525
  714MPD2    C410556   4.200   3.659   1.414  1.1531  0.3132  0.2191
  714MPD2    C510557   4.246   3.649   1.545 -0.0353 -0.4755  0.1795
  714MPD2     H10558   4.231   3.331   1.334 -1.1810 -2.1163  3.6830
  714MPD2    H110559   4.182   3.759   1.375  3.8096  1.0687  0.9187
  714MPD2    H210560   4.318   3.518   1.703  3.0755  0.3294 -0.4934
  714MPD2    H310561   4.263   3.737   1.606  1.6130 -0.0023 -0.9786
  714MPD2     N10562   4.142   3.553   1.194 -0.6644 -0.5154 -0.2255
  714MPD2    H510563   4.115   3.645   1.160 -3.6086 -1.2862 -0.0058
  714MPD2    N110564   4.328   3.297   1.585  0.0620 -0.1226 -0.2967
  714MPD2    H710565   4.396   3.311   1.659  0.4424 -0.3295 -0.6060
  715TMC3    C110566   4.426   3.086   1.599 -0.1634 -0.5055  0.5313
  715TMC3    C210567   4.508   3.013   1.521 -0.0538 -0.0732  0.2408
  715TMC3    C310568   4.609   2.944   1.591 -0.3334 -0.1146 -0.1164
  715TMC3    C410569   4.426   3.084   1.732 -0.6072  0.1027  0.8406
  715TMC3    C510570   4.542   3.043   1.788  0.5331 -0.5850  0.0023
  715TMC3    C610571   4.629   2.956   1.725 -0.1565  0.0362  0.7748
  715TMC3     C10572   4.332   3.171   1.532  0.2990 -0.3761  0.1994
  715TMC3     O10573   4.284   3.144   1.423 -0.0350 -0.3303 -0.2970
  715TMC3     H10574   4.495   3.016   1.414 -2.1500 -1.2397  0.4605
  715TMC3    H110575   4.360   3.157   1.777  0.5419  0.4600  1.9178
  715TMC3    H210576   0.009   2.953   1.765  0.7245  1.2401 -1.3815
  715TMC3    C710577   4.578   3.068   1.928  0.1671 -1.1351 -0.1639
  715TMC3    C810578   4.717   2.895   1.508  0.2032 -0.5072 -0.2099
  715TMC3    O110579   4.695   3.071   1.968 -0.0388 -0.5707  0.3525
  715TMC3    O210580   0.009   2.941   1.399 -0.1895 -0.2419  0.0802
  716MPD2     C10581   4.099   1.626   9.961 -0.3403 -0.3569 -0.2575
  716MPD2    C110582   4.077   1.589   9.834 -0.0654  0.3339  0.3116
  716MPD2    C210583   4.174   1.507   9.772 -0.4769  0.0193  0.9233
  716MPD2    C310584   4.268   1.443   9.848 -0.0110 -0.2853 -0.7520
  716MPD2    C410585   4.274   1.474   9.982  0.7746 -0.4446  0.0795
  716MPD2    C510586   4.197   1.568  10.040  0.5607 -0.6390  0.2099
  716MPD2     H10587   4.167   1.486   9.666  1.1601  0.3859  0.7341
  716MPD2    H110588   4.344   1.439  10.057 -1.8567 -1.3513  2.0887
  716MPD2    H210589   4.028   1.694  10.006 -0.8717 -0.6667 -0.6246
  716MPD2    H310590   4.206   1.594  10.145 -1.0143 -1.7531  0.6171
  716MPD2     N10591   4.336   1.341   9.787  0.1158 -0.4172 -0.0388
  716MPD2    H510592   4.328   1.322   9.687 -2.0789 -0.1920  0.1020
  716MPD2    N110593   3.967   1.650   9.761  0.6128  0.2357  0.4294
  716MPD2    H710594   3.902   1.695   9.824 -0.6287  0.5056 -1.0528
  717TMC3    C110595   4.474   1.149   9.777 -0.1425  0.5341 -0.0946
  717TMC3    C210596   4.471   1.156   9.638 -0.2644  0.2877  0.3873
  717TMC3    C310597   4.536   1.054   9.575  0.1851 -0.4464 -0.1840
  717TMC3    C410598   4.544   1.062   9.848 -0.4965  0.1314  0.2307
  717TMC3    C510599   4.613   0.965   9.774 -0.2687 -0.0058 -0.2735
  717TMC3    C610600   4.603   0.954   9.643  0.5793 -0.2839 -0.0916
  717TMC3     C10601   4.400   1.248   9.860 -0.9271  0.4903  0.6551
  717TMC3     O10602   4.422   1.244   9.980 -0.1556 -0.2298 -0.0125
  717TMC3     H10603   4.394   1.212   9.585 -0.6269  0.3758  1.0023
  717TMC3    H110604   4.558   1.075   9.955  1.3785 -3.4078  0.4082
  717TMC3    H210605   4.671   0.883   9.596  0.6740 -0.4236  0.2610
  717TMC3    C710606   4.689   0.868   9.850 -0.2132  0.2833  0.5431
  717TMC3    C810607   4.514   1.039   9.431 -0.3328 -0.8000 -0.1609
  717TMC3    O110608   0.015   0.895   9.961 -0.1121  0.2081  1.0429
  717TMC3    O210609   4.470   1.136   9.368  0.1868  0.4080 -0.5728
  718MPD2     C10610   3.858   0.766  12.984  0.0059  0.3273  0.2690
  718MPD2    C110611   3.847   0.815  12.857 -0.8234 -0.3378  0.2117
  718MPD2    C210612   3.754   0.756  12.774 -0.2974 -0.1425 -0.1085
  718MPD2    C310613   3.671   0.650  12.818  0.0976 -0.3830 -0.5161
  718MPD2    C410614   3.684   0.611  12.949  1.0295  0.2822  0.3351
  718MPD2    C510615   3.781   0.663  13.028  0.5061  0.2738  0.3135
  718MPD2     H10616   3.756   0.795  12.673  1.0968  0.8198  0.2982
  718MPD2    H110617   3.614   0.534  12.981  0.2096  1.2868  0.9527
  718MPD2    H210618   3.917   0.819  13.058  1.6159  1.3708 -1.7616
  718MPD2    H310619   3.796   0.623  13.128  2.7510  0.9262  0.2363
  718MPD2     N10620   3.566   0.592  12.733  0.1179 -0.3028 -0.4557
  718MPD2    H510621   3.498   0.532  12.779 -0.6656  1.3256  0.5257
  718MPD2    N110622   3.930   0.922  12.813  0.3066 -0.5055  0.0428
  718MPD2    H710623   3.907   0.953  12.719  0.6541  1.8365  0.7322
  719TMC3    C110624   4.093   1.078  12.782  0.1471 -0.0768 -0.1899
  719TMC3    C210625   4.014   1.134  12.693 -0.2276  0.7104  0.0864
  719TMC3    C310626   4.048   1.143  12.559  0.3198  0.1598  0.1173
  719TMC3    C410627   4.226   1.048  12.748  0.0053 -0.5781 -0.2243
  719TMC3    C510628   4.267   1.075  12.619 -1.1428  0.1073  0.0365
  719TMC3    C610629   4.178   1.114  12.520  0.2364  1.0062 -0.1463
  719TMC3     C10630   4.033   0.983  12.877 -0.1134 -0.5122  0.1578
  719TMC3     O10631   4.087   0.953  12.980  0.2213 -0.0110  0.2432
  719TMC3     H10632   3.914   1.164  12.719 -1.5775 -1.4683 -2.6800
  719TMC3    H110633   4.295   1.023  12.828  0.8888 -1.6601 -1.3163
  719TMC3    H210634   4.213   1.131  12.419 -1.4345 -0.1959 -0.9039
  719TMC3    C710635   4.404   1.073  12.587 -0.1349  0.8531 -0.6569
  719TMC3    C810636   3.951   1.070  12.477 -0.1494  0.0835 -0.2230
  719TMC3    O110637   4.445   1.139  12.490 -0.1828  0.2400  0.4001
  719TMC3    O210638   3.918   0.964  12.530 -0.3976  0.7870  0.7020
  720MPD2     C10639   2.340   1.978  14.154 -0.6694 -0.2577 -0.2829
  720MPD2    C110640   2.447   2.050  14.103  0.5352  0.1041  0.8975
  720MPD2    C210641   2.547   2.090  14.192  0.1775  0.4504  0.4061
  720MPD2    C310642   2.567   2.035  14.318 -0.6077  0.3758  0.1360
  720MPD2    C410643   2.456   1.955  14.362 -0.2343 -0.3165  0.3744
  720MPD2    C510644   2.348   1.923  14.280  0.7677  0.3688 -0.2926
  720MPD2     H10645   2.619   2.153  14.143  2.1823 -1.0209  1.4719
  720MPD2    H110646   2.458   1.918  14.464  0.0715  1.6360  1.0764
  720MPD2    H210647   2.248   1.962  14.099 -0.3828  0.5518 -1.0028
  720MPD2    H310648   2.264   1.866  14.319  0.1213  1.2195 -0.4516
  720MPD2     N10649   2.678   2.067  14.392 -0.6847 -0.5215 -0.4817
  720MPD2    H510650   2.747   2.136  14.364  1.2589 -1.4954  1.8693
  720MPD2    N110651   2.439   2.100  13.966 -0.1913  0.2658  0.7533
  720MPD2    H710652   2.520   2.151  13.933 -1.6206  0.5294 -2.2820
  721TMC3    C110653   2.828   2.079  14.565 -0.6633 -0.2261  0.0323
  721TMC3    C210654   2.835   2.107  14.702  0.5627 -0.2620  0.1257
  721TMC3    C310655   2.928   2.198  14.745  0.8363  0.0024  0.5890
  721TMC3    C410656   2.898   2.149  14.479 -0.0760 -0.7873  0.0895
  721TMC3    C510657   2.985   2.243  14.531 -0.0844  0.2347 -0.5705
  721TMC3    C610658   3.005   2.267  14.661 -0.3240  0.7737  0.5962
  721TMC3     C10659   2.708   2.022  14.514  0.7089 -0.3158 -0.0207
  721TMC3     O10660   2.657   1.931  14.577 -0.3655  0.4464 -0.6350
  721TMC3     H10661   2.778   2.035  14.760  3.6195 -2.1406  0.7531
  721TMC3    H110662   2.907   2.122  14.375 -0.6932  1.0983 -0.4512
  721TMC3    H210663   3.077   2.341  14.694  0.3968  0.2852  0.1439
  721TMC3    C710664   3.058   2.332  14.437  0.4829 -0.3428  0.1957
  721TMC3    C810665   2.921   2.237  14.882 -0.8021 -0.5297  0.1540
  721TMC3    O110666   3.179   2.331  14.458 -0.0296 -0.2068 -0.0524
  721TMC3    O210667   3.032   2.279  14.917 -0.2101  0.7445 -0.0282
  722MPD2     C10668   1.134   0.770  13.244  0.8096  0.3740 -0.6522
  722MPD2    C110669   1.059   0.881  13.224  0.5098 -0.3592 -0.5366
  722MPD2    C210670   0.929   0.867  13.180 -0.0643  0.0857  0.0928
  722MPD2    C310671   0.875   0.747  13.156 -0.1909  0.4145  0.7052
  722MPD2    C410672   0.957   0.632  13.167 -0.1388  0.4712 -0.0440
  722MPD2    C510673   1.083   0.646  13.212 -0.2723  0.3655 -1.2410
  722MPD2     H10674   0.858   0.949  13.170  1.8379  1.5290 -1.6379
  722MPD2    H110675   0.916   0.534  13.145  0.3827  0.4681 -1.0088
  722MPD2    H210676   1.235   0.777  13.281  0.2429  2.3541  0.4931
  722MPD2    H310677   1.140   0.554  13.217 -0.4395  0.3829  0.9769
  722MPD2     N10678   0.734   0.746  13.118 -0.7231 -0.4158 -0.3641
  722MPD2    H510679   0.682   0.833  13.114  0.6116  0.4031  0.2903
  722MPD2    N110680   1.112   1.013  13.259  0.4515  0.0158 -0.5946
  722MPD2    H710681   1.052   1.091  13.233  1.3781  0.9289  0.0131
  723TMC3    C110682   0.530   0.682  13.037  0.4024  0.3278  0.4175
  723TMC3    C210683   0.447   0.579  13.003 -0.7033  0.3228 -0.3152
  723TMC3    C310684   0.327   0.609  12.954 -0.4481  0.3165  0.4541
  723TMC3    C410685   0.512   0.809  12.992  0.5916  1.3321 -0.2862
  723TMC3    C510686   0.385   0.839  12.947 -0.2939  0.8083  0.3200
  723TMC3    C610687   0.290   0.738  12.927  0.3079 -0.0445 -0.1022
  723TMC3     C10688   0.665   0.638  13.073  0.6318 -0.0911 -0.1651
  723TMC3     O10689   0.680   0.519  13.081  0.2608  1.0584  0.1030
  723TMC3     H10690   0.449   0.488  13.062 -0.7127  1.2091  1.0591
  723TMC3    H110691   0.582   0.891  12.994  0.8861  1.1047 -1.8143
  723TMC3    H210692   0.188   0.763  12.899  0.4153  0.3303 -0.1635
  723TMC3    C710693   0.351   0.978  12.964  0.7582 -0.2093  0.5345
  723TMC3    C810694   0.220   0.511  12.932  0.0873  0.1389 -0.4674
  723TMC3    O110695   0.423   1.050  13.030  0.4198 -0.4827 -0.0234
  723TMC3    O210696   0.104   0.554  12.941  0.4067  0.4940 -0.4748
  724TMC3    C110697   1.575   3.913  10.411  0.3819  0.0171  1.0019
  724TMC3    C210698   1.577   3.902  10.274 -0.0841  0.1638  0.7137
  724TMC3    C310699   1.631   4.006  10.202 -0.1832  0.3109 -0.0780
  724TMC3    C410700   1.648   4.010  10.481  0.2535 -0.4492 -0.0180
  724TMC3    C510701   1.709   4.102  10.397 -0.9163  0.0659  0.9837
  724TMC3    C610702   1.698   4.109  10.261  0.0997 -0.2710 -0.0168
  724TMC3     C10703   1.499   3.814  10.487  0.4506 -0.5002  0.1135
  724TMC3     O10704   1.437   3.737  10.417  0.0790 -0.0130 -0.0853
  724TMC3     H10705   1.537   3.815  10.224 -2.3483  1.3059  0.5349
  724TMC3    H110706   1.666   4.004  10.588 -1.7376  1.8392  0.4603
  724TMC3    H210707   1.748   4.184  10.202 -1.9071 -0.4056 -1.8694
  724TMC3    C710708   1.802   4.202  10.452  0.5389 -0.0801  0.3334
  724TMC3    C810709   1.605   3.987  10.054  0.0788 -0.5400 -0.2540
  724TMC3    O110710   1.838   4.286  10.371 -0.9856 -0.2743  0.0190
  724TMC3    O210711   1.538   3.894  10.011 -0.4052 -0.3832 -0.3292
  725TMC3    C110712   3.128   2.824  12.906 -0.1262  0.2398  0.4016
  725TMC3    C210713   3.014   2.864  12.846  0.2127 -0.0138 -0.5056
  725TMC3    C310714   2.938   2.760  12.801  0.0072 -0.1335  0.0815
  725TMC3    C410715   3.168   2.698  12.934 -0.5657 -0.2577  0.5269
  725TMC3    C510716   3.089   2.593  12.878  0.7649 -0.0922  0.4281
  725TMC3    C610717   2.973   2.629  12.820 -0.4627  0.0790 -0.2229
  725TMC3     C10718   3.216   2.919  12.973  1.2226  0.0825  0.1110
  725TMC3     O10719   3.326   2.876  13.006  0.3119  0.4221  0.6688
  725TMC3     H10720   2.998   2.966  12.814 -2.3686  0.4216  2.1393
  725TMC3    H110721   3.254   2.666  12.991  0.4918 -0.8637 -1.4306
  725TMC3    H210722   2.917   2.548  12.776 -0.5791 -0.6562  1.2705
  725TMC3    C710723   3.153   2.475  12.817  0.4793  0.6592  0.3903
  725TMC3    C810724   2.882   2.788  12.665 -0.4337  0.0219  0.2923
  725TMC3    O110725   3.100   2.416  12.723 -0.5380 -0.1711  0.5519
  725TMC3    O210726   2.927   2.869  12.585 -0.5709  0.2819 -0.5727
  726MPD2     C10727   0.333   3.425  10.454  0.1208  0.5387  1.2801
  726MPD2    C110728   0.347   3.557  10.482  0.3684  1.1315 -0.9399
  726MPD2    C210729   0.238   3.636  10.484 -0.4701  0.5626 -0.6420
  726MPD2    C310730   0.110   3.584  10.456 -0.3676 -0.2960  0.1618
  726MPD2    C410731   0.100   3.453  10.425  0.3313  0.1292 -0.5406
  726MPD2    C510732   0.207   3.372  10.419 -0.0447 -0.2559  0.0818
  726MPD2     H10733   0.260   3.737  10.517  0.5746 -0.1019  0.7247
  726MPD2    H110734   0.002   3.408  10.411 -0.1549  0.7542  0.8003
  726MPD2    H210735   0.418   3.358  10.459  1.5084  2.1935 -0.1464
  726MPD2    H310736   0.203   3.266  10.397 -1.2566  0.2236 -1.9661
  726MPD2     N10737   4.720   3.664  10.473  0.2680  0.1813 -0.6709
  726MPD2    H510738   4.633   3.619  10.446  0.9842 -2.5253  1.5788
  726MPD2    N110739   0.473   3.622  10.488 -1.2078  0.2796  0.6356
  726MPD2    H710740   0.487   3.722  10.485 -1.1053  0.2043 -1.6410
  727TMC3    C110741   0.705   3.651  10.514  0.2210 -0.2824 -0.4009
  727TMC3    C210742   0.794   3.638  10.616  0.2177 -0.2869 -0.7751
  727TMC3    C310743   0.890   3.733  10.612  0.0065  0.3716  0.1578
  727TMC3    C410744   0.708   3.736  10.415 -0.9220 -0.6821  0.3017
  727TMC3    C510745   0.809   3.826  10.420 -0.0086  0.0308  0.8463
  727TMC3    C610746   0.908   3.824  10.509 -0.2019 -0.2061  0.0040
  727TMC3     C10747   0.590   3.565  10.518 -0.0990 -0.5504 -0.3425
  727TMC3     O10748   0.607   3.463  10.583  0.9242  0.6786  0.2242
  727TMC3     H10749   0.792   3.553  10.684  1.2224  0.5542  0.2960
  727TMC3    H110750   0.632   3.756  10.340  0.5594 -1.1800 -1.3426
  727TMC3    H210751   0.996   3.887  10.497  0.1493 -0.6474  0.2521
  727TMC3    C710752   0.827   3.911  10.304 -0.0393  0.4492 -0.6802
  727TMC3    C810753   0.981   3.756  10.726  1.0362  0.1941  0.0232
  727TMC3    O110754   0.785   3.865  10.196 -0.2983 -0.4326 -0.0435
  727TMC3    O210755   1.061   3.842  10.720 -0.1190  0.0558 -0.8377
  728TMC3    C110756   0.127   2.897  14.773  0.5521 -0.4751  0.2284
  728TMC3    C210757   0.148   2.893  14.904  0.1256  0.7559  0.0333
  728TMC3    C310758   0.280   2.900  14.946 -0.9256  0.4500 -0.5359
  728TMC3    C410759   0.227   2.922  14.686 -0.3759  0.0800  0.6770
  728TMC3    C510760   0.357   2.937  14.733  0.9529  0.5552  0.5617
  728TMC3    C610761   0.383   2.913  14.864  0.3847 -0.3458 -0.4822
  728TMC3     C10762   4.712   2.865  14.723  0.0489  0.2867  0.5728
  728TMC3     O10763   4.680   2.906  14.610  0.3628  0.1710 -0.1712
  728TMC3     H10764   0.072   2.896  14.981 -0.2819  1.0699 -0.3874
  728TMC3    H110765   0.202   2.919  14.580 -0.0451  0.1232  0.5974
  728TMC3    H210766   0.488   2.921  14.889  0.6617 -1.3438 -1.3258
  728TMC3    C710767   0.468   3.003  14.657  0.2802 -0.2715  0.6346
  728TMC3    C810768   0.306   2.869  15.087  0.2014 -0.4612 -0.2606
  728TMC3    O110769   0.583   2.969  14.686 -0.0517  0.2362 -0.5883
  728TMC3    O210770   0.215   2.840  15.159 -0.5488  0.1046  0.1272
  729MPD2     C10771   1.990   3.911  17.171 -0.3046 -0.5359  0.4499
  729MPD2    C110772   2.084   3.815  17.173  0.3185 -0.4436  0.3415
  729MPD2    C210773   2.144   3.782  17.285 -0.9877  0.0318  1.0827
  729MPD2    C310774   2.111   3.857  17.398 -0.0230  0.2937  0.2194
  729MPD2    C410775   2.025   3.964  17.398 -0.7649  0.0992 -0.1158
  729MPD2    C510776   1.959   3.986  17.282  0.5816 -0.0235 -0.2328
  729MPD2     H10777   2.219   3.704  17.289 -1.0817 -0.1356 -0.2040
  729MPD2    H110778   1.996   4.026  17.483 -0.8177 -1.1326  0.7632
  729MPD2    H210779   1.945   3.940  17.077  0.6329  2.6312  0.9930
  729MPD2    H310780   1.893   4.072  17.273  2.2018  1.2600  0.3101
  729MPD2     N10781   2.190   3.831  17.504  0.0513 -1.2857 -0.4680
  729MPD2    H510782   2.265   3.768  17.477  2.4706 -0.3608  4.2055
  729MPD2    N110783   2.105   3.747  17.051  0.4917  0.0720 -0.1597
  729MPD2    H710784   2.045   3.765  16.971  0.9619 -0.3174 -0.6039
  730TMC3    C110785   2.320   3.884  17.681  0.0037  0.0176 -0.2075
  730TMC3    C210786   2.400   3.795  17.624  0.1474 -0.2684  0.9175
  730TMC3    C310787   2.524   3.824  17.578 -0.0961 -0.6076 -0.0166
  730TMC3    C410788   2.363   4.013   0.009  0.4892  0.2859  0.0681
  730TMC3    C510789   2.494   4.043  17.654  0.0852 -0.2798  0.0161
  730TMC3    C610790   2.581   3.950  17.601  0.2215 -0.2665 -0.1159
  730TMC3     C10791   2.186   3.886  17.629  0.4572  0.1052  0.2575
  730TMC3     O10792   2.101   3.943   0.009  0.7923  0.5456 -0.4542
  730TMC3     H10793   2.370   3.691  17.633 -0.5899 -0.2555 -1.4302
  730TMC3    H110794   2.281   4.082   0.025  0.8604  1.4229 -3.1180
  730TMC3    H210795   2.673   3.991  17.561 -0.1958  1.3289  0.5499
  730TMC3    C710796   2.511   4.167  17.575  0.1617  0.4887  0.6844
  730TMC3    C810797   2.542   3.774  17.446 -0.0397 -0.4637 -0.6092
  730TMC3    O110798   2.549   4.146  17.460  0.6827  0.0965 -0.6884
  730TMC3    O210799   2.450   3.708  17.397  0.2332 -0.0680 -0.2014
  731MPD2     C10800   2.056   2.294  12.406  0.0408 -0.0956 -0.5518
  731MPD2    C110801   2.078   2.204  12.301 -0.9141 -0.3342 -0.1096
  731MPD2    C210802   1.998   2.090  12.293 -0.0899 -0.6103  0.2577
  731MPD2    C310803   1.902   2.059  12.389 -0.7469 -0.7961 -0.0387
  731MPD2    C410804   1.890   2.146  12.503  0.1881  0.3293 -0.4705
  731MPD2    C510805   1.961   2.263  12.501 -0.0278  0.6826 -0.1225
  731MPD2     H10806   2.027   2.018  12.218  0.3566  0.5363 -0.6699
  731MPD2    H110807   1.820   2.125  12.583  1.7014  1.5575  1.1630
  731MPD2    H210808   2.127   2.374  12.423 -2.5367  1.7755  1.2950
  731MPD2    H310809   1.955   2.324  12.590 -1.2676 -0.9297  0.9009
  731MPD2     N10810   1.838   1.942  12.383  0.2852  0.4405  1.0451
  731MPD2    H510811   1.876   1.886  12.307 -0.8006  0.1551  0.7145
  731MPD2    N110812   2.165   2.224  12.194  0.6610 -0.3997  0.0489
  731MPD2    H710813   2.161   2.160  12.116 -1.8937  0.8622 -0.8565
  732TMC3    C110814   2.327   2.319  12.070  0.3099 -0.3034  0.4434
  732TMC3    C210815   2.255   2.292  11.965 -0.0795 -0.6189  0.2300
  732TMC3    C310816   2.320   2.246  11.848 -0.0262  0.6443  0.4970
  732TMC3    C410817   2.464   2.305  12.081 -0.3740 -0.5121 -0.2031
  732TMC3    C510818   2.531   2.260  11.968 -0.7918  0.1943 -0.0515
  732TMC3    C610819   2.462   2.227  11.853 -0.8773 -0.1735  0.2411
  732TMC3     C10820   2.263   2.317  12.195 -0.3314  0.3250  0.1745
  732TMC3     O10821   2.310   2.395  12.281 -0.3044  0.0608  0.1769
  732TMC3     H10822   2.148   2.310  11.962  0.2072  1.2166  1.1181
  732TMC3    H110823   2.517   2.326  12.173 -0.1676 -0.9813 -0.2131
  732TMC3    H210824   2.525   2.173  11.783 -0.7251 -1.1000  1.0903
  732TMC3    C710825   2.675   2.235  11.987 -0.1942  0.3763 -0.5230
  732TMC3    C810826   2.239   2.190  11.739  0.2141 -0.1694 -0.6876
  732TMC3    O110827   2.705   2.123  11.945 -0.1422  0.1999  0.0507
  732TMC3    O210828   2.296   2.136  11.644  0.8321 -0.3789 -0.2920
  733TMC3    C110829   3.229   0.706  12.606  0.1923 -0.6898 -0.0714
  733TMC3    C210830   3.316   0.613  12.643 -0.5899  0.8505 -0.1312
  733TMC3    C310831   3.415   0.592  12.555  0.4678 -0.3535  0.7071
  733TMC3    C410832   3.227   0.767  12.482 -0.1614  0.4647 -0.3170
  733TMC3    C510833   3.316   0.724  12.388 -0.2777  0.7833  0.1691
  733TMC3    C610834   3.408   0.633  12.425  0.3835 -0.7934  0.4954
  733TMC3     C10835   3.120   0.726  12.692 -0.1168 -0.1165  0.3250
  733TMC3     O10836   3.047   0.822  12.670 -0.4471  0.0924  0.4276
  733TMC3     H10837   3.336   0.574  12.742  1.2869  0.0524 -0.8207
  733TMC3    H110838   3.160   0.846  12.452  1.5365  1.4784 -1.4861
  733TMC3    H210839   3.488   0.602  12.359  1.4777 -0.0310  1.4457
  733TMC3    C710840   3.367   0.827  12.305 -0.0485 -0.3240 -0.0026
  733TMC3    C810841   3.549   0.623  12.605  0.3383 -0.5908 -0.5439
  733TMC3    O110842   3.291   0.882  12.225 -0.4733  0.3689 -0.0524
  733TMC3    O210843   3.616   0.695  12.529 -0.5567 -0.5721 -0.2484
  734MPD2     C10844   4.557   2.652  12.012  0.1581 -0.4010 -0.5738
  734MPD2    C110845   4.526   2.530  11.964 -0.0637 -0.2960 -0.6922
  734MPD2    C210846   4.523   2.512  11.829 -0.0620  0.1184  0.2476
  734MPD2    C310847   4.565   2.611  11.739  0.4468  0.0100 -0.7275
  734MPD2    C410848   4.601   2.733  11.789 -0.1885 -0.4894  0.3587
  734MPD2    C510849   4.596   2.750  11.928  0.0114  0.0161  0.6479
  734MPD2     H10850   4.493   2.417  11.787  0.3540  0.3406 -0.5548
  734MPD2    H110851   4.657   2.807  11.733 -1.5153  1.4025  1.5346
  734MPD2    H210852   4.565   2.674  12.118  0.0066  2.1208 -1.0893
  734MPD2    H310853   4.641   2.840  11.970 -2.9738  1.4188  0.8726
  734MPD2     N10854   4.570   2.578  11.601  0.3858  0.0065 -0.1137
  734MPD2    H510855   4.560   2.482  11.570 -0.3545  0.0477 -0.0001
  734MPD2    N110856   4.525   2.426  12.056  0.2409 -0.4591 -0.0936
  734MPD2    H710857   4.526   2.449  12.155  1.1897 -1.7625  0.1972
  735TMC3    C110858   4.573   2.202  12.112 -0.3546  0.3686 -0.1365
  735TMC3    C210859   4.574   2.076  12.073 -0.7495  0.2469 -0.2957
  735TMC3    C310860   4.691   2.002  12.100  0.2435  0.2521 -0.1906
  735TMC3    C410861   4.661   2.241  12.214  0.2053  0.2547  0.3610
  735TMC3    C510862   0.048   2.163  12.243 -0.1297 -0.3760 -0.0513
  735TMC3    C610863   0.069   2.041  12.186 -0.4681  0.5866 -0.0722
  735TMC3     C10864   4.507   2.291  12.023  0.1272 -0.0510  0.1768
  735TMC3     O10865   4.455   2.248  11.921 -0.7781  0.0920  0.3587
  735TMC3     H10866   4.503   2.050  11.994 -1.8370 -1.0733  1.1085
  735TMC3    H110867   4.663   2.344  12.248 -4.2148 -0.4055  2.5844
  735TMC3    H210868   0.167   1.994  12.181 -1.2912 -1.4315  2.6976
  735TMC3    C710869   0.174   2.238  12.238 -1.0753  0.0113  0.0294
  735TMC3    C810870   0.020   1.943  11.981  0.3532 -0.2341  0.7062
  735TMC3    O110871   0.167   2.341  12.176 -0.4716 -0.1492 -0.1689
  735TMC3    O210872   0.098   1.844  11.992  0.5703  0.2323 -0.1881
  736MPD2     C10873   0.512   2.179  12.380  0.4764  0.1831 -0.8105
  736MPD2    C110874   0.420   2.217  12.282 -0.3395 -0.4509 -0.2857
  736MPD2    C210875   0.474   2.279  12.167  0.3678 -0.3341 -0.4439
  736MPD2    C310876   0.612   2.288  12.138 -0.3281 -0.3650  0.5407
  736MPD2    C410877   0.703   2.262  12.244  0.5154 -0.2994  0.1636
  736MPD2    C510878   0.645   2.221  12.363 -0.1368  0.3759  0.4746
  736MPD2     H10879   0.404   2.315  12.092  2.1153 -2.3572 -3.0350
  736MPD2    H110880   0.808   2.282  12.228  0.5953 -0.3345  0.6316
  736MPD2    H210881   0.481   2.123  12.468  0.4242  0.8346 -0.4049
  736MPD2    H310882   0.711   2.204  12.448  2.2155  0.2013 -1.3689
  736MPD2     N10883   0.659   2.318  12.010 -0.9610 -0.7151 -0.0214
  736MPD2    H510884   0.758   2.303  11.995 -0.8990  1.1694 -1.4776
  736MPD2    N110885   0.287   2.179  12.296 -0.2056 -0.3092 -0.3224
  736MPD2    H710886   0.262   2.113  12.369 -0.3821 -0.0776 -0.1725
  737TMC3    C110887   0.637   2.357  11.779 -0.0455 -0.2106  0.1017
  737TMC3    C210888   0.625   2.447  11.684 -0.2169  0.1928 -0.2360
  737TMC3    C310889   0.687   2.427  11.558  0.6268 -0.1859  0.5701
  737TMC3    C410890   0.707   2.239  11.753 -0.2995  0.3072 -0.7519
  737TMC3    C510891   0.768   2.221  11.636  0.5819 -0.7087 -0.4306
  737TMC3    C610892   0.762   2.319  11.528  0.2252  0.2969  0.8548
  737TMC3     C10893   0.580   2.376  11.910 -0.0026  0.3951 -0.4145
  737TMC3     O10894   0.483   2.450  11.916 -0.4458  0.1257  0.4186
  737TMC3     H10895   0.567   2.536  11.705 -1.4058 -0.4292 -0.9034
  737TMC3    H110896   0.695   2.156  11.820 -1.3476  0.1909 -1.0819
  737TMC3    H210897   0.819   2.310  11.437  0.2667 -1.7091  1.0750
  737TMC3    C710898   0.864   2.108  11.645 -0.9008 -0.1284 -0.4294
  737TMC3    C810899   0.696   2.552  11.482  0.3373  0.0648  0.1210
  737TMC3    O110900   0.903   2.074  11.755  0.0574 -0.0439 -0.7992
  737TMC3    O210901   0.700   2.655  11.551 -0.3946 -0.5408  0.1582
  738MPD2     C10902   1.709   1.015  15.411  0.2822  0.8594 -0.0852
  738MPD2    C110903   1.662   1.026  15.288 -0.7138 -0.0185 -0.2420
  738MPD2    C210904   1.742   1.055  15.186  0.4288 -0.3841 -0.0563
  738MPD2    C310905   1.878   1.067  15.206  1.0231 -0.4816 -0.0542
  738MPD2    C410906   1.931   1.055  15.330  0.6373 -0.5000 -0.4698
  738MPD2    C510907   1.842   1.028  15.430  0.2764  0.0166  0.1607
  738MPD2     H10908   1.692   1.061  15.090  0.5540 -3.2390 -0.2886
  738MPD2    H110909   2.037   1.059  15.352  0.4365 -2.2535  0.8106
  738MPD2    H210910   1.648   1.009  15.501 -0.7197  0.9617 -0.7601
  738MPD2    H310911   1.880   1.025  15.532 -2.8813  0.7915  1.3634
  738MPD2     N10912   1.972   1.099  15.104 -0.5182  0.0960  0.1182
  738MPD2    H510913   2.067   1.119  15.132  0.5255 -0.3644 -3.1383
  738MPD2    N110914   1.526   1.020  15.254 -0.1915 -0.1411 -0.2266
  738MPD2    H710915   1.511   1.042  15.156  1.2216  0.4282 -0.3114
  739TMC3    C110916   2.038   1.176  14.890  0.0138  0.4038 -0.3254
  739TMC3    C210917   1.994   1.232  14.775  0.5221 -0.8163 -0.3565
  739TMC3    C310918   2.054   1.349  14.732 -0.2314  0.4803  0.2812
  739TMC3    C410919   2.132   1.244  14.961 -0.5378  0.0989  0.8243
  739TMC3    C510920   2.191   1.357  14.909 -0.3118 -0.3843  0.3451
  739TMC3    C610921   2.158   1.410  14.788 -0.5730 -0.4272  0.5368
  739TMC3     C10922   1.939   1.109  14.968  1.0559 -0.5055 -0.3458
  739TMC3     O10923   1.832   1.087  14.913 -0.2953  0.5573 -0.4076
  739TMC3     H10924   1.907   1.187  14.729  1.8064 -1.8829 -1.7614
  739TMC3    H110925   2.170   1.199  15.052  0.1356 -1.9332 -0.4919
  739TMC3    H210926   2.177   1.515  14.771  0.1959 -0.8244 -1.0609
  739TMC3    C710927   2.298   1.418  14.985  0.6075  0.4037  0.3423
  739TMC3    C810928   2.000   1.406  14.606  0.6012  0.1204 -0.3171
  739TMC3    O110929   2.291   1.412  15.108 -0.0473 -0.6275  0.1083
  739TMC3    O210930   1.887   1.372  14.575  0.1424  0.0056 -0.0148
  740TMC3    C110931   2.193   2.698  14.436 -0.5074  0.3256 -0.7251
  740TMC3    C210932   2.247   2.679  14.563 -0.0806  0.6170  0.8034
  740TMC3    C310933   2.370   2.632  14.568  0.0666 -0.0123  0.0786
  740TMC3    C410934   2.263   2.694  14.318  0.6112  0.4469 -0.4207
  740TMC3    C510935   2.396   2.661  14.333 -0.9419  0.9406 -0.0848
  740TMC3    C610936   2.453   2.646  14.455 -0.3888  1.0388 -0.8296
  740TMC3     C10937   2.052   2.730  14.427  0.0516  0.2368 -0.1089
  740TMC3     O10938   2.015   2.761  14.314 -0.0613 -0.4419  0.0124
  740TMC3     H10939   2.198   2.702  14.657  1.5594  3.3041  1.0071
  740TMC3    H110940   2.218   2.706  14.219 -0.2562 -1.1579 -0.2316
  740TMC3    H210941   2.559   2.625  14.449 -0.8776 -1.6407 -0.0923
  740TMC3    C710942   2.473   2.599  14.227 -0.2188  0.2316  0.2020
  740TMC3    C810943   2.434   2.604  14.697  0.3378 -0.7150  0.0833
  740TMC3    O110944   2.545   2.502  14.258  0.5227 -0.0643 -0.1986
  740TMC3    O210945   2.555   2.602  14.709  0.2673  0.5399  0.0564
  741TMC3    C110946   1.847   1.847  14.464  0.3948  0.2204 -0.0411
  741TMC3    C210947   1.725   1.807  14.422 -0.2245 -0.4554  0.2018
  741TMC3    C310948   1.664   1.720  14.507  0.5195  0.0073  0.0613
  741TMC3    C410949   1.904   1.807  14.583  0.6631  0.3302  0.5315
  741TMC3    C510950   1.840   1.712  14.661  0.6294 -0.2367  0.6181
  741TMC3    C610951   1.722   1.668  14.623 -0.6062  0.3419 -0.3961
  741TMC3     C10952   1.917   1.948  14.388  0.0147  0.3136  0.7777
  741TMC3     O10953   2.038   1.962  14.414  0.4572 -0.0528  0.0594
  741TMC3     H10954   1.668   1.838  14.335 -0.2436  1.7139  0.9754
  741TMC3    H110955   1.996   1.852  14.620  1.1209 -1.0262  1.0839
  741TMC3    H210956   1.681   1.592  14.689 -1.6219  2.2038  1.1304
  741TMC3    C710957   1.882   1.692  14.793 -0.3407 -0.0558  0.3115
  741TMC3    C810958   1.524   1.692  14.469  0.3859  0.1492 -0.3139
  741TMC3    O110959   1.877   1.581  14.844 -0.2644  0.4980  0.1261
  741TMC3    O210960   1.472   1.769  14.389  1.0241  0.0064 -0.7249
  742TMC3    C110961   1.130   0.253  15.315 -0.7617  0.2197  0.2131
  742TMC3    C210962   1.102   0.260  15.174  0.7840 -0.3158 -0.1511
  742TMC3    C310963   1.211   0.258  15.091 -0.0978  0.3196 -0.4951
  742TMC3    C410964   1.260   0.265  15.357 -0.1692 -0.3538  0.4807
  742TMC3    C510965   1.364   0.269  15.267 -0.1274  0.0484  0.2503
  742TMC3    C610966   1.336   0.264  15.135  0.4320  0.6810  0.1946
  742TMC3     C10967   1.019   0.283  15.404 -0.2062 -0.1240 -0.3436
  742TMC3     O10968   0.919   0.345  15.364  0.4782 -0.4132  0.0353
  742TMC3     H10969   1.004   0.233  15.138  1.1684  0.2221 -1.5907
  742TMC3    H110970   1.285   0.263  15.463  0.3682 -1.9207  0.3299
  742TMC3    H210971   1.415   0.270  15.060 -0.6311 -1.5645 -1.0894
  742TMC3    C710972   1.502   0.253  15.302 -0.6218  0.1827 -0.1357
  742TMC3    C810973   1.190   0.232  14.956 -0.4370 -0.3957  0.1088
  742TMC3    O110974   1.587   0.250  15.216 -0.1556 -0.1979  0.1867
  742TMC3    O210975   1.278   0.177  14.895 -0.6202  0.0191  0.3218
  743MPD2     C10976   0.534   1.844   1.805 -0.3871 -0.1480 -0.6238
  743MPD2    C110977   0.557   1.759   1.692  0.5518 -0.5994  0.1306
  743MPD2    C210978   0.688   1.719   1.659 -0.4758  0.7588  0.6023
  743MPD2    C310979   0.788   1.749   1.744  0.0064 -0.0385  0.5435
  743MPD2    C410980   0.768   1.842   1.848  0.1610  0.3310  0.0802
  743MPD2    C510981   0.643   1.888   1.879  0.0478  0.0713  0.3544
  743MPD2     H10982   0.712   1.668   1.566 -0.4648  2.9928 -0.6346
  743MPD2    H110983   0.852   1.868   1.911 -0.1868  1.6304  0.0098
  743MPD2    H210984   0.433   1.877   1.823 -0.2547  0.0500 -0.2409
  743MPD2    H310985   0.629   1.958   1.961 -0.4424 -0.9817  1.1745
  743MPD2     N10986   0.915   1.696   1.717  0.1448  0.4466 -0.0925
  743MPD2    H510987   0.921   1.654   1.625 -0.0130  1.3903 -0.5405
  743MPD2    N110988   0.445   1.735   1.615  0.2889 -0.8322  0.0901
  743MPD2    H710989   0.363   1.792   1.636  0.4890 -1.1500  1.6970
  744TMC3    C110990   0.326   1.652   1.417  0.3206  0.1311  0.1783
  744TMC3    C210991   0.210   1.708   1.460 -0.1318  0.2873  0.4022
  744TMC3    C310992   0.098   1.714   1.378 -0.7359  0.4363  0.8474
  744TMC3    C410993   0.333   1.594   1.294  0.4569  0.7695 -0.6447
  744TMC3    C510994   0.220   1.598   1.213  0.1194 -0.6605 -0.3747
  744TMC3    C610995   0.107   1.653   1.257 -0.7723  0.5450 -0.4081
  744TMC3     C10996   0.447   1.651   1.503  0.0459 -0.3876  0.1951
  744TMC3     O10997   0.530   1.569   1.468  0.3142 -0.6697 -0.2244
  744TMC3     H10998   0.200   1.735   1.565 -1.2610  0.1711  0.3259
  744TMC3    H110999   0.430   1.564   1.255 -0.3786 -1.4236 -0.9962
  744TMC3    H211000   0.029   1.643   1.182 -0.6420  1.4823 -0.6689
  744TMC3    C711001   0.229   1.594   1.068  0.0115 -0.0256  0.0864
  744TMC3    C811002   4.693   1.778   1.419  1.3818  0.3718 -0.2670
  744TMC3    O111003   0.169   1.680   1.004 -0.0911 -0.4047 -0.2403
  744TMC3    O211004   4.596   1.751   1.353  0.0658 -0.1133 -0.2486
  745TMC3    C111005   1.973   0.232  13.749  0.3211  0.3212  0.3922
  745TMC3    C211006   1.872   0.170  13.815  0.2505  0.4020  0.5466
  745TMC3    C311007   1.745   0.225  13.802 -0.4841 -0.4414  0.5106
  745TMC3    C411008   1.937   0.331  13.658  0.1452  0.6042 -0.0079
  745TMC3    C511009   1.812   0.376  13.638 -0.3760 -0.1857  0.6041
  745TMC3    C611010   1.713   0.330  13.717 -0.1738  0.8242  0.0099
  745TMC3     C11011   2.081   0.275  13.843  0.3494  0.4640  1.0983
  745TMC3     O11012   2.150   0.185  13.885  0.3734 -0.0278  0.6943
  745TMC3     H11013   1.878   0.082  13.879 -0.9027  1.4423  2.0888
  745TMC3    H111014   2.012   0.362  13.586  2.2469  0.2280  2.0165
  745TMC3    H211015   1.617   0.378  13.706  0.1419  1.4644  0.0475
  745TMC3    C711016   1.794   0.517  13.598  0.2579  0.5866 -0.0631
  745TMC3    C811017   1.670   0.237  13.924  0.5938  0.4463 -0.6980
  745TMC3    O111018   1.723   0.590  13.670  0.0776  0.6035  0.5812
  745TMC3    O211019   1.556   0.282  13.923 -0.1494  0.0105 -0.2799
  746TMC3    C111020   4.157   1.823  11.111  0.3971  0.2005  0.4135
  746TMC3    C211021   4.243   1.800  11.001 -0.2310  0.0433 -0.8335
  746TMC3    C311022   4.234   1.671  10.948  0.2355 -0.2341 -0.0754
  746TMC3    C411023   4.078   1.721  11.168 -0.1430  0.0503 -0.2509
  746TMC3    C511024   4.112   1.592  11.133  0.7241  0.1567  0.1335
  746TMC3    C611025   4.179   1.565  11.021  0.5531  0.3061  0.0689
  746TMC3     C11026   4.107   1.959  11.136  0.1906  0.0665  0.4080
  746TMC3     O11027   4.007   1.970  11.207 -0.4346  0.3881  0.5070
  746TMC3     H11028   4.300   1.877  10.951  1.2958 -0.9741 -0.6732
  746TMC3    H111029   4.021   1.749  11.256  2.3038 -0.5909  1.5348
  746TMC3    H211030   4.172   1.464  10.982  0.5700  0.6909 -0.9253
  746TMC3    C711031   4.027   1.487  11.180 -0.2871 -0.5109  0.0045
  746TMC3    C811032   4.264   1.647  10.809  0.1794 -0.0422  0.1857
  746TMC3    O111033   4.073   1.374  11.175 -0.1869 -0.0297 -0.0601
  746TMC3    O211034   4.366   1.702  10.763  0.2608 -0.4889  0.2051
  747TMC3    C111035   1.130   1.832  10.716  0.5490  0.6297 -0.5120
  747TMC3    C211036   1.073   1.864  10.839 -0.0740 -0.3897  0.8141
  747TMC3    C311037   1.158   1.876  10.943 -0.4600 -0.4066  0.4549
  747TMC3    C411038   1.266   1.809  10.697  0.0527 -0.5872  0.7118
  747TMC3    C511039   1.347   1.819  10.808  0.5810 -0.3854 -0.9524
  747TMC3    C611040   1.293   1.842  10.930  0.3828  0.4096  0.1131
  747TMC3     C11041   1.037   1.797  10.608  0.7767 -0.5700  0.4821
  747TMC3     O11042   0.918   1.823  10.631  0.0923  0.1860 -0.1705
  747TMC3     H11043   0.967   1.875  10.856 -0.0880  1.2572 -0.2967
  747TMC3    H111044   1.302   1.797  10.595  1.1019  0.7194  0.9361
  747TMC3    H211045   1.352   1.841  11.021 -0.4432 -1.7753  0.6130
  747TMC3    C711046   1.489   1.813  10.796 -0.5502 -0.1997 -0.1026
  747TMC3    C811047   1.102   1.917  11.068  0.6440  1.0234  0.9394
  747TMC3    O111048   1.545   1.732  10.719  0.1245 -0.0051 -0.4137
  747TMC3    O211049   1.013   2.001  11.062 -0.5562 -0.1430  0.3447
  748MPD2     C11050   2.849   2.358   1.213 -0.3318 -0.6169 -0.8954
  748MPD2    C111051   2.876   2.446   1.318 -0.1921 -0.8243 -0.4144
  748MPD2    C211052   2.996   2.507   1.311  0.3650  0.1543  0.1037
  748MPD2    C311053   3.075   2.504   1.196  0.1728 -0.5030  0.2776
  748MPD2    C411054   3.041   2.421   1.092 -0.0885  0.8739 -0.1400
  748MPD2    C511055   2.929   2.348   1.101 -0.5907  0.3413  0.2746
  748MPD2     H11056   3.026   2.553   1.404 -0.2780  0.2844  0.2514
  748MPD2    H111057   3.094   2.425   0.998  0.0917  0.2957 -0.0634
  748MPD2    H211058   2.761   2.295   1.205  0.5150 -2.1959  2.1351
  748MPD2    H311059   2.896   2.297   1.011  0.7564 -0.4076  0.2110
  748MPD2     N11060   3.196   2.578   1.196 -0.5201  0.3154 -0.6718
  748MPD2    H511061   3.205   2.646   1.270  2.1663  0.6184 -1.2716
  748MPD2    N111062   2.773   2.462   1.417  0.1059  0.6704 -0.1079
  748MPD2    H711063   2.693   2.399   1.408  0.4045  0.2497  0.1409
  749TMC3    C111064   3.423   2.629   1.146  0.1336 -1.2202 -0.0834
  749TMC3    C211065   3.458   2.642   1.275  0.5851  0.1134  0.1182
  749TMC3    C311066   3.580   2.698   1.304  0.1010  0.3000  0.2162
  749TMC3    C411067   3.505   2.665   1.038  0.1407  0.2375  0.3070
  749TMC3    C511068   3.624   2.718   1.073  0.7971 -0.8304  0.2123
  749TMC3    C611069   3.663   2.733   1.202 -0.2372 -0.2354  0.6234
  749TMC3     C11070   3.300   2.560   1.110 -0.4904 -0.2557 -0.3787
  749TMC3     O11071   3.305   2.498   1.007 -0.0484 -0.1547  0.2832
  749TMC3     H11072   3.398   2.603   1.356  2.0784  1.2691  1.7664
  749TMC3    H111073   3.469   2.647   0.937  0.2900 -0.1765  0.3301
  749TMC3    H211074   3.754   2.782   1.233  0.8286 -1.3026 -0.7880
  749TMC3    C711075   3.714   2.769   0.970 -0.6084  0.7192 -0.6959
  749TMC3    C811076   3.649   2.633   1.407 -0.2865 -0.6336 -0.2861
  749TMC3    O111077   3.812   2.841   1.002  0.1784 -0.1046 -0.0180
  749TMC3    O211078   3.614   2.661   1.520 -0.1396  0.1883  0.4824
  750MPD2     C11079   4.390   3.381  11.043  0.3041  0.5364 -0.6833
  750MPD2    C111080   4.265   3.329  11.060  0.0415 -0.5339 -0.3567
  750MPD2    C211081   4.236   3.198  11.011  0.1295  0.0383 -0.1113
  750MPD2    C311082   4.316   3.138  10.920  0.2639 -0.2854 -0.1473
  750MPD2    C411083   4.444   3.192  10.903 -0.0217  0.2352  0.6825
  750MPD2    C511084   4.482   3.310  10.974 -0.2043  0.2463 -0.1434
  750MPD2     H11085   4.137   3.160  11.031 -0.5238  1.6081 -0.3525
  750MPD2    H111086   4.523   3.142  10.850 -0.4304 -0.9752  1.2124
  750MPD2    H211087   4.423   3.464  11.105 -1.6300  1.1183 -0.4533
  750MPD2    H311088   4.583   3.348  10.971  0.2786 -1.0659 -0.5500
  750MPD2     N11089   4.266   3.014  10.867  0.2673 -0.1380  0.8324
  750MPD2    H511090   4.176   2.984  10.902  0.4942 -1.6181  0.1236
  750MPD2    N111091   4.173   3.411  11.129  0.0600  0.5432  0.5425
  750MPD2    H711092   4.207   3.499  11.165 -3.0708  1.2839  1.7058
  751TMC3    C111093   4.268   2.818  10.744  0.6835 -0.5187 -0.3479
  751TMC3    C211094   4.139   2.800  10.775 -0.0573 -0.4248  0.0700
  751TMC3    C311095   4.074   2.691  10.715  0.2926  0.2385  0.3270
  751TMC3    C411096   4.327   2.737  10.649  0.2287 -0.7649  0.2913
  751TMC3    C511097   4.260   2.636  10.584 -0.9046  0.3422  0.7431
  751TMC3    C611098   4.128   2.610  10.618  0.4710  0.1567  0.6726
  751TMC3     C11099   4.342   2.935  10.798  0.3358 -0.0370 -0.4110
  751TMC3     O11100   4.456   2.943  10.763  0.0212 -0.2350  0.2621
  751TMC3     H11101   4.088   2.862  10.848  1.9082 -1.4135  2.2953
  751TMC3    H111102   4.434   2.744  10.635  0.0935  2.6436  0.8612
  751TMC3    H211103   4.071   2.528  10.575  3.0895 -1.1073 -0.3938
  751TMC3    C711104   4.299   2.635  10.446 -0.2932  1.0420 -0.2101
  751TMC3    C811105   3.927   2.683  10.730  0.7902  0.8574  0.1238
  751TMC3    O111106   4.402   2.696  10.424  0.4319  0.5635  0.1508
  751TMC3    O211107   3.863   2.611  10.653  0.7766 -0.3996  0.1642
  752TMC3    C111108   2.462   3.204   0.043  0.0712 -0.0997 -0.1361
  752TMC3    C211109   2.492   3.107   0.138 -0.2657 -0.6193 -0.1142
  752TMC3    C311110   2.473   3.138   0.271  0.4969 -0.0454 -0.1078
  752TMC3    C411111   2.402   3.325   0.076  0.0110 -0.4326  0.0831
  752TMC3    C511112   2.403   3.359   0.212 -0.1344 -0.6638 -0.7397
  752TMC3    C611113   2.436   3.265   0.312 -0.0484  0.1182 -0.9287
  752TMC3     C11114   2.525   3.177  17.596  0.2365  0.4055 -0.8419
  752TMC3     O11115   2.599   3.075  17.596 -0.0306 -0.4121 -0.5228
  752TMC3     H11116   2.529   3.010   0.106 -0.0870  0.0150 -1.7805
  752TMC3    H111117   2.373   3.400   0.003  3.0556 -2.3890 -3.1006
  752TMC3    H211118   2.459   3.288   0.415  1.9430  1.4023 -1.6628
  752TMC3    C711119   2.359   3.493   0.242 -0.6073 -0.1628 -0.1306
  752TMC3    C811120   2.521   3.055   0.379 -0.2384  0.3153 -0.1173
  752TMC3    O111121   2.363   3.572   0.147 -0.4725 -0.1275 -0.4390
  752TMC3    O211122   2.551   3.109   0.484  0.0469 -0.4326  0.9693
  753TMC3    C111123   0.230   0.207  13.377 -0.4672  0.0622  1.3417
  753TMC3    C211124   0.285   0.190  13.496  0.4738 -0.3969 -0.1176
  753TMC3    C311125   0.226   0.101  13.582 -0.2920  0.0998 -0.0986
  753TMC3    C411126   0.124   0.131  13.335 -0.0269  0.8737 -0.2148
  753TMC3    C511127   0.089   0.026  13.415  1.1776  0.2336  0.7557
  753TMC3    C611128   0.131   0.014  13.542  0.2595 -1.0883  0.4278
  753TMC3     C11129   0.233   0.347  13.332  0.6331 -0.6231 -0.3303
  753TMC3     O11130   0.131   0.384  13.278 -0.2970 -0.2183  0.3421
  753TMC3     H11131   0.369   0.241  13.541 -0.0251 -1.0734  1.5888
  753TMC3    H111132   0.096   0.146  13.231 -1.0861 -1.8659 -0.3305
  753TMC3    H211133   0.086   4.659  13.605 -0.7182 -0.6066  0.3146
  753TMC3    C711134   0.004   4.644  13.359  0.4126  0.2553 -0.5312
  753TMC3    C811135   0.311   0.027  13.671  0.3079  0.2599 -0.0255
  753TMC3    O111136   4.636   4.600  13.429  0.3915  0.1029 -0.2759
  753TMC3    O211137   0.292   4.629  13.691  0.3154  0.2156 -0.8252
  754MPD2     C11138   4.512   3.429  13.081 -0.2293  0.0381  0.0188
  754MPD2    C111139   4.454   3.307  13.084 -0.7890 -0.1198  0.6076
  754MPD2    C211140   4.320   3.299  13.098  0.3376 -0.0496 -0.5130
  754MPD2    C311141   4.242   3.414  13.108  0.4890 -0.3018  0.1954
  754MPD2    C411142   4.297   3.531  13.106 -0.9185  0.5040 -0.0081
  754MPD2    C511143   4.431   3.540  13.075  0.3661  0.6543  0.2446
  754MPD2     H11144   4.264   3.209  13.074  0.1827  0.2605 -1.3188
  754MPD2    H111145   4.239   3.622  13.114  0.2707  1.3975 -1.6208
  754MPD2    H211146   4.619   3.432  13.061  0.1024 -0.4209  1.6912
  754MPD2    H311147   4.473   3.639  13.063 -1.0196  1.1767 -0.2908
  754MPD2     N11148   4.105   3.407  13.153 -0.5270 -0.0394 -0.3753
  754MPD2    H511149   4.052   3.492  13.170 -2.8742 -1.6141  0.2234
  754MPD2    N111150   4.540   3.199  13.070 -0.4788 -0.4865 -0.2982
  754MPD2    H711151   4.638   3.220  13.052 -0.7002  0.1057 -0.8373
  755MPD2     C11152   3.513   4.012  13.307  0.0542 -0.7780 -0.1291
  755MPD2    C111153   3.488   3.919  13.403  0.4239 -0.2663 -0.3855
  755MPD2    C211154   3.578   3.819  13.447  0.0800 -0.8460 -1.0396
  755MPD2    C311155   3.694   3.800  13.371  0.3174  0.4108 -0.0919
  755MPD2    C411156   3.709   3.881  13.260  0.5776  0.0528 -0.1919
  755MPD2    C511157   3.625   3.989  13.228 -0.5943  0.1875  0.1865
  755MPD2     H11158   3.540   3.757  13.528 -1.2222  0.5823 -0.5588
  755MPD2    H111159   3.790   3.873  13.188  0.6739  0.5393 -0.1425
  755MPD2    H211160   3.453   4.101  13.291  0.1650 -0.3819  1.5899
  755MPD2    H311161   3.637   4.045  13.136  1.3338  0.5691  0.6717
  755MPD2     N11162   3.769   3.679  13.380  0.0902  0.0353 -0.0465
  755MPD2    H511163   3.829   3.654  13.303  2.0800  4.0951  0.2008
  755MPD2    N111164   3.370   3.920  13.483 -0.1791  0.0274 -0.8480
  755MPD2    H711165   3.371   3.858  13.564 -1.0764  0.9769 -0.1217
  756MPD2     C11166   3.973   4.522   9.645  0.0735  0.5877 -0.1168
  756MPD2    C111167   3.932   4.496   9.773  0.7069  0.7527  0.1632
  756MPD2    C211168   3.834   4.398   9.788 -0.4405  0.9522  0.2025
  756MPD2    C311169   3.783   4.329   9.687  0.5166  0.1267  0.6017
  756MPD2    C411170   3.835   4.354   9.560  0.1986 -0.4459  0.5277
  756MPD2    C511171   3.932   4.447   9.540 -0.2829  0.0449 -0.2297
  756MPD2     H11172   3.812   4.363   9.888 -0.0189 -1.1344 -0.4357
  756MPD2    H111173   3.816   4.293   9.472  2.3519 -2.1681  1.2463
  756MPD2    H211174   4.041   4.604   9.625 -0.1830  0.5658 -1.0530
  756MPD2    H311175   3.973   4.468   9.442 -1.2666  2.0077 -0.2115
  756MPD2     N11176   3.701   4.224   9.730 -0.3292  0.4241  0.3470
  756MPD2    H511177   3.688   4.217   9.831 -3.5115 -0.9508 -0.1680
  756MPD2    N111178   3.962   4.568   9.889 -0.0610  0.1460  0.0630
  756MPD2    H711179   3.922   4.536   9.977 -0.8563  0.0230 -0.3482
  757MPD2     C11180   3.558   3.174   9.795 -0.4690 -0.0836  0.1632
  757MPD2    C111181   3.437   3.218   9.844 -0.4100 -0.1130 -0.0282
  757MPD2    C211182   3.410   3.351   9.855  0.6151 -0.2339  0.4748
  757MPD2    C311183   3.510   3.443   9.820 -0.2290 -0.3041 -0.5587
  757MPD2    C411184   3.640   3.388   9.787  0.0534 -0.5017 -0.6911
  757MPD2    C511185   3.669   3.258   9.789  0.3510  0.2469 -0.3501
  757MPD2     H11186   3.310   3.388   9.876 -0.0228 -1.2346 -0.8049
  757MPD2    H111187   3.724   3.452   9.764 -0.7284  1.0033  0.6415
  757MPD2    H211188   3.580   3.069   9.778 -1.7612 -0.0420 -1.7341
  757MPD2    H311189   3.764   3.220   9.754  1.0916  0.2946  1.6174
  757MPD2     N11190   3.479   3.579   9.802  0.1188  0.4821  0.6012
  757MPD2    H511191   3.385   3.610   9.824 -0.8197 -1.4123 -0.7551
  757MPD2    N111192   3.341   3.111   9.865 -0.1070  0.1380  0.0827
  757MPD2    H711193   3.363   3.017   9.835 -0.9577 -0.3503  0.9891
  758MPD2     C11194   3.475   2.971  15.885  0.7842  0.4058 -0.4561
  758MPD2    C111195   3.575   2.946  15.975  0.1212  0.2143 -1.0353
  758MPD2    C211196   3.580   3.022  16.096  0.0201  0.4837  0.3698
  758MPD2    C311197   3.469   3.096  16.136  0.1472  0.3911  0.6866
  758MPD2    C411198   3.373   3.124  16.038 -0.6427 -0.0355 -0.2675
  758MPD2    C511199   3.376   3.060  15.916  0.0945  0.1845 -0.8741
  758MPD2     H11200   3.664   3.006  16.162  0.9972 -1.0669 -1.2271
  758MPD2    H111201   3.292   3.193  16.056 -1.4499 -0.8645 -0.7078
  758MPD2    H211202   3.464   2.923  15.788 -0.5019 -0.5907  0.1793
  758MPD2    H311203   3.298   3.079  15.844  1.7370  0.9575 -2.4669
  758MPD2     N11204   3.467   3.171  16.256  0.2123 -0.1776 -0.0303
  758MPD2    H511205   3.396   3.243  16.263  1.0144  0.6478 -0.3349
  758MPD2    N111206   3.674   2.856  15.923  0.3185  1.0637 -0.0200
  758MPD2    H711207   3.645   2.811  15.837  0.7376 -1.2102  1.0348
  759MPD2     C11208   3.785   1.213   9.395 -0.0501  0.0928 -0.1727
  759MPD2    C111209   3.651   1.242   9.411  0.1090 -0.2072 -0.0154
  759MPD2    C211210   3.591   1.325   9.317  0.7919 -0.8243  0.3147
  759MPD2    C311211   3.671   1.387   9.222 -0.2841  0.2470 -0.0033
  759MPD2    C411212   3.808   1.364   9.217  0.4813 -0.4162  0.2055
  759MPD2    C511213   3.864   1.289   9.315 -0.6146  0.2909  0.4392
  759MPD2     H11214   3.485   1.348   9.319  0.5968 -1.5894 -1.4226
  759MPD2    H111215   3.876   1.414   9.148 -0.4665  1.4874  0.6531
  759MPD2    H211216   3.833   1.136   9.453 -2.9362 -2.0816 -0.6758
  759MPD2    H311217   3.968   1.265   9.297 -1.2075 -1.1546 -1.1219
  759MPD2     N11218   3.602   1.471   9.127 -0.1844 -0.4428 -0.3375
  759MPD2    H511219   3.503   1.483   9.147 -0.2722 -0.1912 -0.9467
  759MPD2    N111220   3.569   1.191   9.516 -0.1873 -0.2344  0.2222
  759MPD2    H711221   3.476   1.231   9.525  0.2787  0.9726 -0.3619
  760MPD2     C11222   2.413   3.583  11.658  0.2720  0.2076 -0.2089
  760MPD2    C111223   2.411   3.535  11.793 -1.2164 -0.3353 -0.6031
  760MPD2    C211224   2.453   3.404  11.826  0.2688 -0.0988  0.2216
  760MPD2    C311225   2.505   3.322  11.723 -0.2247 -0.3351 -0.3886
  760MPD2    C411226   2.500   3.369  11.594 -0.1967  0.2784  0.0623
  760MPD2    C511227   2.459   3.497  11.568 -0.5362 -0.2834 -0.2418
  760MPD2     H11228   2.458   3.374  11.930 -2.6176  0.9505  0.6662
  760MPD2    H111229   2.523   3.305  11.509  0.4531  0.7083 -0.0833
  760MPD2    H211230   2.389   3.683  11.624 -0.7832 -0.5644 -1.7236
  760MPD2    H311231   2.442   3.534  11.468  0.0642  0.2023 -0.1641
  760MPD2     N11232   2.557   3.194  11.743 -0.1623 -0.6410 -0.8651
  760MPD2    H511233   2.590   3.149  11.658 -1.2960  0.1172 -1.7092
  760MPD2    N111234   2.370   3.629  11.891 -0.2230  0.2410 -0.0353
  760MPD2    H711235   2.335   3.716  11.853  1.3104  0.7961 -0.1833
  761MPD2     C11236   3.520   2.679  11.023  0.1166  0.1483  0.7355
  761MPD2    C111237   3.543   2.603  10.916  0.3535  0.0670  0.0913
  761MPD2    C211238   3.662   2.628  10.856 -0.0054 -0.2667 -0.8974
  761MPD2    C311239   3.749   2.725  10.894 -0.7653  0.8797 -0.1220
  761MPD2    C411240   3.719   2.801  11.008 -0.7484  0.4245  0.1005
  761MPD2    C511241   3.604   2.771  11.078 -0.2828  0.5496 -0.1580
  761MPD2     H11242   3.688   2.556  10.780  0.5622 -0.0544 -0.9023
  761MPD2    H111243   3.783   2.874  11.055 -0.2124 -1.6314  2.5463
  761MPD2    H211244   3.433   2.667  11.086 -0.4763  0.2926 -0.0553
  761MPD2    H311245   3.575   2.823  11.168  0.2014 -0.3725  0.5272
  761MPD2     N11246   3.884   2.734  10.849  0.0113 -0.0321 -0.9887
  761MPD2    H511247   3.944   2.779  10.917 -0.6786  1.1234 -1.1430
  761MPD2    N111248   3.451   2.500  10.884 -0.7717 -0.6120 -0.4119
  761MPD2    H711249   3.366   2.505  10.939 -2.4856  0.4935 -3.1873
  762MPD2     C11250   3.405   1.614  10.875  0.3116  0.1516  0.0425
  762MPD2    C111251   3.399   1.700  10.770 -0.1780 -0.2292  0.0681
  762MPD2    C211252   3.433   1.654  10.644 -0.4016 -0.2435  0.1737
  762MPD2    C311253   3.471   1.523  10.617 -0.1644 -0.0157 -0.7694
  762MPD2    C411254   3.464   1.439  10.727 -0.5078 -0.2919  0.5625
  762MPD2    C511255   3.439   1.485  10.855 -0.3090 -0.0474 -0.7663
  762MPD2     H11256   3.449   1.718  10.558  0.7194 -2.2000 -1.0864
  762MPD2    H111257   3.491   1.335  10.716  0.0765 -0.0754 -0.0427
  762MPD2    H211258   3.400   1.650  10.977 -1.5273  2.6326 -0.9252
  762MPD2    H311259   3.452   1.429  10.947  3.4249  0.5603 -0.9526
  762MPD2     N11260   3.522   1.475  10.488  0.2659  0.0054 -0.0992
  762MPD2    H511261   3.559   1.381  10.491  0.0935 -0.0474  0.4605
  762MPD2    N111262   3.362   1.835  10.791 -0.0838 -0.6719 -0.7124
  762MPD2    H711263   3.313   1.859  10.876 -0.5321 -1.2208 -0.8132
  763MPD2     C11264   1.471   3.242  16.220  0.1215 -0.3346  0.1568
  763MPD2    C111265   1.350   3.295  16.185  0.3617  0.4900 -0.8419
  763MPD2    C211266   1.318   3.414  16.237 -0.0559 -0.4031 -0.3758
  763MPD2    C311267   1.409   3.490  16.312  0.4574  0.2101  0.1404
  763MPD2    C411268   1.528   3.430  16.352 -0.0413  0.1415  0.4459
  763MPD2    C511269   1.558   3.310  16.295  0.9638  0.3902 -0.5210
  763MPD2     H11270   1.225   3.462  16.212  0.3697  0.4168 -0.3814
  763MPD2    H111271   1.597   3.483  16.416 -1.8529  2.1827  0.7184
  763MPD2    H211272   1.516   3.149  16.186  1.2995  0.0913  0.5478
  763MPD2    H311273   1.651   3.264  16.328  0.0510 -1.8703 -1.0842
  763MPD2     N11274   1.371   3.621  16.360 -0.2721  0.5122 -0.5214
  763MPD2    H511275   1.423   3.662  16.436  1.4963  2.6825 -2.8976
  763MPD2    N111276   1.262   3.232  16.092 -0.9695  0.7042  0.1017
  763MPD2    H711277   1.179   3.282  16.065 -1.8395 -0.9442 -0.2959
  764MPD2     C11278   4.068   0.362  17.488 -0.9610  0.3994  0.0676
  764MPD2    C111279   4.033   0.268  17.396 -0.0988 -0.2556 -0.0007
  764MPD2    C211280   4.001   0.140  17.443  0.3060  0.2384  0.1404
  764MPD2    C311281   4.006   0.099  17.576 -0.7204 -0.0333  0.5667
  764MPD2    C411282   4.046   0.197  17.664  0.5723 -0.2222  0.2791
  764MPD2    C511283   4.071   0.325  17.619 -0.5684 -0.3070  0.1185
  764MPD2     H11284   3.961   0.065  17.376 -1.4274  2.4044 -1.2448
  764MPD2    H111285   4.064   0.177   0.085 -0.7744  0.2959  0.6113
  764MPD2    H211286   4.098   0.464  17.466  0.7691 -0.1402 -0.1308
  764MPD2    H311287   4.098   0.397   0.010 -1.4345  1.0137 -0.8334
  764MPD2     N11288   3.975   4.680  17.597 -0.0634  0.2724 -0.2847
  764MPD2    H511289   3.942   4.629  17.515 -0.2365  0.5414 -0.3830
  764MPD2    N111290   4.010   0.300  17.259  0.3276  0.8801 -0.5195
  764MPD2    H711291   3.969   0.233  17.196 -1.8420  2.4727 -0.7945
  765MPD2     C11292   3.407   2.213  15.282  0.2388 -0.5070  0.1312
  765MPD2    C111293   3.428   2.319  15.362  0.6856  0.7087 -0.2268
  765MPD2    C211294   3.557   2.373  15.374  0.6653  0.3001  0.0020
  765MPD2    C311295   3.655   2.308  15.303  0.4412  0.0168 -0.1056
  765MPD2    C411296   3.631   2.197  15.227 -0.2970  0.1521  0.4781
  765MPD2    C511297   3.506   2.153  15.208  0.1249  0.6205  0.8729
  765MPD2     H11298   3.580   2.464  15.429  0.2121  0.6720 -0.4246
  765MPD2    H111299   3.712   2.157  15.167 -0.6024 -1.8746  1.4340
  765MPD2    H211300   3.304   2.180  15.278 -0.1788  0.8431 -0.3416
  765MPD2    H311301   3.479   2.065  15.150 -1.2740  1.2484  0.5557
  765MPD2     N11302   3.779   2.361  15.312  0.6934 -0.0093  0.3754
  765MPD2    H511303   3.784   2.458  15.343  1.7685 -0.4144  1.5060
  765MPD2    N111304   3.320   2.384  15.425 -0.2286  0.1044  0.2295
  765MPD2    H711305   3.227   2.351  15.400  0.6441 -0.7669 -1.8237
  766MPD2     C11306   2.900   2.607  14.981 -0.2162  0.5149 -0.0403
  766MPD2    C111307   3.019   2.636  15.038 -0.2295 -0.2082  0.3725
  766MPD2    C211308   3.125   2.662  14.960 -0.3781  0.6930  0.0647
  766MPD2    C311309   3.112   2.643  14.823  0.4047  0.9525  0.6432
  766MPD2    C411310   2.986   2.618  14.763 -0.7885  0.8682  0.0113
  766MPD2    C511311   2.881   2.605  14.845  0.3868 -0.1389 -0.2948
  766MPD2     H11312   3.216   2.668  15.019 -0.1059 -2.3753  0.0027
  766MPD2    H111313   2.968   2.638  14.658 -0.7513 -0.6533 -0.2935
  766MPD2    H211314   2.808   2.580  15.032 -0.7903 -1.6520 -2.2258
  766MPD2    H311315   2.784   2.594  14.798  0.2095  1.1364 -0.2429
  766MPD2     N11316   3.219   2.667  14.743  0.1772  0.0751  0.8868
  766MPD2    H511317   3.211   2.685  14.644 -2.8206 -0.6473  0.9958
  766MPD2    N111318   3.040   2.644  15.175 -0.0763 -0.4805  0.1426
  766MPD2    H711319   3.133   2.646  15.216 -0.1804 -0.3783  0.3683
  767MPD2     C11320   2.827   2.913  14.731 -0.0141  0.4677  0.8164
  767MPD2    C111321   2.950   2.973  14.720 -0.0873  0.6031  0.6470
  767MPD2    C211322   3.012   2.976  14.598  0.0782 -0.8039 -0.5744
  767MPD2    C311323   2.958   2.927  14.487 -0.0760 -0.2879 -0.6255
  767MPD2    C411324   2.833   2.862  14.492  0.1595  0.1152  0.1687
  767MPD2    C511325   2.771   2.861  14.617 -0.1743  0.1525 -0.3791
  767MPD2     H11326   3.111   3.018  14.589  0.0087 -0.9677 -2.0361
  767MPD2    H111327   2.781   2.817  14.408  0.2669  1.9270 -0.8748
  767MPD2    H211328   2.776   2.922  14.826 -0.6111 -0.0160  0.5429
  767MPD2    H311329   2.672   2.819  14.631  0.0347  0.2765  1.4883
  767MPD2     N11330   3.031   2.923  14.369  0.6796 -0.5183 -0.1482
  767MPD2    H511331   3.121   2.968  14.374 -0.1461  1.0566  0.4510
  767MPD2    N111332   3.007   3.034  14.836 -0.2656 -0.3458  0.0515
  767MPD2    H711333   2.971   2.999  14.924 -0.9150 -1.4117 -0.6380
  768MPD2     C11334   4.095   1.109  10.734  0.6768  0.3686  0.0015
  768MPD2    C111335   4.079   1.073  10.865 -0.0919 -0.1936 -0.2726
  768MPD2    C211336   4.166   1.134  10.958  0.3929 -0.2108 -0.3118
  768MPD2    C311337   4.271   1.219  10.918 -0.3102  0.7218  0.6548
  768MPD2    C411338   4.284   1.245  10.785  0.0333 -0.2619  0.1723
  768MPD2    C511339   4.198   1.188  10.694 -0.3209  0.2626  0.1882
  768MPD2     H11340   4.151   1.116  11.063 -0.9055  2.1277 -0.0804
  768MPD2    H111341   4.372   1.293  10.745 -0.4363 -0.9990 -1.7788
  768MPD2    H211342   4.033   1.079  10.651  0.2353 -0.0855  0.4958
  768MPD2    H311343   4.208   1.210  10.588  0.9296  1.9425  0.6559
  768MPD2     N11344   4.369   1.272  11.006 -0.4156 -0.3524 -0.0121
  768MPD2    H511345   4.435   1.342  10.973  0.9864 -2.9600 -2.6532
  768MPD2    N111346   3.968   1.003  10.911  0.3480 -0.4530 -0.1295
  768MPD2    H711347   3.948   0.998  11.010 -0.8778 -2.7921 -0.4774
  769MPD2     C11348   0.198   3.877  15.399 -0.2397 -0.0549 -0.4288
  769MPD2    C111349   0.149   3.987  15.335 -0.3887 -0.5419 -0.1850
  769MPD2    C211350   0.138   4.102  15.413  0.9539  0.4550  0.4095
  769MPD2    C311351   0.178   4.097  15.552  0.2600  0.0290 -0.2053
  769MPD2    C411352   0.217   3.979  15.613 -1.4151  0.2832 -0.5616
  769MPD2    C511353   0.225   3.869  15.536  0.0715 -0.1043 -0.3128
  769MPD2     H11354   0.116   4.191  15.355  2.0356  0.7966  0.5129
  769MPD2    H111355   0.242   3.981  15.718  1.9111 -2.1499 -1.3149
  769MPD2    H211356   0.233   3.787  15.349  0.4107  0.0958 -0.2499
  769MPD2    H311357   0.270   3.779  15.578  2.1176  0.8124 -0.5131
  769MPD2     N11358   0.188   4.207  15.644 -0.1009  0.2328  0.1286
  769MPD2    H511359   0.195   4.193  15.745  1.7650  2.2608  0.2770
  769MPD2    N111360   0.128   3.980  15.192 -0.0199  0.4702 -0.4091
  769MPD2    H711361   0.161   3.895  15.148 -1.2509 -0.4785  0.5323
  770MPD2     C11362   4.296   3.520  14.554 -0.0270 -0.7395  0.4280
  770MPD2    C111363   4.360   3.488  14.670  0.1782 -0.8878 -0.1087
  770MPD2    C211364   4.482   3.545  14.697 -0.6050 -0.2681  0.2273
  770MPD2    C311365   4.534   3.649  14.618  0.3645  0.2476 -0.1106
  770MPD2    C411366   4.468   3.674  14.497  0.1233 -0.4805 -0.4823
  770MPD2    C511367   4.354   3.604  14.467 -0.4468 -0.7642 -0.3707
  770MPD2     H11368   4.529   3.509  14.788  0.5900  2.0317  0.5414
  770MPD2    H111369   4.494   3.757  14.433 -1.5915 -0.3189 -0.9701
  770MPD2    H211370   4.208   3.467  14.521  0.2287 -0.3656 -0.8428
  770MPD2    H311371   4.307   3.611  14.369  1.0802 -1.5973 -1.1630
  770MPD2     N11372   4.638   3.732  14.660  0.1635  0.3937 -0.1169
  770MPD2    H511373   4.669   3.796  14.588 -0.4232  0.0312 -0.6812
  770MPD2    N111374   4.307   3.400  14.767 -0.4686  0.4041 -0.3225
  770MPD2    H711375   4.366   3.390  14.849 -1.0826 -1.4907 -0.0970
  771MPD2     C11376   0.995   2.008  13.526  0.1405 -1.1663  0.5823
  771MPD2    C111377   0.887   2.076  13.564 -0.0735 -0.0993 -0.3447
  771MPD2    C211378   0.766   2.017  13.573  0.2853  0.8290 -0.6279
  771MPD2    C311379   0.755   1.886  13.538 -0.1231  0.4898  0.0792
  771MPD2    C411380   0.866   1.812  13.495  0.4365 -0.0832 -0.4893
  771MPD2    C511381   0.979   1.886  13.479 -0.6101  0.1061  0.4199
  771MPD2     H11382   0.674   2.067  13.600 -0.4037 -0.4329 -0.6028
  771MPD2    H111383   0.869   1.710  13.461 -0.4161 -0.2127 -0.1753
  771MPD2    H211384   1.093   2.050  13.511  0.5266 -2.0027  0.7378
  771MPD2    H311385   1.070   1.845  13.437 -0.9264  0.2228 -0.3895
  771MPD2     N11386   0.625   1.824  13.543 -1.2425 -0.0010 -0.7501
  771MPD2    H511387   0.549   1.883  13.576 -1.4852 -0.4690 -0.4754
  771MPD2    N111388   0.905   2.206  13.610  0.0466  0.9732  0.1139
  771MPD2    H711389   0.819   2.259  13.620 -0.2590  0.6106 -0.5980
  772MPD2     C11390   0.674   2.749  14.040  0.6320 -0.9286  0.1511
  772MPD2    C111391   0.628   2.706  13.913  0.1112 -0.2291 -0.4942
  772MPD2    C211392   0.492   2.687  13.904 -0.2688  0.3863 -0.5405
  772MPD2    C311393   0.398   2.718  14.000  0.5205 -0.0652 -0.3103
  772MPD2    C411394   0.447   2.774  14.116 -0.3784  0.0345  0.6559
  772MPD2    C511395   0.583   2.790  14.135  0.3691 -0.3789 -0.4883
  772MPD2     H11396   0.442   2.661  13.811 -1.3535 -1.5765  0.5867
  772MPD2    H111397   0.373   2.801  14.189 -1.0430 -0.2373  0.0866
  772MPD2    H211398   0.779   2.754  14.068  0.9041  1.0546 -1.2412
  772MPD2    H311399   0.621   2.840  14.222  0.8317  0.0132 -0.9170
  772MPD2     N11400   0.258   2.716  13.990 -0.1202 -0.8060  0.2405
  772MPD2    H511401   0.215   2.732  14.081  0.6384  1.1878  0.2625
  772MPD2    N111402   0.711   2.666  13.802 -0.3633 -0.1208  0.5027
  772MPD2    H711403   0.671   2.626  13.718  0.7834 -1.0118  0.3814
  773MPD2     C11404   4.632   3.455   0.437  0.5948  0.8136  0.5423
  773MPD2    C111405   4.618   3.372   0.327 -0.6476  0.1558 -0.2039
  773MPD2    C211406   4.684   3.252   0.317  0.1730  0.4095  0.3989
  773MPD2    C311407   0.053   3.216   0.421 -1.0708 -0.3701 -0.0505
  773MPD2    C411408   0.073   3.303   0.533  0.4093  0.2067  0.3117
  773MPD2    C511409   4.714   3.411   0.536 -0.0162  0.0834 -0.0145
  773MPD2     H11410   4.672   3.189   0.230 -1.4666  0.0277  0.9189
  773MPD2    H111411   0.142   3.280   0.613 -0.3677  2.0353  1.4973
  773MPD2    H211412   4.585   3.549   0.465  0.7033  0.9940  0.1130
  773MPD2    H311413   0.014   3.474   0.622  1.5849 -0.2245 -0.1731
  773MPD2     N11414   0.122   3.092   0.409  0.9121 -0.1753  0.8319
  773MPD2    H511415   0.089   3.023   0.343  0.1129  1.7580 -0.7714
  773MPD2    N111416   4.542   3.413   0.213  0.0489 -0.4727  0.6522
  773MPD2    H711417   4.534   3.350   0.135  2.5651 -0.6215  0.4997
  774MPD2     C11418   3.709   2.502  13.202  0.1085 -0.6463 -0.3869
  774MPD2    C111419   3.760   2.535  13.324 -0.3708 -0.4527  0.8397
  774MPD2    C211420   3.870   2.611  13.329  0.1090  0.5364  0.0069
  774MPD2    C311421   3.930   2.657  13.213  0.0898 -0.3864 -0.1293
  774MPD2    C411422   3.873   2.635  13.087  1.3018 -0.2290  0.1493
  774MPD2    C511423   3.772   2.543  13.084  0.6846  0.0882  0.2387
  774MPD2     H11424   3.925   2.632  13.420  2.6115 -2.2799 -0.8416
  774MPD2    H111425   3.915   2.671  12.994 -1.0988 -3.7328 -2.2905
  774MPD2    H211426   3.621   2.440  13.186  1.0605 -2.0094 -0.3982
  774MPD2    H311427   3.731   2.515  12.988 -0.2829 -0.2707  0.7481
  774MPD2     N11428   4.043   2.735  13.238 -0.3811  0.4600 -0.6576
  774MPD2    H511429   4.067   2.749  13.336  0.0134  0.6171 -0.7763
  774MPD2    N111430   3.704   2.493  13.456  0.3518 -0.3244 -0.2996
  774MPD2    H711431   3.761   2.522  13.535  0.3752  0.5202 -0.6374
  775MPD2     C11432   0.655   4.205  15.928 -0.2768  0.4444  0.3994
  775MPD2    C111433   0.582   4.312  15.962 -0.2196  0.0920 -0.6225
  775MPD2    C211434   0.594   4.432  15.895  0.1766  1.1648  0.0926
  775MPD2    C311435   0.686   4.441  15.790  0.0500 -1.1728  0.2892
  775MPD2    C411436   0.768   4.334  15.767  0.3593  0.3427 -0.1012
  775MPD2    C511437   0.752   4.215  15.836  0.1338 -0.4369  0.4114
  775MPD2     H11438   0.527   4.511  15.926 -1.1707 -0.5109  1.4409
  775MPD2    H111439   0.857   4.338  15.704  0.4256  0.0727 -0.0209
  775MPD2    H211440   0.642   4.109  15.978 -0.8536  1.2283  1.7735
  775MPD2    H311441   0.818   4.133  15.811 -0.2963 -0.6401 -0.0567
  775MPD2     N11442   0.697   4.554  15.702 -0.6029  1.1421 -0.4170
  775MPD2    H511443   0.766   4.548  15.628 -2.4729 -0.8899 -1.9725
  775MPD2    N111444   0.494   4.300  16.072 -0.7796  0.3521 -0.4998
  775MPD2    H711445   0.488   4.206  16.109  0.1816  0.5608  0.1803
  776MPD2     C11446   3.996   3.946  11.740 -0.5407 -0.8441 -0.2010
  776MPD2    C111447   3.978   3.936  11.606 -0.1207  0.1518  0.7818
  776MPD2    C211448   3.951   4.048  11.527 -0.0261 -0.1687  0.3480
  776MPD2    C311449   3.967   4.174  11.576  0.1337  0.2300 -0.5214
  776MPD2    C411450   4.009   4.185  11.704 -0.7397  0.2536  0.6595
  776MPD2    C511451   4.011   4.077  11.788 -0.0464 -0.6470 -0.1828
  776MPD2     H11452   3.910   4.027  11.429 -0.2888  0.5030  0.3176
  776MPD2    H111453   4.025   4.283  11.747  0.6633 -0.0415  0.7926
  776MPD2    H211454   3.996   3.867  11.814  0.0525  0.1111  0.8242
  776MPD2    H311455   4.041   4.091  11.892  1.9103 -0.8883 -0.7125
  776MPD2     N11456   3.946   4.283  11.503  0.2113 -0.7282  0.3285
  776MPD2    H511457   3.981   4.376  11.524  2.0236 -1.3321  0.0645
  776MPD2    N111458   3.980   3.809  11.550 -0.3764  0.3370  0.0026
  776MPD2    H711459   3.977   3.736  11.621 -1.3736 -0.7008 -1.1003
  777MPD2     C11460   4.336   2.222   0.525 -0.0976 -0.0323  0.1149
  777MPD2    C111461   4.414   2.159   0.621 -0.1705 -0.0512  0.2641
  777MPD2    C211462   4.517   2.076   0.570  0.1312  0.7104 -0.1129
  777MPD2    C311463   4.520   2.047   0.437 -0.6562 -0.0372  0.0504
  777MPD2    C411464   4.436   2.106   0.349 -0.5562 -0.0848 -0.7738
  777MPD2    C511465   4.345   2.198   0.390  0.0866 -0.0452 -0.8481
  777MPD2     H11466   4.590   2.027   0.634  0.4028  0.8869 -0.2884
  777MPD2    H111467   4.448   2.097   0.242 -1.0772  0.8454 -0.9090
  777MPD2    H211468   4.282   2.313   0.550 -0.9365 -0.5540  0.2253
  777MPD2    H311469   4.291   2.248   0.311  0.0013 -0.0975 -0.8231
  777MPD2     N11470   4.621   1.953   0.396  0.1249  0.1764  0.3141
  777MPD2    H511471   4.671   1.900   0.468 -0.2316 -1.7319 -0.8309
  777MPD2    N111472   4.399   2.198   0.758  0.0843  0.2347  0.3098
  777MPD2    H711473   4.331   2.268   0.787  1.3186  0.2618  3.1624
  778MPD2     C11474   1.152   2.779  14.593 -1.0581 -0.5230 -0.5111
  778MPD2    C111475   1.169   2.637  14.600 -0.2612 -0.5570  0.1345
  778MPD2    C211476   1.250   2.577  14.505  0.1210  0.4039 -0.1547
  778MPD2    C311477   1.319   2.660  14.425 -0.0954  0.2465  0.5748
  778MPD2    C411478   1.304   2.797  14.419  0.2005  0.4025 -0.6786
  778MPD2    C511479   1.213   2.856  14.506  0.3798 -0.3053  0.1379
  778MPD2     H11480   1.251   2.469  14.501 -1.9208  0.3462  0.6231
  778MPD2    H111481   1.358   2.856  14.345  0.5852 -1.8931 -2.2315
  778MPD2    H211482   1.080   2.829  14.657 -1.0088  0.4531 -1.2292
  778MPD2    H311483   1.202   2.964  14.498 -0.1038 -0.3121  0.7336
  778MPD2     N11484   1.407   2.592  14.336 -0.0386  0.6949  0.5567
  778MPD2    H511485   1.406   2.490  14.335 -2.6877  0.7157  2.4737
  778MPD2    N111486   1.099   2.555  14.693  0.5401  0.0438 -0.3961
  778MPD2    H711487   1.132   2.460  14.699  0.1426 -0.1268 -0.8992
  779MPD2     C11488   0.623   0.942  13.827 -0.5414  0.1986  0.7937
  779MPD2    C111489   0.671   0.976  13.954 -0.2747  1.0045  0.2227
  779MPD2    C211490   0.717   1.103  13.993  0.5458 -0.6230  0.3772
  779MPD2    C311491   0.711   1.198  13.895  1.0163  0.3020 -0.0779
  779MPD2    C411492   0.674   1.163  13.765 -0.0145  1.4516 -0.3649
  779MPD2    C511493   0.633   1.036  13.730 -0.6483  1.0972  0.2187
  779MPD2     H11494   0.768   1.122  14.087  1.2398  3.0149 -0.7034
  779MPD2    H111495   0.689   1.238  13.688 -0.4348  0.0331 -1.8242
  779MPD2    H211496   0.605   0.840  13.796  2.6783 -0.2221  0.2645
  779MPD2    H311497   0.616   1.009  13.627 -0.3669 -1.4415  0.8231
  779MPD2     N11498   0.773   1.322  13.926 -0.1886 -0.5100 -0.6472
  779MPD2    H511499   0.825   1.327  14.014 -0.1600 -1.1279 -0.6345
  779MPD2    N111500   0.684   0.861  14.041 -0.0848 -0.2205  1.4815
  779MPD2    H711501   0.654   0.773  13.999  1.4273  0.2329 -0.5452
  780MPD2     C11502   0.231   0.598   0.653 -0.4566 -0.0069 -0.1106
  780MPD2    C111503   0.132   0.632   0.563 -0.2768 -0.4901 -0.4010
  780MPD2    C211504   0.156   0.722   0.462 -0.4896  0.1179  0.6884
  780MPD2    C311505   0.273   0.793   0.470  0.7272 -0.3587  0.5766
  780MPD2    C411506   0.374   0.761   0.563 -0.0397  0.0219  0.5368
  780MPD2    C511507   0.348   0.672   0.665  0.3097  0.4697  0.1404
  780MPD2     H11508   0.083   0.749   0.387  1.5385  0.6858 -1.0573
  780MPD2    H111509   0.471   0.808   0.570 -0.4094  0.8934 -0.2089
  780MPD2    H211510   0.221   0.530   0.737 -0.3260  0.3919  0.2308
  780MPD2    H311511   0.426   0.649   0.737 -0.0264 -2.6591 -0.4887
  780MPD2     N11512   0.281   0.902   0.382  0.3886 -0.3443 -0.9171
  780MPD2    H511513   0.220   0.903   0.302 -2.4688  1.1632  1.2759
  780MPD2    N111514   0.012   0.559   0.575  0.4135 -0.3150 -0.4452
  780MPD2    H711515   0.006   0.495   0.653  1.0500  0.2937  0.0993
  781MPD2     C11516   2.320   2.807  11.836  0.3286 -0.7979  0.4626
  781MPD2    C111517   2.224   2.731  11.901 -0.1210 -0.2323  0.0747
  781MPD2    C211518   2.172   2.628  11.823 -0.1594 -0.5776 -0.1918
  781MPD2    C311519   2.184   2.624  11.680 -0.5985  0.3226  0.5463
  781MPD2    C411520   2.289   2.692  11.627  0.5929 -0.3933  0.0774
  781MPD2    C511521   2.358   2.778  11.709  0.0797 -0.3529 -0.7289
  781MPD2     H11522   2.102   2.566  11.876  1.0619 -0.6194  1.3741
  781MPD2    H111523   2.311   2.700  11.521  0.6349 -0.4803  0.0798
  781MPD2    H211524   2.374   2.890  11.879 -1.1076  0.1286  0.4863
  781MPD2    H311525   2.423   2.845  11.655 -0.3500  1.7531  1.3748
  781MPD2     N11526   2.100   2.546  11.593 -0.4549  0.7488  0.1527
  781MPD2    H511527   2.132   2.523  11.499 -0.3846 -1.9309  0.8353
  781MPD2    N111528   2.193   2.737  12.042 -0.5893 -0.1524  0.6397
  781MPD2    H711529   2.110   2.685  12.070 -0.4547 -0.3718  0.6275
  782MPD2     C11530   4.023   3.481  10.076  0.6146 -0.7645 -0.2109
  782MPD2    C111531   4.163   3.458  10.086 -0.3384  0.0554 -0.4964
  782MPD2    C211532   4.233   3.522  10.183  0.4538 -0.1060  0.3291
  782MPD2    C311533   4.171   3.626  10.258  0.5801  0.0855  0.9673
  782MPD2    C411534   4.039   3.654  10.234 -0.4690  0.4188  0.3077
  782MPD2    C511535   3.966   3.586  10.142 -0.6176 -0.0284 -0.1130
  782MPD2     H11536   4.335   3.494  10.207  0.9548 -0.5135 -2.2015
  782MPD2    H111537   3.986   3.725  10.297 -0.5694  1.1039 -0.5419
  782MPD2    H211538   3.976   3.433   9.991  0.3473 -3.3176  1.3697
  782MPD2    H311539   3.861   3.607  10.126 -0.2019  1.0861 -1.3436
  782MPD2     N11540   4.255   3.689  10.353  1.1528  0.1863 -0.1063
  782MPD2    H511541   4.349   3.652  10.361  1.1174  0.2117  0.4165
  782MPD2    N111542   4.221   3.368   9.994 -0.2228  0.3503  0.4675
  782MPD2    H711543   4.160   3.311   9.937 -0.8479  1.2436  0.2344
  783MPD2     C11544   4.047   2.588  10.181  0.5306  0.2213 -0.1757
  783MPD2    C111545   4.165   2.630  10.238  0.7303  0.1608  0.1265
  783MPD2    C211546   4.247   2.713  10.164  0.4850  0.4119 -0.7754
  783MPD2    C311547   4.213   2.759  10.040  0.1191  0.9080 -0.6853
  783MPD2    C411548   4.096   2.711   9.982 -0.8227  0.1014 -0.6111
  783MPD2    C511549   4.015   2.625  10.049 -0.3371 -0.3216 -0.4061
  783MPD2     H11550   4.341   2.734  10.215  0.3742 -0.4796 -0.1853
  783MPD2    H111551   4.054   2.741   9.887 -1.1051  2.1270  0.1480
  783MPD2    H211552   3.976   2.518  10.224 -0.8505  0.4519 -2.0751
  783MPD2    H311553   3.922   2.590  10.005  0.5828 -0.2298 -2.4392
  783MPD2     N11554   4.300   2.852   9.978 -0.0836  0.0477 -1.0767
  783MPD2    H511555   4.382   2.881  10.030  1.1604  0.0888 -3.0734
  783MPD2    N111556   4.198   2.584  10.365  0.7400  0.2763 -0.0341
  783MPD2    H711557   4.123   2.531  10.408 -0.3359  1.4054 -0.5042
  784MPD2     C11558   1.996   3.509   0.980  0.1868  0.6072  0.0369
  784MPD2    C111559   2.007   3.634   1.035 -0.0787 -0.5269  0.1677
  784MPD2    C211560   1.894   3.707   1.050 -0.3742  0.6471 -0.4887
  784MPD2    C311561   1.762   3.660   1.028 -0.5624  0.7342  0.0243
  784MPD2    C411562   1.754   3.535   0.978  0.2955 -0.1966  0.3442
  784MPD2    C511563   1.869   3.454   0.967  0.2394 -0.4652 -0.7568
  784MPD2     H11564   1.897   3.805   1.095  1.0952  0.1796  0.4531
  784MPD2    H111565   1.659   3.488   0.954  0.5831  0.7188 -2.5139
  784MPD2    H211566   2.077   3.438   0.973 -0.8006 -0.7580  2.3336
  784MPD2    H311567   1.858   3.355   0.925  2.0577 -0.1563 -1.9890
  784MPD2     N11568   1.654   3.754   1.054 -0.1182 -0.8890 -0.1447
  784MPD2    H511569   1.677   3.843   1.096  1.4016 -0.7675 -1.2116
  784MPD2    N111570   2.128   3.680   1.090  0.0949  0.2251  0.3317
  784MPD2    H711571   2.126   3.772   1.131 -3.0700  0.0941  0.4398
  785MPD2     C11572   1.961   2.031  10.066 -0.1806 -0.5150 -0.3134
  785MPD2    C111573   1.849   2.008  10.147  0.1343  0.4562  0.4899
  785MPD2    C211574   1.725   1.980  10.085  0.5686 -0.0544 -0.3832
  785MPD2    C311575   1.706   1.985   9.951 -0.0296 -0.0908 -0.3359
  785MPD2    C411576   1.818   2.014   9.874 -0.3965  0.0739 -0.7164
  785MPD2    C511577   1.942   2.033   9.932 -0.4896  0.3649  0.0833
  785MPD2     H11578   1.633   1.960  10.139  1.1673  0.4300  0.8334
  785MPD2    H111579   1.818   2.021   9.766  2.0688  2.6649 -0.5367
  785MPD2    H211580   2.058   2.041  10.113 -0.1154  1.6204 -0.9178
  785MPD2    H311581   2.031   2.054   9.873 -0.4055  0.5459  0.2723
  785MPD2     N11582   1.583   1.956   9.896 -0.1889 -0.3962 -0.2522
  785MPD2    H511583   1.530   1.920   9.975 -0.3940 -0.8665 -0.6067
  785MPD2    N111584   1.877   2.009  10.280 -0.1748  0.0699 -0.3171
  785MPD2    H711585   1.973   2.026  10.306  0.2137 -2.6748  0.0659
  786MPD2     C11586   0.902   0.296  14.532  0.2181 -0.1166 -0.0458
  786MPD2    C111587   1.015   0.212  14.553  0.4658 -0.1986 -1.0792
  786MPD2    C211588   1.088   0.218  14.668  0.7766 -0.1012 -0.3136
  786MPD2    C311589   1.033   0.282  14.774 -0.1223 -0.5430 -0.8809
  786MPD2    C411590   0.921   0.358  14.757  0.3312 -0.4905  0.0865
  786MPD2    C511591   0.859   0.374  14.634 -0.4381 -0.2379  0.4320
  786MPD2     H11592   1.167   0.147  14.686  2.1240  1.6708  0.7775
  786MPD2    H111593   0.871   0.409  14.839 -0.8496 -0.7898 -0.4518
  786MPD2    H211594   0.835   0.293  14.447  0.8778  2.6650 -0.6614
  786MPD2    H311595   0.777   0.444  14.627 -1.0762 -0.9169  1.1432
  786MPD2     N11596   1.079   0.283  14.909 -0.4023 -0.7699  0.1741
  786MPD2    H511597   1.009   0.313  14.976  0.4254  0.2230  0.5828
  786MPD2    N111598   1.051   0.120  14.454  0.4160  0.1409 -0.0951
  786MPD2    H711599   1.131   0.063  14.476 -0.4044 -1.4975 -1.3059
  787MPD2     C11600   1.086   4.272  14.668  0.5306  0.9087  0.2581
  787MPD2    C111601   1.168   4.272  14.561  0.0360  0.2163  0.4430
  787MPD2    C211602   1.294   4.207  14.568 -0.0863  0.4137 -0.2856
  787MPD2    C311603   1.326   4.125  14.670 -0.5980 -0.1925 -0.0678
  787MPD2    C411604   1.232   4.114  14.773 -0.3025  0.5101 -0.3481
  787MPD2    C511605   1.116   4.196  14.775 -0.2263  0.3797 -0.2231
  787MPD2     H11606   1.363   4.223  14.486  0.0675 -0.7765 -0.3965
  787MPD2    H111607   1.260   4.060  14.862 -1.7977  1.1854  0.5379
  787MPD2    H211608   0.995   4.330  14.681 -0.0561  0.0884 -0.2144
  787MPD2    H311609   1.050   4.183  14.860 -3.8026  0.4714 -2.9946
  787MPD2     N11610   1.450   4.047  14.667  0.2360  0.0747  0.0383
  787MPD2    H511611   1.512   4.079  14.594 -0.9711  0.9872 -0.5791
  787MPD2    N111612   1.133   4.361  14.454 -0.6732  0.4955 -0.1727
  787MPD2    H711613   1.047   4.414  14.460 -1.7303 -1.3441  0.7069
  788MPD2     C11614   2.433   2.637   1.303  0.4967 -0.5983 -0.0988
  788MPD2    C111615   2.366   2.611   1.184 -0.4247 -0.2485 -0.3404
  788MPD2    C211616   2.306   2.721   1.123  0.5261  0.5981 -0.2258
  788MPD2    C311617   2.325   2.856   1.160 -0.0242  0.2255  0.0971
  788MPD2    C411618   2.391   2.875   1.281  0.3298 -0.5561  0.3007
  788MPD2    C511619   2.440   2.767   1.350 -0.0753 -0.2151 -0.0876
  788MPD2     H11620   2.259   2.699   1.028 -0.2636  0.4051  0.2089
  788MPD2    H111621   2.412   2.978   1.311 -2.6003 -0.5301  2.2808
  788MPD2    H211622   2.492   2.557   1.347  0.0115 -0.0869  1.4484
  788MPD2    H311623   2.492   2.787   1.442 -0.0871 -0.3844 -0.0429
  788MPD2     N11624   2.273   2.967   1.087 -0.4206 -0.3366 -0.3492
  788MPD2    H511625   2.286   3.057   1.131  1.6930 -0.2827 -1.1018
  788MPD2    N111626   2.356   2.480   1.130  0.0706  0.0796  0.3794
  788MPD2    H711627   2.293   2.471   1.051 -0.5928  1.4471  0.7458
  789MPD2     C11628   3.611   2.648  16.374 -0.1004 -0.6838 -0.3552
  789MPD2    C111629   3.541   2.542  16.441 -0.7784  0.4342 -0.7157
  789MPD2    C211630   3.417   2.566  16.485  0.1009 -0.5271 -0.0305
  789MPD2    C311631   3.354   2.690  16.458 -0.3080 -0.5762  0.2400
  789MPD2    C411632   3.421   2.788  16.390 -0.7927  0.5029 -0.4243
  789MPD2    C511633   3.549   2.767  16.356  0.2657  0.3714  0.0862
  789MPD2     H11634   3.367   2.486  16.539  1.0844  0.0737  1.7660
  789MPD2    H111635   3.376   2.886  16.376 -0.1910  0.7630 -0.5075
  789MPD2    H211636   3.713   2.631  16.342 -0.6393 -0.8807 -1.9737
  789MPD2    H311637   3.604   2.839  16.296 -1.2964  0.6538 -0.9962
  789MPD2     N11638   3.222   2.717  16.487 -0.7992 -0.1013  0.0412
  789MPD2    H511639   3.196   2.811  16.460  0.1140 -0.4173 -1.9245
  789MPD2    N111640   3.603   2.427  16.465 -0.2843 -0.2318 -0.3670
  789MPD2    H711641   3.548   2.348  16.499 -1.4782  0.7453 -0.0159
  790MPD2     C11642   4.421   0.328  12.980 -0.2213 -0.0599 -0.8116
  790MPD2    C111643   4.381   0.266  13.094 -0.3192  0.6624  0.1727
  790MPD2    C211644   4.304   0.152  13.085  1.7284 -0.2212  0.2758
  790MPD2    C311645   4.254   0.105  12.961 -0.8846 -0.3430 -0.4204
  790MPD2    C411646   4.300   0.171  12.848 -0.4511 -0.6269 -0.0633
  790MPD2    C511647   4.379   0.287  12.858  0.5567  0.2146  0.0786
  790MPD2     H11648   4.264   0.106  13.175  1.0611 -1.7351 -0.7842
  790MPD2    H111649   4.302   0.134  12.746 -1.3081  1.9436 -1.0200
  790MPD2    H211650   4.476   0.421  12.968 -0.3541 -0.0670 -1.4708
  790MPD2    H311651   4.406   0.334  12.764 -1.4967  1.2835  0.0338
  790MPD2     N11652   4.181   4.701  12.954 -0.6635 -0.2930 -0.2776
  790MPD2    H511653   4.164   4.638  13.032  0.5781 -0.4021 -0.0842
  790MPD2    N111654   4.441   0.327  13.209  0.1157  0.5975  0.3474
  790MPD2    H711655   4.495   0.412  13.197  1.3192 -0.5751 -2.5118
  791MPD2     C11656   3.550   4.601  12.534 -0.3886 -0.2205  0.7703
  791MPD2    C111657   3.564   4.494  12.613 -0.2783 -0.0411 -0.2637
  791MPD2    C211658   3.457   4.412  12.651  0.0717 -0.0623  0.4690
  791MPD2    C311659   3.328   4.448  12.613  0.0003 -0.3181 -0.0397
  791MPD2    C411660   3.309   4.560  12.528  0.6685  0.3163 -0.1981
  791MPD2    C511661   3.422   4.630  12.485 -0.0931 -0.3193 -0.0499
  791MPD2     H11662   3.468   4.329  12.720  0.4528 -0.2377  0.2009
  791MPD2    H111663   3.213   4.597  12.493  0.7954  0.0544 -0.8285
  791MPD2    H211664   3.634   4.665  12.510  1.6506 -1.9923  3.1293
  791MPD2    H311665   3.407   4.715  12.420  0.4172 -0.9637 -1.0125
  791MPD2     N11666   3.218   4.364  12.643 -0.2864 -0.4257  0.0713
  791MPD2    H511667   3.230   4.273  12.685  1.6079 -0.4075 -0.4091
  791MPD2    N111668   3.696   4.475  12.670 -0.8534  0.6243 -0.5535
  791MPD2    H711669   3.757   4.554  12.653 -1.0534  1.1468  1.2241
  792MPD2     C11670   4.428   4.363  11.345 -1.1335  0.0251  0.1844
  792MPD2    C111671   4.403   4.374  11.209 -0.9938  0.3163 -0.5075
  792MPD2    C211672   4.313   4.286  11.145 -0.0860 -0.0907 -0.0757
  792MPD2    C311673   4.247   4.183  11.215  0.2499 -0.5379 -0.6836
  792MPD2    C411674   4.278   4.173  11.349 -0.1338  0.2346  0.9036
  792MPD2    C511675   4.361   4.268  11.414  0.0893  0.8621 -0.8011
  792MPD2     H11676   4.290   4.288  11.039  0.0226 -1.0987 -0.1183
  792MPD2    H111677   4.230   4.095  11.408 -0.0706  0.3748  1.1412
  792MPD2    H211678   4.497   4.426  11.398  1.0829 -1.8872 -0.4414
  792MPD2    H311679   4.404   4.251  11.512  1.5310  1.4830 -1.3241
  792MPD2     N11680   4.141   4.109  11.166 -0.1551 -0.4564  0.1299
  792MPD2    H511681   4.101   4.041  11.229  0.1334 -0.9850 -0.2565
  792MPD2    N111682   4.475   4.477  11.139 -0.1960 -0.7734 -0.3444
  792MPD2    H711683   4.544   4.526  11.195  0.3668 -0.7430 -1.0699
  793MPD2     C11684   3.626   4.437  10.419 -1.1273 -0.8770 -0.0940
  793MPD2    C111685   3.746   4.454  10.476 -0.0443 -0.7365 -0.0749
  793MPD2    C211686   3.777   4.394  10.593 -0.3847 -0.2038 -0.2317
  793MPD2    C311687   3.691   4.298  10.654 -0.3394  0.7418  0.7766
  793MPD2    C411688   3.564   4.298  10.599 -0.1333 -0.5433  0.1851
  793MPD2    C511689   3.534   4.365  10.487  0.5654 -0.5361 -0.0319
  793MPD2     H11690   3.879   4.403  10.628 -0.4652  4.1732 -1.1577
  793MPD2    H111691   3.481   4.247  10.647 -0.9873  0.5574 -0.1402
  793MPD2    H211692   3.592   4.489  10.331 -1.6436 -1.7253 -0.3902
  793MPD2    H311693   3.431   4.354  10.454 -0.4216  1.0832  2.5317
  793MPD2     N11694   3.734   4.220  10.762  0.1934  0.2144 -0.4366
  793MPD2    H511695   3.831   4.233  10.789  0.1402 -2.3232  0.9434
  793MPD2    N111696   3.846   4.526  10.421  0.6705 -0.2604  0.6494
  793MPD2    H711697   3.921   4.564  10.478  0.7105  0.6997 -0.0419
  794MPD2     C11698   4.162   4.071  17.488  0.1204  0.4584  0.3200
  794MPD2    C111699   4.135   3.952  17.417 -0.8587  0.1168  0.1260
  794MPD2    C211700   4.039   3.961  17.322 -1.0286  0.0151  0.4627
  794MPD2    C311701   3.979   4.083  17.294 -0.5164 -0.5255 -0.2750
  794MPD2    C411702   4.015   4.197  17.357 -0.2203  0.1260 -0.4224
  794MPD2    C511703   4.106   4.190  17.458  1.1131  0.2511 -0.1936
  794MPD2     H11704   4.001   3.876  17.268  0.8382 -0.1044 -0.6378
  794MPD2    H111705   3.976   4.293  17.325  0.6783  0.2216 -1.2268
  794MPD2    H211706   4.238   4.081  17.565 -1.0637  0.8216  1.4326
  794MPD2    H311707   4.134   4.279  17.513 -2.2947 -0.2007  2.2169
  794MPD2     N11708   3.887   4.098  17.187  0.4258  0.1595 -0.1177
  794MPD2    H511709   3.840   4.188  17.180 -2.2183 -1.2231  0.1213
  794MPD2    N111710   4.200   3.827  17.441 -0.3543 -0.0600 -0.1107
  794MPD2    H711711   4.162   3.744  17.397 -0.2971  0.1639 -0.5849
  795MPD2     C11712   1.657   1.537  13.640  0.0146  0.5633  0.1780
  795MPD2    C111713   1.613   1.407  13.669  0.4108  0.1155  0.4762
  795MPD2    C211714   1.696   1.328  13.745  0.2921  0.7582 -0.0678
  795MPD2    C311715   1.803   1.386  13.821  0.3419  0.4387  0.4764
  795MPD2    C411716   1.832   1.519  13.803  0.6923  0.0622  0.2356
  795MPD2    C511717   1.765   1.593  13.707 -0.5693 -0.3698 -0.1299
  795MPD2     H11718   1.681   1.225  13.773 -2.2604  1.0387 -0.4288
  795MPD2    H111719   1.903   1.560  13.875  1.0488 -1.5438  0.7930
  795MPD2    H211720   1.613   1.606  13.570  1.3121  1.3442  0.1264
  795MPD2    H311721   1.791   1.696  13.684 -0.0499 -0.3383  0.6319
  795MPD2     N11722   1.889   1.301  13.899 -0.4896 -0.4332  0.4996
  795MPD2    H511723   1.869   1.202  13.909  0.3866 -0.3319  3.1675
  795MPD2    N111724   1.508   1.356  13.585 -0.2079 -0.1158 -0.1065
  795MPD2    H711725   1.499   1.255  13.575  1.3010 -0.4551  2.1067
  796MPD2     C11726   1.446   2.739  15.524 -0.5438 -0.6518 -0.6782
  796MPD2    C111727   1.471   2.761  15.660  0.3763 -0.0142  0.0180
  796MPD2    C211728   1.441   2.882  15.716  0.0502  0.1692 -0.0690
  796MPD2    C311729   1.383   2.982  15.640 -0.7673  0.1405  0.0794
  796MPD2    C411730   1.359   2.960  15.508  0.4784  0.1376  0.0783
  796MPD2    C511731   1.405   2.845  15.444  0.2112  0.3466  0.4371
  796MPD2     H11732   1.469   2.905  15.818 -0.8502 -1.3063  0.5066
  796MPD2    H111733   1.328   3.038  15.440 -0.5641  0.1491  0.5718
  796MPD2    H211734   1.456   2.642  15.476 -0.8045 -0.8149 -0.4000
  796MPD2    H311735   1.391   2.834  15.337 -0.4427  2.0396  0.3584
  796MPD2     N11736   1.366   3.111  15.699  1.1047  0.0986  0.2933
  796MPD2    H511737   1.404   3.117  15.793  0.9408 -0.8026  0.4151
  796MPD2    N111738   1.502   2.651  15.742  0.5075  0.5815 -0.6215
  796MPD2    H711739   1.516   2.560  15.698 -0.0173 -0.7759  1.9599
  797MPD2     C11740   2.022   2.064  17.438 -0.0334 -0.2901 -0.3746
  797MPD2    C111741   2.081   2.190  17.414 -0.3350  0.6287 -0.3917
  797MPD2    C211742   2.019   2.278  17.329 -0.6418 -0.5531  0.0503
  797MPD2    C311743   1.910   2.250  17.261  0.3123 -0.4857 -0.2602
  797MPD2    C411744   1.853   2.126  17.279  0.3027  0.0441 -0.7580
  797MPD2    C511745   1.916   2.035  17.359 -0.1523  0.2431 -0.3831
  797MPD2     H11746   2.074   2.371  17.319  0.3126 -1.3055 -1.7121
  797MPD2    H111747   1.761   2.103  17.227  0.5111 -0.1349 -1.0414
  797MPD2    H211748   2.065   1.990  17.505 -0.7101 -0.4246 -0.0955
  797MPD2    H311749   1.877   1.935  17.348 -0.7585  0.3473  0.8391
  797MPD2     N11750   1.847   2.346  17.179 -0.2038 -0.0773  0.2835
  797MPD2    H511751   1.764   2.317  17.129 -0.4104  0.8022  0.1176
  797MPD2    N111752   2.184   2.249  17.494  0.3004  0.0731 -0.2028
  797MPD2    H711753   2.198   2.347  17.472  1.0723 -0.1386 -0.6664
  798MPD2     C11754   2.119   2.967  17.402 -0.0481  0.0675 -0.7611
  798MPD2    C111755   2.109   2.841  17.345  0.0983  0.4872 -0.0888
  798MPD2    C211756   2.194   2.746  17.397  0.0433 -0.4350 -0.1502
  798MPD2    C311757   2.277   2.764  17.503 -0.7749 -0.6421  0.5329
  798MPD2    C411758   2.306   2.889  17.539  0.2685 -0.0788  0.3867
  798MPD2    C511759   2.220   2.990  17.501  0.3791 -0.1237  1.1930
  798MPD2     H11760   2.183   2.644  17.362  1.3303 -0.6050 -0.0678
  798MPD2    H111761   2.375   2.917  17.617  0.1651 -3.2014  1.5741
  798MPD2    H211762   2.047   3.047  17.387  2.6334  2.6994  0.4448
  798MPD2    H311763   2.245   3.088  17.541 -0.8783  0.1456  1.3244
  798MPD2     N11764   2.330   2.653  17.568 -0.5395 -0.8209 -0.3516
  798MPD2    H511765   2.308   2.563  17.525 -1.5109 -1.0169  0.5572
  798MPD2    N111766   2.001   2.799  17.264  0.7200  0.0702  0.0482
  798MPD2    H711767   1.996   2.700  17.240  1.8673  0.0846 -0.2443
  799MPD2     C11768   1.637   3.745  14.432 -0.5788  0.0193 -0.1526
  799MPD2    C111769   1.699   3.796  14.324  0.6097 -0.0916  0.4602
  799MPD2    C211770   1.624   3.886  14.237  0.0013 -0.4582  0.2347
  799MPD2    C311771   1.496   3.930  14.270 -0.4837 -0.2488 -0.7567
  799MPD2    C411772   1.436   3.868  14.380  0.2402  0.0261  0.8386
  799MPD2    C511773   1.507   3.777  14.459  0.0687 -0.1395  0.1181
  799MPD2     H11774   1.680   3.934  14.158 -0.2637 -2.2205 -1.0083
  799MPD2    H111775   1.343   3.912  14.412  1.0785  2.6533 -0.3238
  799MPD2    H211776   1.691   3.677  14.497 -1.2588  2.7955  3.2562
  799MPD2    H311777   1.458   3.728  14.542  0.7335  2.8409  2.2667
  799MPD2     N11778   1.422   4.018  14.187  0.8867 -0.3429  0.1944
  799MPD2    H511779   1.328   4.048  14.212  1.5895  2.9898 -1.1409
  799MPD2    N111780   1.829   3.748  14.276 -0.7999  0.4193  0.1496
  799MPD2    H711781   1.852   3.776  14.181 -0.6375  0.7436  0.2859
  800MPD2     C11782   1.725   0.254  14.432 -0.3011 -0.4102  0.4547
  800MPD2    C111783   1.850   0.248  14.368  0.2876 -0.4095  0.1070
  800MPD2    C211784   1.856   0.232  14.235  0.5347  0.4684 -0.3730
  800MPD2    C311785   1.739   0.242  14.163 -0.8850  0.1691 -0.5343
  800MPD2    C411786   1.615   0.260  14.223  0.0948  0.0196 -0.2605
  800MPD2    C511787   1.610   0.255  14.359  0.0048 -0.2435  0.1844
  800MPD2     H11788   1.946   0.217  14.176  0.4146  0.1259 -0.4707
  800MPD2    H111789   1.525   0.267  14.164 -1.1614 -0.2500  1.6181
  800MPD2    H211790   1.716   0.251  14.540 -1.1903  1.6024  0.4510
  800MPD2    H311791   1.515   0.275  14.406 -0.6708 -0.0405 -1.2663
  800MPD2     N11792   1.757   0.232  14.028  0.2717  0.2448 -0.2246
  800MPD2    H511793   1.850   0.214  13.993  1.7078  2.9831  2.1699
  800MPD2    N111794   1.967   0.274  14.446  0.1200  0.3309  0.0357
  800MPD2    H711795   1.965   0.294  14.545 -0.1167  2.9032 -0.4920
  801MPD2     C11796   2.234   0.923  14.521 -0.9526  0.0273  0.1161
  801MPD2    C111797   2.148   0.829  14.565  0.2000  0.2771  0.9047
  801MPD2    C211798   2.014   0.864  14.569 -0.3142  0.2809  0.1958
  801MPD2    C311799   1.969   0.981  14.532 -0.0371  0.5613 -0.0159
  801MPD2    C411800   2.051   1.079  14.483  0.7492  0.0444  0.4189
  801MPD2    C511801   2.187   1.044  14.481 -0.6157  0.2446 -1.0315
  801MPD2     H11802   1.950   0.783  14.603  1.5295 -0.8919  0.8613
  801MPD2    H111803   2.023   1.180  14.454  1.8954  0.3198  0.2749
  801MPD2    H211804   2.340   0.902  14.514 -1.6479 -3.8659  1.0216
  801MPD2    H311805   2.263   1.121  14.467  2.7430 -2.5842  1.5974
  801MPD2     N11806   1.832   1.003  14.526 -0.4801 -0.2986  0.0741
  801MPD2    H511807   1.797   1.095  14.502 -1.2522 -0.6302 -0.0906
  801MPD2    N111808   2.184   0.700  14.612  0.2811 -0.2669  0.7116
  801MPD2    H711809   2.109   0.653  14.662 -1.2595  1.7633  0.3098
  802MPD2     C11810   0.601   1.185  16.829  0.1639  0.5256 -0.4773
  802MPD2    C111811   0.679   1.262  16.912  0.0894 -0.3482  0.2819
  802MPD2    C211812   0.808   1.215  16.955 -1.0515  0.3201 -0.0614
  802MPD2    C311813   0.842   1.082  16.935 -0.6626  0.7175 -0.0731
  802MPD2    C411814   0.747   0.996  16.867  0.0522  0.3553  0.3944
  802MPD2    C511815   0.632   1.047  16.813  0.4125  0.6448 -0.2660
  802MPD2     H11816   0.872   1.277  17.016 -0.6687  1.0371 -1.1895
  802MPD2    H111817   0.757   0.888  16.864  1.2413  0.4354  1.7441
  802MPD2    H211818   0.507   1.219  16.789 -0.3268 -1.3643 -0.9243
  802MPD2    H311819   0.556   0.987  16.765 -0.8260  1.1845  0.9851
  802MPD2     N11820   0.970   1.042  16.966 -0.1542 -0.0272  0.5086
  802MPD2    H511821   1.031   1.108  17.013 -1.9873  2.8717 -1.1751
  802MPD2    N111822   0.629   1.383  16.969  0.2570 -0.0270 -0.0726
  802MPD2    H711823   0.688   1.409  17.047 -1.2163  2.4599  0.2226
  803MPD2     C11824   2.328   0.009  11.738 -0.6962  0.4499 -0.3404
  803MPD2    C111825   2.367   4.664  11.852  0.3198 -0.0549  0.0313
  803MPD2    C211826   2.276   4.572  11.906 -0.5242 -0.6053 -0.0018
  803MPD2    C311827   2.160   4.537  11.848 -0.1918  0.5136  0.6173
  803MPD2    C411828   2.116   4.617  11.742 -0.3581 -0.4076  0.4485
  803MPD2    C511829   2.201   4.704  11.685 -0.0052 -0.2481 -0.2901
  803MPD2     H11830   2.305   4.533  12.003  0.0744 -0.0203  0.0572
  803MPD2    H111831   2.019   4.602  11.696 -0.3258  1.7462 -0.3073
  803MPD2    H211832   2.390   0.087  11.695  0.3911 -0.1755  0.0822
  803MPD2    H311833   2.174   0.036  11.594 -1.1575 -2.4063 -1.1650
  803MPD2     N11834   2.075   4.444  11.917 -0.1517  0.6243 -0.5492
  803MPD2    H511835   1.977   4.442  11.889  0.3767  3.2954 -2.5681
  803MPD2    N111836   2.484   4.696  11.925 -0.4208  0.1504  0.4972
  803MPD2    H711837   2.500   4.643  12.010  0.3932 -1.5568 -0.6932
  804MPD2     C11838   1.815   0.541  16.990  0.8588 -0.1440 -0.0027
  804MPD2    C111839   1.721   0.583  17.082 -0.1991  0.1643  0.4819
  804MPD2    C211840   1.725   0.704  17.142  0.1124  0.4839  0.0692
  804MPD2    C311841   1.836   0.778  17.117  0.0884 -0.0285  0.2468
  804MPD2    C411842   1.931   0.744  17.019  0.0478  1.2134 -0.8223
  804MPD2    C511843   1.919   0.625  16.959 -0.4045  0.1544  0.6725
  804MPD2     H11844   1.657   0.740  17.218 -1.0757 -2.3109  0.3116
  804MPD2    H111845   2.018   0.805  16.999 -0.0948  1.6327 -0.1792
  804MPD2    H211846   1.814   0.441  16.948  0.0890 -0.0830 -0.1335
  804MPD2    H311847   1.994   0.585  16.892 -0.0879  2.1884 -0.1776
  804MPD2     N11848   1.839   0.907  17.173 -0.1858  0.6801  0.9230
  804MPD2    H511849   1.750   0.951  17.192 -0.6548 -0.0973  0.5073
  804MPD2    N111850   1.612   0.502  17.124 -0.3122 -0.9962  0.3095
  804MPD2    H711851   1.548   0.534  17.196  0.5245  1.4032 -0.0187
  805MPD2     C11852   1.257   3.591  15.491 -0.8099  0.4339  0.6424
  805MPD2    C111853   1.241   3.721  15.532 -0.5409  0.7112  0.2106
  805MPD2    C211854   1.355   3.799  15.569  0.2894 -0.3921 -0.7184
  805MPD2    C311855   1.477   3.739  15.585  1.1136 -0.8117  0.1463
  805MPD2    C411856   1.492   3.606  15.545  0.0863  0.4362 -0.4397
  805MPD2    C511857   1.382   3.537  15.498  1.1411 -0.2417  0.2340
  805MPD2     H11858   1.349   3.901  15.606  2.3749 -0.1086 -1.1645
  805MPD2    H111859   1.591   3.560  15.548 -1.2183 -2.1839  2.4437
  805MPD2    H211860   1.178   3.523  15.460 -2.8993  3.5756 -0.8733
  805MPD2    H311861   1.398   3.430  15.484  1.2855 -0.3009  0.8818
  805MPD2     N11862   1.589   3.814  15.643  0.5618  0.0164 -0.0046
  805MPD2    H511863   1.574   3.914  15.645  2.7651  0.2952  1.6867
  805MPD2    N111864   1.112   3.785  15.530  0.1235 -0.0333 -0.4243
  805MPD2    H711865   1.120   3.885  15.543  1.6135 -0.3640  1.0972
  806MPD2     C11866   1.273   3.762   0.664  0.5889  0.6585  0.8141
  806MPD2    C111867   1.182   3.776   0.764  0.6166 -0.1061  0.4579
  806MPD2    C211868   1.125   3.900   0.781 -0.9659  0.6348  0.0037
  806MPD2    C311869   1.163   4.009   0.706  0.5621  0.4600  0.1954
  806MPD2    C411870   1.265   3.991   0.618  0.1682  0.5171 -0.8076
  806MPD2    C511871   1.319   3.867   0.589 -0.5382  0.2939 -0.2075
  806MPD2     H11872   1.045   3.919   0.852  1.6279 -1.6822  3.5553
  806MPD2    H111873   1.314   4.056   0.547 -1.0367 -0.4415 -2.5119
  806MPD2    H211874   1.315   3.666   0.637  0.5156  0.7359  0.4369
  806MPD2    H311875   1.384   3.840   0.506  1.4278  0.4532  1.3060
  806MPD2     N11876   1.098   4.131   0.734  0.2835 -0.4800 -0.0189
  806MPD2    H511877   1.025   4.122   0.803  0.6834 -0.5057  0.4016
  806MPD2    N111878   1.165   3.666   0.852 -0.5383 -0.4037  0.2985
  806MPD2    H711879   1.237   3.595   0.844 -1.4850 -1.3091 -0.2375
  807MPD2     C11880   0.960   3.568   1.670 -0.0425  0.4379 -0.3884
  807MPD2    C111881   1.008   3.446   1.625 -0.2607 -0.0200 -0.7327
  807MPD2    C211882   1.055   3.353   1.713  0.1018 -0.5327 -0.0447
  807MPD2    C311883   1.052   3.376   1.848 -0.2179 -0.3147  0.5964
  807MPD2    C411884   0.999   3.491   1.897 -0.6581  0.2689 -0.5650
  807MPD2    C511885   0.951   3.581   1.803  0.2969  0.1281 -0.6759
  807MPD2     H11886   1.093   3.258   1.679 -0.9759 -1.5041  1.4499
  807MPD2    H111887   0.969   3.503   2.001  1.3964 -1.1666  0.1967
  807MPD2    H211888   0.916   3.634   1.596 -1.3442 -0.6946 -0.6237
  807MPD2    H311889   0.903   3.672   1.835  0.3882  0.7985 -2.4585
  807MPD2     N11890   1.099   3.276   1.930 -0.0240  0.3192 -0.7237
  807MPD2    H511891   1.135   3.196   1.879 -0.6384  0.4362 -1.3338
  807MPD2    N111892   1.017   3.423   1.489 -0.3896 -0.3881  0.1673
  807MPD2    H711893   1.055   3.336   1.454 -1.5475 -1.6004  1.9044
  808MPD2     C11894   1.963   0.542   9.725  0.1788 -0.0705  0.5111
  808MPD2    C111895   1.999   0.476   9.605  0.7769 -0.5118 -0.0557
  808MPD2    C211896   2.083   0.537   9.521 -0.3457  0.2912  0.2872
  808MPD2    C311897   2.126   0.671   9.545 -0.1751 -0.6766  0.3928
  808MPD2    C411898   2.072   0.738   9.661  0.2867  0.1644  0.4466
  808MPD2    C511899   1.984   0.670   9.747  0.7383 -0.5988 -0.2318
  808MPD2     H11900   2.100   0.492   9.424 -0.1831  0.5842  0.1762
  808MPD2    H111901   2.103   0.839   9.685 -0.1658  0.7744 -1.5373
  808MPD2    H211902   1.888   0.498   9.790 -0.5757  0.5915  0.0916
  808MPD2    H311903   1.941   0.724   9.830  2.0710 -1.6364  1.1538
  808MPD2     N11904   2.225   0.747   9.468  0.1849  0.5296 -0.5096
  808MPD2    H511905   2.253   0.838   9.502 -1.0922  0.4965  0.6187
  808MPD2    N111906   1.947   0.347   9.565  0.0197 -0.1869  0.1153
  808MPD2    H711907   1.975   0.301   9.480  0.5472 -0.0550  0.2123
  809MPD2     C11908   2.412   0.948   8.514 -0.8257  0.2921 -0.0630
  809MPD2    C111909   2.536   0.975   8.573 -0.0473  0.4265 -0.1757
  809MPD2    C211910   2.549   0.956   8.706  0.4834  0.7049  0.1481
  809MPD2    C311911   2.439   0.913   8.781 -0.4088  0.5224  0.7964
  809MPD2    C411912   2.319   0.900   8.724 -0.1962  0.5118 -0.5413
  809MPD2    C511913   2.300   0.915   8.587 -0.6810  0.1160 -0.3373
  809MPD2     H11914   2.650   0.955   8.745 -0.6261 -2.3523  2.8621
  809MPD2    H111915   2.230   0.873   8.779  1.7742  0.6509  2.6935
  809MPD2    H211916   2.392   0.957   8.408 -0.7416  0.6159 -0.0513
  809MPD2    H311917   2.205   0.909   8.535 -1.2004  0.7743  0.5510
  809MPD2     N11918   2.448   0.882   8.914  0.4153 -0.3315  0.1484
  809MPD2    H511919   2.363   0.859   8.965  0.4478 -1.7497 -0.4275
  809MPD2    N111920   2.651   1.004   8.499  0.8252 -0.6260  0.6186
  809MPD2    H711921   2.740   1.006   8.549  1.1901 -3.0706  0.0597
  810MPD2     C11922   1.469   4.423  10.389  0.8487  0.3679 -0.5140
  810MPD2    C111923   1.426   4.300  10.428  0.1463 -0.2092 -0.2443
  810MPD2    C211924   1.445   4.274  10.565  0.3558 -0.5544 -0.3693
  810MPD2    C311925   1.494   4.369  10.657 -0.0366 -0.5002 -0.1767
  810MPD2    C411926   1.523   4.496  10.614 -0.3117  0.3352  0.4486
  810MPD2    C511927   1.514   4.517  10.478 -0.4150  0.2895 -0.2955
  810MPD2     H11928   1.447   4.170  10.595  0.9731 -0.1577  0.9605
  810MPD2    H111929   1.566   4.572  10.678  2.1203 -0.2504 -0.4562
  810MPD2    H211930   1.471   4.447  10.283  1.4352  2.1198 -0.1009
  810MPD2    H311931   1.554   4.609  10.437  0.3798 -0.3907 -1.0491
  810MPD2     N11932   1.516   4.329  10.795 -0.1593  0.4669 -0.5502
  810MPD2    H511933   1.509   4.408  10.859  0.7936 -1.4965  1.9382
  810MPD2    N111934   1.372   4.209  10.334 -0.6038  0.1038  0.0056
  810MPD2    H711935   1.372   4.239  10.237 -0.1944  0.3684  0.0897
  811MPD2     C11936   0.914   3.889   9.636  1.0185 -0.2003 -0.1559
  811MPD2    C111937   0.988   3.985   9.705 -0.2575 -0.0365  0.2161
  811MPD2    C211938   0.988   4.109   9.656 -0.5887 -0.0322  0.5484
  811MPD2    C311939   0.948   4.139   9.529 -0.1012  0.3658 -0.0674
  811MPD2    C411940   0.883   4.041   9.450  0.2015  0.1538 -0.0281
  811MPD2    C511941   0.859   3.917   9.507 -0.7284  0.4140 -0.2724
  811MPD2     H11942   1.046   4.185   9.707 -0.4477 -0.1250  0.5254
  811MPD2    H111943   0.835   4.057   9.354 -1.3298 -1.8295  0.4111
  811MPD2    H211944   0.904   3.792   9.682  0.3940  0.1555  0.4541
  811MPD2    H311945   0.808   3.839   9.453  2.1094 -1.1284 -0.7077
  811MPD2     N11946   0.968   4.269   9.480  0.0944 -0.4209 -1.0638
  811MPD2    H511947   1.010   4.332   9.548  0.0890 -0.7670 -0.7394
  811MPD2    N111948   1.045   3.952   9.829  0.2923 -0.0804  0.6766
  811MPD2    H711949   1.028   3.858   9.865  2.6863 -1.1686 -0.9647
  812MPD2     C11950   0.284   3.963  11.945  0.2632  0.3118 -0.6445
  812MPD2    C111951   0.202   4.046  12.023 -0.2820 -0.7205  0.6608
  812MPD2    C211952   0.167   4.006  12.150  0.1694 -0.4365 -0.8601
  812MPD2    C311953   0.216   3.886  12.201  0.2505 -0.8208  0.2683
  812MPD2    C411954   0.300   3.803  12.126  0.1713  1.1969  0.2316
  812MPD2    C511955   0.335   3.844  11.997 -0.2334 -0.1134 -0.3809
  812MPD2     H11956   0.094   4.048  12.218 -2.1623 -2.1327 -2.3177
  812MPD2    H111957   0.343   3.710  12.162 -0.3967  2.1063  3.1746
  812MPD2    H211958   0.308   3.994  11.845  0.2562  0.6359 -0.5448
  812MPD2    H311959   0.396   3.773  11.943 -1.9697 -1.8287 -0.0811
  812MPD2     N11960   0.182   3.844  12.334  0.2522  0.2714  0.5844
  812MPD2    H511961   0.141   3.917  12.392  0.7405  1.1528 -0.1828
  812MPD2    N111962   0.175   4.178  11.976  0.3413  0.3728 -0.1251
  812MPD2    H711963   0.203   4.207  11.883 -2.0282  0.8151 -0.7177
  813MPD2     C11964   3.632   1.826  12.982 -0.4690  0.3862  0.1273
  813MPD2    C111965   3.691   1.800  13.103 -0.3595 -0.1189 -0.1582
  813MPD2    C211966   3.617   1.779  13.211 -0.5222 -0.0224 -0.1213
  813MPD2    C311967   3.482   1.799  13.208 -0.5035 -0.5846 -0.3769
  813MPD2    C411968   3.426   1.833  13.088 -0.6900  0.3033  0.2519
  813MPD2    C511969   3.498   1.838  12.977 -0.7692  0.4246  0.3689
  813MPD2     H11970   3.659   1.754  13.307  1.8876 -1.1644 -1.4914
  813MPD2    H111971   3.322   1.861  13.085 -0.8333 -0.2941 -0.2642
  813MPD2    H211972   3.694   1.828  12.893 -1.1842  1.4001 -0.3472
  813MPD2    H311973   3.444   1.864  12.887 -2.1367 -0.3003  0.9921
  813MPD2     N11974   3.415   1.804  13.331  0.2269 -0.3677 -0.0241
  813MPD2    H511975   3.462   1.756  13.407  0.7990 -0.4067 -0.3990
  813MPD2    N111976   3.829   1.789  13.105 -0.5468  1.1481 -0.2228
  813MPD2    H711977   3.879   1.825  13.025  0.2083  3.0573  1.0974
  814MPD2     C11978   4.252   2.844  12.237  0.5977 -0.0921  0.0436
  814MPD2    C111979   4.272   2.858  12.099 -0.1329 -0.2599  0.4171
  814MPD2    C211980   4.341   2.963  12.047  0.5189  0.0368 -0.3605
  814MPD2    C311981   4.409   3.044  12.137  0.8661 -0.3924 -0.1505
  814MPD2    C411982   4.392   3.026  12.272  0.1485 -0.0456 -0.2966
  814MPD2    C511983   4.317   2.926  12.319  0.0002  0.1438 -0.4511
  814MPD2     H11984   4.347   2.983  11.941  0.9767 -2.2973 -0.7673
  814MPD2    H111985   4.444   3.087  12.344 -0.1716  1.7865 -1.6181
  814MPD2    H211986   4.184   2.772  12.281  0.6781  1.0746  2.0812
  814MPD2    H311987   4.298   2.918  12.425 -2.1841  2.1939 -0.6870
  814MPD2     N11988   4.510   3.137  12.102 -0.9424  0.3100 -0.5687
  814MPD2    H511989   4.563   3.177  12.179 -1.9094  1.1226 -0.3371
  814MPD2    N111990   4.218   2.767  12.008 -0.4353 -0.5401 -0.1408
  814MPD2    H711991   4.239   2.797  11.913 -0.1576  2.5651  0.9050
  815MPD2     C11992   1.057   1.031  11.830 -0.0654  0.0307 -0.2398
  815MPD2    C111993   0.931   1.021  11.774  0.2797  0.4775  0.2607
  815MPD2    C211994   0.815   1.050  11.843  0.2120  0.5800  0.0949
  815MPD2    C311995   0.825   1.103  11.970  0.3616 -0.1856  0.2554
  815MPD2    C411996   0.943   1.098  12.038 -0.4713  0.1137  0.3158
  815MPD2    C511997   1.058   1.066  11.966 -0.4544  0.2463  0.0143
  815MPD2     H11998   0.720   1.064  11.793  0.6564  1.8027 -0.3933
  815MPD2    H111999   0.959   1.135  12.139 -0.8072 -1.7052  1.0271
  815MPD2    H212000   1.149   1.004  11.780 -0.3640 -2.0770  0.3597
  815MPD2    H312001   1.154   1.081  12.015 -0.6931  3.3693 -0.4650
  815MPD2     N12002   0.699   1.142  12.031 -0.1806  0.3044  0.1249
  815MPD2    H512003   0.617   1.139  11.972 -1.8068  0.8251  2.3212
  815MPD2    N112004   0.927   0.959  11.646  0.7648  0.1688 -0.6100
  815MPD2    H712005   1.021   0.949  11.609  0.1858 -2.0080 -1.4801
  816MPD2     C12006   0.218   0.577  16.956  0.2085  0.3065 -0.5876
  816MPD2    C112007   0.297   0.682  16.983  0.0104 -0.9255 -0.8366
  816MPD2    C212008   0.432   0.667  16.992 -0.3063 -0.5673 -0.2064
  816MPD2    C312009   0.486   0.543  16.984 -0.2177 -0.8048 -0.6766
  816MPD2    C412010   0.396   0.434  16.965  0.0864  0.5404 -0.1979
  816MPD2    C512011   0.266   0.454  16.960 -0.2332  1.1497  0.1178
  816MPD2     H12012   0.494   0.751  17.020 -2.2496  0.3405  1.3808
  816MPD2    H112013   0.429   0.331  16.969  0.8827  0.7992 -0.2285
  816MPD2    H212014   0.110   0.590  16.961  0.3250  0.9960  0.2415
  816MPD2    H312015   0.207   0.363  16.947  0.5262  0.6344  0.3009
  816MPD2     N12016   0.621   0.527  16.995 -0.2217  0.0048  0.0775
  816MPD2    H512017   0.675   0.610  17.018 -0.4026  0.6194 -1.7836
  816MPD2    N112018   0.235   0.803  16.991  0.0889 -0.2171 -0.1772
  816MPD2    H712019   0.141   0.808  16.952 -0.3334 -0.5850  0.7925
  817MPD2     C12020   4.650   1.504   9.758 -0.2854  0.4739 -0.3965
  817MPD2    C112021   4.644   1.468   9.624 -0.6407 -0.5836  0.1982
  817MPD2    C212022   4.547   1.536   9.546  0.0062 -0.1307 -0.5709
  817MPD2    C312023   4.471   1.645   9.596  0.1111 -0.6146  0.5585
  817MPD2    C412024   4.476   1.679   9.732 -0.3981 -0.4324  0.3394
  817MPD2    C512025   4.567   1.598   9.803 -0.0900  0.3662 -0.0737
  817MPD2     H12026   4.541   1.532   9.438 -2.0968 -3.4005 -0.3362
  817MPD2    H112027   4.422   1.762   9.776 -1.4328 -0.3079 -1.1702
  817MPD2    H212028   4.711   1.451   9.830 -3.3110 -3.1487 -0.4770
  817MPD2    H312029   4.577   1.631   9.906  0.3010 -1.0065  0.3142
  817MPD2     N12030   4.380   1.712   9.518 -0.2627  0.1820  0.4173
  817MPD2    H512031   4.377   1.681   9.422 -0.1095 -2.8177  1.3858
  817MPD2    N112032   0.011   1.377   9.559  1.2335 -0.1024 -0.2479
  817MPD2    H712033   4.697   1.351   9.467  0.6517  1.6453 -0.5281
  818MPD2     C12034   3.435   1.446   9.792 -0.7148  0.3878  0.4807
  818MPD2    C112035   3.427   1.359   9.904 -0.0617  0.1903 -0.0838
  818MPD2    C212036   3.536   1.273   9.930  0.7132  0.0470  0.4992
  818MPD2    C312037   3.648   1.273   9.850 -0.4008  0.4998  0.1698
  818MPD2    C412038   3.657   1.363   9.746  0.1525 -0.2412 -0.1957
  818MPD2    C512039   3.557   1.451   9.724 -0.1509  0.4466 -0.5653
  818MPD2     H12040   3.531   1.204  10.013  1.4277 -0.0147  0.4838
  818MPD2    H112041   3.749   1.368   9.690  0.1639 -0.2329 -0.1765
  818MPD2    H212042   3.364   1.517   9.752  0.1371  0.4011 -1.0160
  818MPD2    H312043   3.576   1.530   9.653 -0.5186 -0.7951 -2.0554
  818MPD2     N12044   3.766   1.191   9.870  0.4297 -0.0329  0.0947
  818MPD2    H512045   3.835   1.213   9.799  1.8945  0.1760  1.5870
  818MPD2    N112046   3.316   1.363  10.003  0.0125 -0.1004 -0.3714
  818MPD2    H712047   3.342   1.309  10.085 -1.8767 -1.0301 -0.3778
  819MPD2     C12048   2.039   4.016  15.583  0.7365  0.1429  0.0879
  819MPD2    C112049   1.994   3.898  15.525 -0.2191 -0.0503  0.2327
  819MPD2    C212050   2.057   3.779  15.554 -0.3231  0.3065 -0.2985
  819MPD2    C312051   2.157   3.776  15.650  0.0691  0.1478 -0.4058
  819MPD2    C412052   2.200   3.897  15.712  0.3799 -0.2171 -0.3740
  819MPD2    C512053   2.139   4.014  15.679  0.4647  0.4371 -0.7213
  819MPD2     H12054   2.035   3.695  15.489  0.5318 -1.0797  1.2170
  819MPD2    H112055   2.278   3.916  15.785 -0.2528  0.5761  0.1021
  819MPD2    H212056   1.991   4.112  15.579 -0.2534 -0.4224 -1.4558
  819MPD2    H312057   2.175   4.094  15.742 -0.4314  1.2304 -1.2300
  819MPD2     N12058   2.221   3.654  15.671 -0.0958  0.2746 -0.1820
  819MPD2    H512059   2.198   3.569  15.621 -1.4988 -0.3950  1.6186
  819MPD2    N112060   1.876   3.919  15.449  0.2350  0.0871 -0.3820
  819MPD2    H712061   1.854   4.018  15.440  0.7672  0.4347  2.1582
  820MPD2     C12062   1.000   4.332  15.194 -0.7706  0.6247  0.0005
  820MPD2    C112063   1.048   4.275  15.308  0.3778 -0.4302  0.1518
  820MPD2    C212064   1.181   4.231  15.314 -0.5661  0.1857  0.0003
  820MPD2    C312065   1.262   4.253  15.201 -0.9798 -0.2716  0.0653
  820MPD2    C412066   1.217   4.328  15.094 -0.5847  1.2969 -0.1889
  820MPD2    C512067   1.080   4.362  15.092 -0.0613 -0.1729  1.0106
  820MPD2     H12068   1.216   4.169  15.395  1.9543  1.4557 -0.1178
  820MPD2    H112069   1.279   4.357  15.011 -0.7234  2.0367 -0.0342
  820MPD2    H212070   0.896   4.354  15.176 -1.2080 -1.2131  0.1994
  820MPD2    H312071   1.040   4.408  15.002 -1.8566 -0.3671  1.7102
  820MPD2     N12072   1.387   4.183  15.185 -0.1107  0.7365  0.1656
  820MPD2    H512073   1.420   4.183  15.089 -0.6268 -2.5113 -0.0022
  820MPD2    N112074   0.952   4.235  15.406 -0.6484 -0.2965 -0.5660
  820MPD2    H712075   0.852   4.243  15.391 -0.6395  2.3447  0.8500
  821MPD2     C12076   1.855   0.805  13.529 -0.4231  0.2664 -0.3528
  821MPD2    C112077   1.910   0.695  13.466  0.2185 -0.1733  0.3486
  821MPD2    C212078   1.993   0.718  13.359  0.0828 -0.2639 -0.2363
  821MPD2    C312079   2.029   0.847  13.323  0.2291 -0.4508  1.2788
  821MPD2    C412080   1.975   0.953  13.388 -0.0979  0.6505 -0.3111
  821MPD2    C512081   1.889   0.928  13.489 -0.7470  0.0128  0.7591
  821MPD2     H12082   2.019   0.637  13.292 -2.0874  0.4566 -1.9358
  821MPD2    H112083   2.001   1.054  13.358 -1.8512  1.3501  0.5123
  821MPD2    H212084   1.779   0.797  13.605  0.3978  0.7409  0.5067
  821MPD2    H312085   1.838   1.005  13.545 -0.8836 -0.4940  1.3350
  821MPD2     N12086   2.112   0.888  13.216 -0.1777 -0.4394  0.4288
  821MPD2    H512087   2.122   0.989  13.216  1.2512 -0.5956 -0.8401
  821MPD2    N112088   1.884   0.556  13.500  0.6848  0.5391  0.0748
  821MPD2    H712089   1.930   0.483  13.446  2.5074  0.3294  1.9416
  822MPD2     C12090   2.456   0.193  15.699  0.9741 -0.3575 -0.1822
  822MPD2    C112091   2.447   0.169  15.829 -0.6930 -0.1924  0.2938
  822MPD2    C212092   2.430   0.277  15.915  0.4121  0.3961  0.0007
  822MPD2    C312093   2.450   0.408  15.876 -0.3940  0.3311  0.4298
  822MPD2    C412094   2.489   0.437  15.748  0.1339  0.8409  0.5026
  822MPD2    C512095   2.479   0.325  15.656 -0.1498 -0.5788  0.7901
  822MPD2     H12096   2.394   0.263  16.016  1.4135  0.4272  0.3560
  822MPD2    H112097   2.519   0.533  15.708  2.5214 -0.1020 -0.0175
  822MPD2    H212098   2.454   0.116  15.624  2.4775 -0.7628  0.1911
  822MPD2    H312099   2.505   0.344  15.553 -0.6817 -1.2657  0.5265
  822MPD2     N12100   2.434   0.499  15.980 -0.1285 -0.4410 -0.4066
  822MPD2    H512101   2.399   0.456  16.064 -0.8754 -0.9708 -0.9911
  822MPD2    N112102   2.438   0.035  15.879 -0.5435 -0.3249 -0.6190
  822MPD2    H712103   2.419   0.021  15.978  0.5904 -1.0097 -0.4944
  823MPD2     C12104   2.463   0.671  16.803  0.2788 -0.0728  0.3830
  823MPD2    C112105   2.438   0.595  16.690 -0.6428 -0.3407 -0.0194
  823MPD2    C212106   2.381   0.473  16.712  1.2360 -1.1036  0.1897
  823MPD2    C312107   2.357   0.423  16.838 -0.1037  0.0112  0.5719
  823MPD2    C412108   2.378   0.508  16.948  0.2329  0.3988 -0.2503
  823MPD2    C512109   2.424   0.632  16.923 -0.8338  0.3968 -0.7108
  823MPD2     H12110   2.355   0.410  16.628 -0.7512  0.4757 -0.3967
  823MPD2    H112111   2.366   0.482  17.053  1.6722  1.5226  0.1980
  823MPD2    H212112   2.516   0.766  16.792  0.5474 -0.0353  1.9862
  823MPD2    H312113   2.456   0.690  17.009 -0.0083  0.1757 -0.8747
  823MPD2     N12114   2.325   0.291  16.867 -0.0007  0.4534 -0.0029
  823MPD2    H512115   2.314   0.272  16.966 -1.3969  2.7321  0.2748
  823MPD2    N112116   2.477   0.649  16.565 -1.0846  0.2785 -0.8985
  823MPD2    H712117   2.539   0.729  16.568 -1.7193  0.7303  0.3533
  824MPD2     C12118   2.599   3.912  15.730 -0.1900  0.4181 -0.0603
  824MPD2    C112119   2.686   4.006  15.691 -0.0356  0.0940  0.0400
  824MPD2    C212120   2.808   3.973  15.630 -0.0138  0.3561 -0.6469
  824MPD2    C312121   2.850   3.849  15.597 -0.8301 -0.1909 -0.8685
  824MPD2    C412122   2.755   3.757  15.624  0.0578  0.4133 -0.3153
  824MPD2    C512123   2.638   3.785  15.691 -0.2642  0.4974 -0.5409
  824MPD2     H12124   2.884   4.050  15.615 -2.4178  2.9069  0.1524
  824MPD2    H112125   2.773   3.654  15.597 -1.7216 -0.0263  0.1749
  824MPD2    H212126   2.513   3.914  15.796 -0.6094  2.3072 -0.6826
  824MPD2    H312127   2.588   3.697  15.732 -0.5618  0.4780 -0.9534
  824MPD2     N12128   2.985   3.821  15.552  0.0587 -0.6946 -0.3660
  824MPD2    H512129   3.049   3.899  15.540 -0.9438  0.4859  1.9921
  824MPD2    N112130   2.669   4.136  15.748  0.2292 -0.2141 -0.6993
  824MPD2    H712131   2.751   4.196  15.751  0.4186 -0.5144  0.1617
  825MPD2     C12132   3.779   4.013  15.298 -0.6426  0.4985  0.0731
  825MPD2    C112133   3.640   4.029  15.298 -0.0015  0.4204 -0.6000
  825MPD2    C212134   3.597   4.142  15.238 -0.8810 -0.0551 -0.5632
  825MPD2    C312135   3.671   4.233  15.167  0.0950 -0.2249 -0.2681
  825MPD2    C412136   3.809   4.215  15.171  0.3875 -0.8694 -0.7128
  825MPD2    C512137   3.862   4.111  15.241 -0.0568  0.1896 -0.0522
  825MPD2     H12138   3.490   4.158  15.234 -1.3100 -2.9228 -0.3946
  825MPD2    H112139   3.885   4.275  15.122 -1.2396  2.8824  1.3140
  825MPD2    H212140   3.824   3.928  15.347 -0.9915  0.1040 -0.2935
  825MPD2    H312141   3.967   4.083  15.249 -0.6243 -2.2751 -1.4037
  825MPD2     N12142   3.617   4.342  15.096  0.5039 -0.1347 -0.4037
  825MPD2    H512143   3.673   4.408  15.043  2.0122 -1.5198 -0.5359
  825MPD2    N112144   3.550   3.933  15.363 -0.4136 -0.0857 -0.5165
  825MPD2    H712145   3.596   3.847  15.388 -0.9325 -0.4679 -0.8714
  826MPD2     C12146   3.711   4.027  13.746 -0.0018  0.0526  0.1506
  826MPD2    C112147   3.764   4.093  13.636 -0.1383  0.0557  0.2271
  826MPD2    C212148   3.687   4.194  13.582  0.8676  0.7125 -0.3506
  826MPD2    C312149   3.569   4.235  13.645  0.0110  0.0532 -0.0702
  826MPD2    C412150   3.527   4.178  13.762  0.4015 -0.4296 -0.2407
  826MPD2    C512151   3.597   4.077  13.816  0.2650 -0.3398 -0.0039
  826MPD2     H12152   3.726   4.232  13.489  1.2638 -2.2975 -1.4056
  826MPD2    H112153   3.440   4.215  13.815 -0.4988 -2.0250 -0.6095
  826MPD2    H212154   3.762   3.944  13.793 -2.0126 -0.0937  2.0843
  826MPD2    H312155   3.580   4.018  13.905 -0.2724  1.4996  1.1222
  826MPD2     N12156   3.485   4.333  13.585  0.2818  0.1301  0.4024
  826MPD2    H512157   3.404   4.354  13.642 -0.4958 -0.7454 -0.3577
  826MPD2    N112158   3.885   4.060  13.577  0.5747  0.2402  0.0629
  826MPD2    H712159   3.941   3.987  13.620  1.5393 -0.6538 -2.7626
  827MPD2     C12160   4.350   0.651  10.011 -0.3973  1.0105 -0.3428
  827MPD2    C112161   4.262   0.632  10.118 -0.0800 -0.4622 -0.6623
  827MPD2    C212162   4.126   0.618  10.095  0.3268 -0.0208 -0.6571
  827MPD2    C312163   4.075   0.621   9.966  0.4541 -0.0943  0.4783
  827MPD2    C412164   4.163   0.648   9.860  0.0477  0.1959 -0.2547
  827MPD2    C512165   4.290   0.656   9.887 -0.0725 -0.3558 -0.0754
  827MPD2     H12166   4.061   0.593  10.178  1.2511 -2.7056 -0.7175
  827MPD2    H112167   4.124   0.652   9.759  0.4911  0.5897 -0.4060
  827MPD2    H212168   4.454   0.677  10.024  0.1543 -0.8054 -1.1954
  827MPD2    H312169   4.353   0.676   9.801  1.6762  1.3832  1.6180
  827MPD2     N12170   3.935   0.591   9.960  0.4308  0.3646  0.1286
  827MPD2    H512171   3.889   0.570  10.047 -2.3913 -0.9008 -1.6675
  827MPD2    N112172   4.333   0.627  10.245  0.8345 -0.3813  0.3459
  827MPD2    H712173   4.434   0.619  10.249  0.8776 -0.3800 -0.6238
  828MPD2     C12174   2.389   0.555  12.885 -0.0451 -0.6582 -0.4666
  828MPD2    C112175   2.386   0.594  12.750  0.0644 -0.2537  0.9844
  828MPD2    C212176   2.492   0.553  12.669  0.0933  0.8857  0.4748
  828MPD2    C312177   2.606   0.502  12.719 -0.3426 -0.4313 -0.1440
  828MPD2    C412178   2.612   0.478  12.852 -0.3991  0.0041  0.0243
  828MPD2    C512179   2.505   0.496  12.936  0.5013 -0.0167  0.3496
  828MPD2     H12180   2.496   0.588  12.567 -1.3904 -1.0621 -0.2459
  828MPD2    H112181   2.690   0.432  12.913  0.7387  0.0265 -1.4142
  828MPD2    H212182   2.307   0.570  12.953 -1.2621 -2.3969 -1.5458
  828MPD2    H312183   2.504   0.458  13.038 -0.3545 -0.7388  0.0687
  828MPD2     N12184   2.725   0.466  12.640  0.0083 -0.4670  0.7500
  828MPD2    H512185   2.801   0.424  12.694 -1.0760 -2.3973  0.7625
  828MPD2    N112186   2.285   0.660  12.685 -0.4051  0.5975  0.3768
  828MPD2    H712187   2.306   0.672  12.586 -2.2705  2.3657  0.1899
  829MPD2     C12188   2.449   1.088  11.979  0.5347 -0.2210  0.0849
  829MPD2    C112189   2.322   1.040  11.961 -0.9482  0.4599  0.3042
  829MPD2    C212190   2.242   1.002  12.069 -0.4624  0.3304 -0.5307
  829MPD2    C312191   2.299   1.012  12.193  0.3868  0.2147  0.0714
  829MPD2    C412192   2.427   1.060  12.210 -0.3096  0.2488 -0.5425
  829MPD2    C512193   2.501   1.103  12.101 -0.0690  0.2085  0.8670
  829MPD2     H12194   2.146   0.956  12.050  0.1385 -1.1476 -0.0644
  829MPD2    H112195   2.460   1.078  12.312 -0.2627  0.7210 -0.6424
  829MPD2    H212196   2.502   1.118  11.889 -1.1684  1.7699 -0.2673
  829MPD2    H312197   2.601   1.141  12.120  0.5602 -1.5131  1.0497
  829MPD2     N12198   2.235   0.975  12.318  0.5234 -0.4564  0.4814
  829MPD2    H512199   2.289   0.987  12.404  0.5436 -2.5309  0.7566
  829MPD2    N112200   2.286   1.007  11.830 -0.0469  0.2899  0.3487
  829MPD2    H712201   2.346   1.029  11.751 -0.2220 -0.1008  0.1070
  830MPD2     C12202   2.934   3.272  15.484  0.2073 -0.7421  0.2758
  830MPD2    C112203   2.815   3.334  15.474  0.0227  0.9999  0.2117
  830MPD2    C212204   2.803   3.439  15.381 -0.1070 -0.2407 -0.3733
  830MPD2    C312205   2.909   3.484  15.301  0.0412  0.0598  0.0338
  830MPD2    C412206   3.027   3.415  15.313 -0.1007  0.3598 -0.0108
  830MPD2    C512207   3.041   3.313  15.405  0.3519  0.7417  0.4415
  830MPD2     H12208   2.714   3.501  15.381  1.3943  1.8780  3.0273
  830MPD2    H112209   3.110   3.435  15.245 -0.5289  0.4505 -0.5073
  830MPD2    H212210   2.958   3.193  15.555 -0.6923  0.1041  1.5382
  830MPD2    H312211   3.124   3.244  15.412  0.2739  0.5534 -0.5401
  830MPD2     N12212   2.898   3.592  15.212 -0.0617 -0.0353  0.3595
  830MPD2    H512213   2.985   3.634  15.181 -1.5132  3.3369  0.8362
  830MPD2    N112214   2.709   3.290  15.548 -0.3247  0.5894 -0.6674
  830MPD2    H712215   2.722   3.225  15.625 -1.4806  1.5400  0.3191
  831MPD2     C12216   2.780   0.398  16.302 -0.2718 -0.1702  0.6128
  831MPD2    C112217   2.740   0.310  16.196  0.2365  0.4910  0.0032
  831MPD2    C212218   2.635   0.222  16.223  0.1632 -0.2755  0.1668
  831MPD2    C312219   2.564   0.224  16.340  0.9159 -0.1919 -0.5049
  831MPD2    C412220   2.607   0.307  16.435  0.1667 -0.5502 -0.1386
  831MPD2    C512221   2.707   0.390  16.415 -0.1803 -0.0348  0.1026
  831MPD2     H12222   2.604   0.155  16.144 -0.2970  0.9383 -0.6817
  831MPD2    H112223   2.548   0.306  16.526  1.5918 -1.4881  0.7804
  831MPD2    H212224   2.860   0.472  16.300 -0.1553 -0.3265 -0.3194
  831MPD2    H312225   2.728   0.460  16.495 -0.1251 -2.1187  1.8973
  831MPD2     N12226   2.451   0.152  16.367 -0.1027  0.2092  0.4032
  831MPD2    H512227   2.409   0.165  16.458 -0.8825 -1.1423  0.2411
  831MPD2    N112228   2.794   0.307  16.068  0.1249 -0.4770  0.4911
  831MPD2    H712229   2.772   0.228  16.007  0.1079  0.5352 -0.8057
  832MPD2     C12230   0.953   1.684  17.141  0.7140 -0.3365  0.0632
  832MPD2    C112231   0.946   1.818  17.119  0.2390  0.0348 -0.7570
  832MPD2    C212232   0.901   1.868  16.998 -0.2415 -0.0630  0.8659
  832MPD2    C312233   0.846   1.780  16.908 -0.6130 -0.2841 -0.4020
  832MPD2    C412234   0.853   1.642  16.942  0.0451 -0.2902  1.1470
  832MPD2    C512235   0.912   1.590  17.054  0.2309 -0.7194 -0.1936
  832MPD2     H12236   0.891   1.975  16.981  0.4693 -0.1613 -0.1723
  832MPD2    H112237   0.827   1.575  16.860 -0.8259 -2.0542  2.8603
  832MPD2    H212238   0.972   1.637  17.237  0.8446 -0.3747  0.0191
  832MPD2    H312239   0.911   1.484  17.075  0.1398 -0.4027  1.4159
  832MPD2     N12240   0.794   1.816  16.782  0.0973 -0.3369 -0.4139
  832MPD2    H512241   0.749   1.738  16.735 -1.3872  0.5551 -0.4454
  832MPD2    N112242   0.983   1.906  17.225  0.0112 -0.3794 -0.5968
  832MPD2    H712243   1.021   1.858  17.307 -1.6473  0.9637  0.9479
  833MPD2     C12244   3.376   3.077  12.375 -0.2354 -0.3404  0.7367
  833MPD2    C112245   3.318   3.160  12.284 -0.0530 -0.1358  0.3570
  833MPD2    C212246   3.319   3.124  12.153 -0.4405 -0.2024 -0.4554
  833MPD2    C312247   3.376   3.007  12.105  0.2316  0.6752  0.2908
  833MPD2    C412248   3.439   2.927  12.196 -0.0281  0.3007 -0.6521
  833MPD2    C512249   3.433   2.961  12.331  0.6855  0.2158 -0.2344
  833MPD2     H12250   3.284   3.197  12.081 -0.8545  0.4333  0.3941
  833MPD2    H112251   3.488   2.836  12.163 -1.2240 -0.3477 -0.6383
  833MPD2    H212252   3.389   3.099  12.481 -3.6273  0.8359  0.8829
  833MPD2    H312253   3.482   2.903  12.408 -2.4035 -2.4417 -0.2540
  833MPD2     N12254   3.374   2.971  11.967  0.0603 -0.4492 -0.5311
  833MPD2    H512255   3.423   2.884  11.949  0.0185 -0.1149 -2.2538
  833MPD2    N112256   3.256   3.277  12.336  0.6273  0.4085  0.0949
  833MPD2    H712257   3.263   3.287  12.437 -0.3117  1.6470  0.0422
  834MPD2     C12258   2.842   2.254  11.604 -0.0057 -0.2085 -0.5616
  834MPD2    C112259   2.873   2.304  11.483 -0.3430 -0.2893 -0.2319
  834MPD2    C212260   2.942   2.428  11.488  0.2155  0.3142 -0.4790
  834MPD2    C312261   2.989   2.488  11.600  0.4819  0.3823  1.0953
  834MPD2    C412262   2.965   2.428  11.722 -0.1492  0.6645  0.3725
  834MPD2    C512263   2.897   2.309  11.721 -0.4469 -0.3324  0.1912
  834MPD2     H12264   2.932   2.486  11.397  0.2459 -1.6041 -1.7074
  834MPD2    H112265   3.002   2.461  11.818 -1.1651 -0.6041  1.2112
  834MPD2    H212266   2.781   2.166  11.621 -2.2639  1.7769  1.5876
  834MPD2    H312267   2.880   2.249  11.810 -1.0852  0.8624  0.8818
  834MPD2     N12268   3.058   2.611  11.589 -0.1222 -0.4284 -0.3389
  834MPD2    H512269   3.072   2.649  11.496  1.1139  0.1258  0.0605
  834MPD2    N112270   2.811   2.246  11.374 -0.0492 -0.1857 -0.0612
  834MPD2    H712271   2.743   2.177  11.405  0.0870  0.0449  0.7712
  835MPD2     C12272   3.121   0.765  10.854  0.0884 -0.1151  0.4302
  835MPD2    C112273   3.016   0.849  10.867 -0.3033  0.7309  0.1756
  835MPD2    C212274   2.955   0.862  10.992 -0.3739  0.3111  0.1923
  835MPD2    C312275   3.002   0.804  11.109 -0.6866  0.5158  0.2717
  835MPD2    C412276   3.114   0.724  11.094 -0.0119  0.0363 -0.7751
  835MPD2    C512277   3.163   0.708  10.969  0.3318 -0.3447  0.6160
  835MPD2     H12278   2.876   0.935  11.002 -1.2331 -0.7869  1.4842
  835MPD2    H112279   3.162   0.670  11.175 -0.9996 -0.6121 -0.6234
  835MPD2    H212280   3.175   0.742  10.763  0.0350  0.3143  0.2909
  835MPD2    H312281   3.251   0.645  10.958  0.6313  0.2854 -0.5697
  835MPD2     N12282   2.944   0.820  11.231  0.0512  0.5445  0.3551
  835MPD2    H512283   2.996   0.772  11.305 -0.2966 -0.1916  0.1252
  835MPD2    N112284   2.952   0.912  10.761 -0.2784  0.1141 -0.2939
  835MPD2    H712285   2.863   0.953  10.789 -1.4493 -2.5941 -0.0803
  836MPD2     C12286   2.230   1.191  11.352  0.2654 -0.1770  0.1101
  836MPD2    C112287   2.311   1.188  11.464 -0.0469 -0.2659  0.5515
  836MPD2    C212288   2.266   1.243  11.585  0.0640  0.4119  0.3194
  836MPD2    C312289   2.128   1.273  11.592  0.8359  0.5138  0.3987
  836MPD2    C412290   2.044   1.260  11.485 -0.2822  0.7010  0.0137
  836MPD2    C512291   2.104   1.228  11.366  0.5488 -0.1536 -0.3331
  836MPD2     H12292   2.330   1.254  11.671 -0.7315 -4.9039  1.5634
  836MPD2    H112293   1.938   1.276  11.497 -0.5573 -1.1718  0.0428
  836MPD2    H212294   2.266   1.158  11.255 -0.0276  0.8222 -0.3386
  836MPD2    H312295   2.043   1.228  11.276  0.2806  1.9894 -0.1436
  836MPD2     N12296   2.064   1.299  11.713 -0.1218 -0.4518 -0.3270
  836MPD2    H512297   1.964   1.295  11.696 -0.4015  1.1042  0.9734
  836MPD2    N112298   2.440   1.136  11.450  0.4154  0.3636 -0.2455
  836MPD2    H712299   2.457   1.091  11.361 -0.9380 -1.7888  0.5833
  837MPD2     C12300   1.026   0.253   9.763 -0.3138 -0.0646  0.0963
  837MPD2    C112301   0.990   0.257   9.632 -0.0763 -0.5955 -0.6285
  837MPD2    C212302   0.929   0.368   9.592  0.0404  0.7454  0.0199
  837MPD2    C312303   0.909   0.478   9.672 -0.5354 -0.3695  0.0764
  837MPD2    C412304   0.956   0.478   9.798 -0.1871 -0.1453 -0.2502
  837MPD2    C512305   1.015   0.366   9.843 -0.0690  0.1436 -0.2912
  837MPD2     H12306   0.893   0.370   9.490  2.1975 -1.0424 -0.7729
  837MPD2    H112307   0.931   0.559   9.866 -0.7186  1.7611 -2.7008
  837MPD2    H212308   1.091   0.175   9.803 -1.4511  0.1650  2.4037
  837MPD2    H312309   1.045   0.362   9.948 -0.5921 -2.1864 -0.2287
  837MPD2     N12310   0.827   0.580   9.619  0.1402 -0.2318 -0.3213
  837MPD2    H512311   0.803   0.573   9.521 -0.6949 -0.6260 -0.0892
  837MPD2    N112312   0.998   0.153   9.539  0.3421 -0.2654 -0.0777
  837MPD2    H712313   0.965   0.171   9.444 -1.4262  0.4098  0.6531
  838MPD2     C12314   4.220   3.913  12.019 -0.3201  0.6338  0.7951
  838MPD2    C112315   4.211   3.789  11.986  0.5058 -0.3952 -0.5387
  838MPD2    C212316   4.117   3.707  12.054 -0.1608  0.5972 -0.8402
  838MPD2    C312317   4.031   3.769  12.142 -0.1952 -0.3029 -0.2373
  838MPD2    C412318   4.038   3.898  12.179 -0.7787 -0.0856 -0.4442
  838MPD2    C512319   4.134   3.970  12.117  0.2160 -0.6296  0.6013
  838MPD2     H12320   4.100   3.603  12.030 -1.4906  0.6420 -0.0983
  838MPD2    H112321   3.968   3.949  12.244  0.4003  1.1609 -0.1430
  838MPD2    H212322   4.272   3.976  11.948  0.6016  0.0871  0.9943
  838MPD2    H312323   4.150   4.075  12.137 -3.0662  0.2562 -1.4153
  838MPD2     N12324   3.937   3.686  12.200  0.6863 -0.3034 -0.1805
  838MPD2    H512325   3.937   3.588  12.171  0.9858 -0.6043  0.8365
  838MPD2    N112326   4.274   3.750  11.868  0.0511  0.0994  1.0053
  838MPD2    H712327   4.306   3.827  11.810 -0.3976 -0.9293 -0.6340
  839MPD2     C12328   3.910   2.950  11.785  0.0451  0.5358 -0.2016
  839MPD2    C112329   3.906   2.994  11.657  0.5655  0.2933 -0.6498
  839MPD2    C212330   3.989   3.093  11.615  0.1340 -0.0959 -0.4491
  839MPD2    C312331   4.070   3.155  11.712 -0.0986 -0.0863  0.2694
  839MPD2    C412332   4.080   3.105  11.832 -0.3385 -0.1073 -0.8691
  839MPD2    C512333   3.995   3.006  11.873 -0.1400  0.3469  0.1921
  839MPD2     H12334   3.982   3.131  11.514  0.3365  1.2572  0.0458
  839MPD2    H112335   4.144   3.148  11.908  0.5778  0.2577 -1.8544
  839MPD2    H212336   3.845   2.873  11.826 -1.7655  2.2294  0.1291
  839MPD2    H312337   4.003   2.967  11.974  0.7014  0.2807  0.0957
  839MPD2     N12338   4.164   3.254  11.680 -0.4739  0.2381 -0.7133
  839MPD2    H512339   4.214   3.298  11.757 -2.7789 -1.6286  1.8098
  839MPD2    N112340   3.821   2.936  11.561 -0.2563  0.7745 -0.2361
  839MPD2    H712341   3.824   2.965  11.464 -0.1117 -1.5860 -0.9491
  840MPD2     C12342   0.189   0.868  10.373  0.7987 -0.1678 -0.1879
  840MPD2    C112343   0.122   0.847  10.493  0.3582  0.8662 -0.0762
  840MPD2    C212344   0.150   0.928  10.601 -0.0343  0.3230  0.0420
  840MPD2    C312345   0.248   1.035  10.594  0.2821 -0.1784  0.1277
  840MPD2    C412346   0.311   1.055  10.474 -0.2215 -0.5113 -0.1031
  840MPD2    C512347   0.285   0.966  10.372  0.0386 -0.6841 -0.2574
  840MPD2     H12348   0.113   0.896  10.697 -3.5651 -2.4247 -2.2342
  840MPD2    H112349   0.389   1.130  10.467 -0.7022  0.2140  2.1350
  840MPD2    H212350   0.175   0.799  10.291  1.8429  0.1418 -0.6276
  840MPD2    H312351   0.340   0.983  10.280  0.3863 -0.7889 -0.0655
  840MPD2     N12352   0.283   1.124  10.700  0.0764 -0.6902  0.0371
  840MPD2    H512353   0.370   1.175  10.688  1.5713 -3.4277 -0.8151
  840MPD2    N112354   0.027   0.747  10.488 -0.5921 -0.0409 -0.0923
  840MPD2    H712355   0.009   0.704  10.398  2.7635  0.6570 -1.0839
  841MPD2     C12356   4.455   1.710  14.782  0.0444  0.1340 -0.0889
  841MPD2    C112357   4.515   1.595  14.746 -0.1560  0.0851  0.7530
  841MPD2    C212358   4.629   1.598  14.671  0.5336  0.5126 -0.2832
  841MPD2    C312359   4.683   1.718  14.635  0.4557  0.9588  0.3093
  841MPD2    C412360   4.621   1.843  14.672 -0.0927 -0.1706 -0.5396
  841MPD2    C512361   4.506   1.832  14.751 -0.2059 -0.0821  0.0586
  841MPD2     H12362   4.671   1.503  14.641 -0.1184 -0.9764  3.4296
  841MPD2    H112363   4.674   1.936  14.659 -0.8410  0.3489  0.1341
  841MPD2    H212364   4.375   1.708  14.855  0.7307  0.4740  0.6798
  841MPD2    H312365   4.449   1.918  14.784 -1.3078 -1.3227  1.4022
  841MPD2     N12366   0.081   1.708  14.565 -0.0097  0.1809  0.1252
  841MPD2    H512367   0.115   1.612  14.568 -0.4541  0.0004 -0.7158
  841MPD2    N112368   4.487   1.466  14.793  0.2211 -0.5995 -0.2402
  841MPD2    H712369   4.544   1.388  14.760 -0.2620 -0.8975 -0.3695
  842MPD2     C12370   4.687   1.813  16.388  0.1332 -0.2744  0.4603
  842MPD2    C112371   4.547   1.811  16.387 -0.7665  0.0340 -0.0514
  842MPD2    C212372   4.481   1.730  16.476 -0.2258 -0.4342 -0.7920
  842MPD2    C312373   4.560   1.656  16.570 -0.1117 -0.2822 -0.1801
  842MPD2    C412374   4.695   1.646  16.554  0.2084  0.3422 -0.1215
  842MPD2    C512375   0.044   1.738  16.472 -0.3123  0.2167 -0.0708
  842MPD2     H12376   4.376   1.748  16.494 -0.3325 -1.6858 -0.1395
  842MPD2    H112377   0.041   1.581  16.610 -0.8541 -0.6789 -0.0376
  842MPD2    H212378   0.012   1.883  16.318 -1.0848  0.1669  0.0944
  842MPD2    H312379   0.152   1.742  16.472 -0.2335 -1.9527 -1.0053
  842MPD2     N12380   4.503   1.575  16.671  0.0761  1.2129 -0.0161
  842MPD2    H512381   4.570   1.515  16.717  1.1333  1.1574 -1.6304
  842MPD2    N112382   4.485   1.899  16.293  0.1446  0.4588 -0.2039
  842MPD2    H712383   4.547   1.953  16.233  0.9751 -1.4167 -1.0231
  843MPD2     C12384   1.413   2.037  17.492  0.2278  0.3089  0.1509
  843MPD2    C112385   1.483   1.962  17.584  0.1794 -0.0878  0.3370
  843MPD2    C212386   1.599   2.010  17.631 -0.0594 -0.6067  0.0001
  843MPD2    C312387   1.642   2.135  17.585  0.3098 -0.9577  0.1845
  843MPD2    C412388   1.572   2.200  17.488  0.2067 -0.2620  0.3382
  843MPD2    C512389   1.457   2.154  17.442 -0.4167 -0.6971  0.0180
  843MPD2     H12390   1.658   1.941   0.006 -2.5111 -1.3032  1.6406
  843MPD2    H112391   1.601   2.296  17.448  0.1884  0.2708  1.6083
  843MPD2    H212392   1.319   2.002  17.451  0.7265  0.6491 -1.2624
  843MPD2    H312393   1.390   2.208  17.376  2.1127  2.0119 -0.3468
  843MPD2     N12394   1.748   2.211  17.642 -0.5340  0.1280 -0.0014
  843MPD2    H512395   1.767   2.306  17.611  1.1912 -0.6925 -1.4771
  843MPD2    N112396   1.424   1.839  17.633 -0.4152  0.2879 -0.1995
  843MPD2    H712397   1.337   1.809  17.590 -0.5514  3.4699 -2.1399
  844MPD2     C12398   0.824   1.705  16.239  0.7635 -0.6599  0.4878
  844MPD2    C112399   0.829   1.618  16.345  0.1871  0.2507  0.1590
  844MPD2    C212400   0.893   1.655  16.459  0.6608 -0.6095  0.5703
  844MPD2    C312401   0.961   1.781  16.469  0.5669 -1.4759 -0.0173
  844MPD2    C412402   0.958   1.863  16.361  0.4957  0.0651 -0.6575
  844MPD2    C512403   0.886   1.824  16.248 -0.3228  0.1669 -0.5600
  844MPD2     H12404   0.888   1.580  16.538  1.2079 -1.1089  0.1345
  844MPD2    H112405   1.010   1.958  16.355  1.1240 -0.2011  0.6961
  844MPD2    H212406   0.760   1.690  16.152  2.2747 -0.2516 -0.6985
  844MPD2    H312407   0.884   1.898  16.169  0.3799 -0.8779 -1.5559
  844MPD2     N12408   1.038   1.807  16.581 -0.3051 -0.0585 -0.0733
  844MPD2    H512409   1.040   1.733  16.650  0.0790 -0.9344 -1.0259
  844MPD2    N112410   0.776   1.491  16.336  0.2139 -0.1156 -0.3300
  844MPD2    H712411   0.803   1.431  16.413 -0.3223  2.0175  1.5092
  845MPD2     C12412   1.389   2.638  17.102 -0.0142  0.1286 -0.6529
  845MPD2    C112413   1.302   2.629  16.996 -0.0668  0.6228 -0.0577
  845MPD2    C212414   1.267   2.508  16.952 -0.2647 -0.3615  0.9030
  845MPD2    C312415   1.323   2.388  17.007 -0.5865 -0.0462 -0.2156
  845MPD2    C412416   1.410   2.405  17.116  0.0675  0.2036 -0.6053
  845MPD2    C512417   1.447   2.526  17.158 -0.1176 -0.6929 -0.1865
  845MPD2     H12418   1.193   2.506  16.873  0.4109  0.6722  0.2488
  845MPD2    H112419   1.456   2.319  17.164 -2.3070 -1.7784 -1.8434
  845MPD2    H212420   1.418   2.738  17.133 -1.3145 -0.2221  1.6974
  845MPD2    H312421   1.517   2.534  17.240 -1.9563  0.5754  1.2827
  845MPD2     N12422   1.296   2.264  16.941  0.2136 -0.4218 -0.1239
  845MPD2    H512423   1.229   2.269  16.865  0.4781 -0.8828 -0.3857
  845MPD2    N112424   1.244   2.750  16.954  0.1504 -0.2546 -0.2997
  845MPD2    H712425   1.274   2.839  16.993  0.7671  0.4551 -2.3904
  846MPD2     C12426   2.647   2.536  13.736  0.2803 -0.1197 -0.3460
  846MPD2    C112427   2.589   2.659  13.756  0.0840  0.5987 -0.4112
  846MPD2    C212428   2.533   2.698  13.877  0.2173  0.5546  0.5778
  846MPD2    C312429   2.538   2.617  13.984  0.1190 -0.3104  1.2666
  846MPD2    C412430   2.598   2.494  13.967 -0.3193  0.4733 -0.2812
  846MPD2    C512431   2.650   2.454  13.848  0.2325 -0.8399  1.1707
  846MPD2     H12432   2.491   2.798  13.885 -0.7382  0.4352 -2.9797
  846MPD2    H112433   2.625   2.428  14.049 -0.0287  1.1955  0.1954
  846MPD2    H212434   2.681   2.493  13.643 -1.1203 -0.8845 -0.4968
  846MPD2    H312435   2.679   2.351  13.834  0.7361 -0.6540  0.8445
  846MPD2     N12436   2.469   2.660  14.104 -0.5619 -0.2131 -0.5565
  846MPD2    H512437   2.429   2.753  14.105  0.8702  0.3946  1.7568
  846MPD2    N112438   2.590   2.762  13.661  0.4024  0.0206 -0.2304
  846MPD2    H712439   2.552   2.852  13.689 -1.1197 -1.0570  1.2659
  847MPD2     C12440   2.434   3.515  14.056 -0.2276 -0.4142  0.2435
  847MPD2    C112441   2.539   3.591  14.100 -0.5086  0.6789  0.1581
  847MPD2    C212442   2.649   3.533  14.157 -0.4307 -0.0190  0.1228
  847MPD2    C312443   2.661   3.395  14.177  0.3323  0.5517  0.5081
  847MPD2    C412444   2.557   3.318  14.130 -0.7090 -0.3412  0.9233
  847MPD2    C512445   2.446   3.376  14.076 -1.0977 -0.6924 -0.5850
  847MPD2     H12446   2.737   3.583  14.196 -0.6070 -0.2418  0.8041
  847MPD2    H112447   2.566   3.211  14.150 -0.7923 -0.5048  0.0586
  847MPD2    H212448   2.348   3.553  14.001  0.9703  0.5081 -0.9944
  847MPD2    H312449   2.359   3.316  14.050 -1.8721 -0.1116  0.6773
  847MPD2     N12450   2.782   3.345  14.239 -0.3404 -0.0400  0.1138
  847MPD2    H512451   2.861   3.408  14.239 -0.2904 -0.1021 -1.1192
  847MPD2    N112452   2.551   3.729  14.084 -0.2514  0.2835 -0.1007
  847MPD2    H712453   2.617   3.770  14.149 -2.6411  0.7960  2.0039
  848MPD2     C12454   0.536   2.069  15.981  0.6020  0.7434 -0.0870
  848MPD2    C112455   0.573   2.152  16.079 -0.5809  0.9352 -0.4230
  848MPD2    C212456   0.565   2.283  16.064  0.1127  0.5932  0.0351
  848MPD2    C312457   0.518   2.338  15.955 -0.4717 -0.1256  0.1118
  848MPD2    C412458   0.478   2.254  15.852 -0.2407  0.2931 -0.0591
  848MPD2    C512459   0.502   2.119  15.860 -0.1010  0.0862  0.1817
  848MPD2     H12460   0.601   2.349  16.143 -0.3625 -0.0498  0.7945
  848MPD2    H112461   0.440   2.296  15.760 -3.2696 -1.5619  0.3578
  848MPD2    H212462   0.555   1.962  15.983  3.0474  1.2487  2.3449
  848MPD2    H312463   0.489   2.057  15.773  0.9043  1.2434 -0.7953
  848MPD2     N12464   0.501   2.478  15.942 -0.1332  0.3400 -0.2715
  848MPD2    H512465   0.474   2.510  15.849 -1.5806  4.2948  1.5163
  848MPD2    N112466   0.612   2.085  16.199 -0.2082  0.0640  1.0314
  848MPD2    H712467   0.597   1.985  16.207 -0.2452 -0.0828 -1.0467
  849MPD2     C12468   4.604   1.246  14.471 -0.3234 -0.0038  0.1198
  849MPD2    C112469   4.606   1.365  14.403  0.4667  0.0332  0.5360
  849MPD2    C212470   4.717   1.390  14.323 -0.1660  0.1473 -0.2931
  849MPD2    C312471   0.102   1.305  14.310 -1.2831  0.5696  0.3325
  849MPD2    C412472   0.093   1.187  14.379 -0.5446  0.0320  0.8980
  849MPD2    C512473   4.715   1.158  14.467 -0.2190 -0.1843 -0.1107
  849MPD2     H12474   0.002   1.488  14.276  2.0411  0.3813  0.4508
  849MPD2    H112475   0.175   1.115  14.373 -1.5846 -1.0709 -0.0117
  849MPD2    H212476   4.520   1.208  14.528 -0.1063 -1.3182 -0.4478
  849MPD2    H312477   4.712   1.062  14.518 -0.6556  1.5810  3.1439
  849MPD2     N12478   0.209   1.329  14.217  0.0275 -0.5966 -0.2513
  849MPD2    H512479   0.293   1.272  14.221  1.0258  0.8949  0.5155
  849MPD2    N112480   4.503   1.461  14.410 -0.3569 -0.2673 -0.5382
  849MPD2    H712481   4.528   1.545  14.359 -0.3503 -0.0990 -0.2590
  850MPD2     C12482   2.014   4.335  14.903  0.1763 -0.7669 -0.0144
  850MPD2    C112483   2.066   4.452  14.950  0.9597  0.1371  0.4331
  850MPD2    C212484   2.199   4.479  14.921  0.4947  0.0998 -0.0600
  850MPD2    C312485   2.288   4.385  14.879 -0.0158  0.4225  0.4736
  850MPD2    C412486   2.229   4.269  14.826 -0.2820 -0.3968  0.1857
  850MPD2    C512487   2.097   4.249  14.837  0.1542 -0.3161  0.0779
  850MPD2     H12488   2.235   4.579  14.941 -1.1271  1.2782 -3.0470
  850MPD2    H112489   2.279   4.181  14.787  1.6598  1.3533 -1.2436
  850MPD2    H212490   1.909   4.309  14.911 -0.1665  0.4261 -0.5972
  850MPD2    H312491   2.048   4.161  14.797  0.0982 -0.5225  0.5942
  850MPD2     N12492   2.424   4.382  14.899  0.1573  0.7165 -0.1150
  850MPD2    H512493   2.475   4.303  14.859  0.1434  1.0838 -0.8658
  850MPD2    N112494   1.983   4.526  15.028 -0.3249 -0.1398  0.2105
  850MPD2    H712495   1.886   4.496  15.030 -0.8240  1.2572 -3.0783
  851MPD2     C12496   2.704   4.468  15.503 -0.1907  0.2612  0.3366
  851MPD2    C112497   2.602   4.420  15.422 -0.0285  0.6205 -0.1587
  851MPD2    C212498   2.629   4.312  15.342 -0.6076  0.7174 -0.1456
  851MPD2    C312499   2.758   4.262  15.338  0.1459 -0.8061 -0.6088
  851MPD2    C412500   2.855   4.312  15.420  0.8687  0.4824 -0.3643
  851MPD2    C512501   2.828   4.418  15.505  0.0197 -0.0963 -0.2828
  851MPD2     H12502   2.553   4.272  15.276 -0.6267 -0.6281  0.6816
  851MPD2    H112503   2.955   4.273  15.426  0.4802 -0.1215  2.2868
  851MPD2    H212504   2.680   4.553  15.566  1.7542  1.0224  0.0553
  851MPD2    H312505   2.902   4.452  15.577  1.3182 -0.7626 -1.2953
  851MPD2     N12506   2.787   4.165  15.238 -0.3262  0.1889  0.1831
  851MPD2    H512507   2.707   4.147  15.178 -0.8831 -0.5698  1.1676
  851MPD2    N112508   2.484   4.491  15.417 -0.0350  0.5280  0.1135
  851MPD2    H712509   2.485   4.582  15.462 -1.9693  0.3994  0.3972
  852MPD2     C12510   1.277   2.552   9.667  0.1711 -0.3096 -0.4525
  852MPD2    C112511   1.366   2.482   9.745  0.8279  0.4485 -0.5319
  852MPD2    C212512   1.488   2.541   9.772  0.3424  0.1008 -0.4080
  852MPD2    C312513   1.522   2.668   9.731  0.5941 -0.2058  0.0975
  852MPD2    C412514   1.435   2.733   9.646  0.5613 -0.1767 -0.2685
  852MPD2    C512515   1.310   2.681   9.620 -0.0870 -0.2276 -0.5197
  852MPD2     H12516   1.554   2.490   9.840  0.6079 -0.9654 -1.4691
  852MPD2    H112517   1.459   2.830   9.603  0.0053 -0.0465 -0.2802
  852MPD2    H212518   1.174   2.524   9.649 -0.6945  2.3051  0.3773
  852MPD2    H312519   1.229   2.724   9.561  1.9703  1.7137 -1.9228
  852MPD2     N12520   1.642   2.726   9.778 -0.2376  0.4041  0.2263
  852MPD2    H512521   1.693   2.671   9.846 -0.7847  0.9549  1.0998
  852MPD2    N112522   1.339   2.355   9.799 -0.2117  0.2398  0.1862
  852MPD2    H712523   1.409   2.318   9.864 -0.2980 -1.2250 -0.5688
  853MPD2     C12524   4.044   1.825  12.403 -1.1479  0.5384 -0.6676
  853MPD2    C112525   3.949   1.929  12.378 -0.6845 -0.2912  0.8678
  853MPD2    C212526   3.919   1.950  12.246  0.4716 -0.1302  0.3542
  853MPD2    C312527   3.964   1.873  12.143 -0.6583 -0.4081  0.9456
  853MPD2    C412528   4.041   1.762  12.173  0.2288  0.4745  0.0234
  853MPD2    C512529   4.085   1.739  12.304 -0.1247  0.1890 -0.2157
  853MPD2     H12530   3.855   2.033  12.220  1.6485  0.3468 -0.9853
  853MPD2    H112531   4.080   1.698  12.094 -0.0679  0.3662 -0.0364
  853MPD2    H212532   4.066   1.798  12.506  1.6240  2.3325 -0.7856
  853MPD2    H312533   4.141   1.650  12.329 -1.3295 -0.3421  0.5820
  853MPD2     N12534   3.945   1.900  12.010  0.4271 -0.0386  0.5267
  853MPD2    H512535   3.977   1.832  11.942 -0.0467 -1.4295  1.6788
  853MPD2    N112536   3.916   2.006  12.489 -0.2241 -0.8251 -0.2386
  853MPD2    H712537   3.962   1.976  12.574 -1.8969 -1.5928  0.3931
  854MPD2     C12538   0.561   2.321  12.726 -0.0070 -0.6953  0.2568
  854MPD2    C112539   0.534   2.213  12.805  0.5076 -1.0464  1.6173
  854MPD2    C212540   0.640   2.132  12.855 -0.5913 -0.1705 -0.3803
  854MPD2    C312541   0.768   2.151  12.814 -0.4876  0.3221  0.9399
  854MPD2    C412542   0.794   2.248  12.725 -0.3227  0.6609 -0.7033
  854MPD2    C512543   0.690   2.338  12.694  0.3055 -0.6340  0.1853
  854MPD2     H12544   0.620   2.043  12.913  1.2941 -0.2103  0.2007
  854MPD2    H112545   0.896   2.268  12.693  0.2428 -0.9587  0.0841
  854MPD2    H212546   0.490   2.395  12.691  0.5630 -1.1106 -1.7975
  854MPD2    H312547   0.713   2.415  12.621  2.1337  0.5187  2.0046
  854MPD2     N12548   0.874   2.068  12.852  0.3271  0.5976 -0.1114
  854MPD2    H512549   0.962   2.077  12.803  1.0873  0.2975  1.1916
  854MPD2    N112550   0.394   2.193  12.824 -0.4974 -0.1142  0.1782
  854MPD2    H712551   0.332   2.251  12.769 -1.3103 -0.2874  0.9207
  855MPD2     C12552   1.470   2.042  13.585 -0.0126  0.1434  0.4659
  855MPD2    C112553   1.430   1.910  13.576 -0.4402  0.8232  0.7587
  855MPD2    C212554   1.356   1.871  13.463  0.3251  0.4548 -0.3621
  855MPD2    C312555   1.326   1.964  13.364 -0.6132 -0.0553  0.6559
  855MPD2    C412556   1.362   2.099  13.380 -0.1793 -0.6847  0.7960
  855MPD2    C512557   1.440   2.128  13.485 -0.3298  0.4728 -0.0680
  855MPD2     H12558   1.316   1.771  13.450  2.2913 -0.0277 -2.6563
  855MPD2    H112559   1.332   2.182  13.318 -0.5453 -0.6928  0.9614
  855MPD2    H212560   1.536   2.075  13.664  1.6580 -0.6596 -0.5870
  855MPD2    H312561   1.479   2.229  13.491 -1.1927  0.8169 -0.1919
  855MPD2     N12562   1.250   1.930  13.251  0.4357 -0.2952 -0.5133
  855MPD2    H512563   1.215   2.009  13.199  3.4671  1.1703 -0.3491
  855MPD2    N112564   1.454   1.811  13.678 -0.6252 -1.1925 -0.0552
  855MPD2    H712565   1.415   1.720  13.656 -2.0103 -0.5978 -0.0736
  856MPD2     C12566   3.673   2.780  13.684  0.0614  0.3890  0.8521
  856MPD2    C112567   3.772   2.859  13.730 -0.2045 -1.1806 -0.3785
  856MPD2    C212568   3.746   2.993  13.754  0.4971 -0.3775 -0.2787
  856MPD2    C312569   3.620   3.043  13.727 -0.1653  0.3932 -0.0010
  856MPD2    C412570   3.524   2.966  13.669 -0.0597 -0.1924 -0.4789
  856MPD2    C512571   3.547   2.829  13.661 -0.6643  0.2731  0.4370
  856MPD2     H12572   3.823   3.052  13.803  0.5537  0.0200 -0.8359
  856MPD2    H112573   3.425   3.001  13.644 -0.3062  0.0730  0.8558
  856MPD2    H212574   3.685   2.676  13.658 -3.4535  0.3431 -0.6518
  856MPD2    H312575   3.469   2.763  13.624 -0.5549 -1.5692  3.4617
  856MPD2     N12576   3.581   3.171  13.757 -0.4052 -0.2503  0.9150
  856MPD2    H512577   3.488   3.197  13.726  0.5082 -0.1064 -1.6782
  856MPD2    N112578   3.902   2.815  13.747  0.3447 -0.1331  0.1250
  856MPD2    H712579   3.977   2.874  13.781 -1.6466  2.5847 -0.1951
  857MPD2     C12580   0.038   0.035  12.888  0.1583 -0.1443  0.4668
  857MPD2    C112581   0.160   0.038  12.830  0.0717  0.0609 -0.3635
  857MPD2    C212582   0.225   0.159  12.831 -0.2430 -0.4913  0.1007
  857MPD2    C312583   0.175   0.269  12.897 -0.0072  0.4977 -0.3862
  857MPD2    C412584   0.056   0.258  12.959 -0.2317  0.4739 -0.2322
  857MPD2    C512585   4.708   0.136  12.959 -0.4979  0.7697  0.1556
  857MPD2     H12586   0.313   0.171  12.769  0.6563 -0.5875  1.3573
  857MPD2    H112587   0.019   0.346  13.010 -0.7781 -0.4479  0.9521
  857MPD2    H212588   4.693   4.672  12.869  0.2838 -0.6818  2.4557
  857MPD2    H312589   4.612   0.124  13.008 -0.0667 -0.4882  0.6987
  857MPD2     N12590   0.264   0.379  12.911 -0.7242 -0.1419 -0.7903
  857MPD2    H512591   0.365   0.368  12.900 -0.5283  1.3212 -0.5542
  857MPD2    N112592   0.180   4.643  12.740  0.0361  0.0220 -0.3798
  857MPD2    H712593   0.125   4.558  12.746 -3.3652  2.5383  4.3781
  858MPD2     C12594   1.093   4.327  16.617  0.3449 -1.1538 -0.3713
  858MPD2    C112595   1.153   4.219  16.679  0.4659  0.4196  0.3305
  858MPD2    C212596   1.128   4.193  16.810  0.0420  0.3944 -0.4153
  858MPD2    C312597   1.055   4.286  16.884 -0.2930  0.7573 -0.0601
  858MPD2    C412598   0.985   4.389  16.824 -0.1263  0.2093  0.1455
  858MPD2    C512599   1.012   4.413  16.688  0.2158 -0.2170 -0.9297
  858MPD2     H12600   1.175   4.107  16.857 -2.3449 -0.0489  1.2094
  858MPD2    H112601   0.914   4.456  16.871  0.2961  0.2209  0.7627
  858MPD2    H212602   1.108   4.351  16.512  1.8205  0.2321  0.1564
  858MPD2    H312603   0.979   4.504  16.638 -0.8396  0.4641  1.0201
  858MPD2     N12604   1.029   4.288  17.025 -0.2418  0.4375 -0.2665
  858MPD2    H512605   0.975   4.368  17.056 -0.0243 -0.7689  3.1950
  858MPD2    N112606   1.224   4.138  16.597 -0.2825  0.2123  0.1063
  858MPD2    H712607   1.248   4.180  16.508  0.7439  0.0839  0.3204
  859MPD2     C12608   4.552   1.628  15.592 -0.2663 -0.1739  0.1529
  859MPD2    C112609   4.587   1.638  15.463 -0.8069  0.4032 -0.2948
  859MPD2    C212610   4.592   1.516  15.391  0.2878 -0.3315  0.2633
  859MPD2    C312611   4.577   1.395  15.446  1.1221 -0.2126  1.1851
  859MPD2    C412612   4.538   1.387  15.579  0.4641  0.4470 -0.1485
  859MPD2    C512613   4.525   1.504  15.651  0.0518 -0.0973  0.0359
  859MPD2     H12614   4.616   1.516  15.285  1.2919  0.5757  0.4852
  859MPD2    H112615   4.517   1.291  15.626 -0.9005  1.4887  1.3767
  859MPD2    H212616   4.539   1.717  15.652  2.4605  0.4391 -0.1606
  859MPD2    H312617   4.475   1.511  15.747 -1.2079 -0.5062 -0.5807
  859MPD2     N12618   4.580   1.272  15.377  0.8199  0.3964 -0.3620
  859MPD2    H512619   4.546   1.190  15.426  0.9187  0.4395 -0.2209
  859MPD2    N112620   4.604   1.766  15.406  0.3309 -0.5480 -0.3481
  859MPD2    H712621   4.586   1.840  15.474 -2.0219 -0.3873 -1.1302
  860MPD2     C12622   2.013   2.054  11.585 -0.4012  0.8057 -0.2630
  860MPD2    C112623   1.998   2.148  11.688 -0.3308  0.0648  0.1335
  860MPD2    C212624   1.874   2.192  11.720 -0.6731 -0.8026 -0.0086
  860MPD2    C312625   1.757   2.149  11.664 -0.3226  0.2994  0.1070
  860MPD2    C412626   1.773   2.064  11.559 -1.2935  0.3761 -0.1800
  860MPD2    C512627   1.897   2.015  11.516  0.0067 -0.0711  0.4069
  860MPD2     H12628   1.863   2.269  11.795  0.4654 -1.2895  0.6657
  860MPD2    H112629   1.691   2.026  11.499  0.7419 -1.8270 -1.5560
  860MPD2    H212630   2.113   2.017  11.565  0.2154  2.1951  0.2919
  860MPD2    H312631   1.904   1.936  11.442 -0.5120  1.9766 -1.8179
  860MPD2     N12632   1.632   2.189  11.708 -0.2105  0.4968  0.4981
  860MPD2    H512633   1.635   2.257  11.784 -1.2888  0.8828  0.1939
  860MPD2    N112634   2.107   2.205  11.762  0.1391  0.2863  0.2143
  860MPD2    H712635   2.084   2.252  11.849  1.6792  0.7036  0.4083
  861MPD2     C12636   1.102   4.494  10.674  1.1082 -0.1797 -0.2950
  861MPD2    C112637   1.020   4.559  10.765  0.3675  0.1465 -0.2936
  861MPD2    C212638   0.908   4.623  10.723  0.5299 -0.0868 -0.0690
  861MPD2    C312639   0.877   4.630  10.586  0.2222  0.1126  0.6440
  861MPD2    C412640   0.959   4.562  10.499  0.3448 -0.5355  0.3641
  861MPD2    C512641   1.065   4.494  10.545  0.6842  0.2775  0.0324
  861MPD2     H12642   0.852   4.676  10.800  0.6730 -0.2074  0.1197
  861MPD2    H112643   0.940   4.562  10.393 -0.3298  0.2942  0.4811
  861MPD2    H212644   1.193   4.442  10.702  0.5441 -0.3189  1.2617
  861MPD2    H312645   1.125   4.452  10.465  0.8556 -1.3030  0.9951
  861MPD2     N12646   0.774   4.702  10.527  0.3594  0.3271 -0.1557
  861MPD2    H512647   0.759   4.697  10.427 -0.2230  0.7781 -0.0884
  861MPD2    N112648   1.046   4.556  10.902  0.4514  0.9006  0.0530
  861MPD2    H712649   0.984   4.597  10.972  0.5500  0.1259  0.5946
  862MPD2     C12650   0.335   0.075   9.927 -0.1601 -0.9207  0.7479
  862MPD2    C112651   0.390   0.009  10.037 -0.0529 -0.2013  0.1396
  862MPD2    C212652   0.389   4.594  10.046  0.2428  0.4120  0.2601
  862MPD2    C312653   0.339   4.512   9.949 -0.2435 -0.3448 -0.5514
  862MPD2    C412654   0.277   4.576   9.841 -0.7087  0.4351 -0.3674
  862MPD2    C512655   0.273   4.713   9.834 -0.0683  0.2869  0.1987
  862MPD2     H12656   0.432   4.552  10.136  0.6995 -0.4981 -0.3750
  862MPD2    H112657   0.228   4.515   9.767  3.4117 -3.3746  0.0292
  862MPD2    H212658   0.333   0.183   9.920 -1.4536 -0.8854  1.6759
  862MPD2    H312659   0.214   0.031   9.752 -0.4252  0.1467  0.3874
  862MPD2     N12660   0.321   4.373   9.970 -0.3518  0.4997  0.0042
  862MPD2    H512661   0.262   4.319   9.907 -0.8801 -0.7058  1.5342
  862MPD2    N112662   0.461   0.069  10.147 -0.7793 -0.9782  0.1473
  862MPD2    H712663   0.484   0.006  10.223  1.6476 -1.5520 -1.0889
  863MPD2     C12664   3.751   3.515  17.078 -0.0732 -0.3347 -0.3120
  863MPD2    C112665   3.794   3.419  16.991 -0.3362  0.7931 -0.0892
  863MPD2    C212666   3.882   3.326  17.038 -0.0047  0.2818  0.0190
  863MPD2    C312667   3.948   3.349  17.161 -0.6306 -0.6828 -0.0888
  863MPD2    C412668   3.897   3.452  17.244 -0.5016  0.1257 -0.2996
  863MPD2    C512669   3.798   3.536  17.202 -0.3681 -0.9817 -0.1927
  863MPD2     H12670   3.902   3.235  16.983 -1.4459 -0.6880  1.1040
  863MPD2    H112671   3.950   3.463  17.338  0.2831 -2.2386 -0.4609
  863MPD2    H212672   3.669   3.580  17.051 -0.1897  0.1504  1.2481
  863MPD2    H312673   3.764   3.621  17.259 -2.0966 -1.0515 -1.1405
  863MPD2     N12674   4.051   3.264  17.213  0.1730 -0.1979  0.4212
  863MPD2    H512675   4.102   3.292  17.297 -0.6410  1.4070  0.3894
  863MPD2    N112676   3.704   3.396  16.883  0.9054 -0.8953  0.4960
  863MPD2    H712677   3.622   3.456  16.876  1.6212 -0.0063 -0.2362
  864MPD2     C12678   4.280   4.197  16.621 -0.6028  0.1003  0.7926
  864MPD2    C112679   4.285   4.246  16.746  0.1613  0.0483  0.0658
  864MPD2    C212680   4.368   4.347  16.775 -0.0128 -0.1732  0.2027
  864MPD2    C312681   4.456   4.396  16.683 -0.0656  0.6383  0.3895
  864MPD2    C412682   4.452   4.342  16.557 -0.1306 -0.2713  0.7829
  864MPD2    C512683   4.365   4.245  16.530 -0.2110 -0.1019  0.1570
  864MPD2     H12684   4.373   4.387  16.876 -0.8076 -0.8536  0.5200
  864MPD2    H112685   4.511   4.381  16.475 -3.6232  1.2794 -0.9651
  864MPD2    H212686   4.222   4.111  16.589  0.7882 -1.1595  1.6878
  864MPD2    H312687   4.359   4.194  16.435 -0.0339 -0.2212  0.2118
  864MPD2     N12688   4.549   4.495  16.705  0.3453 -0.5030 -0.4701
  864MPD2    H512689   4.616   4.516  16.632  1.7340  2.5573  1.6964
  864MPD2    N112690   4.228   4.170  16.849 -0.5336  0.1287 -0.3424
  864MPD2    H712691   4.193   4.082  16.815 -0.9728  0.1874 -0.0424
  865MPD2     C12692   0.289   0.206  16.366  0.1897  0.1551 -0.8527
  865MPD2    C112693   0.218   0.115  16.437 -0.1414 -0.0274  0.2875
  865MPD2    C212694   0.128   0.165  16.543 -0.4136 -0.1793  0.3812
  865MPD2    C312695   0.127   0.297  16.574 -0.6304  0.4624  0.2523
  865MPD2    C412696   0.194   0.389  16.493 -0.1001  0.3297 -0.0371
  865MPD2    C512697   0.262   0.340  16.391  0.5558 -0.9394  0.2409
  865MPD2     H12698   0.059   0.093  16.585  0.3398 -1.3642 -0.3724
  865MPD2    H112699   0.198   0.495  16.512 -2.0310  0.4762 -0.4586
  865MPD2    H212700   0.350   0.175  16.282  0.3195  0.4783 -0.8744
  865MPD2    H312701   0.309   0.415  16.328  1.5791 -0.6594  1.3419
  865MPD2     N12702   0.052   0.359  16.683 -0.2254 -0.7275  0.2490
  865MPD2    H512703   0.040   0.459  16.680  0.6024 -0.5727  1.6292
  865MPD2    N112704   0.228   4.703  16.391 -0.0743 -0.5344  0.3005
  865MPD2    H712705   0.289   4.690  16.310  1.4501 -1.6060  1.6232
  866MPD2     C12706   1.720   0.048  10.926  0.7609  0.0933 -0.3053
  866MPD2    C112707   1.693   0.185  10.921  0.7536 -0.0165  0.0389
  866MPD2    C212708   1.561   0.223  10.922  0.0920  0.7184  0.6385
  866MPD2    C312709   1.460   0.134  10.913  0.8188 -0.6768  0.5560
  866MPD2    C412710   1.487   4.719  10.908  0.4112  0.3195  0.2368
  866MPD2    C512711   1.618   4.682  10.912  0.6947  0.3169 -0.5434
  866MPD2     H12712   1.543   0.329  10.935  0.5094  0.8342  0.2469
  866MPD2    H112713   1.411   4.645  10.886 -1.1225  2.0731 -0.3384
  866MPD2    H212714   1.821   0.008  10.924  0.1852 -1.4112  1.1851
  866MPD2    H312715   1.643   4.577  10.924 -2.0539 -0.0841  1.7234
  866MPD2     N12716   1.327   0.181  10.895  0.2620 -0.2300  0.0555
  866MPD2    H512717   1.264   0.125  10.839  2.4513 -2.4574 -0.2058
  866MPD2    N112718   1.803   0.275  10.917 -0.4656 -0.2919 -0.4324
  866MPD2    H712719   1.894   0.232  10.926  0.0712  0.9160 -0.0287
  867MPD2     C12720   3.560   4.556  16.552  0.2307 -0.5196  0.4863
  867MPD2    C112721   3.639   4.539  16.663 -0.0574 -0.2114 -0.2163
  867MPD2    C212722   3.696   4.650  16.724  0.1399 -0.2777 -0.3724
  867MPD2    C312723   3.682   0.061  16.668  0.5961 -0.4766 -0.2101
  867MPD2    C412724   3.595   0.075  16.563 -0.6813 -0.6599 -0.1732
  867MPD2    C512725   3.537   4.684  16.505  0.4323 -0.2290 -0.0733
  867MPD2     H12726   3.749   4.638  16.818 -2.4618 -0.9687  0.9985
  867MPD2    H112727   3.590   0.173  16.516  2.6865 -0.6528 -0.5086
  867MPD2    H212728   3.500   4.472  16.517 -0.9124  0.3244  0.4314
  867MPD2    H312729   3.478   4.693  16.414 -1.1226 -1.6554  0.7981
  867MPD2     N12730   3.740   0.175  16.729 -0.3192  0.0186 -0.2528
  867MPD2    H512731   3.717   0.262  16.681 -0.3905  0.5505  0.7394
  867MPD2    N112732   3.639   4.411  16.714 -0.3691  0.5285 -0.3200
  867MPD2    H712733   3.582   4.346  16.662 -0.0994  0.5234 -0.6058
  868MPD2     C12734   0.429   3.430  12.844  0.5625 -0.1140 -0.1541
  868MPD2    C112735   0.512   3.467  12.950  0.7813 -0.6334  0.1369
  868MPD2    C212736   0.463   3.545  13.044 -0.0736 -0.0380  0.1202
  868MPD2    C312737   0.328   3.580  13.049 -0.4224  0.5812 -0.0571
  868MPD2    C412738   0.240   3.547  12.949 -0.0640  0.2471 -0.1321
  868MPD2    C512739   0.290   3.461  12.857 -0.4938 -0.4864  0.2866
  868MPD2     H12740   0.523   3.590  13.122  0.6452  1.0553 -1.0645
  868MPD2    H112741   0.134   3.568  12.950  0.0424  0.8780 -1.7505
  868MPD2    H212742   0.477   3.377  12.763  0.2460 -0.4581 -0.1182
  868MPD2    H312743   0.221   3.430  12.779  0.5133 -1.6438 -0.1320
  868MPD2     N12744   0.282   3.662  13.156 -0.3431  0.6833  0.0756
  868MPD2    H512745   0.356   3.700  13.215 -0.0345 -0.2851  0.3106
  868MPD2    N112746   0.646   3.428  12.940  0.2125  0.6747 -0.7793
  868MPD2    H712747   0.680   3.381  12.856 -0.2484  1.0769 -1.1918
  869MPD2     C12748   2.103   0.986   1.383  0.3597  0.0325  0.1912
  869MPD2    C112749   1.982   0.927   1.358 -0.0182  0.0891 -0.1823
  869MPD2    C212750   1.891   0.984   1.270 -0.0990  0.0445 -0.0213
  869MPD2    C312751   1.895   1.122   1.263 -0.3615  0.3438  0.8144
  869MPD2    C412752   2.005   1.188   1.310  0.8254 -0.3231  0.3955
  869MPD2    C512753   2.117   1.122   1.360  0.1704  0.6724 -0.6257
  869MPD2     H12754   1.808   0.929   1.228  1.6231 -1.6986 -1.0869
  869MPD2    H112755   2.011   1.296   1.295  0.3169 -0.2478  0.7275
  869MPD2    H212756   2.172   0.941   1.453 -1.0550 -0.4176  1.3115
  869MPD2    H312757   2.204   1.184   1.380  0.0703  1.1428 -1.6496
  869MPD2     N12758   1.798   1.209   1.216 -0.1825  0.1244 -0.3170
  869MPD2    H512759   1.817   1.308   1.229  4.7400 -1.1452  1.9097
  869MPD2    N112760   1.962   0.801   1.423 -0.4984 -0.1349  0.1851
  869MPD2    H712761   2.041   0.763   1.473 -0.4240 -0.0150  0.1572
  870MPD2     C12762   1.313   0.316   1.768  0.2595 -0.2578  0.0657
  870MPD2    C112763   1.258   0.199   1.724 -0.1194 -0.1921 -0.2794
  870MPD2    C212764   1.134   0.202   1.665  0.9183 -0.3722  0.1404
  870MPD2    C312765   1.070   0.325   1.649  0.1286  0.2756  0.9707
  870MPD2    C412766   1.118   0.441   1.703  0.2790 -0.0145 -0.0413
  870MPD2    C512767   1.240   0.435   1.767  0.0581 -0.1258 -0.5564
  870MPD2     H12768   1.101   0.114   1.611  0.4733 -1.0212  1.4623
  870MPD2    H112769   1.065   0.534   1.685  1.1832  0.9642  2.3211
  870MPD2    H212770   1.408   0.312   1.820  0.5902 -1.5392 -0.6355
  870MPD2    H312771   1.290   0.524   1.804 -0.8710 -0.5338  1.6632
  870MPD2     N12772   0.945   0.322   1.580  1.1754  0.4240  0.2205
  870MPD2    H512773   0.903   0.232   1.559 -0.1715  1.2005 -0.3568
  870MPD2    N112774   1.332   0.084   1.728 -0.5161  0.1117  0.6578
  870MPD2    H712775   1.429   0.093   1.756 -0.6557  1.4143  0.7133
  871MPD2     C12776   2.451   4.263  16.486  0.4461  0.7377 -0.2136
  871MPD2    C112777   2.439   4.272  16.621 -0.3894 -0.7594  0.1808
  871MPD2    C212778   2.404   4.152  16.678 -0.5072 -0.1726  0.0711
  871MPD2    C312779   2.395   4.032  16.607 -0.0845  0.4743  0.3552
  871MPD2    C412780   2.406   4.029  16.472  0.4234  0.2963 -0.3833
  871MPD2    C512781   2.430   4.149  16.415 -0.5967 -0.3143 -0.2320
  871MPD2     H12782   2.385   4.141  16.784  1.0613  0.3559  0.4099
  871MPD2    H112783   2.402   3.937  16.414 -2.3098  0.5256 -0.5303
  871MPD2    H212784   2.482   4.353  16.435  1.5203  0.0487 -0.7728
  871MPD2    H312785   2.434   4.160  16.307 -1.1714  1.0808 -0.1142
  871MPD2     N12786   2.383   3.918  16.685 -0.1997 -0.2195  0.0723
  871MPD2    H512787   2.369   3.931  16.785  0.1777  3.8580 -0.3828
  871MPD2    N112788   2.456   4.403  16.685  0.2300 -0.2195 -0.2510
  871MPD2    H712789   2.488   4.481  16.629  1.7382 -0.6654 -0.0140
  872MPD2     C12790   3.099   2.607  14.000  0.2617 -1.1195  0.1206
  872MPD2    C112791   3.196   2.529  14.057 -0.5479  0.4599  0.2892
  872MPD2    C212792   3.156   2.458  14.174  0.4156  0.2655  0.2685
  872MPD2    C312793   3.027   2.469  14.227 -0.2453 -0.6501 -0.8942
  872MPD2    C412794   2.931   2.538  14.157  1.1671  0.2639  0.3196
  872MPD2    C512795   2.975   2.607  14.042 -0.5428  0.1896  0.3198
  872MPD2     H12796   3.224   2.387  14.218  1.2515  1.8758  1.5756
  872MPD2    H112797   2.829   2.543  14.192  0.9774 -2.1230  0.0863
  872MPD2    H212798   3.120   2.661  13.908 -0.5436 -0.0534  0.5699
  872MPD2    H312799   2.892   2.656  13.992 -1.5224 -0.5568  1.2132
  872MPD2     N12800   2.980   2.395  14.341 -0.1030 -0.2669 -0.0738
  872MPD2    H512801   2.882   2.402  14.364  0.2232 -0.9548  1.5036
  872MPD2    N112802   3.323   2.504  13.999  0.3924 -0.3753  0.5828
  872MPD2    H712803   3.381   2.431  14.038 -1.1553 -1.1961  1.3764
  873MPD2     C12804   0.489   2.023   0.507  0.2705  0.0746  0.2844
  873MPD2    C112805   0.484   1.974   0.631  1.1725 -0.6409  0.6514
  873MPD2    C212806   0.553   1.856   0.670 -0.1731  0.1823  0.5760
  873MPD2    C312807   0.614   1.777   0.570 -0.4765  0.0534 -0.2504
  873MPD2    C412808   0.613   1.828   0.438  0.0694 -0.4278 -0.0726
  873MPD2    C512809   0.555   1.950   0.409 -0.6150 -0.1563 -0.2765
  873MPD2     H12810   0.557   1.824   0.773  1.3139 -1.8809 -0.1327
  873MPD2    H112811   0.660   1.767   0.362 -0.2477 -1.4926  0.5830
  873MPD2    H212812   0.460   2.125   0.484  0.4185 -0.0629 -0.5277
  873MPD2    H312813   0.566   2.002   0.315  0.9358 -0.2569 -0.1487
  873MPD2     N12814   0.695   1.664   0.593  0.3196 -0.5221  0.1105
  873MPD2    H512815   0.746   1.626   0.513 -1.2174 -1.3863 -0.4748
  873MPD2    N112816   0.425   2.060   0.722  0.2565  0.1508  0.1146
  873MPD2    H712817   0.381   2.144   0.687 -3.5732 -1.1422  1.9091
  874MPD2     C12818   4.416   2.530  15.708  0.3121  0.3646 -0.5202
  874MPD2    C112819   4.466   2.469  15.820  0.4785 -0.8442 -0.2829
  874MPD2    C212820   4.589   2.508  15.870  0.1525 -0.0353  0.1062
  874MPD2    C312821   4.659   2.610  15.814  0.3930  0.2750  1.3056
  874MPD2    C412822   4.605   2.668  15.703 -0.3423 -1.4735  0.4158
  874MPD2    C512823   4.484   2.634  15.653  0.0412 -0.5075  0.7249
  874MPD2     H12824   4.626   2.462  15.961  0.2400 -1.8630 -0.8660
  874MPD2    H112825   4.656   2.738  15.638  0.5776 -0.0053  2.7042
  874MPD2    H212826   4.317   2.522  15.664  0.1386  0.0542 -0.0831
  874MPD2    H312827   4.450   2.668  15.556  1.1604 -0.1479  0.4589
  874MPD2     N12828   0.058   2.656  15.872 -0.6115  0.0260 -0.2176
  874MPD2    H512829   0.091   2.607  15.954  0.0709 -0.7188 -0.9424
  874MPD2    N112830   4.389   2.368  15.883 -0.7521 -0.3661  0.3514
  874MPD2    H712831   4.300   2.348  15.840 -0.0968 -1.2151 -0.6229
  875MPD2     C12832   1.253   0.565  14.574 -0.4479  0.1184  0.3777
  875MPD2    C112833   1.128   0.624  14.592 -0.7761 -0.0408 -0.1465
  875MPD2    C212834   1.115   0.704  14.712 -0.0924  0.3096  0.5022
  875MPD2    C312835   1.216   0.710  14.803 -0.5801  0.1302  0.6789
  875MPD2    C412836   1.333   0.634  14.775  0.8773 -0.0687 -0.4839
  875MPD2    C512837   1.356   0.570  14.659 -0.2570 -0.5515 -0.6537
  875MPD2     H12838   1.027   0.767  14.723 -1.2351 -1.8105  3.4256
  875MPD2    H112839   1.420   0.643  14.838  1.0285  2.6975 -1.0919
  875MPD2    H212840   1.262   0.496  14.490 -0.1298 -0.2039  0.6755
  875MPD2    H312841   1.445   0.511  14.641  1.4936  1.8927 -0.0609
  875MPD2     N12842   1.228   0.795  14.911  0.2947 -0.1597  0.3767
  875MPD2    H512843   1.307   0.777  14.973  0.8745  0.2789 -0.2300
  875MPD2    N112844   1.029   0.625  14.485  0.0870 -0.0153 -0.1159
  875MPD2    H712845   0.945   0.681  14.498 -0.1768 -0.5099  0.3212
  876MPD2     C12846   4.435   2.104  15.647 -0.1379 -0.2211 -0.0438
  876MPD2    C112847   4.565   2.100  15.682 -0.6227  0.1597  0.2331
  876MPD2    C212848   4.607   2.011  15.784 -0.5463  0.1794 -0.4161
  876MPD2    C312849   4.515   1.931  15.849 -0.4852 -0.0574  0.1260
  876MPD2    C412850   4.384   1.939  15.803 -0.1509  0.5551  0.6223
  876MPD2    C512851   4.344   2.032  15.713  0.1432 -0.2509 -0.1448
  876MPD2     H12852   4.711   2.009  15.814 -1.5760  4.0611  3.4703
  876MPD2    H112853   4.311   1.873  15.848  1.5664 -0.9945  1.1137
  876MPD2    H212854   4.404   2.182  15.578  2.5864 -0.1463 -1.2024
  876MPD2    H312855   4.239   2.045  15.687  0.4774  1.4463 -0.6404
  876MPD2     N12856   4.558   1.827  15.938  0.1346 -0.2002  0.3823
  876MPD2    H512857   4.654   1.830  15.971  0.9592  0.4015 -1.9984
  876MPD2    N112858   4.645   2.193  15.620 -0.1517  0.6962  0.2988
  876MPD2    H712859   4.592   2.258  15.562  0.9085  0.6783 -0.6887
  877MPD2     C12860   0.059   2.479  14.953 -0.2958  0.8589 -0.4588
  877MPD2    C112861   0.170   2.512  15.028  1.0431 -0.9421  0.4838
  877MPD2    C212862   0.285   2.546  14.963 -0.2526  0.4375 -0.3130
  877MPD2    C312863   0.287   2.549  14.824  0.2192 -0.4646 -0.1611
  877MPD2    C412864   0.174   2.521  14.753  0.1053  0.1062 -0.1970
  877MPD2    C512865   0.064   2.486  14.820  0.4239 -0.2173 -0.0129
  877MPD2     H12866   0.377   2.560  15.019 -1.6478  2.0902  1.5780
  877MPD2    H112867   0.173   2.521  14.644  3.4945 -0.3643 -0.2397
  877MPD2    H212868   4.690   2.446  15.005 -0.1092  0.4742 -0.3797
  877MPD2    H312869   4.697   2.458  14.761 -0.2220  3.0965 -0.6434
  877MPD2     N12870   0.404   2.576  14.744 -0.5575  0.7587  0.3680
  877MPD2    H512871   0.373   2.564  14.648 -1.1595 -0.3616  0.6998
  877MPD2    N112872   0.175   2.495  15.170 -0.0701 -0.3751 -0.5072
  877MPD2    H712873   0.261   2.516  15.220 -1.6658  0.6121  1.8078
  878MPD2     C12874   3.885   1.723  13.669  0.8522  0.0134 -0.8121
  878MPD2    C112875   4.018   1.769  13.668 -0.2301 -0.2185  0.0562
  878MPD2    C212876   4.081   1.765  13.788  0.1121  0.0691  0.4518
  878MPD2    C312877   4.024   1.704  13.901 -0.1090 -0.7227 -0.9254
  878MPD2    C412878   3.896   1.656  13.897  0.2401  0.4482 -0.1380
  878MPD2    C512879   3.825   1.666  13.778 -0.5221  0.2039  0.5788
  878MPD2     H12880   4.185   1.795  13.796  0.7291 -2.0918  0.5507
  878MPD2    H112881   3.838   1.610  13.977 -2.1443 -0.8789 -2.6301
  878MPD2    H212882   3.827   1.720  13.578  0.0757  2.2629 -0.3849
  878MPD2    H312883   3.723   1.630  13.772 -0.2874 -0.1787 -0.8714
  878MPD2     N12884   4.107   1.682  14.013  0.3927  0.7530 -0.5067
  878MPD2    H512885   4.206   1.675  13.991  0.4781 -2.2627  0.8527
  878MPD2    N112886   4.077   1.815  13.552 -0.5684 -0.0290 -0.1195
  878MPD2    H712887   4.011   1.809  13.474  1.6677  0.8774 -2.0913
  879MPD2     C12888   0.132   2.467  17.427  0.1889 -0.7151  0.5113
  879MPD2    C112889   0.121   2.566  17.327 -0.9029  0.9116 -0.4066
  879MPD2    C212890   0.016   2.557  17.235  0.2517  0.0542  0.1905
  879MPD2    C312891   4.654   2.448  17.230  0.7261 -0.4145  0.1917
  879MPD2    C412892   4.674   2.346  17.323  0.4536  0.0421 -0.1478
  879MPD2    C512893   0.050   2.358  17.417 -0.0090  0.1306  0.6408
  879MPD2     H12894   4.719   2.638  17.165  0.0679  0.5743  0.8429
  879MPD2    H112895   4.621   2.253  17.306  0.8914 -0.0694 -0.9266
  879MPD2    H212896   0.190   2.473  17.519 -0.3800  0.7052  0.7889
  879MPD2    H312897   0.055   2.282  17.494 -1.4810  0.5117  1.1051
  879MPD2     N12898   4.550   2.434  17.136 -0.7658 -0.7397  0.3550
  879MPD2    H512899   4.489   2.355  17.151 -0.3170 -1.0626  0.4651
  879MPD2    N112900   0.206   2.676  17.336  0.0705  0.3536 -0.3513
  879MPD2    H712901   0.276   2.675  17.409  1.0118 -1.4844 -1.2574
  880MPD2     C12902   1.552   4.456   0.541  0.1356  0.1659  0.6224
  880MPD2    C112903   1.468   4.493   0.644  0.0402  0.0557  0.0961
  880MPD2    C212904   1.429   4.399   0.736 -0.0312  0.0140  0.2473
  880MPD2    C312905   1.487   4.270   0.727  0.4478  0.4812  0.6468
  880MPD2    C412906   1.561   4.231   0.619 -0.0190 -0.6696 -0.0935
  880MPD2    C512907   1.597   4.329   0.533  0.5466  0.6187  0.1567
  880MPD2     H12908   1.361   4.426   0.816  0.4955 -0.9488  1.0333
  880MPD2    H112909   1.610   4.135   0.615  0.0736 -0.5974 -0.6034
  880MPD2    H212910   1.591   4.527   0.468  0.6295 -0.1037  0.6260
  880MPD2    H312911   1.677   4.305   0.463  1.3386  0.8090  0.9918
  880MPD2     N12912   1.469   4.168   0.826  0.6256  0.4040 -0.5677
  880MPD2    H512913   1.516   4.080   0.810  1.4205  0.8814 -0.8655
  880MPD2    N112914   1.414   4.620   0.667 -0.2483  0.3554  0.3538
  880MPD2    H712915   1.358   4.633   0.750 -0.2240 -1.3511  0.6216
  881MPD2     C12916   1.115   0.491  17.574 -0.1178 -0.5690  0.4685
  881MPD2    C112917   1.237   0.431  17.607 -0.1770  0.7487 -0.2467
  881MPD2    C212918   1.257   0.384   0.049 -0.1595  0.1291  0.0914
  881MPD2    C312919   1.168   0.428   0.150 -0.7723  0.6062 -0.5079
  881MPD2    C412920   1.051   0.497   0.120  0.1861 -0.1539 -0.4934
  881MPD2    C512921   1.034   0.530  17.673 -0.3176  0.3487  0.4368
  881MPD2     H12922   1.350   0.333   0.069  1.9158  3.5577 -0.8478
  881MPD2    H112923   0.983   0.537   0.195 -1.8538  0.0228 -2.4001
  881MPD2    H212924   1.107   0.548  17.483 -1.3784  0.2769  1.1058
  881MPD2    H312925   0.948   0.592  17.650  0.2037  0.7020 -0.5632
  881MPD2     N12926   1.193   0.403   0.286  0.2236 -0.3758 -0.2185
  881MPD2    H512927   1.111   0.394   0.345  0.6348  1.6415  0.6676
  881MPD2    N112928   1.304   0.372  17.498  0.4411 -0.3810 -0.0182
  881MPD2    H712929   1.264   0.405  17.410  1.8473 -0.2643 -0.6197
  882MPD2     C12930   0.376   2.392  14.030  0.1317  0.0948 -0.1326
  882MPD2    C112931   0.349   2.442  14.153  0.0284  0.2572  0.2978
  882MPD2    C212932   0.210   2.442  14.192 -0.0247 -0.2920 -0.4144
  882MPD2    C312933   0.108   2.386  14.114  0.2931  0.7756  0.1441
  882MPD2    C412934   0.148   2.322  13.997 -0.0758  0.1994 -0.3483
  882MPD2    C512935   0.281   2.327  13.956  0.4422 -0.1185 -0.1158
  882MPD2     H12936   0.187   2.463  14.296  1.2175  0.5810 -0.3245
  882MPD2    H112937   0.080   2.275  13.926 -0.2039  0.5976 -0.4906
  882MPD2    H212938   0.480   2.385  14.001  0.4541 -0.6268  1.1733
  882MPD2    H312939   0.305   2.266  13.870 -1.9631 -1.5118  0.2020
  882MPD2     N12940   4.691   2.365  14.152 -0.1192 -0.0597 -0.7437
  882MPD2    H512941   4.632   2.311  14.089 -1.8722 -0.1659  0.9850
  882MPD2    N112942   0.451   2.489  14.236 -0.3883 -0.2073 -0.6574
  882MPD2    H712943   0.546   2.487  14.199 -0.1957  1.2490 -0.2598
  883MPD2     C12944   2.083   1.839  16.973  0.1330 -0.3255  0.0921
  883MPD2    C112945   2.144   1.842  16.850 -0.8239  0.4104 -0.0654
  883MPD2    C212946   2.285   1.861  16.849 -0.7855 -0.8160  0.1931
  883MPD2    C312947   2.358   1.893  16.955 -0.6104  0.3625  0.5257
  883MPD2    C412948   2.296   1.875  17.077 -0.5807  0.0223  0.0347
  883MPD2    C512949   2.165   1.849  17.080  0.4659  0.5472  0.3946
  883MPD2     H12950   2.340   1.880  16.757  0.1951  0.9651  1.1527
  883MPD2    H112951   2.348   1.889  17.171 -1.7961  0.6855  0.6074
  883MPD2    H212952   1.978   1.827  16.997  0.2110 -0.8099  0.1880
  883MPD2    H312953   2.130   1.834  17.181  0.9538  0.7680  0.5960
  883MPD2     N12954   2.494   1.937  16.934 -0.1021 -0.2844  0.8119
  883MPD2    H512955   2.527   1.925  16.839  0.8107  3.4078  0.6989
  883MPD2    N112956   2.075   1.843  16.723 -0.0865  0.0572  0.5205
  883MPD2    H712957   2.131   1.849  16.639 -0.4120 -0.2478  0.2789
  884MPD2     C12958   3.746   2.688  15.063  0.6248  0.3154  0.2798
  884MPD2    C112959   3.768   2.823  15.045 -0.4415  0.0283 -0.5222
  884MPD2    C212960   3.663   2.907  15.074 -0.8157  0.2015 -0.6311
  884MPD2    C312961   3.542   2.850  15.126  0.5820  0.4782 -0.2467
  884MPD2    C412962   3.521   2.715  15.150 -0.4671  0.1095 -0.1123
  884MPD2    C512963   3.627   2.636  15.121 -0.0342 -0.3170 -0.3368
  884MPD2     H12964   3.665   3.015  15.089 -2.3096  0.1662 -0.1338
  884MPD2    H112965   3.427   2.669  15.179 -1.2040  2.2102  0.7693
  884MPD2    H212966   3.825   2.617  15.045  2.1685  1.5761  2.1601
  884MPD2    H312967   3.625   2.529  15.133  2.5902 -0.4255 -0.7590
  884MPD2     N12968   3.437   2.943  15.137  0.5251 -0.0760 -0.6422
  884MPD2    H512969   3.457   3.041  15.116  1.5631 -0.3084 -0.7317
  884MPD2    N112970   3.889   2.862  15.001 -0.3531 -0.8611 -0.7248
  884MPD2    H712971   3.957   2.787  15.007 -0.8665 -1.2497  0.1500
  885MPD2     C12972   1.924   3.408   0.221  0.0714  0.2036 -0.1602
  885MPD2    C112973   1.893   3.278   0.171  0.7261  0.1894 -0.7890
  885MPD2    C212974   1.937   3.240   0.047  0.0835 -0.3439 -0.3153
  885MPD2    C312975   2.008   3.324  17.653  0.3607 -0.2649 -0.2204
  885MPD2    C412976   2.046   3.447   0.021 -0.0991 -0.1549  0.0518
  885MPD2    C512977   2.007   3.488   0.148 -0.8962 -0.2585 -0.3390
  885MPD2     H12978   1.914   3.139   0.013 -0.3713 -0.6558  0.9175
  885MPD2    H112979   2.113   3.508  17.646  1.7939 -2.0770  0.1966
  885MPD2    H212980   1.895   3.449   0.317  0.4512  0.1779 -0.0332
  885MPD2    H312981   2.038   3.586   0.183 -2.1475 -0.1930  0.5911
  885MPD2     N12982   2.037   3.287  17.521  0.4491 -0.5131  0.1768
  885MPD2    H512983   1.969   3.233  17.468 -0.8607  0.0185  1.3043
  885MPD2    N112984   1.836   3.191   0.260  0.4089  0.0889 -0.5522
  885MPD2    H712985   1.846   3.224   0.356 -0.3235  1.2036 -0.8553
  886MPD2     C12986   3.287   1.784  14.908  0.4155  0.3366  0.3999
  886MPD2    C112987   3.419   1.800  14.965  0.0533  0.7760 -0.1322
  886MPD2    C212988   3.488   1.917  14.949 -0.5173  0.2268  0.3351
  886MPD2    C312989   3.419   2.026  14.889 -0.5851 -0.0128  0.6401
  886MPD2    C412990   3.289   2.017  14.846 -0.1284 -0.3824 -0.4864
  886MPD2    C512991   3.226   1.895  14.853  0.4496  0.0134 -0.0722
  886MPD2     H12992   3.588   1.928  14.991  0.2245 -0.6037 -1.2427
  886MPD2    H112993   3.230   2.100  14.807  0.1271 -0.4816 -1.0759
  886MPD2    H212994   3.217   1.705  14.933 -0.2469  0.8384  0.1357
  886MPD2    H312995   3.133   1.877  14.801 -0.1935  3.3102 -0.0957
  886MPD2     N12996   3.481   2.154  14.872  0.1942 -0.4836  1.3289
  886MPD2    H512997   3.426   2.236  14.846  0.0265 -0.2932  2.2762
  886MPD2    N112998   3.486   1.708  15.052  0.6799  0.2060 -0.1627
  886MPD2    H712999   3.557   1.752  15.110  0.7494  0.6374 -0.5800
  887MPD2     C13000   4.144   1.629  15.256  0.5901  0.0960  0.7126
  887MPD2    C113001   4.025   1.704  15.257 -0.5761  0.2373 -0.2649
  887MPD2    C213002   4.034   1.839  15.251 -0.4304 -0.6549 -0.4760
  887MPD2    C313003   4.157   1.896  15.254  0.0860  0.0063  0.0768
  887MPD2    C413004   4.275   1.827  15.248 -0.0974 -0.3360  0.2894
  887MPD2    C513005   4.267   1.689  15.256  0.1648 -0.6463 -0.3450
  887MPD2     H13006   3.947   1.903  15.257 -1.9748 -2.7916  0.0107
  887MPD2    H113007   4.367   1.882  15.231 -1.7005  1.7380 -1.6046
  887MPD2    H213008   4.136   1.521  15.254 -0.9464  0.2237  0.0188
  887MPD2    H313009   4.354   1.626  15.266  0.1713 -0.7238 -0.9035
  887MPD2     N13010   4.150   2.038  15.260  0.3409  0.6241 -0.1358
  887MPD2    H513011   4.062   2.077  15.292  0.7966  1.5663 -0.0264
  887MPD2    N113012   3.898   1.644  15.255 -0.3928 -0.3668  0.5698
  887MPD2    H713013   3.816   1.704  15.263  1.3106  1.9963  0.2700
  888MPD2     C13014   1.392   1.601  14.931  0.2321  0.0193 -0.1334
  888MPD2    C113015   1.299   1.665  15.013  0.9295  0.7600  0.3952
  888MPD2    C213016   1.319   1.788  15.066  0.7956  0.7968 -0.7806
  888MPD2    C313017   1.437   1.856  15.026 -0.1500 -0.9213  0.2047
  888MPD2    C413018   1.537   1.787  14.960 -0.3249 -0.4039 -0.0968
  888MPD2    C513019   1.516   1.657  14.920 -0.1879 -0.1918  0.3922
  888MPD2     H13020   1.243   1.830  15.130 -1.3598 -2.2925 -1.3149
  888MPD2    H113021   1.638   1.818  14.937 -0.4400  1.1193  1.4519
  888MPD2    H213022   1.374   1.503  14.888  3.0160  0.2225 -1.7947
  888MPD2    H313023   1.598   1.606  14.872 -1.2104 -3.0722  1.6675
  888MPD2     N13024   1.460   1.988  15.071  0.3072 -0.6750 -0.2013
  888MPD2    H513025   1.402   2.022  15.147 -2.3009  1.1963 -2.9900
  888MPD2    N113026   1.168   1.608  15.047 -0.6107 -0.7099  0.1961
  888MPD2    H713027   1.108   1.658  15.113  0.2751 -2.2644  2.1906
  889MPD2     C13028   0.077   1.182  12.830 -0.4247  0.1836  0.0394
  889MPD2    C113029   0.183   1.150  12.911  0.5485  0.2888  0.3469
  889MPD2    C213030   0.212   1.236  13.016  0.3369  0.4549 -0.0016
  889MPD2    C313031   0.149   1.355  13.036 -0.4777  0.8286  0.4436
  889MPD2    C413032   0.040   1.385  12.946 -0.6066 -0.6120  0.2568
  889MPD2    C513033   0.003   1.289  12.851 -0.2334  0.4879 -0.4596
  889MPD2     H13034   0.277   1.201  13.095  3.2277  2.6220 -1.4240
  889MPD2    H113035   4.701   1.474  12.963 -1.0035 -1.0610  1.1462
  889MPD2    H213036   0.034   1.099  12.774  1.3753  1.8752 -3.8197
  889MPD2    H313037   4.625   1.302  12.806 -0.6400 -0.1701  0.2524
  889MPD2     N13038   0.197   1.451  13.126  0.0927 -0.6054  0.6992
  889MPD2    H513039   0.143   1.535  13.143 -1.9209 -2.0933  1.6822
  889MPD2    N113040   0.233   1.017  12.902  0.5893 -0.0036 -0.1691
  889MPD2    H713041   0.192   0.954  12.835 -0.1908 -1.2788  1.5134
  890MPD2     C13042   0.670   3.383  14.381 -0.0319 -0.2639 -0.7408
  890MPD2    C113043   0.565   3.427  14.466  0.3759  0.1636 -0.5158
  890MPD2    C213044   0.478   3.333  14.517 -0.1044  0.3336 -0.3779
  890MPD2    C313045   0.507   3.200  14.514 -0.2693  0.2775 -0.0028
  890MPD2    C413046   0.615   3.152  14.439 -0.4336 -0.3246 -0.5295
  890MPD2    C513047   0.691   3.244  14.375  0.1957 -0.1121  0.2051
  890MPD2     H13048   0.391   3.365  14.573  0.3298  0.9486 -0.0509
  890MPD2    H113049   0.644   3.047  14.436  2.5705  0.6232 -3.6087
  890MPD2    H213050   0.734   3.455  14.331 -1.5573  1.9936  0.5932
  890MPD2    H313051   0.782   3.212  14.325  0.6326  0.3871  0.6954
  890MPD2     N13052   0.424   3.115  14.585 -0.1184  0.0690  0.6740
  890MPD2    H513053   0.327   3.142  14.591 -0.2116  0.1114 -0.9742
  890MPD2    N113054   0.548   3.566  14.478  0.4789  0.4124  0.1371
  890MPD2    H713055   0.611   3.628  14.428  2.4765 -2.3932 -0.7788
  891MPD2     C13056   2.560   1.128  16.626 -0.1037  0.7260  0.3300
  891MPD2    C113057   2.483   1.120  16.739  0.5775 -0.6011  0.4586
  891MPD2    C213058   2.543   1.144  16.864  0.8880 -0.0388 -0.4030
  891MPD2    C313059   2.682   1.159  16.873 -0.0274  0.6613  0.5828
  891MPD2    C413060   2.759   1.155  16.754  0.6528 -1.2870 -0.2021
  891MPD2    C513061   2.697   1.140  16.633 -0.8194 -0.1323  0.5755
  891MPD2     H13062   2.490   1.167  16.955 -0.7197  0.5378 -1.4953
  891MPD2    H113063   2.866   1.172  16.758  0.2536  1.7126 -2.1443
  891MPD2    H213064   2.513   1.126  16.528 -1.1918  1.1001  0.8461
  891MPD2    H313065   2.751   1.158  16.541 -1.2723 -1.5896  0.0252
  891MPD2     N13066   2.737   1.196  17.002  0.4667 -0.1242  0.2612
  891MPD2    H513067   2.664   1.211  17.071 -0.4527 -1.4484 -0.4126
  891MPD2    N113068   2.347   1.085  16.722  0.5689  0.0936 -0.0277
  891MPD2    H713069   2.323   1.074  16.624  3.4773  0.2554 -0.7555
  892MPD2     C13070   4.043   3.054  14.538  0.3633 -0.2902  0.1958
  892MPD2    C113071   3.978   2.935  14.543 -0.1072 -0.4560  0.2294
  892MPD2    C213072   4.042   2.819  14.499  0.5420 -0.0250  0.2077
  892MPD2    C313073   4.168   2.827  14.445 -0.6090  0.6605 -0.5941
  892MPD2    C413074   4.233   2.947  14.436 -0.0833 -0.0847 -0.3901
  892MPD2    C513075   4.167   3.061  14.477 -0.1187 -0.1120  0.0499
  892MPD2     H13076   3.992   2.723  14.507 -2.4346  1.2759 -2.6213
  892MPD2    H113077   4.331   2.947  14.390  0.8156  1.3611  1.5539
  892MPD2    H213078   4.000   3.152  14.556 -0.2967 -0.5922  0.2455
  892MPD2    H313079   4.213   3.159  14.466  0.5787 -0.2772  1.5235
  892MPD2     N13080   4.234   2.709  14.396  0.4085  0.9970  0.0858
  892MPD2    H513081   4.311   2.718  14.330  0.8063 -0.6576  0.3323
  892MPD2    N113082   3.844   2.929  14.596  0.4780 -0.4870 -0.2046
  892MPD2    H713083   3.798   3.018  14.607  0.2775 -0.7667  1.2145
  893MPD2     C13084   0.640   1.180   1.087 -0.5388 -0.0105 -0.2164
  893MPD2    C113085   0.677   1.096   1.187 -0.0627  0.9234  0.4533
  893MPD2    C213086   0.715   1.151   1.307 -0.3013 -0.2264 -0.2411
  893MPD2    C313087   0.709   1.283   1.334 -0.4308  0.0851  0.6816
  893MPD2    C413088   0.666   1.363   1.233  0.5458 -0.4531 -0.4627
  893MPD2    C513089   0.630   1.315   1.109  0.4272  0.5265  0.7565
  893MPD2     H13090   0.763   1.090   1.383  1.4570 -2.5066 -3.1828
  893MPD2    H113091   0.655   1.471   1.239 -0.7831 -0.5336 -1.4702
  893MPD2    H213092   0.617   1.142   0.988 -1.1951  1.4534 -0.6337
  893MPD2    H313093   0.597   1.390   1.038  1.2865 -0.2489 -0.4526
  893MPD2     N13094   0.720   1.342   1.461  0.5129 -0.5957 -0.0652
  893MPD2    H513095   0.680   1.434   1.477  2.3509 -0.2722  2.7200
  893MPD2    N113096   0.689   0.961   1.154 -0.2570 -0.9701 -0.1912
  893MPD2    H713097   0.671   0.937   1.057 -2.4529 -1.1233  0.2502
  894MPD2     C13098   3.549   2.982   0.659 -0.0867 -0.3088  0.3536
  894MPD2    C113099   3.552   3.028   0.789 -0.6551 -0.4200 -0.5637
  894MPD2    C213100   3.655   3.121   0.825  0.4259  0.3645 -0.9558
  894MPD2    C313101   3.733   3.183   0.726 -0.2471 -0.4344  0.0836
  894MPD2    C413102   3.711   3.146   0.599  0.0847  0.9851  0.1425
  894MPD2    C513103   3.622   3.047   0.570 -0.0695  0.4901 -0.9071
  894MPD2     H13104   3.659   3.160   0.926  2.7579  0.2600 -1.0042
  894MPD2    H113105   3.773   3.191   0.522  1.0684 -0.0783  0.3205
  894MPD2    H213106   3.485   2.904   0.619 -1.5589  0.2859  1.5834
  894MPD2    H313107   3.616   3.013   0.467 -2.1393 -1.1219 -0.2596
  894MPD2     N13108   3.821   3.291   0.771 -0.0482  0.5961  0.2354
  894MPD2    H513109   3.851   3.286   0.868  1.5437  3.0676 -0.1415
  894MPD2    N113110   3.448   2.999   0.881  0.2115  0.7057  0.2349
  894MPD2    H713111   3.458   3.045   0.971 -0.9224  1.2271  0.1016
  895MPD2     C13112   2.960   1.830  13.123  0.1288 -0.3344 -0.2341
  895MPD2    C113113   2.859   1.781  13.041  0.2902  0.4317  0.2323
  895MPD2    C213114   2.834   1.646  13.057  0.1348 -0.6129 -0.0046
  895MPD2    C313115   2.887   1.567  13.154  0.8323  0.0450  0.0919
  895MPD2    C413116   2.990   1.617  13.228 -0.5779 -0.4296 -0.3446
  895MPD2    C513117   3.026   1.749  13.216 -0.9113 -0.5525  0.3711
  895MPD2     H13118   2.745   1.616  13.003  0.6346  0.2494 -1.2973
  895MPD2    H113119   3.045   1.547  13.290 -0.6911  0.2457  0.5223
  895MPD2    H213120   2.991   1.934  13.123  1.7410 -0.7990 -1.8155
  895MPD2    H313121   3.105   1.788  13.279 -1.8290  0.9350  0.5905
  895MPD2     N13122   2.847   1.431  13.173 -0.5619 -0.4830 -0.0240
  895MPD2    H513123   2.918   1.378  13.222 -0.6013 -0.3289  0.1985
  895MPD2    N113124   2.777   1.857  12.956 -0.1985  0.2777 -0.1397
  895MPD2    H713125   2.707   1.808  12.902 -0.0486  1.2538 -1.2048
  896MPD2     C13126   0.620   3.482   1.529  0.4507  0.4858  0.1839
  896MPD2    C113127   0.560   3.581   1.448  0.0502  0.0221  0.0974
  896MPD2    C213128   0.426   3.604   1.468 -0.1254  0.4450  1.0410
  896MPD2    C313129   0.356   3.530   1.563  0.0281 -0.9579  0.8155
  896MPD2    C413130   0.426   3.431   1.631 -0.3098  0.0486  0.2735
  896MPD2    C513131   0.562   3.410   1.621 -0.0880  0.8935  0.6729
  896MPD2     H13132   0.379   3.677   1.404 -2.2616 -0.8369  1.1490
  896MPD2    H113133   0.363   3.367   1.692  0.7739 -0.8136  0.4828
  896MPD2    H213134   0.727   3.464   1.516  0.5507  0.5067  0.9690
  896MPD2    H313135   0.609   3.338   1.688 -2.9639 -2.7682 -1.2474
  896MPD2     N13136   0.218   3.534   1.584  0.4438  0.3629  0.0739
  896MPD2    H513137   0.180   3.451   1.628 -0.9533  0.7912 -0.3587
  896MPD2    N113138   0.645   3.645   1.352 -0.7502 -0.3203 -0.6563
  896MPD2    H713139   0.739   3.664   1.383 -0.4441 -1.3848 -0.9409
  897MPD2     C13140   1.207   0.680  10.228  0.2236 -0.2618  0.2426
  897MPD2    C113141   1.211   0.811  10.273 -0.0099 -0.4187  0.2348
  897MPD2    C213142   1.201   0.838  10.410  0.7030  0.3011  0.1253
  897MPD2    C313143   1.200   0.729  10.496 -0.0137 -1.1059  0.1394
  897MPD2    C413144   1.196   0.600  10.449  0.0616 -0.1362 -0.5028
  897MPD2    C513145   1.205   0.578  10.313  0.7584  0.4660  0.6019
  897MPD2     H13146   1.219   0.935  10.456  1.7115 -1.1480  2.7679
  897MPD2    H113147   1.178   0.520  10.519 -0.9341  1.4367  1.0443
  897MPD2    H213148   1.221   0.660  10.123 -1.0832 -0.1603  0.0535
  897MPD2    H313149   1.207   0.479  10.269 -0.3910  0.8352 -0.3002
  897MPD2     N13150   1.197   0.757  10.635 -0.9202  0.5523 -0.1758
  897MPD2    H513151   1.193   0.853  10.668  0.4848  0.1812  1.0345
  897MPD2    N113152   1.201   0.908  10.171 -0.3383 -0.0525  0.3157
  897MPD2    H713153   1.212   0.877  10.075  0.8657 -4.9950  2.0267
  898MPD2     C13154   3.235   1.761  17.436 -0.3284 -0.1712  0.9660
  898MPD2    C113155   3.265   1.891  17.405  0.3241 -0.5691 -0.6492
  898MPD2    C213156   3.176   1.999  17.413  0.3675  0.5459 -0.3111
  898MPD2    C313157   3.049   1.965  17.452  1.4184 -0.6375  0.2803
  898MPD2    C413158   3.016   1.841  17.499 -0.0122  0.2937 -0.2331
  898MPD2    C513159   3.107   1.740  17.482  0.1822 -0.0399  0.0219
  898MPD2     H13160   3.202   2.099  17.380 -1.0056  0.8280 -0.5295
  898MPD2    H113161   2.917   1.813  17.534  0.8945 -0.4043  1.7923
  898MPD2    H213162   3.300   1.674  17.435  1.1429  0.9822 -2.2125
  898MPD2    H313163   3.074   1.645  17.522 -1.7680  0.3057 -0.7784
  898MPD2     N13164   2.954   2.070  17.459 -0.2602 -0.4464 -0.1165
  898MPD2    H513165   2.989   2.163  17.441  0.0348 -0.5902 -0.2879
  898MPD2    N113166   3.390   1.919  17.350 -0.1854 -0.0798 -0.4013
  898MPD2    H713167   3.405   2.017  17.330 -1.6835  0.0547 -0.8309
  899MPD2     C13168   4.222   2.499  17.311  0.1615 -0.4190  0.0719
  899MPD2    C113169   4.282   2.602  17.379  0.0805 -0.4104 -0.5824
  899MPD2    C213170   4.326   2.575  17.507 -0.5983  0.2168  0.6193
  899MPD2    C313171   4.296   2.456  17.573 -0.1006  0.3093  0.4034
  899MPD2    C413172   4.227   2.368  17.509 -0.4163  0.1214 -0.7037
  899MPD2    C513173   4.192   2.383  17.376 -0.1095 -0.0662 -0.1613
  899MPD2     H13174   4.374   2.659  17.556  3.3520 -1.0815 -1.0116
  899MPD2    H113175   4.211   2.268  17.549  0.1986  0.3505  0.1156
  899MPD2    H213176   4.178   2.515  17.213  1.0566  2.8971  0.2238
  899MPD2    H313177   4.135   2.311  17.319  1.3003 -1.7741  0.5996
  899MPD2     N13178   4.312   2.439   0.026 -0.4635  0.6567  0.3539
  899MPD2    H513179   4.271   2.355   0.065  0.2703  0.4904  0.7624
  899MPD2    N113180   4.306   2.720  17.310 -0.7026  0.0672 -0.5255
  899MPD2    H713181   4.265   2.731  17.217 -2.4571 -2.8262 -0.0968
  900MPD2     C13182   4.070   4.380  12.458  0.3350  0.1525  0.3762
  900MPD2    C113183   3.995   4.265  12.467 -0.4956 -0.2866  0.0513
  900MPD2    C213184   3.871   4.258  12.413 -0.2208  0.2854 -0.6351
  900MPD2    C313185   3.823   4.374  12.354  0.0119 -0.0182 -0.2615
  900MPD2    C413186   3.889   4.493  12.360 -0.3638  0.3943 -0.1555
  900MPD2    C513187   4.016   4.498  12.420  0.8414  0.3099 -0.1020
  900MPD2     H13188   3.812   4.168  12.413  0.5896 -0.2503 -1.9146
  900MPD2    H113189   3.844   4.579  12.313  2.0760  1.2824 -0.8643
  900MPD2    H213190   4.168   4.375  12.505  0.0804 -0.1611  0.8644
  900MPD2    H313191   4.077   4.587  12.415  1.7129 -0.3859 -2.1633
  900MPD2     N13192   3.696   4.355  12.302  0.2728 -0.3223  0.8597
  900MPD2    H513193   3.661   4.262  12.326 -2.6164  0.3903 -0.6729
  900MPD2    N113194   4.059   4.152  12.517  0.8177 -0.4724  0.1947
  900MPD2    H713195   4.160   4.150  12.505  1.1133  0.7802  2.3941
  901MPD2     C13196   3.908   3.159  12.935 -0.3394 -0.3576 -0.2940
  901MPD2    C113197   4.028   3.161  12.874 -0.5575  0.3674 -0.3620
  901MPD2    C213198   4.082   3.276  12.815 -0.4747 -0.3330 -0.1115
  901MPD2    C313199   4.003   3.390  12.800 -0.4028  0.8178 -0.4584
  901MPD2    C413200   3.881   3.392  12.863 -0.6166  0.1000  0.1710
  901MPD2    C513201   3.839   3.276  12.922  0.6055  0.0543  0.4215
  901MPD2     H13202   4.185   3.283  12.781 -0.1113 -1.0557  0.8338
  901MPD2    H113203   3.819   3.481  12.864 -0.1485  0.4420 -0.9108
  901MPD2    H213204   3.863   3.073  12.985  1.3215 -0.5446  0.8602
  901MPD2    H313205   3.750   3.276  12.983 -1.7662 -0.4757 -3.0128
  901MPD2     N13206   4.048   3.500  12.732  0.6777  0.1388 -0.0488
  901MPD2    H513207   4.147   3.497  12.708  0.4762 -0.6927 -0.8183
  901MPD2    N113208   4.100   3.043  12.870  0.1290 -0.2239 -0.0938
  901MPD2    H713209   4.055   2.959  12.906 -0.9194  0.3105 -0.1706
  902MPD2     C13210   3.443   2.301  12.959 -0.5148 -0.0397  0.3999
  902MPD2    C113211   3.354   2.343  12.864 -0.3207  0.2978 -0.7156
  902MPD2    C213212   3.356   2.271  12.746  0.0524  0.4826 -0.9063
  902MPD2    C313213   3.433   2.161  12.714 -0.0861  0.1087  0.1337
  902MPD2    C413214   3.527   2.124  12.810 -0.2558 -0.1290 -0.0107
  902MPD2    C513215   3.532   2.199  12.925  0.3518 -0.5123 -0.0918
  902MPD2     H13216   3.280   2.298  12.673 -0.4454  1.7113  0.0504
  902MPD2    H113217   3.600   2.046  12.789 -0.8046 -0.6665  0.0635
  902MPD2    H213218   3.456   2.342  13.058 -0.3186  0.1458  0.2981
  902MPD2    H313219   3.598   2.174  13.007 -1.0459 -0.7819  0.9582
  902MPD2     N13220   3.412   2.107  12.588 -0.6802  0.1555  0.4170
  902MPD2    H513221   3.343   2.157  12.532 -1.1363 -0.0477  0.8011
  902MPD2    N113222   3.261   2.442  12.896 -0.4469 -0.1547 -0.5101
  902MPD2    H713223   3.254   2.477  12.991  0.1794 -2.2999  0.3398
  903MPD2     C13224   3.116   2.399  12.197 -0.0866 -0.3415  0.0422
  903MPD2    C113225   3.088   2.273  12.145 -0.6965 -0.7443  0.2438
  903MPD2    C213226   2.964   2.251  12.089  0.3488  0.1964  0.0228
  903MPD2    C313227   2.867   2.351  12.094  0.1387  0.1291 -0.2578
  903MPD2    C413228   2.900   2.477  12.144  0.1058 -0.2515  0.3502
  903MPD2    C513229   3.025   2.499  12.191 -0.4231 -0.0813  0.4817
  903MPD2     H13230   2.946   2.160  12.034  2.1316 -0.9497  1.3324
  903MPD2    H113231   2.837   2.564  12.136  0.6312 -0.0814 -2.0925
  903MPD2    H213232   3.213   2.433  12.231 -0.2635 -0.1413  0.3423
  903MPD2    H313233   3.059   2.599  12.215  0.6620 -0.1082 -0.9574
  903MPD2     N13234   2.735   2.341  12.046 -0.0289 -0.0152  0.2143
  903MPD2    H513235   2.681   2.426  12.058  0.5570  0.3341  0.3161
  903MPD2    N113236   3.193   2.181  12.162 -0.1329 -0.0220  0.3952
  903MPD2    H713237   3.274   2.211  12.216 -1.0683  1.1481  1.1540
  904MPD2     C13238   2.598   1.200  14.315 -0.0270 -0.5546 -0.3871
  904MPD2    C113239   2.672   1.287  14.248 -0.3419 -0.1445 -0.0405
  904MPD2    C213240   2.798   1.257  14.207 -0.0892 -0.5277  0.1377
  904MPD2    C313241   2.850   1.128  14.220  0.2250  0.2852 -0.7064
  904MPD2    C413242   2.766   1.036  14.284  0.5091  0.0877  0.4045
  904MPD2    C513243   2.653   1.077  14.340  0.1428  0.1680  0.1117
  904MPD2     H13244   2.859   1.336  14.164 -1.4728  0.4063 -0.1009
  904MPD2    H113245   2.787   0.930  14.297  0.9836  0.0896 -0.3568
  904MPD2    H213246   2.494   1.216  14.341 -0.1749  0.6411 -1.7114
  904MPD2    H313247   2.595   1.002  14.393  0.0399  1.4072  1.7603
  904MPD2     N13248   2.966   1.093  14.156 -0.1158 -0.1235 -0.3589
  904MPD2    H513249   3.007   1.171  14.107 -1.4424  1.2280  0.6994
  904MPD2    N113250   2.632   1.426  14.217 -0.1738  0.2654 -0.2451
  904MPD2    H713251   2.702   1.476  14.163  0.4537  0.8154  1.0861
  905MPD2     C13252   2.149   1.485  13.660 -0.4413  0.1363  0.4076
  905MPD2    C113253   2.279   1.476  13.694 -0.4527 -0.1471 -0.2265
  905MPD2    C213254   2.363   1.396  13.622 -0.4377 -0.2715  0.0017
  905MPD2    C313255   2.318   1.316  13.514  0.2817 -0.5379 -0.1094
  905MPD2    C413256   2.188   1.314  13.483  0.1934  0.3430 -0.0969
  905MPD2    C513257   2.103   1.401  13.556  0.4043 -0.3046  0.3188
  905MPD2     H13258   2.467   1.393  13.652 -0.7168 -0.4141  0.9444
  905MPD2    H113259   2.146   1.268  13.395 -2.6961 -0.3821  1.6606
  905MPD2    H213260   2.070   1.543  13.706 -0.2960 -0.6795  1.6952
  905MPD2    H313261   1.996   1.389  13.552  0.5190 -1.1972  0.0626
  905MPD2     N13262   2.417   1.239  13.449  0.5403 -0.0940 -0.9722
  905MPD2    H513263   2.509   1.280  13.463  1.4757 -1.2813 -3.6565
  905MPD2    N113264   2.316   1.563  13.799 -0.1156  0.5225 -0.0382
  905MPD2    H713265   2.250   1.599  13.867  0.5921  0.1217  0.8629
  906MPD2     C13266   0.371   1.479  11.471 -0.0861 -0.4110 -0.7053
  906MPD2    C113267   0.300   1.429  11.364 -0.0878  0.3114 -0.1341
  906MPD2    C213268   0.303   1.291  11.337  0.7465 -0.2657 -0.4054
  906MPD2    C313269   0.383   1.208  11.412 -0.0702  0.4029 -0.4595
  906MPD2    C413270   0.456   1.261  11.512 -0.1627 -0.1684  0.2438
  906MPD2    C513271   0.451   1.397  11.541  0.3012 -0.3297  0.5714
  906MPD2     H13272   0.243   1.250  11.257 -0.1482  0.0034  0.1246
  906MPD2    H113273   0.512   1.193  11.574 -1.5745 -1.1174  0.4686
  906MPD2    H213274   0.364   1.582  11.504 -1.2027 -0.7782  0.1882
  906MPD2    H313275   0.508   1.425  11.629 -0.0133  0.1103  0.6358
  906MPD2     N13276   0.396   1.068  11.397  0.1031 -0.1558  0.2753
  906MPD2    H513277   0.463   1.024  11.458  0.1998 -0.9354 -0.4017
  906MPD2    N113278   0.237   1.524  11.281  0.0158  0.0813  0.4254
  906MPD2    H713279   0.216   1.618  11.312 -0.3915 -0.5086  1.9259
  907MPD2     C13280   3.361   0.335  15.358 -0.5228  0.8168 -0.2747
  907MPD2    C113281   3.455   0.240  15.332 -0.7265  0.0108 -0.1577
  907MPD2    C213282   3.581   0.248  15.392  1.1735 -0.0028  0.4519
  907MPD2    C313283   3.609   0.335  15.495  0.1896  0.6433  0.2202
  907MPD2    C413284   3.514   0.425  15.531 -0.0656  0.2923 -0.2369
  907MPD2    C513285   3.392   0.426  15.464 -0.0543  0.4582  0.1031
  907MPD2     H13286   3.655   0.173  15.368 -0.2408 -2.2399  3.1874
  907MPD2    H113287   3.537   0.495  15.611 -0.7207 -1.4712  1.4988
  907MPD2    H213288   3.257   0.330  15.326 -0.5849 -3.1129  0.4956
  907MPD2    H313289   3.321   0.505  15.484  0.2149  0.2422  1.8980
  907MPD2     N13290   3.736   0.332  15.550  0.5015 -0.0555 -0.0019
  907MPD2    H513291   3.802   0.271  15.503 -1.5436 -2.5213  0.3340
  907MPD2    N113292   3.444   0.131  15.240  0.1754  0.3470  0.3408
  907MPD2    H713293   3.504   0.050  15.250  1.5994  1.5298  1.3460
  908MPD2     C13294   1.141   0.672   9.392 -0.2036 -0.0833  0.2165
  908MPD2    C113295   1.186   0.641   9.519 -0.2667 -0.1528 -0.9018
  908MPD2    C213296   1.177   0.729   9.623 -0.4208  0.5135  0.3134
  908MPD2    C313297   1.125   0.856   9.598 -0.1416  0.1787 -0.2708
  908MPD2    C413298   1.088   0.889   9.466  0.6494 -0.4619  0.1694
  908MPD2    C513299   1.103   0.799   9.363  0.1156  0.1292 -0.1484
  908MPD2     H13300   1.194   0.694   9.725 -0.9256  3.6867  1.4821
  908MPD2    H113301   1.033   0.982   9.456 -0.3617 -1.3524 -2.5331
  908MPD2    H213302   1.146   0.600   9.312 -0.9338  1.1320 -0.9252
  908MPD2    H313303   1.082   0.826   9.260  1.1379 -0.0716 -0.4069
  908MPD2     N13304   1.094   0.934   9.705 -0.4402  0.1019  0.6504
  908MPD2    H513305   1.121   0.902   9.797 -2.8255 -1.0850  0.9518
  908MPD2    N113306   1.234   0.519   9.556 -0.6172  0.3599  0.8522
  908MPD2    H713307   1.272   0.508   9.649 -2.0333 -0.7528  1.2993
  909MPD2     C13308   1.701   4.020  12.014  1.3647  0.7194 -0.2789
  909MPD2    C113309   1.618   4.041  11.909  0.3564  0.8069  0.6637
  909MPD2    C213310   1.481   4.036  11.921  0.0863  0.0896 -0.0254
  909MPD2    C313311   1.424   3.992  12.041  0.1934  0.1309  0.1128
  909MPD2    C413312   1.503   3.964  12.144 -0.4015  0.2172  0.1826
  909MPD2    C513313   1.640   3.979  12.129  0.1669  0.0006  0.1580
  909MPD2     H13314   1.425   4.050  11.828 -0.4596 -1.5816  0.0582
  909MPD2    H113315   1.457   3.930  12.237 -1.7695  0.1406 -0.5119
  909MPD2    H213316   1.808   4.033  12.004  1.5261  1.1416  1.9664
  909MPD2    H313317   1.699   3.948  12.215  2.8443  1.6968 -1.1008
  909MPD2     N13318   1.282   3.990  12.038  0.1040 -0.0145  0.5112
  909MPD2    H513319   1.242   3.983  11.945  2.8137  0.8214 -0.7110
  909MPD2    N113320   1.670   4.065  11.781 -0.1575 -0.8800  0.1303
  909MPD2    H713321   1.609   4.096  11.706  1.0303 -1.0061 -0.8906
  910MPD2     C13322   3.163   0.749  15.788  0.1894 -0.1469  0.5640
  910MPD2    C113323   3.289   0.707  15.745 -0.5430  0.0001  0.4183
  910MPD2    C213324   3.334   0.745  15.625  0.4673  0.1777  0.3863
  910MPD2    C313325   3.251   0.808  15.535  0.4540 -0.3554  0.1476
  910MPD2    C413326   3.125   0.842  15.571  0.1543  0.2440 -0.0949
  910MPD2    C513327   3.083   0.812  15.695 -0.5160  0.1474  0.6181
  910MPD2     H13328   3.439   0.724  15.607 -0.0438 -0.6054 -1.5613
  910MPD2    H113329   3.064   0.899  15.503  1.0056  1.3009  0.0270
  910MPD2    H213330   3.117   0.720  15.882  0.0026  0.3650  0.6315
  910MPD2    H313331   2.982   0.832  15.730 -0.6926 -1.3914  0.9947
  910MPD2     N13332   3.289   0.849  15.409  0.4030  0.0447  0.4874
  910MPD2    H513333   3.216   0.880  15.346 -0.3794  1.0888  1.8995
  910MPD2    N113334   3.362   0.622  15.831 -0.5583  0.0754  0.3814
  910MPD2    H713335   3.460   0.606  15.807  0.1971  1.4170  2.5309
  911MPD2     C13336   1.002   1.379  15.837 -0.9714  0.7951 -0.0763
  911MPD2    C113337   1.056   1.418  15.965  1.2868 -0.4890 -0.0985
  911MPD2    C213338   1.075   1.554  15.993 -0.0306 -1.0395  0.9859
  911MPD2    C313339   1.048   1.645  15.894 -0.3935 -0.4100 -0.0150
  911MPD2    C413340   0.999   1.607  15.769 -0.7200  0.3097  0.4497
  911MPD2    C513341   0.978   1.474  15.737  0.5599  0.5667  0.2929
  911MPD2     H13342   1.113   1.594  16.087  1.7893 -3.6749  1.3864
  911MPD2    H113343   0.994   1.679  15.688  2.1330  0.8137  0.7060
  911MPD2    H213344   0.967   1.279  15.817  1.3816 -0.3970  1.8282
  911MPD2    H313345   0.935   1.439  15.644  0.1081 -1.5533  1.2939
  911MPD2     N13346   1.085   1.780  15.921  0.3947  0.1819  1.1658
  911MPD2    H513347   1.142   1.799  16.003  2.3302  0.9673 -0.3426
  911MPD2    N113348   1.089   1.314  16.051 -0.1338  0.6934  0.8939
  911MPD2    H713349   1.091   1.219  16.017 -0.4758  0.2553  2.1263
  912MPD2     C13350   0.572   1.428  15.524 -0.3180 -0.5892  0.2088
  912MPD2    C113351   0.597   1.507  15.637 -0.1802  0.2290 -0.2588
  912MPD2    C213352   0.620   1.452  15.760  0.7542  0.2003  0.1736
  912MPD2    C313353   0.598   1.317  15.775  0.2106  0.0561 -0.8313
  912MPD2    C413354   0.554   1.239  15.668 -0.6808 -0.7682 -0.4941
  912MPD2    C513355   0.537   1.291  15.542  0.6911 -0.5100  0.5241
  912MPD2     H13356   0.662   1.496  15.849 -2.1891  2.6742  0.3581
  912MPD2    H113357   0.516   1.139  15.685  2.1539 -1.6407  0.7456
  912MPD2    H213358   0.554   1.481  15.431  0.4106  0.3932  0.6279
  912MPD2    H313359   0.506   1.222  15.465 -2.8997  1.8137 -0.1260
  912MPD2     N13360   0.608   1.268  15.907 -0.4018 -0.2484  0.2234
  912MPD2    H513361   0.626   1.339  15.977 -1.5738  0.0090  0.2634
  912MPD2    N113362   0.613   1.648  15.611 -0.7388  0.2795  0.0856
  912MPD2    H713363   0.606   1.681  15.515  2.6425  1.9499  0.3997
  913MPD2     C13364   0.805   3.001  10.180  0.1931 -0.3628 -0.5744
  913MPD2    C113365   0.925   2.988  10.250  0.0496  0.6707 -0.2360
  913MPD2    C213366   1.022   3.075  10.211 -0.3595  0.6773  0.2954
  913MPD2    C313367   1.005   3.171  10.115  0.4266 -0.2428 -0.5127
  913MPD2    C413368   0.885   3.183  10.054  0.0842  0.1132  0.1091
  913MPD2    C513369   0.784   3.100  10.087  0.1727  0.0564  0.5076
  913MPD2     H13370   1.114   3.082  10.269  0.7099 -2.6715 -0.9716
  913MPD2    H113371   0.871   3.265   9.985  1.1848  1.0934  1.0525
  913MPD2    H213372   0.719   2.944  10.213  0.7805 -0.8512  0.1267
  913MPD2    H313373   0.693   3.114  10.030  1.0362  0.6695 -0.7214
  913MPD2     N13374   1.103   3.270  10.083  0.3590 -0.7230 -0.0219
  913MPD2    H513375   1.071   3.340  10.017 -0.1358 -1.6461 -0.7481
  913MPD2    N113376   0.947   2.890  10.353  0.2604 -0.4406  0.0109
  913MPD2    H713377   0.881   2.815  10.374 -1.9268  2.1052  2.2390
  914MPD2     C13378   3.750   2.924  12.124 -0.0809 -0.2665 -0.3177
  914MPD2    C113379   3.790   3.011  12.226 -0.2682 -0.1404 -0.3140
  914MPD2    C213380   3.843   2.958  12.339 -0.3527 -0.1955 -0.5498
  914MPD2    C313381   3.886   2.827  12.349  0.7030 -0.0304 -0.8470
  914MPD2    C413382   3.874   2.753  12.238 -0.1598 -0.1756 -0.8806
  914MPD2    C513383   3.802   2.792  12.129 -0.0142 -0.5695 -0.3105
  914MPD2     H13384   3.879   3.019  12.420  3.5495 -1.3983 -1.3825
  914MPD2    H113385   3.929   2.661  12.232  0.7152  0.2395  0.6697
  914MPD2    H213386   3.690   2.952  12.039 -1.3151 -0.0439  0.6278
  914MPD2    H313387   3.780   2.728  12.045 -2.5189 -0.1544  0.0327
  914MPD2     N13388   3.969   2.808  12.466 -0.0068  0.2305 -0.6499
  914MPD2    H513389   3.965   2.885  12.532  1.9361 -1.3209  1.2717
  914MPD2    N113390   3.764   3.150  12.216  0.2988  0.0393  0.0042
  914MPD2    H713391   3.705   3.172  12.137 -2.8596 -0.8601  2.0970
  915MPD2     C13392   1.915   2.533  15.461 -0.4795  0.0894 -0.0259
  915MPD2    C113393   1.855   2.657  15.456 -0.5811  0.5298 -0.4354
  915MPD2    C213394   1.833   2.727  15.570 -0.5186 -0.3254 -0.7796
  915MPD2    C313395   1.876   2.679  15.695 -0.2376 -0.4007  0.0084
  915MPD2    C413396   1.939   2.557  15.700  0.1209 -0.2805  0.1922
  915MPD2    C513397   1.960   2.485  15.585 -0.1350 -0.6163  0.5194
  915MPD2     H13398   1.792   2.828  15.568  0.7082  0.2264  1.2922
  915MPD2    H113399   1.981   2.523  15.794 -0.7679 -1.3883  0.1811
  915MPD2    H213400   1.931   2.470  15.375  1.5919 -0.2325  0.5939
  915MPD2    H313401   2.013   2.391  15.592 -0.6675 -0.8085  2.0895
  915MPD2     N13402   1.873   2.765  15.810  0.3751  0.1230  0.2531
  915MPD2    H513403   1.849   2.862  15.795  4.5217  1.0771 -0.1638
  915MPD2    N113404   1.816   2.723  15.332  0.8196  0.0247 -0.2379
  915MPD2    H713405   1.758   2.806  15.339  2.6434  1.2736  0.1620
  916MPD2     C13406   0.208   1.496  15.635 -0.5246 -0.0887  0.2479
  916MPD2    C113407   0.160   1.401  15.727 -0.1419  0.0991  0.0746
  916MPD2    C213408   0.172   1.267  15.693  0.3030 -0.7953 -0.2990
  916MPD2    C313409   0.212   1.235  15.569  0.1340  0.2418  0.2457
  916MPD2    C413410   0.246   1.330  15.480  0.5647 -0.2824  0.4138
  916MPD2    C513411   0.240   1.456  15.512  0.6984  0.2777  0.3612
  916MPD2     H13412   0.136   1.192  15.763  1.3706 -0.8342  0.2190
  916MPD2    H113413   0.272   1.303  15.379  2.5472 -1.9472  1.3521
  916MPD2    H213414   0.208   1.602  15.657  1.2030  0.4623 -2.2924
  916MPD2    H313415   0.256   1.534  15.439 -1.5843  0.9929  0.6346
  916MPD2     N13416   0.203   1.096  15.533  0.4037 -0.7724  0.7491
  916MPD2    H513417   0.150   1.046  15.604 -0.0348  1.2875  1.8736
  916MPD2    N113418   0.109   1.446  15.847 -0.2606  0.6058 -0.5214
  916MPD2    H713419   0.122   1.546  15.856  1.1159  0.4254 -0.5107
  917MPD2     C13420   0.290   3.318  10.899  0.3530  0.0959  0.6830
  917MPD2    C113421   0.280   3.348  11.034 -0.3398  0.4502  0.6072
  917MPD2    C213422   0.360   3.454  11.078  0.1075  0.5634 -0.1550
  917MPD2    C313423   0.444   3.524  10.994  0.2652  0.5345  0.2031
  917MPD2    C413424   0.443   3.492  10.863 -0.1206 -0.1552  0.4482
  917MPD2    C513425   0.364   3.393  10.808 -0.0775  0.3514  0.2673
  917MPD2     H13426   0.344   3.480  11.182  1.6914  1.3581 -0.1162
  917MPD2    H113427   0.501   3.546  10.788  0.7871  1.1406  2.0995
  917MPD2    H213428   0.235   3.236  10.855  2.2356 -1.6258  1.5676
  917MPD2    H313429   0.368   3.367  10.703 -0.5276  2.7850 -0.3541
  917MPD2     N13430   0.515   3.634  11.041  0.0645  0.6874  0.6910
  917MPD2    H513431   0.551   3.696  10.968  0.2351  1.5592  1.5121
  917MPD2    N113432   0.208   3.271  11.130  0.0336  0.6389 -0.2150
  917MPD2    H713433   0.206   3.308  11.224  0.5098 -2.0270  0.8643
  918MPD2     C13434   0.321   2.979  11.948 -0.5971 -0.2908  0.1309
  918MPD2    C113435   0.399   3.043  11.860 -0.2927 -0.2757  0.1830
  918MPD2    C213436   0.341   3.102  11.753 -0.3624 -0.3459  0.2285
  918MPD2    C313437   0.205   3.083  11.730 -0.0403 -0.5220  0.6274
  918MPD2    C413438   0.126   3.016  11.822  0.0736 -0.3535  0.0227
  918MPD2    C513439   0.191   2.957  11.931 -0.1642 -0.0765 -0.3282
  918MPD2     H13440   0.400   3.162  11.684 -0.9754 -0.3939 -0.3409
  918MPD2    H113441   0.024   2.982  11.811 -0.2745  0.7156 -0.0660
  918MPD2    H213442   0.361   2.925  12.034  2.1186 -0.1589 -1.0615
  918MPD2    H313443   0.133   2.897  11.999  1.7183 -1.9156 -0.3574
  918MPD2     N13444   0.150   3.139  11.615 -0.0786 -0.5968 -0.5062
  918MPD2    H513445   0.215   3.191  11.556 -1.8246  2.6000  0.3766
  918MPD2    N113446   0.539   3.058  11.872 -0.6078 -0.0829 -0.8341
  918MPD2    H713447   0.590   3.096  11.793 -0.1725  0.7898 -0.1238
  919MPD2     C13448   0.746   2.763  11.279  0.6573 -0.2548  0.5400
  919MPD2    C113449   0.720   2.634  11.246 -0.1107  0.0573 -0.5923
  919MPD2    C213450   0.691   2.591  11.117 -0.0501  0.2900  0.0947
  919MPD2    C313451   0.698   2.683  11.008 -0.6195  0.7757  0.6047
  919MPD2    C413452   0.747   2.806  11.037  0.4734 -0.4210 -0.8929
  919MPD2    C513453   0.768   2.846  11.169 -0.0097 -0.6944 -0.4679
  919MPD2     H13454   0.663   2.487  11.105 -1.4231  0.8351 -1.3880
  919MPD2    H113455   0.767   2.882  10.962  1.0516 -0.8580 -1.1824
  919MPD2    H213456   0.763   2.800  11.380  0.6404  1.7612 -0.1855
  919MPD2    H313457   0.775   2.954  11.180  0.1430 -0.6707 -0.8074
  919MPD2     N13458   0.654   2.653  10.881 -0.2981  0.5340 -0.0417
  919MPD2    H513459   0.672   2.721  10.809 -2.4356  1.0986 -0.0441
  919MPD2    N113460   0.700   2.531  11.348 -0.1844 -0.3409  0.2198
  919MPD2    H713461   0.677   2.439  11.311  1.4086 -1.3411  1.7265
  920MPD2     C13462   4.462   2.348  10.721  0.5976  0.2893  0.2669
  920MPD2    C113463   4.525   2.368  10.604 -0.1695  0.1146 -0.2752
  920MPD2    C213464   4.644   2.436  10.602  1.0309  0.3886 -0.0537
  920MPD2    C313465   4.706   2.492  10.715 -0.2702 -0.0425  0.4962
  920MPD2    C413466   4.634   2.482  10.835 -0.0456 -0.0237  0.7421
  920MPD2    C513467   4.518   2.410  10.837  0.1847 -0.0563  0.0925
  920MPD2     H13468   4.695   2.453  10.508 -1.4991 -0.7651 -1.6466
  920MPD2    H113469   4.678   2.521  10.926 -0.7407  0.2904  0.9413
  920MPD2    H213470   4.368   2.294  10.726 -0.1195  1.3212 -1.9523
  920MPD2    H313471   4.461   2.394  10.928 -0.4962 -1.9377 -0.6583
  920MPD2     N13472   0.103   2.571  10.715 -0.1620 -0.4187  0.3961
  920MPD2    H513473   0.139   2.597  10.807  0.1748  1.1981 -0.1975
  920MPD2    N113474   4.477   2.317  10.478 -0.2767  0.0291 -0.7937
  920MPD2    H713475   4.530   2.346  10.396 -0.0859  1.9169 -0.0139
  921MPD2     C13476   1.627   1.365  16.876 -0.1770  0.5208  0.0587
  921MPD2    C113477   1.631   1.231  16.833  0.1546  0.3151 -0.7355
  921MPD2    C213478   1.525   1.182  16.762  0.8735  0.2516  0.3597
  921MPD2    C313479   1.442   1.272  16.696  0.1615 -0.0991 -0.7619
  921MPD2    C413480   1.442   1.401  16.727  0.4386  0.0741  0.3883
  921MPD2    C513481   1.535   1.451  16.818  0.4067 -0.4127 -0.2407
  921MPD2     H13482   1.522   1.074  16.750  1.1197  0.3274 -0.3338
  921MPD2    H113483   1.373   1.465  16.674  1.3337  0.9314  0.2743
  921MPD2    H213484   1.710   1.398  16.937  1.7289 -2.1387 -1.1164
  921MPD2    H313485   1.542   1.555  16.847  1.8544 -0.1546 -1.5143
  921MPD2     N13486   1.346   1.233  16.597 -0.2869  0.1648 -0.1985
  921MPD2    H513487   1.292   1.311  16.561 -0.5133  1.3271  2.6609
  921MPD2    N113488   1.754   1.159  16.849  0.0409 -0.1248 -0.0898
  921MPD2    H713489   1.838   1.214  16.860  0.0166 -0.4485  1.8556
  922MPD2     C13490   2.765   3.817  16.991 -0.7673 -0.3536  0.4175
  922MPD2    C113491   2.850   3.868  17.088  0.6259  0.2755  0.6626
  922MPD2    C213492   2.806   3.864  17.217  0.2584  0.1087  0.0840
  922MPD2    C313493   2.682   3.814  17.250  0.2284  0.3729  0.0955
  922MPD2    C413494   2.599   3.770  17.148  0.4128  0.1373  0.2268
  922MPD2    C513495   2.644   3.775  17.020  0.1745  0.3216  0.4603
  922MPD2     H13496   2.870   3.905  17.294 -0.9393  0.9838  0.6108
  922MPD2    H113497   2.498   3.741  17.173  0.1989 -0.2492 -1.0758
  922MPD2    H213498   2.782   3.817  16.884 -1.7749  0.6015  0.2558
  922MPD2    H313499   2.585   3.733  16.939 -0.4497  1.7379  0.1735
  922MPD2     N13500   2.654   3.820  17.384  1.1442  0.0736 -0.6536
  922MPD2    H513501   2.716   3.879  17.438 -2.3065  2.7628  0.4121
  922MPD2    N113502   2.972   3.930  17.054  0.0454  0.1337  0.7182
  922MPD2    H713503   3.035   3.961  17.128  1.3979 -2.2513  0.5602
  923MPD2     C13504   4.655   0.817   8.994  0.2532  0.7175  0.7025
  923MPD2    C113505   4.580   0.931   9.017  0.4265  0.2094  0.2167
  923MPD2    C213506   4.544   0.970   9.144  0.3039  0.3585  0.5762
  923MPD2    C313507   4.585   0.887   9.253 -0.5834 -0.3088  0.1104
  923MPD2    C413508   4.663   0.777   9.230 -0.2126  0.4295 -0.3130
  923MPD2    C513509   4.700   0.751   9.098  0.0704  0.4197 -0.3263
  923MPD2     H13510   4.481   1.057   9.161 -1.7273 -0.9242 -0.3499
  923MPD2    H113511   4.704   0.716   9.309 -1.4823  1.2623  0.9968
  923MPD2    H213512   4.691   0.790   8.895 -1.8650 -1.3203  0.4861
  923MPD2    H313513   0.048   0.668   9.085 -2.4046 -1.6422  0.0275
  923MPD2     N13514   4.556   0.915   9.383  0.2018 -0.8429 -0.1064
  923MPD2    H513515   4.582   0.843   9.450 -0.0062 -0.8138  0.0035
  923MPD2    N113516   4.551   0.995   8.894 -0.1277 -0.3826  0.6054
  923MPD2    H713517   4.581   0.957   8.805  0.2581 -0.3963  0.7417
  924MPD2     C13518   4.401   4.507  15.489 -0.0660 -0.1596  0.5216
  924MPD2    C113519   4.260   4.495  15.485  0.1067  0.4203  0.7314
  924MPD2    C213520   4.187   4.614  15.489 -0.3437  0.1391  0.3097
  924MPD2    C313521   4.252   0.014  15.505 -0.2313 -0.1139 -0.2758
  924MPD2    C413522   4.388   0.019  15.510  0.5912  0.3509 -0.5688
  924MPD2    C513523   4.469   4.628  15.490  0.7847  0.0086 -0.0456
  924MPD2     H13524   4.079   4.608  15.493 -0.3430 -0.2687 -0.3641
  924MPD2    H113525   4.445   0.111  15.509  2.4086 -0.8123 -2.3690
  924MPD2    H213526   4.468   4.422  15.496 -0.0788 -0.4424 -3.1594
  924MPD2    H313527   4.576   4.643  15.498  0.4873  1.2999  1.5233
  924MPD2     N13528   4.175   0.133  15.530 -0.3112  0.0189  0.1033
  924MPD2    H513529   4.080   0.110  15.560 -0.5554 -1.2360 -1.6292
  924MPD2    N113530   4.194   4.368  15.493 -0.0742 -1.0266  0.3563
  924MPD2    H713531   4.258   4.296  15.525  0.7470 -0.0800  0.8257
  925MPD2     C13532   2.874   2.287  15.159 -0.6568  0.4326  0.1126
  925MPD2    C113533   2.781   2.219  15.084  0.6756  0.2793 -0.2513
  925MPD2    C213534   2.665   2.173  15.143 -0.0876  0.3495 -0.4636
  925MPD2    C313535   2.646   2.185  15.277 -0.1724 -0.3693 -0.1375
  925MPD2    C413536   2.736   2.252  15.351  0.2778  0.2430 -0.2336
  925MPD2    C513537   2.847   2.307  15.291 -0.3620  0.5915  0.0595
  925MPD2     H13538   2.595   2.114  15.085 -1.6233  0.5499  1.2104
  925MPD2    H113539   2.700   2.269  15.452  2.9667  0.7272  0.6630
  925MPD2    H213540   2.967   2.334  15.129  0.5224 -0.6551  2.0725
  925MPD2    H313541   2.916   2.352  15.362  1.3961 -1.0520 -0.6020
  925MPD2     N13542   2.542   2.113  15.338 -0.1750 -0.7875 -0.3554
  925MPD2    H513543   2.483   2.061  15.274 -0.9954  0.5893 -0.6972
  925MPD2    N113544   2.808   2.190  14.947  0.6790  0.6570  0.5906
  925MPD2    H713545   2.728   2.156  14.893  0.4192  2.4864 -0.1750
  926MPD2     C13546   1.527   0.441  13.386  0.2717  0.0221  0.3314
  926MPD2    C113547   1.477   0.570  13.405 -0.0327  0.1945  0.3394
  926MPD2    C213548   1.526   0.670  13.317  0.5814  0.4174 -0.4555
  926MPD2    C313549   1.624   0.642  13.223  0.6916  0.2298 -0.0672
  926MPD2    C413550   1.674   0.511  13.210 -0.5384 -0.1521 -0.1402
  926MPD2    C513551   1.623   0.413  13.283  0.0775 -0.5210  0.2073
  926MPD2     H13552   1.492   0.773  13.319  0.8893  0.5151 -0.2911
  926MPD2    H113553   1.755   0.493  13.140  0.4875  2.0343  0.4724
  926MPD2    H213554   1.481   0.356  13.434  0.6326  0.1993  0.9899
  926MPD2    H313555   1.662   0.312  13.276  0.4281 -0.3530 -0.2403
  926MPD2     N13556   1.678   0.731  13.132  0.2590  0.3504  0.5983
  926MPD2    H513557   1.760   0.689  13.089  0.0633  0.9473 -0.3639
  926MPD2    N113558   1.372   0.608  13.493 -0.4323  0.5134  0.4439
  926MPD2    H713559   1.339   0.704  13.493 -2.1082 -0.0627  0.3032
  927MPD2     C13560   1.393   3.532   0.281  0.1872  0.1536  0.2147
  927MPD2    C113561   1.423   3.401   0.326 -0.0409 -0.1089 -0.4730
  927MPD2    C213562   1.484   3.313   0.235 -0.6482 -0.2366  0.4386
  927MPD2    C313563   1.509   3.351   0.104 -0.1929 -1.0626 -0.2181
  927MPD2    C413564   1.480   3.480   0.068  1.0979 -0.3189 -0.0606
  927MPD2    C513565   1.417   3.571   0.153 -0.0824  0.0713 -0.1522
  927MPD2     H13566   1.504   3.209   0.256  2.9439  0.0256 -1.6318
  927MPD2    H113567   1.490   3.515  17.651 -0.9494 -2.6600 -1.0584
  927MPD2    H213568   1.340   3.601   0.347  0.6299  1.8268 -1.1707
  927MPD2    H313569   1.393   3.669   0.113  2.7661  0.0955 -1.8389
  927MPD2     N13570   1.562   3.253   0.023  0.0349 -0.3394 -0.5469
  927MPD2    H513571   1.567   3.157   0.058 -0.2061 -0.9402 -2.1583
  927MPD2    N113572   1.390   3.363   0.451  1.0852  0.1294  0.4239
  927MPD2    H713573   1.319   3.420   0.496 -0.4969 -1.5725  0.0630
  928MPD2     C13574   0.406   1.336   0.879  0.4072  0.3542  0.9276
  928MPD2    C113575   0.341   1.454   0.896 -0.6782 -0.1882 -0.1489
  928MPD2    C213576   0.311   1.534   0.783  0.1718  0.3071 -0.2231
  928MPD2    C313577   0.347   1.492   0.657  0.5616  0.9943  0.6663
  928MPD2    C413578   0.430   1.388   0.648  0.4065 -0.0976 -0.3309
  928MPD2    C513579   0.464   1.312   0.756  0.2921  0.9961  0.5669
  928MPD2     H13580   0.251   1.622   0.803 -0.5075  0.4379 -2.7955
  928MPD2    H113581   0.449   1.342   0.552 -0.7483 -0.7433 -0.2482
  928MPD2    H213582   0.422   1.268   0.962 -0.5185 -0.6792  0.2554
  928MPD2    H313583   0.525   1.227   0.731 -0.0990  1.1157 -0.7679
  928MPD2     N13584   0.312   1.545   0.534 -0.1186  0.1577 -0.4429
  928MPD2    H513585   0.352   1.500   0.452 -0.8320 -0.4750 -0.4386
  928MPD2    N113586   0.301   1.485   1.029  0.3908 -0.3949 -0.1274
  928MPD2    H713587   0.327   1.422   1.103  1.0526  0.2422  0.1836
  929MPD2     C13588   4.611   1.170  10.521 -0.6419 -0.5711  0.6664
  929MPD2    C113589   4.518   1.077  10.536 -0.2785 -0.3707 -0.1651
  929MPD2    C213590   4.415   1.058  10.442 -0.0004 -0.2742  0.0644
  929MPD2    C313591   4.421   1.132  10.320 -0.0727 -0.3558 -0.2079
  929MPD2    C413592   4.522   1.230  10.306 -0.0933  0.8038 -0.3835
  929MPD2    C513593   4.613   1.250  10.411 -0.3572 -0.3391 -0.4176
  929MPD2     H13594   4.341   0.979  10.449 -1.6262  0.9525 -2.8825
  929MPD2    H113595   4.526   1.297  10.221  0.8895 -1.2683 -1.9590
  929MPD2    H213596   4.693   1.173  10.592  1.4288  1.7289 -1.8395
  929MPD2    H313597   4.686   1.330  10.408 -2.7911  1.9164  0.0563
  929MPD2     N13598   4.335   1.108  10.215  0.0745  0.2810 -0.2409
  929MPD2    H513599   4.359   1.170  10.139 -1.0553  0.2857 -0.5894
  929MPD2    N113600   4.523   1.016  10.668 -0.5088 -0.2918 -1.0402
  929MPD2    H713601   4.599   1.047  10.727  0.3769 -2.5413 -0.9792
  930MPD2     C13602   1.567   3.732  13.940  0.5707 -0.2485 -0.8066
  930MPD2    C113603   1.500   3.787  13.833  0.0693  0.5599  0.7740
  930MPD2    C213604   1.403   3.711  13.769  0.1180 -0.4647 -0.2590
  930MPD2    C313605   1.386   3.574  13.795  0.2466  0.0800 -0.6032
  930MPD2    C413606   1.465   3.515  13.893 -0.2351  0.4505  0.3780
  930MPD2    C513607   1.555   3.596  13.955 -0.6496  0.1818  0.2377
  930MPD2     H13608   1.340   3.755  13.693  0.5355  0.7809  0.1140
  930MPD2    H113609   1.475   3.410  13.916 -0.2712  0.3022 -0.2742
  930MPD2    H213610   1.643   3.786  13.994 -2.4870  2.3198  0.9295
  930MPD2    H313611   1.611   3.557  14.039  0.2856  0.3626 -0.3050
  930MPD2     N13612   1.312   3.490  13.712 -0.0562  0.3163 -0.0654
  930MPD2    H513613   1.327   3.390  13.720 -1.8073  0.0917  0.5991
  930MPD2    N113614   1.536   3.914  13.794 -0.2977  0.1622 -0.3069
  930MPD2    H713615   1.593   3.963  13.861  1.2766 -2.8165  0.5512
  931MPD2     C13616   1.541   2.655   0.723  0.6240 -0.1680  0.8272
  931MPD2    C113617   1.473   2.724   0.819 -0.7901 -0.2059  0.1806
  931MPD2    C213618   1.456   2.660   0.941  0.1218 -0.4209 -0.3586
  931MPD2    C313619   1.509   2.536   0.971  0.0180  0.2258  0.5475
  931MPD2    C413620   1.586   2.473   0.869 -0.0009 -0.3279 -0.3857
  931MPD2    C513621   1.594   2.529   0.743  0.0222 -0.5533  0.0020
  931MPD2     H13622   1.377   2.699   1.004 -0.5886  0.5452 -1.8659
  931MPD2    H113623   1.639   2.379   0.885 -0.7822 -0.7440 -0.2624
  931MPD2    H213624   1.543   2.695   0.622  0.1870  0.0853  0.9211
  931MPD2    H313625   1.647   2.478   0.663 -0.7210  0.8408 -1.3757
  931MPD2     N13626   1.494   2.461   1.092  0.7281  0.1429  0.3227
  931MPD2    H513627   1.528   2.366   1.099  0.1662  0.0656  2.2411
  931MPD2    N113628   1.412   2.844   0.778  0.1925 -0.2520  0.2818
  931MPD2    H713629   1.423   2.862   0.679  1.7537 -1.8754  0.1714
  932MPD2     C13630   2.601   1.563  11.232  0.0622 -0.3355  0.2624
  932MPD2    C113631   2.719   1.642  11.242 -0.0368  0.2111 -0.1840
  932MPD2    C213632   2.837   1.584  11.271 -0.5704 -0.0825  0.5169
  932MPD2    C313633   2.850   1.448  11.297  0.3052  0.0989 -0.2821
  932MPD2    C413634   2.735   1.379  11.290  0.1081 -0.1602 -1.1424
  932MPD2    C513635   2.612   1.434  11.267 -0.3063 -0.8213 -0.4770
  932MPD2     H13636   2.932   1.637  11.267 -1.1057  0.9768  1.9676
  932MPD2    H113637   2.731   1.274  11.315  1.1070 -0.6092 -2.9327
  932MPD2    H213638   2.504   1.599  11.197  0.8770  0.6704 -0.9692
  932MPD2    H313639   2.517   1.382  11.254  0.5436 -2.9275  1.8178
  932MPD2     N13640   2.979   1.396  11.323 -0.1013 -0.2582 -0.1623
  932MPD2    H513641   3.050   1.469  11.316  1.7631 -2.2782 -2.1668
  932MPD2    N113642   2.715   1.784  11.212 -0.2343  0.0622  0.4941
  932MPD2    H713643   2.803   1.833  11.220 -1.0526  1.4417  0.9621
  933MPD2     C13644   4.638   2.060   1.649 -0.5515 -0.9192 -0.7370
  933MPD2    C113645   4.604   1.953   1.569  0.2830  0.0969 -0.0675
  933MPD2    C213646   4.466   1.934   1.538  0.5886 -0.3813 -0.3543
  933MPD2    C313647   4.364   2.012   1.587  0.0077 -0.4757  0.9729
  933MPD2    C413648   4.403   2.104   1.683  0.2182  0.1462  0.2241
  933MPD2    C513649   4.538   2.132   1.704  0.7999 -0.2373  0.1196
  933MPD2     H13650   4.436   1.854   1.472 -3.0877  1.8445 -1.3288
  933MPD2    H113651   4.330   2.169   1.731  0.5219  0.2025  0.6062
  933MPD2    H213652   0.018   2.080   1.685 -0.5126 -1.3671 -0.6055
  933MPD2    H313653   4.569   2.204   1.778 -0.8355  0.4348  0.1552
  933MPD2     N13654   4.229   1.996   1.536  0.0911  0.6005  0.0481
  933MPD2    H513655   4.224   1.940   1.451  0.9380  0.3979  0.1296
  933MPD2    N113656   4.710   1.868   1.525 -0.3468  0.0513 -0.6216
  933MPD2    H713657   0.080   1.899   1.559 -0.7614 -0.5724  1.0227
  934MPD2     C13658   4.429   3.264   2.379 -0.1860  0.6720  0.1715
  934MPD2    C113659   4.557   3.256   2.329  0.3077 -0.5070  0.3078
  934MPD2    C213660   4.569   3.193   2.203 -0.3775  0.1002 -0.4363
  934MPD2    C313661   4.462   3.149   2.133 -0.3024  0.3812 -0.0391
  934MPD2    C413662   4.332   3.179   2.178  0.1517  0.4907  0.0096
  934MPD2    C513663   4.321   3.231   2.305  0.0263  0.9964  0.5497
  934MPD2     H13664   4.665   3.175   2.155  0.0542  0.3133  0.3401
  934MPD2    H113665   4.242   3.149   2.126  1.1981  0.9015 -2.0319
  934MPD2    H213666   4.404   3.319   2.469 -1.2962  0.3444  0.0627
  934MPD2    H313667   4.221   3.255   2.340 -0.8721 -1.5016 -0.2669
  934MPD2     N13668   4.468   3.111   1.998  0.0349  0.1481  0.1172
  934MPD2    H513669   4.379   3.100   1.951  0.3372 -0.0302 -0.4162
  934MPD2    N113670   4.671   3.311   2.389  0.4392  0.1470 -0.0730
  934MPD2    H713671   0.039   3.303   2.340  0.9264  1.7876  0.5337
  935MPD2     C13672   0.476   2.711   1.485  0.0485 -0.0174  0.3216
  935MPD2    C113673   0.395   2.775   1.392  0.2353  0.3958 -0.3110
  935MPD2    C213674   0.266   2.806   1.418 -0.2168 -0.1597  0.2529
  935MPD2    C313675   0.210   2.773   1.543 -0.3518  0.5366  0.4301
  935MPD2    C413676   0.292   2.711   1.639 -0.3120 -0.0747  0.1406
  935MPD2    C513677   0.423   2.678   1.608  0.5244  0.6275  0.7099
  935MPD2     H13678   0.203   2.846   1.340 -0.0234 -0.0898  0.1307
  935MPD2    H113679   0.252   2.674   1.733 -0.7138  1.1196  0.4435
  935MPD2    H213680   0.579   2.696   1.457  0.4241 -1.5810  2.5988
  935MPD2    H313681   0.483   2.625   1.681  0.6479  0.1591  0.2658
  935MPD2     N13682   0.075   2.807   1.578 -0.3970  0.7408  0.3382
  935MPD2    H513683   0.049   2.776   1.671 -0.4499 -0.4668 -0.0793
  935MPD2    N113684   0.423   2.773   1.252 -0.3148  0.1982  0.0142
  935MPD2    H713685   0.348   2.798   1.188 -0.7891 -1.9573 -0.2552
  936MPD2     C13686   3.515   1.067  12.212 -0.5442  0.2436  0.5426
  936MPD2    C113687   3.564   0.984  12.306 -0.1935 -0.3240 -0.7259
  936MPD2    C213688   3.694   1.004  12.365 -0.5547  0.3671 -0.7629
  936MPD2    C313689   3.766   1.118  12.326 -0.4048 -0.0212  0.0830
  936MPD2    C413690   3.713   1.202  12.233 -0.1222 -0.3707 -0.6205
  936MPD2    C513691   3.588   1.175  12.175 -0.3784 -0.7887 -0.4850
  936MPD2     H13692   3.709   0.943  12.453  2.8139  0.1700 -1.4719
  936MPD2    H113693   3.760   1.299  12.221 -0.2302 -0.0722  1.2695
  936MPD2    H213694   3.421   1.054  12.160 -0.2522  1.2462 -0.2473
  936MPD2    H313695   3.545   1.246  12.105  0.1683 -1.4279 -1.4754
  936MPD2     N13696   3.890   1.152  12.386 -0.4177 -0.0846  0.1051
  936MPD2    H513697   3.932   1.244  12.375 -0.6808  0.0067 -0.1447
  936MPD2    N113698   3.493   0.868  12.343 -0.2159  0.7492  0.3434
  936MPD2    H713699   3.545   0.806  12.404  2.9653  3.5426  0.4650
  937MPD2     C13700   1.097   1.928  11.583  0.4743  0.3686 -0.3772
  937MPD2    C113701   1.007   1.974  11.485 -0.2739  0.3892 -0.5680
  937MPD2    C213702   1.028   1.956  11.359 -0.5236  0.3109 -0.2862
  937MPD2    C313703   1.146   1.889  11.316  0.0779  0.4897 -0.1020
  937MPD2    C413704   1.227   1.831  11.414 -0.3968  0.7324  0.0304
  937MPD2    C513705   1.205   1.849  11.548 -0.1743  0.7056 -0.6845
  937MPD2     H13706   0.958   2.003  11.291  0.5554 -0.7240 -2.1132
  937MPD2    H113707   1.322   1.781  11.397 -1.6527 -2.6297  2.8862
  937MPD2    H213708   1.079   1.949  11.688 -0.8573  2.3165 -1.0011
  937MPD2    H313709   1.266   1.791  11.617 -0.3859 -0.7913 -1.7663
  937MPD2     N13710   1.175   1.869  11.177 -0.8708 -0.1642 -0.3792
  937MPD2    H513711   1.243   1.795  11.162  0.1841  0.8065 -0.2947
  937MPD2    N113712   0.911   2.074  11.523  0.1101  0.7241  0.1475
  937MPD2    H713713   0.856   2.115  11.449  1.2051  2.2398  0.1658
  938MPD2     C13714   3.823   2.784   0.464  0.4044  0.3129  0.2039
  938MPD2    C113715   3.878   2.852   0.570 -0.5344 -1.1262 -0.8049
  938MPD2    C213716   3.840   2.828   0.701  0.3552  0.2983  0.4153
  938MPD2    C313717   3.749   2.723   0.727  0.2569 -0.0669 -0.5264
  938MPD2    C413718   3.694   2.655   0.613  0.5161  0.6281 -0.0002
  938MPD2    C513719   3.737   2.680   0.488  0.4237  0.4366  0.0331
  938MPD2     H13720   3.871   2.889   0.785 -0.0691 -0.3482  1.0410
  938MPD2    H113721   3.609   2.587   0.615  0.1850  1.0997  1.6526
  938MPD2    H213722   3.858   2.806   0.364 -0.1639  2.2029  0.4341
  938MPD2    H313723   3.699   2.621   0.406 -2.4191  0.4674  1.3293
  938MPD2     N13724   3.692   2.692   0.853 -0.3395  0.1168  0.1368
  938MPD2    H513725   3.614   2.628   0.850 -2.2880  2.5658 -2.0870
  938MPD2    N113726   3.971   2.958   0.551 -0.5282 -0.0863 -0.0446
  938MPD2    H713727   4.013   3.005   0.631 -0.0187 -1.3539  0.4409
  939MPD2     C13728   0.067   4.075   1.319 -0.8194 -0.3633  0.1918
  939MPD2    C113729   0.080   4.203   1.264  0.4050  0.3099  0.5310
  939MPD2    C213730   0.098   4.209   1.122 -0.7491  0.1280  0.1022
  939MPD2    C313731   0.114   4.091   1.049  0.5660  0.2822  0.4645
  939MPD2    C413732   0.127   3.969   1.112  0.1027 -0.3003 -0.5408
  939MPD2    C513733   0.088   3.963   1.245  0.6821 -0.7272 -0.6422
  939MPD2     H13734   0.112   4.303   1.069 -1.2380 -0.3448 -0.8636
  939MPD2    H113735   0.165   3.883   1.057 -1.3953 -2.0021  1.0564
  939MPD2    H213736   0.045   4.060   1.424 -0.1010 -0.2649  0.3536
  939MPD2    H313737   0.085   3.865   1.291  0.2712 -0.3608  0.1079
  939MPD2     N13738   0.137   4.108   0.906 -0.4207  0.1645 -0.3612
  939MPD2    H513739   0.105   4.194   0.862  1.3710  0.7106 -0.5763
  939MPD2    N113740   0.069   4.314   1.352  0.7242 -0.0033 -0.0333
  939MPD2    H713741   0.043   4.300   1.449  0.7362  0.4575  0.0395
  940MPD2     C13742   4.155   0.246  13.658 -0.2035  0.3348  0.4869
  940MPD2    C113743   4.204   0.375  13.629 -0.4994 -0.0414 -0.7130
  940MPD2    C213744   4.185   0.432  13.511 -0.6431  0.1681 -0.6712
  940MPD2    C313745   4.108   0.369  13.421 -0.3062 -0.5003 -0.3810
  940MPD2    C413746   4.051   0.246  13.441 -0.1618 -0.5040 -0.4574
  940MPD2    C513747   4.081   0.184  13.560 -0.9325  0.4527  0.4321
  940MPD2     H13748   4.220   0.532  13.488 -2.2779  0.3421 -2.3788
  940MPD2    H113749   3.979   0.202  13.373 -0.0289 -1.0870 -0.2201
  940MPD2    H213750   4.151   0.199  13.755 -3.9023  0.7744  0.5500
  940MPD2    H313751   4.036   0.087  13.578  1.7644 -1.2334 -1.8793
  940MPD2     N13752   4.082   0.426  13.291  0.7412 -0.6050  0.2186
  940MPD2    H513753   4.010   0.379  13.237  1.8594 -1.9385 -0.1329
  940MPD2    N113754   4.280   0.453  13.717  0.2689  0.1818 -0.0462
  940MPD2    H713755   4.296   0.550  13.691 -0.9080  0.4567  0.2533
  941MPD2     C13756   3.060   4.280  10.367  0.5430 -0.1029  0.0868
  941MPD2    C113757   3.115   4.166  10.313 -0.2124 -0.1046  1.0470
  941MPD2    C213758   3.151   4.064  10.397 -0.0085  0.3468 -0.1470
  941MPD2    C313759   3.152   4.082  10.526  0.1519  0.9816 -0.8028
  941MPD2    C413760   3.106   4.198  10.585  0.0476 -0.9483  0.1713
  941MPD2    C513761   3.056   4.297  10.501  0.6229  0.5649 -0.1801
  941MPD2     H13762   3.192   3.973  10.354 -1.1439 -0.5446  0.6530
  941MPD2    H113763   3.113   4.207  10.693  0.3367  0.1578  0.0566
  941MPD2    H213764   3.016   4.358  10.306 -2.4617 -1.9093 -0.0618
  941MPD2    H313765   3.025   4.394  10.540  2.6412  1.5070 -0.9013
  941MPD2     N13766   3.205   3.989  10.620 -0.4526  0.0209  0.3811
  941MPD2    H513767   3.193   4.001  10.720  0.5562  0.7224  0.4178
  941MPD2    N113768   3.106   4.135  10.173  0.1041  0.2373 -0.5093
  941MPD2    H713769   3.139   4.041  10.154  2.2386  1.3893 -2.4607
  942MPD2     C13770   3.584   1.151   8.913 -0.8702 -0.2265 -0.1696
  942MPD2    C113771   3.610   1.134   8.777  0.1327  0.7673  0.1575
  942MPD2    C213772   3.741   1.080   8.747 -0.4248  0.8399  0.2322
  942MPD2    C313773   3.836   1.051   8.842  0.1038  0.1794  0.0712
  942MPD2    C413774   3.806   1.078   8.970 -0.1160 -0.9670 -0.7632
  942MPD2    C513775   3.679   1.117   9.003 -0.1000  0.1650  0.3484
  942MPD2     H13776   3.780   1.063   8.647  0.5646  1.9744  0.4172
  942MPD2    H113777   3.880   1.062   9.047  0.4810 -0.8232 -1.3012
  942MPD2    H213778   3.498   1.203   8.955 -2.4912 -2.4889 -0.6616
  942MPD2    H313779   3.656   1.141   9.106  3.9328 -0.7377  1.4868
  942MPD2     N13780   3.960   1.001   8.812  0.0629  0.3836  0.0086
  942MPD2    H513781   4.026   1.017   8.888  0.7493  1.4764 -0.7965
  942MPD2    N113782   3.526   1.171   8.675  0.5173  0.2710  0.4184
  942MPD2    H713783   3.567   1.159   8.583  1.8858  0.8681  0.9520
  943MPD2     C13784   2.752   4.162   9.986  0.5287  0.1478  0.1760
  943MPD2    C113785   2.676   4.125  10.096 -0.3331 -0.3175  0.1030
  943MPD2    C213786   2.618   4.225  10.173  0.0565  0.0003  0.0023
  943MPD2    C313787   2.654   4.362  10.152  0.3507  0.5722  0.8173
  943MPD2    C413788   2.744   4.390  10.053  0.0057 -0.3122 -0.2379
  943MPD2    C513789   2.786   4.291   9.967  0.1162  0.6007  0.6275
  943MPD2     H13790   2.549   4.200  10.253  0.6707 -0.2652  0.4411
  943MPD2    H113791   2.768   4.494  10.031  1.7471 -0.4673  0.9018
  943MPD2    H213792   2.791   4.087   9.918 -1.4148 -0.4052 -0.3319
  943MPD2    H313793   2.843   4.311   9.877 -3.1615  0.3829 -1.5282
  943MPD2     N13794   2.600   4.466  10.230 -0.3377 -0.4131 -0.4344
  943MPD2    H513795   2.620   4.559  10.193 -0.8066  0.4712  1.5496
  943MPD2    N113796   2.639   3.989  10.104  0.3548 -0.0223  0.1479
  943MPD2    H713797   2.691   3.920  10.051 -0.8886 -0.5872 -0.3391
  944MPD2     C13798   2.084   3.028  11.073  0.0415  0.2295  0.3448
  944MPD2    C113799   1.990   3.083  10.984  0.7958  0.2949 -0.0237
  944MPD2    C213800   1.893   3.164  11.037 -0.0632 -0.2940 -0.0942
  944MPD2    C313801   1.883   3.197  11.175  0.4735  0.1352 -0.0601
  944MPD2    C413802   1.974   3.145  11.258  0.0861 -0.1890  0.2227
  944MPD2    C513803   2.071   3.061  11.208  0.2878  0.5603  0.2747
  944MPD2     H13804   1.817   3.215  10.977 -1.6820 -0.2822  1.9581
  944MPD2    H113805   1.973   3.158  11.366  0.2755  1.5566  0.0163
  944MPD2    H213806   2.157   2.953  11.044 -0.2746  0.5455 -1.2359
  944MPD2    H313807   2.134   3.014  11.283  1.5420 -1.7970 -2.2171
  944MPD2     N13808   1.788   3.290  11.213 -0.3313 -0.9392  0.3290
  944MPD2    H513809   1.739   3.346  11.145 -0.5902 -0.6158  0.7858
  944MPD2    N113810   1.999   3.065  10.843  0.3697  0.4505 -0.7474
  944MPD2    H713811   2.070   3.004  10.805  2.9247  0.1456  4.4977
    1TCq1    O113812   0.862   4.458  14.439 -0.4705  0.4018 -0.5230
    1TCq1    C113813   0.783   4.406  14.341 -0.2254  0.5809 -0.0448
    1TCq1    O213814   0.838   4.370  14.237  0.1328  0.2529  0.3249
    1TCq1    C213815   0.716   4.303  14.413 -0.5456  0.1839  1.1924
    1TCq1    C313816   0.788   4.193  14.419  1.0818 -0.4698  0.7854
    1TCq1    C413817   0.791   4.113  14.534 -0.4608  0.7164  0.4625
    1TCq1    C513818   0.721   4.149  14.641  0.3590 -0.3930  0.6293
    1TCq1    C613819   0.654   4.272  14.636  0.7501 -0.2925 -0.8585
    1TCq1    C713820   0.650   4.349  14.522  0.5225  0.8177  0.5237
    1TCq1    C813821   0.611   4.333  14.764 -0.6065  0.1914  0.1233
    1TCq1    O413822   0.672   4.306  14.866  0.5008  0.0773 -0.0948
    1TCq1    C913823   0.858   3.983  14.536  0.0179  0.0297  1.3104
    1TCq1    O513824   0.853   3.919  14.644  0.2291  0.1871 -0.1048
    1TCq1    O613825   0.895   3.935  14.426 -0.2626  0.7584  0.0016
    1TCq1    H113826   0.804   4.498  14.507  2.2079 -1.3313  2.7585
    1TCq1    H213827   0.860   4.169  14.342 -0.7127 -0.7335 -0.8080
    1TCq1    H313828   0.703   4.086  14.727 -2.2835 -0.2451  0.1819
    1TCq1    H413829   0.602   4.445  14.509  1.5796  1.1822 -0.7284
    2MPD2     C13830   0.367   4.713  15.029  0.9142 -0.4371 -0.4245
    2MPD2    C113831   0.333   4.713  14.896  0.7332 -0.4218 -0.0070
    2MPD2    C213832   0.387   4.624  14.806 -0.8201 -0.4364  0.1162
    2MPD2    C313833   0.480   4.528  14.849  0.3463 -0.6027  0.2633
    2MPD2    C413834   0.519   4.531  14.985 -0.2675  0.1803 -0.6072
    2MPD2    C513835   0.454   4.618  15.073 -0.7790 -0.0145  0.0337
    2MPD2     H13836   0.373   4.618  14.699 -2.3515 -0.6044  0.3200
    2MPD2    H113837   0.584   4.453  15.023 -0.5742 -0.0997 -0.6616
    2MPD2    H213838   0.320   0.065  15.094 -0.0566 -2.8198  1.5058
    2MPD2    H313839   0.498   4.631  15.171  0.6884  0.4430 -0.6871
    2MPD2     N13840   0.520   4.435  14.746 -0.4591  0.2655 -0.2078
    2MPD2    H513841   0.468   4.434  14.659  1.2402  0.8891 -1.2233
    2MPD2    N113842   0.252   0.105  14.859 -0.4733  0.1952 -0.7400
    2MPD2    H713843   0.241   0.182  14.924 -0.0879 -0.3250 -0.0591
    3TMC2    C113844   0.169   0.268  14.697 -0.1679 -0.5436 -1.1895
    3TMC2    C213845   0.122   0.360  14.792  0.4625 -0.5937 -0.3802
    3TMC2    C313846   0.054   0.472  14.755  0.7968 -0.5244 -0.0932
    3TMC2    C413847   0.143   0.300  14.561  0.2569 -0.4349 -0.0719
    3TMC2    C513848   0.068   0.412  14.535 -0.3059 -0.8159 -0.3704
    3TMC2    C613849   0.012   0.498  14.629  0.0938 -0.4144  1.0075
    3TMC2     C13850   0.220   0.137  14.730  0.0717 -0.0145  0.7596
    3TMC2     O13851   0.223   0.058  14.636  0.3550 -0.2317  0.1760
    3TMC2     H13852   0.118   0.329  14.895  3.7398  0.3491  0.0328
    3TMC2    H113853   0.159   0.230  14.480  1.8295 -0.7045  0.4609
    3TMC2    H213854   4.650   0.564  14.603  0.5672 -0.9442 -1.8490
    3TMC2    C713855   0.060   0.444  14.394 -0.4339  0.8006 -0.2846
    3TMC2    C813856   4.709   0.542  14.869 -0.0455 -0.5549  0.6899
    3TMC2    O113857   0.086   0.359  14.306  0.3102  0.2939 -0.2519
    3TMC2    O213858   4.687   0.503  14.984 -0.4490 -0.1451 -0.0071
    3TMC2    O513859   4.665   0.658  14.822 -0.5022 -0.1259  0.0690
    3TMC2    H513860   4.690   0.699  14.736 -0.2283  0.0386  0.2269
    4MPD2     C13861   3.701   1.305  13.836 -1.0044  1.1277  0.4276
    4MPD2    C113862   3.791   1.245  13.746  0.3031 -0.0823 -0.4625
    4MPD2    C213863   3.923   1.226  13.789 -0.1370  0.0627 -0.3086
    4MPD2    C313864   3.964   1.257  13.917  0.5487 -0.5525 -0.4476
    4MPD2    C413865   3.877   1.306  14.009  0.1179  1.0754  0.7997
    4MPD2    C513866   3.748   1.335  13.963 -0.4766  0.7187 -0.4313
    4MPD2     H13867   4.006   1.199  13.725 -0.6122 -1.6630 -0.2097
    4MPD2    H113868   3.910   1.332  14.108 -1.1601  2.4185  0.8706
    4MPD2    H213869   3.599   1.322  13.806 -0.4477  2.6939 -0.6009
    4MPD2    H313870   3.692   1.384  14.041 -1.4796 -0.2811 -0.5231
    4MPD2     N13871   4.099   1.235  13.950 -0.6837  0.3033  0.3711
    4MPD2    H513872   4.165   1.208  13.878 -0.3948 -0.6878  1.0258
    4MPD2    N113873   3.735   1.194  13.625 -0.4502  0.0248 -0.4564
    4MPD2    H713874   3.640   1.225  13.604 -0.6337 -1.1347 -1.2989
    5TCq2    C113875   4.163   1.245  14.069 -0.4229  0.5216  0.4940
    5TCq2    O213876   4.118   1.241  14.183  0.1375  0.2291 -0.5893
    5TCq2    C213877   4.307   1.230  14.058  0.7864 -0.1486 -0.4041
    5TCq2    C313878   4.371   1.303  13.963  0.1539 -0.3783  0.3581
    5TCq2    C413879   4.503   1.291  13.951  0.0696  0.0884 -0.2585
    5TCq2    C513880   4.575   1.213  14.043  0.1437  0.5098 -0.2315
    5TCq2    C613881   4.510   1.149  14.143 -0.2673  0.2169  0.5034
    5TCq2    C713882   4.374   1.164  14.158 -0.0596  0.0134 -0.1676
    5TCq2    C813883   4.566   1.021  14.194  0.0692 -0.4348 -0.0620
    5TCq2    O413884   4.509   0.963  14.284  0.3482 -0.2743  0.0868
    5TCq2    C913885   4.571   1.364  13.844  0.0212  0.4440 -0.3141
    5TCq2    O513886   4.507   1.460  13.795  0.0999 -0.4726 -0.3327
    5TCq2    O613887   4.685   1.328  13.802  0.1620  0.0618  0.1520
    5TCq2    H213888   4.318   1.363  13.890 -0.8094  1.0316  2.2382
    5TCq2    H313889   4.683   1.224  14.045  0.2079  0.0436 -1.5401
    5TCq2    H413890   4.322   1.092  14.219 -2.2069  0.2928 -1.6961
    6MPD1     C13891   2.822   2.183  12.445  0.2268 -0.1994 -0.7892
    6MPD1    C113892   2.864   2.073  12.370 -0.1041 -0.7883 -0.0160
    6MPD1    C213893   2.960   1.990  12.423  0.2287  0.0299 -0.5538
    6MPD1    C313894   3.018   2.004  12.549  0.2291  0.9285  0.7809
    6MPD1    C413895   2.980   2.113  12.625 -0.0364  0.3782 -0.4065
    6MPD1    C513896   2.882   2.195  12.569  0.4877 -0.6238  0.2899
    6MPD1     H13897   2.991   1.896  12.379 -0.6369  0.1267 -1.3579
    6MPD1    H113898   3.012   2.138  12.725  2.5993 -2.4025 -0.5617
    6MPD1    H213899   2.745   2.254  12.415  1.1600  0.3235 -1.9445
    6MPD1    H313900   2.840   2.277  12.627 -0.6679 -1.0582  0.0672
    6MPD1     N13901   3.088   1.896  12.608 -0.0880 -0.1298 -0.4030
    6MPD1    H513902   3.115   1.906  12.705 -0.6083 -0.2073 -0.2515
    6MPD1    N113903   2.779   2.045  12.260  0.0230 -0.1683 -0.2850
    6MPD1    H613904   2.823   1.985  12.191  0.2763 -0.9444  0.5453
    6MPD1    H713905   2.763   2.127  12.202  0.1939 -0.1439 -0.2972
    7MPD2     C13906   3.064   1.206  12.942 -0.6365  0.6420  0.0790
    7MPD2    C113907   3.163   1.271  13.007  0.1410 -0.3868 -0.0324
    7MPD2    C213908   3.242   1.204  13.100 -0.4834  0.4548 -0.1275
    7MPD2    C313909   3.216   1.073  13.133 -0.4481 -0.0012 -0.7985
    7MPD2    C413910   3.111   1.009  13.068 -0.4289  0.2019  0.0849
    7MPD2    C513911   3.036   1.076  12.977  0.3607 -0.0897  0.8618
    7MPD2     H13912   3.323   1.262  13.145  0.2838 -0.5498 -0.1942
    7MPD2    H113913   3.088   0.904  13.083  0.9758  0.0923  1.4729
    7MPD2    H213914   2.999   1.254  12.870 -2.4602 -3.1237 -0.7976
    7MPD2    H313915   2.957   1.020  12.929  1.6242  1.0472 -2.5402
    7MPD2     N13916   3.304   1.002  13.221 -0.7928 -0.2965 -0.3178
    7MPD2    H513917   3.288   0.903  13.235 -1.1742 -0.1991 -0.0562
    7MPD2    N113918   3.198   1.410  12.983  0.2166 -0.2783  0.4453
    7MPD2    H713919   3.270   1.447  13.044  1.4215 -1.4856 -0.2207
    8TMC3    C113920   3.511   0.989  13.342 -0.0767 -0.1341  0.5591
    8TMC3    C213921   3.584   1.057  13.438  0.2346  0.6672  0.3855
    8TMC3    C313922   3.718   1.084  13.418 -0.0898 -0.0644 -0.4698
    8TMC3    C413923   3.574   0.943  13.230  0.4060 -0.8320 -0.6523
    8TMC3    C513924   3.705   0.985  13.208  0.3304 -0.3832  0.2683
    8TMC3    C613925   3.781   1.049  13.305  0.1873  0.5985  1.6272
    8TMC3     C13926   3.391   1.062  13.308  0.3168 -0.0396 -0.3367
    8TMC3     O13927   3.378   1.170  13.365 -0.3143  0.0081 -0.4526
    8TMC3     H13928   3.526   1.082  13.527  0.9952  2.5324  0.3459
    8TMC3    H113929   3.524   0.874  13.162  0.0104 -0.5552 -0.6468
    8TMC3    H213930   3.886   1.075  13.289 -0.0419  0.0886 -0.7364
    8TMC3    C713931   3.712   1.059  13.089  0.1055 -0.3981  0.0373
    8TMC3    C813932   3.800   1.122  13.533 -0.5985  0.3345  1.2084
    8TMC3    O113933   3.767   1.168  13.094 -0.2556 -0.7501 -0.0998
    8TMC3    O213934   3.920   1.101  13.528  0.0554 -0.1431 -0.1368
    9TMC3    C113935   3.217   1.706  12.644  0.1703 -0.2762  0.1750
    9TMC3    C213936   3.329   1.648  12.603  0.4751 -0.2720  0.3947
    9TMC3    C313937   3.402   1.579  12.693  0.3723  0.1281  0.4251
    9TMC3    C413938   3.163   1.678  12.762 -0.5285 -0.6547  1.1257
    9TMC3    C513939   3.231   1.600  12.852 -0.3171 -0.9585 -0.2029
    9TMC3    C613940   3.358   1.556  12.822 -0.3979  0.2740  0.3177
    9TMC3     C13941   3.143   1.784  12.549  0.1031 -0.3983  0.6058
    9TMC3     O13942   3.173   1.772  12.430  0.1245  0.1440 -1.1568
    9TMC3     H13943   3.367   1.678  12.506  1.3969 -1.5703  0.3509
    9TMC3    H113944   3.058   1.703  12.774  0.4197  2.9486  1.9553
    9TMC3    H213945   3.417   1.503  12.895 -0.8972 -0.6733  0.0314
    9TMC3    C713946   3.145   1.496  12.892 -0.0484  0.0325 -0.1925
    9TMC3    C813947   3.477   1.479  12.629 -0.3439  0.7671 -0.2103
    9TMC3    O113948   3.049   1.479  12.816  0.3365 -0.8359 -0.5673
    9TMC3    O213949   3.462   1.471  12.508 -0.3677  0.6950 -0.1594
   10MPD2     C13950   3.554   0.994  12.765 -0.5406  0.3892  0.3604
   10MPD2    C113951   3.599   1.076  12.869 -0.1863  0.0692 -0.0255
   10MPD2    C213952   3.612   1.215  12.844  0.2331  0.4859  0.1521
   10MPD2    C313953   3.570   1.268  12.727 -0.1819  0.4544 -0.0986
   10MPD2    C413954   3.526   1.184  12.622 -0.0573  0.1755 -0.1337
   10MPD2    C513955   3.510   1.051  12.648  0.0099 -0.4432 -0.0037
   10MPD2     H13956   3.640   1.276  12.929  0.9886 -0.9239  0.9351
   10MPD2    H113957   3.490   1.218  12.526 -0.9994  1.3266  0.6241
   10MPD2    H213958   3.539   0.888  12.783 -1.8886 -0.0025 -3.1251
   10MPD2    H313959   3.472   0.980  12.575 -0.7739 -1.4193  1.3445
   10MPD2     N13960   3.547   1.408  12.727 -0.6937 -0.2133  0.1666
   10MPD2    H513961   3.564   1.458  12.814 -0.1938  1.3872 -0.8414
   10MPD2    N113962   3.629   1.012  12.992 -0.7167 -0.2231  0.3101
   10MPD2    H713963   3.594   0.917  12.999 -0.9675 -0.2492 -1.3659
   11MPD2     C13964   0.077   0.587  14.129  0.9226  0.3784  0.9411
   11MPD2    C113965   0.041   0.644  14.243 -0.8613  0.6207  0.1334
   11MPD2    C213966   4.713   0.776  14.237  0.3198 -0.5285  0.6403
   11MPD2    C313967   4.713   0.842  14.116 -0.0428 -0.1485  0.1203
   11MPD2    C413968   0.040   0.783  14.001  0.1667 -0.1783 -0.0825
   11MPD2    C513969   0.082   0.653  14.012  0.2802 -0.2256  0.2387
   11MPD2     H13970   4.672   0.828  14.324 -0.7719 -0.5568  0.1403
   11MPD2    H113971   0.038   0.836  13.907 -0.1588  0.1286  0.0972
   11MPD2    H213972   0.113   0.484  14.131  1.4762  0.5609  0.3127
   11MPD2    H313973   0.120   0.598  13.927  0.0656 -2.1125  1.3568
   11MPD2     N13974   4.663   0.973  14.107 -0.2235  0.2415 -0.2548
   11MPD2    H513975   4.684   1.028  14.024  1.6798  1.3552  0.9819
   11MPD2    N113976   0.033   0.575  14.372  0.1049 -0.8218 -0.1746
   11MPD2    H713977   0.018   0.635  14.453 -0.9866 -1.3545  0.0075
    1MPD1     C13978   1.883   1.741  17.634  0.2301  0.5850 -0.6362
    1MPD1    C113979   2.024   1.732  17.636  0.6289 -0.6521 -0.1703
    1MPD1    C213980   2.092   1.670  17.533  0.3801 -0.6797 -0.0105
    1MPD1    C313981   2.026   1.638  17.415 -1.1314  0.3595  0.2343
    1MPD1    C413982   1.889   1.634  17.424 -0.4382 -0.6081  0.8886
    1MPD1    C513983   1.815   1.684  17.529  0.1960  0.2919  0.8030
    1MPD1     H13984   2.197   1.651  17.551 -0.0783 -1.8257  1.4582
    1MPD1    H113985   1.832   1.595  17.340  0.5819 -0.1872 -0.0012
    1MPD1    H213986   1.825   1.795   0.023  2.6588  1.5772  0.5059
    1MPD1    H313987   1.708   1.697  17.516  0.1927  0.0332  0.5697
    1MPD1     N13988   2.084   1.586  17.301 -0.0384  0.5673  0.1248
    1MPD1    H513989   2.022   1.544  17.233 -1.5364 -2.8483  3.5568
    1MPD1    N113990   2.094   1.787   0.064  0.7205  0.2680  0.4920
    1MPD1    H613991   2.027   1.850   0.107  0.3617 -0.7362  1.3921
    1MPD1    H713992   2.178   1.840   0.043  0.9799 -0.4825 -0.3962
    2MPD1     C13993   3.065   1.586  16.944 -0.8051  1.0587  0.1443
    2MPD1    C113994   3.015   1.661  17.044 -0.6190 -0.2590 -0.4200
    2MPD1    C213995   2.880   1.667  17.057  0.1442  0.0280  0.0113
    2MPD1    C313996   2.789   1.589  16.983  0.6678 -0.3447 -0.4751
    2MPD1    C413997   2.844   1.512  16.886  0.4191  0.2729  0.3882
    2MPD1    C513998   2.981   1.496  16.880 -0.4224  0.1114 -0.5295
    2MPD1     H13999   2.835   1.721  17.139  1.3650  1.7915 -0.4829
    2MPD1    H114000   2.787   1.450  16.818  2.3343 -0.7186 -0.3306
    2MPD1    H214001   3.172   1.584  16.930 -0.5463 -0.8851  2.2815
    2MPD1    H314002   3.021   1.435  16.800 -1.8130 -1.3880 -0.0775
    2MPD1     N14003   2.648   1.590  17.013  0.0517  0.1274  0.2954
    2MPD1    H514004   2.623   1.644  17.095 -1.3086  0.5712 -0.4021
    2MPD1    N114005   3.092   1.750  17.127 -0.3060 -0.4375  0.2266
    2MPD1    H614006   3.048   1.763  17.217 -1.8995 -0.8437 -0.4880
    2MPD1    H714007   3.182   1.709  17.153  1.4307  2.5058 -1.0798
    3TMC3    C114008   2.410   1.544  16.971  0.7275  0.4440  0.0491
    3TMC3    C214009   2.325   1.481  16.893  0.4085 -0.9575  0.6029
    3TMC3    C314010   2.207   1.432  16.939  0.1764 -0.1547  0.8790
    3TMC3    C414011   2.388   1.565  17.097 -0.2697  0.0099 -0.4152
    3TMC3    C514012   2.261   1.528  17.147  0.5661 -0.0171  0.1715
    3TMC3    C614013   2.175   1.455  17.070  0.1535 -0.9707 -0.0330
    3TMC3     C14014   2.551   1.538  16.926 -0.2633 -0.0093  0.3130
    3TMC3     O14015   2.567   1.475  16.824  0.2332 -0.0826 -0.0575
    3TMC3     H14016   2.349   1.473  16.787  2.2905  0.7122  0.9016
    3TMC3    H114017   2.448   1.630  17.161  0.6638  0.6208 -1.9185
    3TMC3    H214018   2.091   1.406  17.117  0.5735 -1.6138  0.0511
    3TMC3    C714019   2.217   1.587  17.273  0.2963 -0.1346 -0.4328
    3TMC3    C814020   2.107   1.385  16.847  0.0347  0.4539 -0.1319
    3TMC3    O114021   2.302   1.635  17.347 -0.7145 -0.7915  0.3706
    3TMC3    O214022   1.994   1.358  16.892  0.0862 -0.2136 -0.7790
    4MPD1     C14023   1.928   1.250  16.380  0.2742 -0.0054  0.4572
    4MPD1    C114024   2.063   1.233  16.384  0.1193 -0.0906  0.7139
    4MPD1    C214025   2.129   1.273  16.495  0.0505  0.2428  0.8048
    4MPD1    C314026   2.070   1.327  16.606 -0.0682  0.0470  0.1040
    4MPD1    C414027   1.934   1.331  16.607 -0.1504  0.1240 -0.1784
    4MPD1    C514028   1.870   1.301  16.491  0.0457  0.1872 -0.0343
    4MPD1     H14029   2.236   1.259  16.496  0.4475  3.2173 -0.1916
    4MPD1    H114030   1.881   1.359  16.696 -1.1655 -2.5758  0.0651
    4MPD1    H214031   1.874   1.218  16.292  2.2079  1.6422 -1.3242
    4MPD1    H314032   1.762   1.315  16.485  0.2906  2.1642  0.0369
    4MPD1     N14033   2.149   1.376  16.715  0.1054  0.0921  0.2480
    4MPD1    H514034   2.246   1.385  16.686  0.2567 -0.0668  0.7054
    4MPD1    N114035   2.125   1.193  16.266  0.1334 -0.1051  0.2723
    4MPD1    H614036   2.223   1.165  16.276 -0.0543 -1.9901 -3.1229
    4MPD1    H714037   2.072   1.128  16.208 -0.9855  0.3566  0.7990
    1TCq1    O114038   2.788   1.926  11.596  0.3137  0.5137 -0.4185
    1TCq1    C114039   2.901   1.892  11.535 -0.7357  0.2963  0.3523
    1TCq1    O214040   2.905   1.901  11.413 -0.1785 -0.1660 -0.2820
    1TCq1    C214041   3.008   1.822  11.611 -0.1306 -0.3508  0.5704
    1TCq1    C314042   2.980   1.781  11.741  0.5218  0.2934 -0.1679
    1TCq1    C414043   3.087   1.734  11.812 -0.3456  0.0732 -0.5167
    1TCq1    C514044   3.210   1.730  11.752  1.0991  0.2048  0.8209
    1TCq1    C614045   3.228   1.776  11.628 -0.3318  0.2704 -0.9432
    1TCq1    C714046   3.123   1.823  11.549  0.2100  0.3414  0.1832
    1TCq1    C814047   3.356   1.771  11.566 -0.1407 -0.4349  0.1984
    1TCq1    O414048   3.358   1.775  11.447 -0.4892 -0.4092 -0.2182
    1TCq1    C914049   3.087   1.655  11.935  0.6743 -0.3210  0.3818
    1TCq1    O514050   3.201   1.634  11.995 -0.0741  0.1531 -0.1785
    1TCq1    O614051   2.973   1.613  11.972 -0.0637 -0.0384 -0.2920
    1TCq1    H114052   2.796   1.918  11.693 -0.7842 -1.4272 -0.4932
    1TCq1    H214053   2.887   1.743  11.782  0.8801 -1.7127 -1.1923
    1TCq1    H314054   3.286   1.665  11.795 -0.1180 -0.4993  1.8859
    1TCq1    H414055   3.147   1.863  11.451  1.1816  0.7112  0.5731
    2MPD1     C14056   3.867   1.753  11.571 -0.2856  0.5852 -0.3589
    2MPD1    C114057   3.817   1.720  11.694  0.5275 -0.4990  0.0530
    2MPD1    C214058   3.681   1.726  11.711  0.0790  0.3744  0.0641
    2MPD1    C314059   3.596   1.752  11.611  0.0928  0.4253  0.5416
    2MPD1    C414060   3.643   1.779  11.487 -0.5181  0.4800 -0.0609
    2MPD1    C514061   3.778   1.779  11.471  0.0180 -0.1806 -0.2461
    2MPD1     H14062   3.641   1.701  11.808 -1.1027 -0.9135 -0.7610
    2MPD1    H114063   3.579   1.805  11.403 -0.6163 -0.4537 -0.2669
    2MPD1    H214064   3.973   1.759  11.553 -0.3411  3.2271  0.2279
    2MPD1    H314065   3.814   1.811  11.374 -0.9736  0.5445 -0.3829
    2MPD1     N14066   3.464   1.751  11.651 -0.7954  0.2971  0.2756
    2MPD1    H514067   3.442   1.746  11.750 -2.1062  0.1036 -0.0247
    2MPD1    N114068   3.902   1.687  11.805 -0.6440  0.1599 -0.2563
    2MPD1    H614069   3.856   1.630  11.876  0.0322  0.6915  0.6037
    2MPD1    H714070   3.993   1.650  11.778 -0.7346  0.3054 -0.7574
    1TCq1    O114071   4.068   1.532   0.955 -0.0363  0.5821  0.0286
    1TCq1    C114072   4.034   1.640   0.881 -0.3570  0.4106  0.3388
    1TCq1    O214073   4.041   1.646   0.759 -0.0511  0.8337  0.7937
    1TCq1    C214074   3.924   1.702   0.966 -0.3411  0.5433 -0.4492
    1TCq1    C314075   3.942   1.701   1.096 -0.5128  0.5566 -0.1392
    1TCq1    C414076   3.824   1.711   1.174  0.5755  0.4401  0.2081
    1TCq1    C514077   3.710   1.754   1.121 -0.1689  0.3766 -0.0334
    1TCq1    C614078   3.700   1.773   0.987 -0.2489  0.4913  0.0802
    1TCq1    C714079   3.810   1.757   0.909  0.4498  0.2436  0.1707
    1TCq1    C814080   3.579   1.846   0.937  0.0101 -0.0208  0.0396
    1TCq1    O414081   3.508   1.907   1.019  0.3849 -0.1154  0.3841
    1TCq1    C914082   3.830   1.713   1.318 -0.2123  0.0656  0.1918
    1TCq1    O514083   3.726   1.737   1.386 -0.4267 -0.4295  0.1004
    1TCq1    O614084   3.947   1.684   1.360 -0.7039 -0.0681 -0.5622
    1TCq1    H114085   4.020   1.532   1.040  1.8948  0.1479  1.1050
    1TCq1    H214086   4.034   1.670   1.144  0.4564  1.3812 -1.4843
    1TCq1    H314087   3.625   1.761   1.188 -1.0919 -0.1321 -1.1424
    1TCq1    H414088   3.801   1.770   0.802  2.3155  2.4611  0.3019
    2MPD1     C14089   3.290   2.026   0.536  0.2680  0.4145 -0.2652
    2MPD1    C114090   3.380   1.935   0.480 -0.6275  0.4778 -0.6224
    2MPD1    C214091   3.456   1.873   0.575  0.1157 -0.2955  0.6004
    2MPD1    C314092   3.462   1.901   0.716 -0.2307 -0.6306  0.2665
    2MPD1    C414093   3.372   1.991   0.760  0.6272 -0.6815 -0.4160
    2MPD1    C514094   3.292   2.051   0.670  0.4703 -0.1728  0.1579
    2MPD1     H14095   3.520   1.796   0.534  2.3999  2.1132 -0.3602
    2MPD1    H114096   3.359   2.020   0.863  1.8810 -2.5686  0.2668
    2MPD1    H214097   3.226   2.083   0.470 -2.1003 -1.5198  0.3649
    2MPD1    H314098   3.226   2.122   0.718  0.9862  0.7552 -0.4966
    2MPD1     N14099   3.555   1.832   0.800  0.8419 -0.6110  0.5150
    2MPD1    H514100   3.617   1.769   0.748  1.7818  1.0110 -0.3345
    2MPD1    N114101   3.395   1.891   0.342 -0.3674  0.1782 -0.1204
    2MPD1    H614102   3.481   1.847   0.311 -1.5081 -0.5026 -2.4034
    2MPD1    H714103   3.368   1.963   0.274  0.9051  0.0222 -0.7934
    1MPD1     C14104   0.591   1.883  12.654 -0.1609  0.2665 -0.1256
    1MPD1    C114105   0.475   1.831  12.603 -0.6767  0.1617 -0.6325
    1MPD1    C214106   0.459   1.814  12.464 -0.1590 -0.7580 -0.9122
    1MPD1    C314107   0.567   1.845  12.385 -0.2549 -0.4624  0.1670
    1MPD1    C414108   0.692   1.867  12.436  0.0006 -0.1714  0.4012
    1MPD1    C514109   0.700   1.894  12.571  0.1584 -0.4149  0.5846
    1MPD1     H14110   0.365   1.794  12.414 -0.6869 -0.7527  0.0854
    1MPD1    H114111   0.774   1.891  12.369  0.6529  0.0711  1.2930
    1MPD1    H214112   0.603   1.909  12.759 -2.5662  1.8080 -0.2511
    1MPD1    H314113   0.783   1.939  12.625  0.4025 -0.0669 -0.0834
    1MPD1     N14114   0.535   1.853  12.243 -0.0451  0.0776 -1.2129
    1MPD1    H514115   0.437   1.843  12.219  0.5156 -0.3875 -3.3458
    1MPD1    N114116   0.361   1.811  12.685 -0.3190 -0.4581  0.7307
    1MPD1    H614117   0.294   1.742  12.652  1.2473 -0.8232 -1.7658
    1MPD1    H714118   0.389   1.787  12.780  0.1089  0.6575  0.8832
    2MPD1     C14119   3.889   1.937  10.685  0.2411 -1.0791 -0.1517
    2MPD1    C114120   3.882   1.891  10.555  0.4827 -0.5856  0.6358
    2MPD1    C214121   4.002   1.860  10.487 -0.4587 -0.3679  0.2485
    2MPD1    C314122   4.125   1.905  10.546 -0.1807 -0.5245  0.4942
    2MPD1    C414123   4.128   1.958  10.670  0.5716 -0.7701  0.3444
    2MPD1    C514124   4.010   1.966  10.745 -0.2387  0.1252 -0.6022
    2MPD1     H14125   3.997   1.806  10.393  0.1492 -0.8482  0.4850
    2MPD1    H114126   4.218   2.005  10.708  0.6939 -0.5276 -0.2542
    2MPD1    H214127   3.802   1.952  10.749 -0.2303  1.3145 -1.3749
    2MPD1    H314128   4.005   2.019  10.838  0.7109 -0.8953  0.0327
    2MPD1     N14129   4.254   1.905  10.486 -0.2825 -0.3030  0.6121
    2MPD1    H514130   4.331   1.942  10.539  0.2863 -3.2344  1.8559
    2MPD1    N114131   3.752   1.850  10.502 -0.0199 -0.3648 -0.3787
    2MPD1    H614132   3.675   1.913  10.527 -1.1218 -1.6120 -0.6419
    2MPD1    H714133   3.761   1.869  10.403 -1.1953  1.2138 -0.1806
    3MPD1     C14134   0.307   1.246  10.148  0.3487 -0.2014  1.1276
    3MPD1    C114135   0.347   1.345  10.230 -0.3483  1.3679  0.3730
    3MPD1    C214136   0.262   1.452  10.253  0.0608 -0.1935  0.7111
    3MPD1    C314137   0.131   1.458  10.192 -0.2358  0.0354  0.3145
    3MPD1    C414138   0.096   1.348  10.108  0.0816  0.1623  0.1951
    3MPD1    C514139   0.186   1.250  10.083 -0.2345  0.6020 -0.2343
    3MPD1     H14140   0.288   1.525  10.328 -2.7408  0.7369  0.7842
    3MPD1    H114141   4.720   1.334  10.062 -0.1863  0.0011  0.8036
    3MPD1    H214142   0.367   1.156  10.140 -0.4357 -0.6271  0.0179
    3MPD1    H314143   0.145   1.170  10.022 -0.6217 -1.8353  3.2011
    3MPD1     N14144   0.054   1.575  10.216 -0.9173 -0.1979  0.3579
    3MPD1    H514145   0.102   1.644  10.272  1.6546  0.1243 -2.2499
    3MPD1    N114146   0.481   1.345  10.269 -0.1406  0.4379 -0.6511
    3MPD1    H614147   0.494   1.384  10.362  1.1394  0.3208 -0.7799
    3MPD1    H714148   0.511   1.248  10.278 -0.6553  0.1776 -1.7729
    4MPD2     C14149   0.335   2.275  11.606  0.3055 -0.1669  0.2188
    4MPD2    C114150   0.409   2.164  11.598  0.2155 -0.1584  0.0421
    4MPD2    C214151   0.473   2.124  11.483  0.3038 -0.1546  0.0410
    4MPD2    C314152   0.461   2.208  11.371 -0.4282 -0.0778 -0.0648
    4MPD2    C414153   0.382   2.324  11.380  0.1667  0.0530 -0.4091
    4MPD2    C514154   0.320   2.355  11.495  0.8546  0.4007 -0.4360
    4MPD2     H14155   0.528   2.031  11.484  0.8572  0.1883  1.1255
    4MPD2    H114156   0.362   2.386  11.293  1.2732  2.1192  0.8175
    4MPD2    H214157   0.282   2.296  11.699  0.7624 -0.7151  0.6036
    4MPD2    H314158   0.248   2.437  11.492  0.2770 -0.1147 -0.6718
    4MPD2     N14159   0.528   2.187  11.249  0.1251 -0.0589 -0.0048
    4MPD2    H514160   0.495   2.239  11.168  0.1241 -0.1191 -0.0435
    4MPD2    N114161   0.416   2.072  11.706  0.4478  0.5455  0.0409
    4MPD2    H714162   0.469   1.989  11.683  1.3052  0.8294  1.0290
    5TMC3    C114163   0.388   1.947  11.901  0.1216 -0.8981  0.1367
    5TMC3    C214164   0.470   1.968  12.007 -0.2509  0.2007  0.6522
    5TMC3    C314165   0.571   1.873  12.018  0.6523 -0.4991  0.4611
    5TMC3    C414166   0.404   1.840  11.810 -0.1483  0.0828 -0.2464
    5TMC3    C514167   0.522   1.770  11.811  0.4166 -0.2335 -0.3224
    5TMC3    C614168   0.600   1.782  11.924  0.6220  0.0498 -0.5195
    5TMC3     C14169   0.357   2.072  11.831  0.9016  0.4916 -0.3632
    5TMC3     O14170   0.290   2.162  11.884  0.2488 -0.1323 -0.0919
    5TMC3     H14171   0.454   2.043  12.084  2.8713 -0.6999  2.1697
    5TMC3    H114172   0.345   1.826  11.721 -0.0242  0.1092 -0.3323
    5TMC3    H214173   0.693   1.728  11.936  0.6901  0.3039  0.0830
    5TMC3    C714174   0.583   1.743  11.684  0.5470  0.0861 -0.4713
    5TMC3    C814175   0.632   1.862  12.147 -0.5923 -0.2192  0.5647
    5TMC3    O114176   0.528   1.812  11.597 -0.1505  0.2515  0.2020
    5TMC3    O214177   0.752   1.846  12.141  0.2110  0.0758 -0.4712
    6TMC3    C114178   4.427   1.843  10.339 -0.2163  0.5216  0.2515
    6TMC3    C214179   4.469   1.725  10.285  0.0373 -0.1946 -0.2369
    6TMC3    C314180   4.601   1.713  10.249 -0.4686 -0.1492 -0.1780
    6TMC3    C414181   4.507   1.948  10.365  0.0482 -0.0776 -0.4263
    6TMC3    C514182   4.635   1.928  10.332  0.1761  0.8098  0.8957
    6TMC3    C614183   4.688   1.812  10.280 -0.0995  0.3319  0.6295
    6TMC3     C14184   4.285   1.854  10.361  0.1693 -0.0049 -0.3388
    6TMC3     O14185   4.210   1.789  10.288 -0.2287  0.1052  0.0538
    6TMC3     H14186   4.391   1.653  10.263 -0.3917 -0.3479  1.7667
    6TMC3    H114187   4.479   2.046  10.402  0.7342 -0.0379 -0.0270
    6TMC3    H214188   0.065   1.825  10.235 -1.0428  1.1592 -1.1594
    6TMC3    C714189   0.000   2.041  10.359  0.2648  0.0217 -0.5456
    6TMC3    C814190   4.641   1.591  10.191  0.1570 -0.4780  0.3284
    6TMC3    O114191   4.684   2.148  10.309  0.3588 -0.5014 -0.0083
    6TMC3    O214192   4.559   1.510  10.161  0.3320 -0.2417  0.1919
    7MPD2     C14193   0.965   1.626  11.354 -0.6082  0.1345  0.0306
    7MPD2    C114194   0.832   1.642  11.332  0.6045 -0.4040 -0.3096
    7MPD2    C214195   0.747   1.663  11.440  0.5011  0.2057 -0.6331
    7MPD2    C314196   0.779   1.631  11.570 -0.0127  0.2405 -1.0245
    7MPD2    C414197   0.910   1.573  11.586  0.1556 -1.0435  0.4933
    7MPD2    C514198   0.999   1.585  11.478  0.3839 -0.6576  0.2146
    7MPD2     H14199   0.651   1.709  11.424  0.3130 -0.3706 -1.1586
    7MPD2    H114200   0.952   1.535  11.679  1.8980  0.7741  0.4486
    7MPD2    H214201   1.044   1.617  11.281 -2.3454  0.8984 -1.9435
    7MPD2    H314202   1.105   1.563  11.484  0.7974  0.5995 -2.4237
    7MPD2     N14203   0.691   1.648  11.683  0.6073  0.1109 -0.1526
    7MPD2    H514204   0.726   1.614  11.772 -0.5959 -1.1039 -0.1271
    7MPD2    N114205   0.794   1.681  11.201 -0.6151 -0.0316 -0.6987
    7MPD2    H714206   0.869   1.686  11.133  0.5408  0.4213  0.6141
    8TMC3    C114207   0.668   1.804  11.070  0.0808 -0.5129 -0.8127
    8TMC3    C214208   0.561   1.810  10.991 -0.6092 -0.6300  0.3820
    8TMC3    C314209   0.524   1.933  10.946 -0.1464 -0.2517  0.2468
    8TMC3    C414210   0.725   1.916  11.128 -0.1657  0.4543  0.2989
    8TMC3    C514211   0.656   2.034  11.108  0.5951 -0.3915  0.6051
    8TMC3    C614212   0.572   2.050  11.005 -0.0562 -0.0954 -0.1698
    8TMC3     C14213   0.660   1.695  11.155 -0.5141 -0.1801 -0.0010
    8TMC3     O14214   0.554   1.684  11.213  0.5946 -0.4314  0.2793
    8TMC3     H14215   0.536   1.720  10.936  0.6973 -1.5623  1.3018
    8TMC3    H114216   0.782   1.904  11.220  2.4740  0.8540 -1.2960
    8TMC3    H214217   0.530   2.147  10.983  1.2755  0.7828  1.2022
    8TMC3    C714218   0.640   2.104  11.239 -0.8262 -0.5408  0.2010
    8TMC3    C814219   0.440   1.954  10.828 -0.2137  0.4583  0.6490
    8TMC3    O114220   0.720   2.083  11.330 -0.1989  0.0251 -0.0162
    8TMC3    O214221   0.375   1.852  10.794 -0.7182  0.1899 -0.1443
    9MPD2     C14222   0.391   2.247  10.609 -0.1829  0.1625  0.4058
    9MPD2    C114223   0.362   2.129  10.668 -0.0674 -0.0386 -0.3116
    9MPD2    C214224   0.257   2.051  10.614  0.0542 -0.2495  0.0835
    9MPD2    C314225   0.187   2.101  10.510 -0.1146  0.2556 -0.2477
    9MPD2    C414226   0.208   2.226  10.458 -0.4176  0.6559  0.2847
    9MPD2    C514227   0.317   2.301  10.506 -0.1026 -0.1600 -0.1113
    9MPD2     H14228   0.234   1.951  10.649 -0.0584 -1.1855 -2.6504
    9MPD2    H114229   0.174   2.258  10.360 -0.7282  0.8037  0.4405
    9MPD2    H214230   0.451   2.317  10.666  0.0062  0.9044 -0.7058
    9MPD2    H314231   0.327   2.400  10.463 -1.7494 -0.3294 -0.9000
    9MPD2     N14232   0.090   2.016  10.460  0.0982  0.2331  0.0820
    9MPD2    H514233   0.073   1.930  10.510  2.7615 -0.4694 -0.2268
    9MPD2    N114234   0.444   2.080  10.776  0.2231 -0.4184 -0.0399
    9MPD2    H714235   0.527   2.133  10.801  0.4317 -0.7165 -0.0964
    1MPD1     C14236   3.597   1.025  16.170 -0.0361 -0.7658  0.1894
    1MPD1    C114237   3.523   0.952  16.078  0.3964 -0.1491  0.0829
    1MPD1    C214238   3.586   0.874  15.983  0.6911  0.3013  0.0152
    1MPD1    C314239   3.725   0.883  15.975 -0.5396  0.1912 -0.4915
    1MPD1    C414240   3.795   0.962  16.059 -0.0882  0.6878  0.4056
    1MPD1    C514241   3.732   1.036  16.155 -0.7691  0.4129 -0.0747
    1MPD1     H14242   3.531   0.810  15.915  0.9228  1.6035 -1.3868
    1MPD1    H114243   3.900   0.982  16.042  0.3422  0.0448  2.3947
    1MPD1    H214244   3.554   1.089  16.246  0.3791 -1.0427  0.6524
    1MPD1    H314245   3.791   1.099  16.221  1.3875 -3.6122  1.7963
    1MPD1     N14246   3.803   0.820  15.876 -0.0098 -0.7530  0.4299
    1MPD1    H514247   3.901   0.841  15.888 -0.0492  0.0365 -0.6405
    1MPD1    N114248   3.387   0.928  16.102  0.7598  0.5995 -0.5161
    1MPD1    H614249   3.327   0.917  16.020 -0.4727 -0.1274  0.4839
    1MPD1    H714250   3.347   0.996  16.166 -1.6338  1.0294 -2.4843
    2MPD1     C14251   3.591   0.575  14.909  0.4433  0.5457 -0.9419
    2MPD1    C114252   3.537   0.497  15.013  0.6385 -0.2450  0.1951
    2MPD1    C214253   3.593   0.518  15.134  0.7114 -0.7043 -0.3200
    2MPD1    C314254   3.692   0.615  15.153  0.0158 -0.3242  0.7196
    2MPD1    C414255   3.734   0.698  15.049 -0.8163  0.0103  0.6472
    2MPD1    C514256   3.688   0.675  14.927  0.2088  0.1543  0.5141
    2MPD1     H14257   3.580   0.445  15.212 -1.2901 -0.3303 -0.3030
    2MPD1    H114258   3.798   0.783  15.069  0.5206 -0.6802 -0.7094
    2MPD1    H214259   3.562   0.548  14.808  1.8393  0.5537 -1.3411
    2MPD1    H314260   3.717   0.741  14.846  1.5700  0.4413  1.2315
    2MPD1     N14261   3.746   0.624  15.280  0.4963 -0.2005  0.1703
    2MPD1    H514262   3.701   0.574  15.356  0.4414 -1.5459 -0.7455
    2MPD1    N114263   3.468   0.385  14.977 -0.5964 -0.0928 -0.0719
    2MPD1    H614264   3.413   0.342  15.051  1.4056 -1.5957  0.5458
    2MPD1    H714265   3.421   0.391  14.887 -0.5738 -1.2839 -0.1586
    3TCq2    C114266   3.868   0.690  15.315 -0.3889  0.6418  0.4919
    3TCq2    O214267   3.948   0.749  15.247 -0.3650  0.5984 -0.5686
    3TCq2    C214268   3.911   0.657  15.455 -0.2914  0.1384 -0.4148
    3TCq2    C314269   4.044   0.658  15.482  0.0041  0.2568  0.7162
    3TCq2    C414270   4.081   0.681  15.620  0.3860 -0.6356  0.0339
    3TCq2    C514271   3.985   0.703  15.719  0.1393  0.2718 -0.0783
    3TCq2    C614272   3.855   0.706  15.679  0.1860  0.2561  0.5328
    3TCq2    C714273   3.818   0.678  15.549 -0.9855 -0.9236  0.7286
    3TCq2    C814274   3.751   0.739  15.771  0.3746  0.0792 -0.9489
    3TCq2    O414275   3.634   0.711  15.744  0.9292  0.2293  0.1340
    3TCq2    C914276   4.222   0.680  15.654  0.2036  0.5374  0.2371
    3TCq2    O514277   4.260   0.675  15.776  0.1293  0.2819 -0.0095
    3TCq2    O614278   4.299   0.671  15.555  0.2889  0.0820 -0.6261
    3TCq2    H214279   4.116   0.657  15.401 -0.6960 -2.0669  0.1083
    3TCq2    H314280   4.022   0.708  15.820 -1.6740  0.8500  0.5693
    3TCq2    H414281   3.714   0.696  15.525 -0.5385  1.6837  0.7361
    1TCq1    O114282   2.900   0.157  12.825  0.3392 -0.0270  1.0214
    1TCq1    C114283   2.926   0.121  12.959  0.1204 -0.2937  0.0180
    1TCq1    O214284   2.868   0.158  13.060  0.7736  0.6929 -0.3444
    1TCq1    C214285   3.002   0.003  12.953 -0.1247 -0.5114  0.1551
    1TCq1    C314286   2.981   4.622  13.050 -0.1968  0.3264 -0.3353
    1TCq1    C414287   3.079   4.523  13.056 -0.0293 -0.2685 -0.8385
    1TCq1    C514288   3.189   4.531  12.971 -0.5750 -0.1635  0.1778
    1TCq1    C614289   3.217   4.642  12.895 -0.6616  0.1664 -0.3965
    1TCq1    C714290   3.116   0.013  12.883 -0.0057 -0.1380  0.3195
    1TCq1    C814291   3.349   4.696  12.907 -0.8822  0.7448 -0.3977
    1TCq1    O414292   3.367   0.082  12.842 -0.8671 -0.6189  0.0081
    1TCq1    C914293   3.061   4.406  13.138  0.1434  0.3888 -0.1308
    1TCq1    O514294   3.157   4.330  13.167  0.1255  0.1884 -0.5189
    1TCq1    O614295   2.946   4.384  13.180 -0.3074  0.0362  0.2176
    1TCq1    H114296   2.938   0.081  12.775 -0.3886 -0.6183  1.3666
    1TCq1    H214297   2.891   4.615  13.112  0.1382  1.3708  0.2630
    1TCq1    H314298   3.261   4.450  12.972 -0.1310  0.2391  0.7301
    1TCq1    H414299   3.131   0.100  12.820 -4.2688  1.1375  1.0640
    2MPD2     C14300   3.639   0.029  12.934  0.1809  0.0058 -0.3366
    2MPD2    C114301   3.566   4.665  13.016  0.0916  0.2405  0.0185
    2MPD2    C214302   3.629   4.599  13.117  0.0481 -0.0407  0.4614
    2MPD2    C314303   3.756   4.636  13.160 -0.3259 -0.2748  0.3045
    2MPD2    C414304   3.824   0.014  13.086 -0.9099  0.0379 -1.0547
    2MPD2    C514305   3.765   0.062  12.972 -0.0025  0.5660 -0.2530
    2MPD2     H14306   3.576   4.527  13.178 -1.5533  1.0516  0.3643
    2MPD2    H114307   3.918   0.059  13.115 -0.6359 -1.2747  0.0896
    2MPD2    H214308   3.595   0.088  12.855 -0.2311 -0.0998 -0.1834
    2MPD2    H314309   3.830   0.127  12.914  1.8043 -1.0504 -0.0529
    2MPD2     N14310   3.813   4.584  13.278  0.3734 -0.3700  0.3718
    2MPD2    H514311   3.752   4.528  13.337 -0.7629  0.9230  0.4182
    2MPD2    N114312   3.430   4.632  13.000  0.3005 -0.2584  0.1524
    2MPD2    H714313   3.399   4.544  13.038 -1.0859 -0.0720 -0.5216
    3TCq1    O114314   3.795   4.516  13.888 -0.5938 -0.2425  0.0897
    3TCq1    C114315   3.773   4.598  13.784 -0.0507  0.0949 -0.4870
    3TCq1    O214316   3.659   4.623  13.750 -0.4678  0.2307  0.2819
    3TCq1    C214317   3.884   4.583  13.692 -0.4505 -0.1496 -0.3875
    3TCq1    C314318   4.005   4.552  13.746  0.5798  0.9965 -0.0633
    3TCq1    C414319   4.100   4.521  13.652  0.3446 -0.2713  0.0025
    3TCq1    C514320   4.074   4.520  13.513 -0.1767 -0.1101  0.0501
    3TCq1    C614321   3.954   4.553  13.465 -0.2895 -0.0838 -0.3792
    3TCq1    C714322   3.858   4.582  13.560  0.0222 -0.3444 -1.0005
    3TCq1    C814323   3.936   4.602  13.332 -0.5363  0.4566 -0.2027
    3TCq1    O414324   4.040   4.647  13.277  0.4899  0.0642 -0.0181
    3TCq1    C914325   4.229   4.481  13.704 -0.1772 -0.6189  0.4971
    3TCq1    O514326   4.262   4.512  13.821 -0.0303  0.2780 -0.3439
    3TCq1    O614327   4.279   4.380  13.648  0.2337 -0.0111  0.2743
    3TCq1    H114328   3.886   4.480  13.885 -0.2568  0.6446 -0.3471
    3TCq1    H214329   4.028   4.545  13.851 -1.5359  0.5198  0.3768
    3TCq1    H314330   4.160   4.503  13.449 -2.1006 -0.7772 -2.3704
    3TCq1    H414331   3.761   4.615  13.524  0.4462  1.0884 -0.8213
    1MPD2     C14332   2.936   0.116  14.906 -0.8723 -0.5517 -0.2976
    1MPD2    C114333   2.798   0.126  14.859 -0.6095  0.3463 -0.8466
    1MPD2    C214334   2.768   0.063  14.744  0.1140  0.0340 -1.0101
    1MPD2    C314335   2.859   4.714  14.664 -1.1481  0.4941  0.3616
    1MPD2    C414336   2.994   4.717  14.698 -0.1573 -0.5289  0.1049
    1MPD2    C514337   3.026   0.070  14.811 -0.2111  0.3350 -0.6176
    1MPD2     H14338   2.666   0.055  14.708 -0.6816  2.2524  0.7678
    1MPD2    H114339   3.073   4.668  14.643  0.5775  1.9767 -1.0670
    1MPD2    H214340   2.968   0.167  14.996  0.8968  1.6313 -2.1749
    1MPD2    H314341   3.129   0.072  14.844  0.0048  0.5359 -1.3095
    1MPD2     N14342   2.812   4.650  14.550 -0.2493 -0.5192 -0.8117
    1MPD2    H514343   2.711   4.639  14.541 -0.4107  0.2991  0.0083
    1MPD2    N114344   2.710   0.205  14.933  0.0567 -0.9298 -0.1241
    1MPD2    H714345   2.743   0.264  15.009 -0.5904 -0.9002  0.1302
    2TMC3    C114346   2.500   0.270  15.019 -0.2158  0.6983  0.1925
    2TMC3    C214347   2.385   0.204  15.050 -0.3839 -0.5232 -0.3023
    2TMC3    C314348   2.264   0.273  15.027  0.1834  0.0871 -0.3542
    2TMC3    C414349   2.499   0.406  14.986 -0.2871 -0.6767 -0.1379
    2TMC3    C514350   2.376   0.468  14.978  0.2874 -0.2796  0.3309
    2TMC3    C614351   2.260   0.403  14.997  0.1244  0.4580 -0.5960
    2TMC3     C14352   2.577   0.193  14.922 -0.4469  0.1630 -0.2655
    2TMC3     O14353   2.510   0.125  14.847 -0.6476 -0.4350 -0.0848
    2TMC3     H14354   2.387   0.096  15.062  1.6690 -0.1549  2.6671
    2TMC3    H114355   2.594   0.455  14.967 -0.4642 -0.7109 -1.1214
    2TMC3    H214356   2.164   0.449  14.974 -0.4377 -0.8761 -0.9258
    2TMC3    C714357   2.363   0.613  14.959 -0.6348 -1.0779  0.1242
    2TMC3    C814358   2.166   0.204  14.947  0.8848 -0.2931  0.3438
    2TMC3    O114359   2.253   0.664  14.987 -0.2323  0.0579  0.0806
    2TMC3    O214360   2.049   0.246  14.951  0.3025 -0.0804 -0.5758
    3TCq1    O114361   3.285   1.329  14.422 -0.1269  0.7257 -1.1219
    3TCq1    C114362   3.149   1.325  14.423  0.2969 -0.3093 -0.5201
    3TCq1    O214363   3.068   1.393  14.357 -0.7546 -0.1281 -0.4503
    3TCq1    C214364   3.108   1.214  14.502  0.2040 -0.8384 -0.0716
    3TCq1    C314365   3.168   1.095  14.482  0.1386 -0.0960 -0.4195
    3TCq1    C414366   3.091   0.980  14.514 -0.2577  0.6129 -0.8610
    3TCq1    C514367   2.963   0.995  14.564  0.0828  0.0129  0.1442
    3TCq1    C614368   2.917   1.119  14.590  0.7803  0.3349  0.6600
    3TCq1    C714369   2.982   1.234  14.556  0.9027  0.3675 -0.8139
    3TCq1    C814370   2.779   1.134  14.650  0.3014  0.0679 -0.1114
    3TCq1    O414371   2.742   1.250  14.662  0.2788 -0.0728 -0.6511
    3TCq1    C914372   3.138   0.849  14.493  0.3648 -0.2728 -0.2874
    3TCq1    O514373   3.255   0.837  14.442  0.5701  0.1445 -0.2774
    3TCq1    O614374   3.056   0.752  14.506 -0.0977 -0.2756 -0.5000
    3TCq1    H114375   3.320   1.267  14.489  1.1842  2.5494 -0.1117
    3TCq1    H214376   3.257   1.071  14.425 -0.4150 -0.6056 -1.0813
    3TCq1    H314377   2.906   0.904  14.581  1.2204 -0.8457 -0.7117
    3TCq1    H414378   2.945   1.336  14.553 -0.1238  0.0146 -0.3038
    4MPD2     C14379   2.504   1.077  14.762 -0.0858 -0.5344 -0.1076
    4MPD2    C114380   2.607   0.985  14.758  0.0621 -0.0900  0.1315
    4MPD2    C214381   2.602   0.859  14.807  0.1694  0.0120  1.0483
    4MPD2    C314382   2.479   0.811  14.861  0.1570  0.0429 -0.5302
    4MPD2    C414383   2.370   0.901  14.859  0.3144 -0.2842  0.0263
    4MPD2    C514384   2.386   1.029  14.805  0.0217  0.2420  0.0386
    4MPD2     H14385   2.693   0.800  14.818  1.0572  1.2818  0.4174
    4MPD2    H114386   2.271   0.876  14.893 -0.5550  0.4073 -2.0245
    4MPD2    H214387   2.507   1.179  14.725  1.2625 -1.5636 -2.7855
    4MPD2    H314388   2.297   1.089  14.793  0.4102  1.0899  1.4122
    4MPD2     N14389   2.471   0.676  14.901 -0.0449  0.8239 -0.0098
    4MPD2    H514390   2.558   0.625  14.892 -0.2055  0.7605 -1.2294
    4MPD2    N114391   2.729   1.007  14.690  0.0542 -0.6296 -0.2268
    4MPD2    H714392   2.787   0.926  14.673  2.3453  0.4641  2.3714
    5TMC2    C114393   2.556   4.477  14.410 -0.4021 -0.6350 -0.5039
    5TMC2    C214394   2.571   4.346  14.446 -0.5012  0.0752  0.2488
    5TMC2    C314395   2.697   4.296  14.454  0.1627 -0.3032 -0.3412
    5TMC2    C414396   2.670   4.548  14.384 -0.3853  0.4074  0.0397
    5TMC2    C514397   2.793   4.492  14.389 -1.1623  0.7108 -0.5859
    5TMC2    C614398   2.814   4.358  14.418  0.0369 -0.4633 -0.4960
    5TMC2     C14399   2.462   4.559  14.489 -0.7430 -0.0877  0.7528
    5TMC2     O14400   2.520   4.652  14.542  0.8095 -0.5977 -0.3683
    5TMC2     H14401   2.494   4.278  14.482 -0.9137 -0.5949 -1.8826
    5TMC2    H114402   2.658   4.653  14.360 -1.4138 -0.1880 -2.0110
    5TMC2    H214403   2.910   4.319  14.448 -0.8167 -0.7909  1.7736
    5TMC2    C714404   2.886   4.574  14.465  0.0151 -0.4167 -0.5521
    5TMC2    C814405   2.705   4.156  14.463  0.0676  0.1780  0.2054
    5TMC2    O114406   3.003   4.541  14.462 -0.1832  0.0206 -0.2253
    5TMC2    O214407   2.637   4.080  14.396 -0.3247 -0.7069 -0.5238
    5TMC2    O514408   2.811   4.126  14.540  0.0837  0.8020 -0.1094
    5TMC2    H514409   2.846   4.203  14.590 -0.1680 -1.5834  3.6644
    6MPD2     C14410   2.036   0.016  14.713 -0.3842 -0.0634  0.7123
    6MPD2    C114411   2.171   0.037  14.746  0.2372 -0.2119 -0.1827
    6MPD2    C214412   2.268   4.694  14.669  0.0977  0.1294 -0.1646
    6MPD2    C314413   2.235   4.618  14.558  0.4346  0.3734 -0.3115
    6MPD2    C414414   2.101   4.599  14.533  0.3379 -0.7234 -0.7685
    6MPD2    C514415   2.004   4.667  14.596 -0.5308  0.3612  0.3593
    6MPD2     H14416   2.370   4.718  14.698  0.4938 -1.0811 -0.5612
    6MPD2    H114417   2.066   4.530  14.457  0.1583 -1.2419 -0.2157
    6MPD2    H214418   1.956   0.079  14.750  0.4225  0.9282  0.7906
    6MPD2    H314419   1.901   4.650  14.568 -0.5564 -0.4675  0.9712
    6MPD2     N14420   2.327   4.539  14.481  0.5138 -0.8035 -0.5600
    6MPD2    H514421   2.292   4.465  14.421 -0.4443 -2.2231  1.7429
    6MPD2    N114422   2.227   0.114  14.855 -0.3203 -0.2774  0.2648
    6MPD2    H714423   2.329   0.109  14.852 -0.2660  1.5385 -1.1203
  945NH3     N114424   1.965   3.599   9.299  0.7738 -0.5921 -0.2333
  945NH3     H214425   2.014   3.687   9.307 -0.9607  0.0918  2.7992
  945NH3     H314426   1.906   3.620   9.219 -1.6636 -3.3857  0.8368
  945NH3     H414427   2.045   3.549   9.262  0.8972 -1.2997  1.0149
  946SOD     NA14428   1.949   3.506  15.021  0.0743 -0.1219  0.1320
  947SOD     NA14429   4.674   0.453  15.199  0.1602 -0.0584  0.3819
  948SOD     NA14430   3.952   1.626  16.082  0.2121 -0.3842 -0.0678
  949SOD     NA14431   2.406   3.297  10.703  0.1115  0.5460  0.2168
  950SOD     NA14432   2.847   1.495  11.854  0.3392  0.1342 -0.0714
  951SOD     NA14433   4.426   0.160  14.323 -0.1852 -0.1935  0.2087
  952SOD     NA14434   3.535   3.081   0.164  0.0258  0.0274 -0.1551
  953SOD     NA14435   2.475   3.021  10.625 -0.1822  0.1003  0.7408
  954SOD     NA14436   3.581   0.230  11.115  0.3558  0.2800  0.2698
  955SOD     NA14437   3.637   0.144   0.770 -0.1569  0.5438 -0.0120
  956SOD     NA14438   0.132   2.381   1.449  0.4068  0.1258  0.2947
  957SOD     NA14439   0.496   4.091   8.015  0.2091 -0.5177 -0.5875
  958SOD     NA14440   1.741   0.023   8.977 -0.1611 -0.2172  0.2399
  959SOD     NA14441   1.748   1.780  13.289  0.0764 -0.0278 -0.0022
  960SOD     NA14442   2.854   3.461  10.398 -0.0487 -0.4039 -0.3466
  961SOD     NA14443   0.857   1.741   5.711  0.2268  0.2584  0.2158
  962SOD     NA14444   0.104   1.197  13.720 -0.1965 -0.4671 -0.0191
  963SOD     NA14445   0.356   3.915  17.487 -0.0059 -0.5568 -0.0418
  964SOD     NA14446   0.688   3.484  12.422 -0.0981 -0.5753 -0.2463
  965SOD     NA14447   1.704   1.048   1.951  0.3530 -0.0232 -0.6775
  966SOD     NA14448   4.391   4.337  13.829 -0.1836  0.1403 -0.2292
  967SOD     NA14449   3.891   2.059   8.632 -0.0553  0.2917  0.3795
  968SOD     NA14450   2.530   3.518   5.410  0.1878  0.2339 -0.1933
  969SOD     NA14451   0.569   2.142   3.013  0.2497 -0.4324  0.3295
  970SOD     NA14452   1.507   2.772   1.327 -0.1390  0.1067  0.1099
  971SOD     NA14453   0.955   3.673  14.902 -0.4845  0.4499  0.2412
  972SOD     NA14454   0.370   1.316  12.708 -0.0839  0.2514 -0.1050
  973SOD     NA14455   2.675   4.619  11.423 -0.1317  0.1467  0.6542
  974SOD     NA14456   2.354   0.799   1.774 -0.2147  0.4465  0.6041
  975SOD     NA14457   3.281   0.126   6.175  0.1461  0.0796 -0.3050
  976SOD     NA14458   4.659   1.514  13.654 -0.1666 -0.0061  0.3437
  977SOD     NA14459   4.295   0.844  13.377 -0.5551 -0.1876  0.2897
  978SOD     NA14460   1.038   1.366   2.273  0.0723  0.4086 -0.1435
  979SOD     NA14461   1.555   4.559  11.513 -0.2818  0.1411  0.1331
  980SOD     NA14462   4.673   2.954  14.389 -0.3541 -0.2478 -0.2322
  981SOD     NA14463   3.473   0.057   1.730 -0.2423 -0.1344 -0.8888
  982SOD     NA14464   0.986   1.198  10.396 -0.7278  0.0415  0.0768
  983SOD     NA14465   1.423   4.028  12.957 -0.2226 -0.2656 -0.0644
  984SOD     NA14466   3.096   4.585  11.769 -0.6687  0.4439  0.0596
  985SOD     NA14467   3.212   4.147  11.085 -0.1084  0.1687  0.3265
  986SOD     NA14468   0.185   3.117   8.899  0.1032  0.0818 -0.0598
  987SOD     NA14469   0.306   0.631   2.321  0.9197 -0.0734  0.1142
  988SOD     NA14470   1.978   3.530   9.510 -0.1614 -0.2342  0.1142
  989SOD     NA14471   2.979   1.577  13.714  0.0122 -0.0257 -0.1048
  990SOD     NA14472   4.633   0.862  15.837 -0.1357  0.6694 -0.0968
  991SOD     NA14473   4.315   0.869  15.420  0.4328 -0.0296  0.2074
  992SOD     NA14474   3.985   0.957  14.482  0.2149  0.4340 -0.0114
  993SOD     NA14475   3.156   1.486  12.148 -0.4637 -0.1608 -0.3207
  994SOD     NA14476   3.162   4.119  13.173  0.1446  0.5281  0.0752
  995SOD     NA14477   4.084   1.268  11.636  0.0292  0.1064 -0.3991
  996SOD     NA14478   1.682   1.545  10.683  0.0211 -0.3883 -0.3264
  997SOD     NA14479   3.397   3.994  11.296 -0.0036  0.4869 -0.2391
  998SOD     NA14480   2.515   3.963   2.613  0.2251 -0.0584 -0.1521
  999SOD     NA14481   4.130   2.313   8.202  0.1944  0.0424  0.1927
 1000SOD     NA14482   4.424   0.578  15.406 -0.1324  0.2514  0.1198
 1001SOD     NA14483   2.046   0.267  10.120 -0.0904  0.3784 -0.0260
 1002SOD     NA14484   4.480   3.186  12.702  0.2397  0.2114  0.1634
 1003SOD     NA14485   3.346   0.071  11.934 -0.6231  0.0118 -0.1463
 1004SOD     NA14486   3.042   0.603  14.668  0.0162  0.2671  0.3712
 1005SOD     NA14487   2.884   0.456   8.892  0.2277 -0.2031  0.5474
 1006SOD     NA14488   0.098   3.121   1.341  0.0571  0.3340  0.4154
 1007SOD     NA14489   1.022   2.366   0.776 -0.0786 -0.0976 -0.2516
 1008SOD     NA14490   1.504   3.246  14.203  0.0490  0.1085  0.2695
 1009SOD     NA14491   0.243   2.770  16.717 -0.2482 -0.3453 -0.2337
 1010SOD     NA14492   2.516   3.256  10.416 -0.7009 -0.1663  0.7805
 1011SOD     NA14493   4.287   3.713   0.356 -0.3774  0.5601 -0.0258
 1012SOL     OW14494   0.567   3.460  15.031 -0.0436 -0.1725 -0.3327
 1012SOL    HW114495   0.544   3.369  15.047  3.6497 -1.0229  0.2417
 1012SOL    HW214496   0.514   3.502  15.099 -0.4008 -0.2438 -0.5696
 1013SOL     OW14497   4.191   0.848   0.214 -0.0577 -0.6788 -0.0551
 1013SOL    HW114498   4.277   0.867   0.177  0.1660 -0.7699  0.4106
 1013SOL    HW214499   4.192   0.753   0.217 -3.0396 -0.7281 -0.4770
 1014SOL     OW14500   3.298   3.444   2.498  0.0327  0.0405  0.6114
 1014SOL    HW114501   3.366   3.388   2.534  0.9178  0.8090  0.1463
 1014SOL    HW214502   3.355   3.520   2.482 -1.4967  1.5081  2.1793
 1015SOL     OW14503   2.826   1.288   5.557 -0.0826 -0.6823 -0.3817
 1015SOL    HW114504   2.918   1.304   5.580  0.7955 -0.8088 -3.7885
 1015SOL    HW214505   2.846   1.236   5.479 -0.6858 -0.3986 -0.7231
 1016SOL     OW14506   3.079   0.589   8.937  0.1598 -0.1499  0.0595
 1016SOL    HW114507   3.157   0.579   8.991  0.1195  0.1823  0.1770
 1016SOL    HW214508   3.075   0.684   8.948  0.5098 -0.3572  2.0224
 1017SOL     OW14509   1.417   1.031   9.324  0.1708 -0.6150 -0.1728
 1017SOL    HW114510   1.357   1.012   9.251  1.0865 -2.8171 -0.3282
 1017SOL    HW214511   1.359   1.074   9.387  0.3597  0.5108 -0.7572
 1018SOL     OW14512   3.273   1.353   5.096  0.7369 -0.2582 -0.5735
 1018SOL    HW114513   3.339   1.418   5.068  0.7309 -0.8232 -1.9300
 1018SOL    HW214514   3.330   1.278   5.115  0.0060 -1.1658 -1.9647
 1019SOL     OW14515   4.635   3.560   5.276  0.1470 -0.6906 -0.6839
 1019SOL    HW114516   4.651   3.603   5.192  2.5850 -1.1721 -0.4554
 1019SOL    HW214517   4.542   3.537   5.272  0.2000 -0.9060 -0.6878
 1020SOL     OW14518   4.158   0.913   1.985 -0.0897 -0.4631 -0.6074
 1020SOL    HW114519   4.217   0.847   2.021  0.6341  0.2603 -0.4418
 1020SOL    HW214520   4.142   0.966   2.064 -2.7604 -0.2860 -1.2759
 1021SOL     OW14521   3.316   2.759   4.054 -0.1306  0.2566  0.1794
 1021SOL    HW114522   3.221   2.771   4.048  0.1528  1.3924 -2.2841
 1021SOL    HW214523   3.338   2.709   3.975  0.3182 -0.0638  0.5126
 1022SOL     OW14524   2.355   1.968   2.575  0.3560  0.2088  0.6036
 1022SOL    HW114525   2.326   1.974   2.666 -2.3723  0.8342 -0.3089
 1022SOL    HW214526   2.417   1.895   2.584  1.1930  0.5399 -2.2073
 1023SOL     OW14527   3.973   0.869   6.695 -0.5342  0.1167  0.4001
 1023SOL    HW114528   3.883   0.893   6.716 -0.7782 -1.8020  1.6201
 1023SOL    HW214529   3.995   0.949   6.648  0.5831  0.8083  2.0685
 1024SOL     OW14530   2.433   3.671   5.582 -0.0613  0.1715  0.1025
 1024SOL    HW114531   2.448   3.764   5.571  1.7734 -0.1782 -0.3495
 1024SOL    HW214532   2.386   3.667   5.665  2.6126  1.6687  1.6823
 1025SOL     OW14533   2.299   1.418   8.259  0.1686 -1.0403  0.1290
 1025SOL    HW114534   2.281   1.465   8.341 -0.5261  1.8529 -1.6527
 1025SOL    HW214535   2.388   1.451   8.248  0.4615 -1.2874  1.8353
 1026SOL     OW14536   2.033   4.310   8.366 -0.3169 -0.4286  0.0457
 1026SOL    HW114537   2.024   4.216   8.349 -0.2773 -0.4826  0.3145
 1026SOL    HW214538   2.031   4.353   8.281  0.5623 -3.2665 -1.4110
 1027SOL     OW14539   3.688   0.613   0.878  0.2645 -0.7860  0.1677
 1027SOL    HW114540   3.719   0.654   0.797 -1.2104  1.2409  0.6413
 1027SOL    HW214541   3.719   0.678   0.941 -2.1943  0.7183 -0.1929
 1028SOL     OW14542   2.731   0.135  15.619 -0.2769 -0.1601  0.2785
 1028SOL    HW114543   2.640   0.109  15.609 -0.1054 -1.5093  2.3779
 1028SOL    HW214544   2.743   0.158  15.527 -1.8728 -1.0908 -0.1483
 1029SOL     OW14545   0.395   0.445  14.018 -0.4555  0.0423  0.0792
 1029SOL    HW114546   0.395   0.452  14.113 -0.0986 -0.4088  0.1119
 1029SOL    HW214547   0.489   0.429  14.004 -0.5796 -0.2438 -0.4422
 1030SOL     OW14548   2.245   0.174  10.170  0.2283  0.5153 -0.3607
 1030SOL    HW114549   2.261   0.080  10.156  0.3099  0.3606  0.7665
 1030SOL    HW214550   2.328   0.212  10.140  0.6201 -0.5316 -0.6044
 1031SOL     OW14551   1.722   0.885   8.048  0.1473  0.3641 -0.3604
 1031SOL    HW114552   1.787   0.929   7.993  0.4051 -0.9710 -1.1164
 1031SOL    HW214553   1.775   0.808   8.068  2.0910  1.4453 -1.3965
 1032SOL     OW14554   1.809   0.384   5.364 -0.0450  0.2697 -0.1695
 1032SOL    HW114555   1.839   0.454   5.422  1.6378  0.0627 -0.7834
 1032SOL    HW214556   1.891   0.353   5.325 -0.4947  0.9098 -1.6216
 1033SOL     OW14557   2.985   1.974   1.960 -0.4521  0.5885  0.0831
 1033SOL    HW114558   3.014   1.974   1.868  0.7025  0.0747  0.4386
 1033SOL    HW214559   3.038   2.045   1.996  1.7156 -1.2335  0.5145
 1034SOL     OW14560   3.477   3.695   7.899  0.0178 -0.2116 -0.3337
 1034SOL    HW114561   3.498   3.602   7.899  2.1240  0.2480 -0.4649
 1034SOL    HW214562   3.543   3.733   7.958 -0.6508 -0.5099  0.6082
 1035SOL     OW14563   0.520   3.014   5.396  0.3603 -0.3935 -0.1708
 1035SOL    HW114564   0.508   2.934   5.449 -0.0460  0.4289  0.9836
 1035SOL    HW214565   0.519   3.083   5.463 -0.3506  1.9263 -2.6153
 1036SOL     OW14566   4.157   0.645   1.458  0.0450 -0.1491  0.0946
 1036SOL    HW114567   4.173   0.667   1.366 -0.3965 -1.5756 -0.3169
 1036SOL    HW214568   4.193   0.725   1.498 -1.0941 -0.2464  1.2794
 1037SOL     OW14569   3.834   2.870  12.811 -0.2929  0.1013  0.1491
 1037SOL    HW114570   3.746   2.880  12.846 -0.2623  0.1876  0.2022
 1037SOL    HW214571   3.835   2.774  12.812  1.5482  0.1273  2.6140
 1038SOL     OW14572   3.409   0.982   4.858  0.2744 -0.1054  0.2108
 1038SOL    HW114573   3.427   1.050   4.793 -3.5498 -1.3492 -2.1568
 1038SOL    HW214574   3.435   0.907   4.804  0.2895 -0.9567  1.4103
 1039SOL     OW14575   2.232   2.299   7.689 -0.2903 -0.0520  1.0436
 1039SOL    HW114576   2.311   2.331   7.732  1.5947 -0.5120 -2.0892
 1039SOL    HW214577   2.246   2.205   7.690  0.7631  0.0946 -0.4726
 1040SOL     OW14578   0.718   3.485   7.814 -0.2266 -0.2139  0.3898
 1040SOL    HW114579   0.748   3.463   7.726  0.6534  2.7725 -0.0450
 1040SOL    HW214580   0.641   3.535   7.786 -0.9664 -2.6580 -1.9440
 1041SOL     OW14581   0.464   4.314   3.539 -0.0349 -0.2892  0.3959
 1041SOL    HW114582   0.526   4.270   3.597  1.3875 -0.6425 -1.4016
 1041SOL    HW214583   0.451   4.243   3.476 -1.8040  1.5156 -1.2696
 1042SOL     OW14584   1.633   0.143  12.922 -0.5901 -0.0883 -0.0878
 1042SOL    HW114585   1.628   0.103  13.009 -0.6648 -0.8259 -0.4345
 1042SOL    HW214586   1.707   0.102  12.878  1.5538  4.0249 -0.3368
 1043SOL     OW14587   3.536   0.660   2.009  0.3461 -0.4911  0.0084
 1043SOL    HW114588   3.620   0.706   2.005 -0.4309  0.9728  0.2341
 1043SOL    HW214589   3.493   0.713   1.942 -1.1601 -1.4089  0.2454
 1044SOL     OW14590   0.585   1.070   3.048 -0.1443 -0.7819 -0.0514
 1044SOL    HW114591   0.659   1.130   3.041  1.4416 -2.6456  0.4388
 1044SOL    HW214592   0.605   0.994   3.105 -1.8141 -0.9220  0.3377
 1045SOL     OW14593   0.133   0.561   7.256 -0.7092  0.8577  0.4800
 1045SOL    HW114594   0.164   0.543   7.167 -0.9225  2.1698  0.1410
 1045SOL    HW214595   0.217   0.567   7.302  0.0636 -0.3707 -0.7849
 1046SOL     OW14596   0.859   4.380   5.979  0.1488  0.7105 -0.0164
 1046SOL    HW114597   0.830   4.446   5.915 -0.4233  1.1524  0.6904
 1046SOL    HW214598   0.845   4.294   5.940  2.3202  0.3994 -0.0680
 1047SOL     OW14599   3.177   0.958   6.781  0.2451 -0.2579  0.9231
 1047SOL    HW114600   3.168   0.990   6.871 -0.0161 -1.4497  1.3253
 1047SOL    HW214601   3.199   1.039   6.736 -0.8827 -0.0750  0.7126
 1048SOL     OW14602   0.808   4.597   5.805 -0.7468  0.2283  0.2984
 1048SOL    HW114603   0.863   4.671   5.781  0.8555 -1.0269  0.1249
 1048SOL    HW214604   0.727   4.620   5.759 -0.0840  0.8043 -0.5747
 1049SOL     OW14605   1.938   0.292   9.103 -0.3489 -0.0323  0.7811
 1049SOL    HW114606   1.871   0.237   9.144  0.2241 -0.9899  0.4345
 1049SOL    HW214607   1.874   0.357   9.074 -0.9393 -1.5372 -1.3245
 1050SOL     OW14608   0.743   4.713   1.253  0.2365 -0.1782 -0.0186
 1050SOL    HW114609   0.809   4.660   1.209  1.5175  0.7960  0.7483
 1050SOL    HW214610   0.786   0.028   1.330  0.8519 -1.0399  0.0302
 1051SOL     OW14611   2.387   0.518   6.875  0.6715  0.3314 -0.2687
 1051SOL    HW114612   2.452   0.508   6.805 -0.7642 -2.2468 -1.2376
 1051SOL    HW214613   2.372   0.424   6.892  3.8381  0.0215  0.6973
 1052SOL     OW14614   0.477   3.860   3.412 -0.5638  0.2443  0.3035
 1052SOL    HW114615   0.517   3.891   3.493 -0.6498 -1.7670  1.1408
 1052SOL    HW214616   0.504   3.768   3.414  0.2475  0.5329  2.3771
 1053SOL     OW14617   4.419   4.697   5.130 -0.0961  0.4641  0.0576
 1053SOL    HW114618   4.334   0.009   5.158 -0.8135 -0.3615 -1.2050
 1053SOL    HW214619   4.408   4.603   5.142 -0.5829  0.5680  0.3873
 1054SOL     OW14620   2.319   1.692  14.637  0.2051 -0.4841 -0.0180
 1054SOL    HW114621   2.287   1.782  14.633 -1.2627 -1.0242 -0.3559
 1054SOL    HW214622   2.403   1.698  14.590 -1.5559 -2.5884 -3.4399
 1055SOL     OW14623   2.394   2.561   4.542 -0.3618 -0.3269  0.0975
 1055SOL    HW114624   2.487   2.539   4.551 -0.1163  0.7478  0.1912
 1055SOL    HW214625   2.394   2.616   4.621  1.3727  1.6845 -1.2996
 1056SOL     OW14626   2.531   3.668   9.250  0.0555  0.3756 -0.6367
 1056SOL    HW114627   2.605   3.625   9.293 -0.9414 -0.4308  0.2766
 1056SOL    HW214628   2.551   3.761   9.260 -3.0275  1.2677 -3.0948
 1057SOL     OW14629   3.402   1.879   8.036 -0.2972 -0.0184  0.0090
 1057SOL    HW114630   3.418   1.961   7.990  1.5367 -0.1136  0.4752
 1057SOL    HW214631   3.420   1.820   7.963 -0.6332 -0.6775  0.4569
 1058SOL     OW14632   3.567   1.548   5.966  0.3948 -0.4063 -1.3738
 1058SOL    HW114633   3.548   1.547   5.872 -1.3196  2.7805 -1.0606
 1058SOL    HW214634   3.494   1.487   5.976 -0.5164  0.9123  0.0122
 1059SOL     OW14635   3.140   4.393   6.179  0.2492  0.8609  0.3486
 1059SOL    HW114636   3.185   4.423   6.100  0.5745 -2.5818 -0.8074
 1059SOL    HW214637   3.050   4.373   6.151  0.2448 -0.1037  1.0589
 1060SOL     OW14638   0.448   3.659  13.420  0.2312  0.0149  0.6952
 1060SOL    HW114639   0.493   3.614  13.491  2.4865  3.1586  1.2677
 1060SOL    HW214640   0.361   3.646  13.457  0.3387 -0.7768  0.6583
 1061SOL     OW14641   2.234   3.434  10.803 -0.2114 -0.2602  0.1158
 1061SOL    HW114642   2.275   3.502  10.857  0.6363  0.6022 -1.6189
 1061SOL    HW214643   2.189   3.490  10.740 -0.3258  0.0251  0.4487
 1062SOL     OW14644   2.804   4.644   9.072 -0.4279 -0.2298 -0.1371
 1062SOL    HW114645   2.861   4.640   8.996 -0.0802  0.4279  0.0862
 1062SOL    HW214646   2.723   4.611   9.033 -1.0986 -0.2683  1.2604
 1063SOL     OW14647   1.910   3.027   8.505 -0.3521  0.0312  0.4285
 1063SOL    HW114648   1.989   3.067   8.470  0.2046 -1.3184  0.1172
 1063SOL    HW214649   1.945   2.989   8.585  1.6006 -0.4045 -0.6310
 1064SOL     OW14650   1.506   4.075   7.538  0.0104 -0.0025 -0.4721
 1064SOL    HW114651   1.526   4.135   7.610  0.6755 -2.8681  1.6914
 1064SOL    HW214652   1.412   4.089   7.523  0.3785  1.4966 -1.4496
 1065SOL     OW14653   1.348   3.185   7.594  0.2781 -0.0841 -0.0514
 1065SOL    HW114654   1.360   3.157   7.503  1.9659 -1.0169  0.4441
 1065SOL    HW214655   1.327   3.276   7.577 -0.2336 -0.3926 -1.0511
 1066SOL     OW14656   3.938   1.359   7.596  0.2260 -0.4640  0.1579
 1066SOL    HW114657   3.848   1.389   7.581  0.0308 -1.2862 -0.3445
 1066SOL    HW214658   3.978   1.441   7.623  0.0380 -0.0150 -0.8905
 1067SOL     OW14659   1.053   1.249  16.710 -0.1774  0.3537  0.4210
 1067SOL    HW114660   1.089   1.213  16.791  0.8060  0.9015  0.2294
 1067SOL    HW214661   1.029   1.173  16.657  0.2838 -0.4031  1.3068
 1068SOL     OW14662   2.763   1.182  11.051 -0.2665  0.4388  0.0929
 1068SOL    HW114663   2.831   1.153  11.112  0.1638  1.9208  0.3341
 1068SOL    HW214664   2.688   1.191  11.111  1.8853  0.3188  2.8193
 1069SOL     OW14665   2.677   1.459   2.916  0.4779 -0.0596  0.1457
 1069SOL    HW114666   2.644   1.547   2.896 -0.2250 -0.4302 -0.3199
 1069SOL    HW214667   2.770   1.480   2.906  0.2035  0.5657 -1.0203
 1070SOL     OW14668   3.389   3.205   4.418 -0.7418  0.1404  0.0609
 1070SOL    HW114669   3.360   3.257   4.343 -1.9517 -1.3977 -0.5320
 1070SOL    HW214670   3.309   3.162   4.446 -1.1222  0.3731 -0.6831
 1071SOL     OW14671   3.931   3.768   2.135 -0.0735  0.0420 -0.0970
 1071SOL    HW114672   3.941   3.853   2.177  0.0141  0.5977 -1.2318
 1071SOL    HW214673   3.840   3.745   2.155  1.0444 -2.1450  2.4131
 1072SOL     OW14674   2.714   2.800   8.396 -0.4543  0.0187 -0.2862
 1072SOL    HW114675   2.739   2.775   8.485 -0.9880 -1.7882 -0.6416
 1072SOL    HW214676   2.619   2.793   8.392 -0.7059  2.0210  2.3266
 1073SOL     OW14677   2.868   4.224   7.918  0.4186  0.1132  0.3083
 1073SOL    HW114678   2.861   4.318   7.901  0.5865 -0.1510 -1.2196
 1073SOL    HW214679   2.958   4.215   7.950  0.7004 -0.3809 -0.6420
 1074SOL     OW14680   0.690   2.042   7.460  0.0230 -0.2508  0.1296
 1074SOL    HW114681   0.657   2.019   7.547  0.6185 -1.0208  0.1465
 1074SOL    HW214682   0.736   1.962   7.434  1.4956  0.2173  1.3328
 1075SOL     OW14683   3.759   0.469  16.546 -0.3479  0.3373  0.2067
 1075SOL    HW114684   3.768   0.532  16.475  0.9407 -0.7381 -0.5863
 1075SOL    HW214685   3.836   0.414  16.531 -0.1322  0.7881 -0.3230
 1076SOL     OW14686   1.404   4.385   6.357 -0.3585  0.8490  0.2477
 1076SOL    HW114687   1.327   4.332   6.376  0.4284 -0.5369 -0.3818
 1076SOL    HW214688   1.382   4.417   6.270  0.2812 -1.1579 -0.6695
 1077SOL     OW14689   4.031   4.279  12.120 -0.2779 -0.3349 -0.6255
 1077SOL    HW114690   4.008   4.360  12.075  1.1673  1.4709  1.8679
 1077SOL    HW214691   4.028   4.305  12.212  1.6776  1.2754 -1.0232
 1078SOL     OW14692   2.289   2.027   9.419  0.2722  0.1502  0.4376
 1078SOL    HW114693   2.284   1.947   9.471 -3.0717 -0.8710 -1.4289
 1078SOL    HW214694   2.320   2.097   9.476 -0.0611  0.1438  0.6300
 1079SOL     OW14695   0.787   2.544   8.811 -0.3247  0.2910 -0.4306
 1079SOL    HW114696   0.767   2.453   8.833  2.1253 -0.4587 -1.3355
 1079SOL    HW214697   0.879   2.549   8.786  0.2497 -1.3366  1.3894
 1080SOL     OW14698   1.729   2.224   1.051 -0.5992 -0.0883 -0.3455
 1080SOL    HW114699   1.768   2.175   1.124  0.9161  2.3508  0.4962
 1080SOL    HW214700   1.791   2.292   1.025  0.1392  0.2812  2.3063
 1081SOL     OW14701   2.952   1.668   5.509 -0.0544  0.3299  0.2863
 1081SOL    HW114702   3.036   1.655   5.551  1.7069  0.5354 -3.1565
 1081SOL    HW214703   2.976   1.655   5.417 -0.7670 -0.0136  0.1466
 1082SOL     OW14704   4.459   0.379  15.298 -0.6381 -0.2458  0.3132
 1082SOL    HW114705   4.412   0.334  15.229  0.2490 -1.8248  0.7504
 1082SOL    HW214706   4.440   0.322  15.372  0.1810 -1.1375 -0.1647
 1083SOL     OW14707   2.955   3.801   5.852  0.2525 -0.3893  0.2775
 1083SOL    HW114708   3.042   3.826   5.820 -0.4638  0.0374 -1.3462
 1083SOL    HW214709   2.915   3.812   5.766 -1.7164  0.5943  1.3152
 1084SOL     OW14710   4.621   1.542   6.856  0.1598 -0.9748  0.1687
 1084SOL    HW114711   4.684   1.593   6.906 -2.1636  3.5167 -1.5499
 1084SOL    HW214712   4.675   1.478   6.809  0.6003  0.2636 -0.9774
 1085SOL     OW14713   0.653   2.479   7.304  0.0160 -0.1800 -0.2782
 1085SOL    HW114714   0.629   2.388   7.318 -1.2047 -0.1338 -2.0407
 1085SOL    HW214715   0.627   2.496   7.213  1.0215 -1.2964 -0.7688
 1086SOL     OW14716   1.363   1.112   5.810 -0.9515  0.2701 -0.3053
 1086SOL    HW114717   1.285   1.161   5.785 -0.8520 -1.3176 -3.6412
 1086SOL    HW214718   1.424   1.182   5.831 -1.8399  1.1193 -0.5461
 1087SOL     OW14719   3.027   2.064   7.213 -0.2484 -0.1433 -0.0464
 1087SOL    HW114720   3.105   2.109   7.181 -1.4896  0.6639 -1.9470
 1087SOL    HW214721   2.985   2.111   7.285 -1.3764  0.4041 -1.0525
 1088SOL     OW14722   4.146   3.070   1.891 -0.5698 -0.6553 -0.5258
 1088SOL    HW114723   4.169   2.976   1.891  1.8841 -0.0819 -1.9899
 1088SOL    HW214724   4.062   3.070   1.846 -1.2235 -0.7807  0.7243
 1089SOL     OW14725   4.079   3.847   4.728 -0.6494 -0.0927  0.4551
 1089SOL    HW114726   4.067   3.941   4.735  0.4049  0.1693 -1.1847
 1089SOL    HW214727   4.078   3.830   4.634  0.4701  1.6098  0.1324
 1090SOL     OW14728   2.251   3.684   5.184  0.6454 -0.8278  0.8895
 1090SOL    HW114729   2.292   3.617   5.129 -2.3307 -0.1806 -2.0538
 1090SOL    HW214730   2.174   3.716   5.138  1.8388 -1.4450 -1.5259
 1091SOL     OW14731   1.142   4.181   2.220 -0.2093 -0.4187 -0.3588
 1091SOL    HW114732   1.150   4.125   2.297 -0.5493 -2.8655 -2.0795
 1091SOL    HW214733   1.074   4.138   2.167  0.5511 -2.8464  0.6007
 1092SOL     OW14734   0.236   2.132   2.626  0.1998  0.0818  0.1272
 1092SOL    HW114735   0.239   2.071   2.700  0.7154  1.6102  1.3486
 1092SOL    HW214736   0.271   2.071   2.560  0.9010 -0.2215  0.7845
 1093SOL     OW14737   2.523   4.666   7.922  0.6064  0.1929  0.0309
 1093SOL    HW114738   2.437   4.653   7.961  0.7157 -3.9331 -1.0530
 1093SOL    HW214739   2.500   4.698   7.835 -1.4345  1.9808  1.2243
 1094SOL     OW14740   2.967   4.609   8.835  0.6742 -0.2939 -0.2858
 1094SOL    HW114741   2.898   4.580   8.775 -0.7752  1.1753  0.6680
 1094SOL    HW214742   2.992   4.689   8.788 -0.5462  0.5375  0.4598
 1095SOL     OW14743   1.090   4.030  14.232  0.8427 -0.0438  0.2877
 1095SOL    HW114744   1.020   4.022  14.297 -0.8824  0.3313 -1.5435
 1095SOL    HW214745   1.049   4.034  14.146 -1.0033  0.7289  1.2179
 1096SOL     OW14746   3.128   2.016  15.138 -0.2704 -0.4949 -0.3612
 1096SOL    HW114747   3.093   2.102  15.118 -0.0261 -0.7356 -1.8306
 1096SOL    HW214748   3.170   1.982  15.059 -1.2454 -0.0614 -1.0711
 1097SOL     OW14749   2.835   0.051   0.980  0.9205  0.1295 -0.1627
 1097SOL    HW114750   2.847   0.146   0.976 -1.9195  0.6242  2.8559
 1097SOL    HW214751   2.920   0.007   0.984  1.3042  0.9906  1.2550
 1098SOL     OW14752   0.863   2.298   7.112 -0.1129  0.3219  0.3083
 1098SOL    HW114753   0.856   2.335   7.200  2.2629 -0.4219  0.8062
 1098SOL    HW214754   0.897   2.210   7.125 -0.1660  0.5198  1.8079
 1099SOL     OW14755   1.513   2.120  14.328 -0.5308  0.3404  0.3826
 1099SOL    HW114756   1.478   2.195  14.281 -3.3077  0.7477  3.0666
 1099SOL    HW214757   1.484   2.048  14.272  0.6340  1.8858 -2.1840
 1100SOL     OW14758   1.500   2.353  13.916  0.0127 -0.2021  0.4410
 1100SOL    HW114759   1.419   2.386  13.877 -0.3188 -2.8602 -1.1480
 1100SOL    HW214760   1.464   2.277  13.962 -1.2972  0.5234  0.6246
 1101SOL     OW14761   1.510   1.980   3.253  0.2719  0.1309  0.2702
 1101SOL    HW114762   1.564   2.058   3.266 -0.5565  0.4968  1.4831
 1101SOL    HW214763   1.572   1.915   3.287  0.7385  0.4592  0.0482
 1102SOL     OW14764   0.435   0.044   6.012 -0.0984  0.1902 -0.0821
 1102SOL    HW114765   0.357   0.046   5.957  0.3142  0.0994 -0.6796
 1102SOL    HW214766   0.416   4.681   6.055 -1.2123  0.9199  0.8220
 1103SOL     OW14767   1.388   0.236   3.778  0.3372 -0.1683 -0.3341
 1103SOL    HW114768   1.299   0.251   3.745 -0.3395  1.8319  2.4151
 1103SOL    HW214769   1.439   0.205   3.703  1.7212  0.2549  0.4445
 1104SOL     OW14770   2.802   2.812   4.518  0.0825 -0.1335  0.4868
 1104SOL    HW114771   2.862   2.795   4.445 -1.5946  0.2136 -0.9763
 1104SOL    HW214772   2.756   2.885   4.477  1.0042  0.7786  1.0738
 1105SOL     OW14773   2.282   2.341   8.738  0.1248 -0.2965 -0.1222
 1105SOL    HW114774   2.189   2.334   8.718  0.4654 -0.2849 -1.6907
 1105SOL    HW214775   2.316   2.257   8.707  0.8919 -0.8530  2.2223
 1106SOL     OW14776   0.692   4.173   3.623  0.0434  0.1541 -0.2055
 1106SOL    HW114777   0.643   4.092   3.635 -0.9218  1.0027  1.7250
 1106SOL    HW214778   0.764   4.172   3.686  0.3146 -0.1799 -0.5257
 1107SOL     OW14779   1.632   0.371  14.791 -0.1463 -0.2233 -0.1216
 1107SOL    HW114780   1.656   0.453  14.748 -0.8248 -0.9568 -1.8750
 1107SOL    HW214781   1.660   0.387  14.881 -0.3775 -0.4828 -0.0044
 1108SOL     OW14782   4.679   3.608  10.822  0.3829 -0.5482 -0.2703
 1108SOL    HW114783   0.038   3.640  10.780 -0.4423  0.4427 -1.0906
 1108SOL    HW214784   4.692   3.609  10.917 -1.2148  0.2443 -0.0466
 1109SOL     OW14785   3.776   0.698   1.312  0.0764 -0.0876 -0.0891
 1109SOL    HW114786   3.692   0.672   1.275  0.0643  0.7861 -0.6818
 1109SOL    HW214787   3.785   0.630   1.379  0.1858  2.2341  2.2492
 1110SOL     OW14788   1.801   2.406   3.048 -0.1296 -1.1845 -0.1045
 1110SOL    HW114789   1.793   2.395   3.143  1.5153  1.1750  0.3001
 1110SOL    HW214790   1.893   2.385   3.032  0.6722 -0.1795  3.2701
 1111SOL     OW14791   0.560   4.116   8.473 -0.0470  0.5478  0.3876
 1111SOL    HW114792   0.637   4.115   8.530  1.9479  0.6741 -2.3286
 1111SOL    HW214793   0.516   4.197   8.499 -1.5216 -0.1939  0.2270
 1112SOL     OW14794   2.252   2.882  15.559  0.7927  0.3275  0.1490
 1112SOL    HW114795   2.222   2.948  15.621 -0.5289  1.3034 -1.5424
 1112SOL    HW214796   2.288   2.812  15.614 -1.1980  1.1856  2.5572
 1113SOL     OW14797   0.377   0.102   1.491 -0.0416  0.7759 -0.1077
 1113SOL    HW114798   0.321   0.081   1.565 -1.2003  2.4073 -0.5147
 1113SOL    HW214799   0.434   0.026   1.483 -0.7231  0.2039  0.5547
 1114SOL     OW14800   1.797   3.707   2.668  0.4558  0.0673 -0.1471
 1114SOL    HW114801   1.736   3.666   2.606  0.5411  0.1588 -0.2911
 1114SOL    HW214802   1.877   3.660   2.643  0.0405  0.6348 -2.5176
 1115SOL     OW14803   2.027   1.217   2.293  0.6229  0.5704  0.6112
 1115SOL    HW114804   2.001   1.190   2.204  0.8569  0.7382  0.4912
 1115SOL    HW214805   2.078   1.141   2.322 -1.3688 -1.8037 -2.0840
 1116SOL     OW14806   0.547   0.446  15.130  0.5199 -0.0514  0.4120
 1116SOL    HW114807   0.471   0.401  15.092 -0.1808 -1.4461  3.4653
 1116SOL    HW214808   0.494   0.522  15.156  1.2784  0.9414 -0.9105
 1117SOL     OW14809   1.065   4.547   3.210  0.1099 -0.1240 -0.0826
 1117SOL    HW114810   1.071   4.623   3.267  1.6858 -0.2120 -0.1519
 1117SOL    HW214811   1.087   4.465   3.254 -0.0288  0.2458  0.6712
 1118SOL     OW14812   0.130   1.456   8.494  0.3185  0.4920  0.4822
 1118SOL    HW114813   0.211   1.428   8.452  0.3260  0.9901  0.1631
 1118SOL    HW214814   0.088   1.482   8.411  2.1948  0.2015 -0.5512
 1119SOL     OW14815   0.062   3.607   7.039  0.5734 -0.4409 -0.1748
 1119SOL    HW114816   0.081   3.631   7.130  0.4077  4.1402 -1.3308
 1119SOL    HW214817   0.150   3.606   7.002  0.0634  0.2780 -1.4273
 1120SOL     OW14818   4.393   3.956   5.414 -0.0830 -0.2296  0.6443
 1120SOL    HW114819   4.360   3.867   5.414 -0.4662 -0.0843 -1.1967
 1120SOL    HW214820   4.312   4.000   5.440  0.0493 -0.3320  1.2296
 1121SOL     OW14821   2.328   3.204   5.162  0.0086  0.0634  0.4015
 1121SOL    HW114822   2.319   3.212   5.067 -1.4197  1.0285  0.6052
 1121SOL    HW214823   2.286   3.284   5.194  2.6888  1.4312  0.5167
 1122SOL     OW14824   2.193   0.288   6.693  0.1113 -0.5022 -0.0197
 1122SOL    HW114825   2.250   0.349   6.645 -2.0465  1.3982 -0.1508
 1122SOL    HW214826   2.261   0.247   6.746  0.2659  0.8026  0.8034
 1123SOL     OW14827   0.716   2.200  10.781 -0.1867  0.4659 -0.0550
 1123SOL    HW114828   0.710   2.284  10.736  0.0401  0.1564 -0.6697
 1123SOL    HW214829   0.782   2.212  10.849  0.3571 -0.4938 -0.4045
 1124SOL     OW14830   1.600   2.173   3.607 -0.1226  0.1230 -0.0936
 1124SOL    HW114831   1.639   2.184   3.520 -0.0984 -0.5742 -0.1779
 1124SOL    HW214832   1.579   2.079   3.605 -0.5842  0.2372 -0.6350
 1125SOL     OW14833   0.159   4.152   8.627 -0.2381  0.5195 -0.0235
 1125SOL    HW114834   0.078   4.154   8.678 -0.3261  1.4841 -0.2113
 1125SOL    HW214835   0.219   4.113   8.690 -0.7650  1.0975  0.8333
 1126SOL     OW14836   3.553   2.152   1.124 -0.1559  0.0979 -0.0300
 1126SOL    HW114837   3.500   2.188   1.053 -0.2716 -1.4511 -0.7329
 1126SOL    HW214838   3.541   2.058   1.109 -1.9064  0.5976 -1.7317
 1127SOL     OW14839   0.905   2.307   0.583 -0.0978 -0.3372 -0.1889
 1127SOL    HW114840   0.842   2.379   0.586 -0.6979 -0.9893  2.3058
 1127SOL    HW214841   0.925   2.322   0.490 -0.7435  1.1772 -0.0839
 1128SOL     OW14842   4.531   3.621   6.940  0.2923 -0.3584  0.0332
 1128SOL    HW114843   4.547   3.689   6.876 -1.8189 -1.6638 -1.8626
 1128SOL    HW214844   4.620   3.611   6.975 -0.2411 -1.7196  1.0087
 1129SOL     OW14845   2.057   4.199   4.812  0.0603 -0.0195 -0.1509
 1129SOL    HW114846   2.147   4.212   4.783 -0.2425  2.1029 -0.1689
 1129SOL    HW214847   2.070   4.155   4.896 -0.2585  1.7432  0.8384
 1130SOL     OW14848   3.828   0.001   0.767 -0.1829  0.4193 -0.1868
 1130SOL    HW114849   3.809   4.698   0.676 -2.7086  2.3802 -0.1665
 1130SOL    HW214850   3.895   4.660   0.796 -1.9390 -1.6379 -0.3969
 1131SOL     OW14851   4.302   2.839   5.149  0.0042  0.1143  0.9513
 1131SOL    HW114852   4.246   2.902   5.195  0.4750  0.2047  1.4069
 1131SOL    HW214853   4.379   2.852   5.205  0.4897  1.9599 -0.1437
 1132SOL     OW14854   2.455   1.895   3.392  0.7741  0.1705 -0.3459
 1132SOL    HW114855   2.500   1.880   3.309 -0.0929  2.1999 -1.1970
 1132SOL    HW214856   2.441   1.990   3.401 -0.7425 -0.0079 -0.8454
 1133SOL     OW14857   1.216   1.738   2.536 -0.5086 -0.2578 -0.1295
 1133SOL    HW114858   1.228   1.832   2.523 -2.1150  0.4108  3.2179
 1133SOL    HW214859   1.274   1.696   2.473  0.4381  0.4767  0.2415
 1134SOL     OW14860   4.592   4.402   7.742 -0.9302  0.3341 -0.0997
 1134SOL    HW114861   4.532   4.328   7.754 -0.7989  0.2717  0.1808
 1134SOL    HW214862   4.675   4.356   7.752 -0.5852  0.7940 -0.8695
 1135SOL     OW14863   2.201   0.835   3.320 -0.3399 -0.3892  0.1962
 1135SOL    HW114864   2.252   0.756   3.337  0.0369 -0.4654 -1.3035
 1135SOL    HW214865   2.250   0.892   3.379  0.5160 -0.8237 -0.0946
 1136SOL     OW14866   0.983   0.209   4.004 -0.3906  0.4122 -0.2860
 1136SOL    HW114867   1.079   0.207   4.005 -0.4265 -0.1630  2.5174
 1136SOL    HW214868   0.962   0.194   4.096  1.3866  0.6590  0.1632
 1137SOL     OW14869   0.886   0.714   9.078 -0.4081 -0.5790  0.3668
 1137SOL    HW114870   0.825   0.785   9.100  0.4689  0.6762 -1.2122
 1137SOL    HW214871   0.885   0.726   8.983  0.2010  0.5391  0.5068
 1138SOL     OW14872   1.299   2.777   8.458 -0.2215 -0.1980  0.0931
 1138SOL    HW114873   1.341   2.744   8.537 -1.3451 -0.1929  0.6966
 1138SOL    HW214874   1.339   2.864   8.454  2.2317 -1.3268  0.5600
 1139SOL     OW14875   4.045   1.014   0.387 -0.4064 -0.0713  0.0475
 1139SOL    HW114876   4.110   0.970   0.331 -1.0611 -2.7826  1.4217
 1139SOL    HW214877   3.983   0.942   0.397 -2.6114  2.0128  1.5094
 1140SOL     OW14878   3.842   4.613  15.348 -0.0316  0.1127  0.3439
 1140SOL    HW114879   3.878   4.535  15.391  1.5157 -0.1546 -1.4420
 1140SOL    HW214880   3.751   4.622  15.378 -0.0633  1.5407 -0.1924
 1141SOL     OW14881   1.835   2.841  17.606  0.0395 -0.9236  0.8074
 1141SOL    HW114882   1.888   2.771  17.645 -0.9061 -1.7272  0.6525
 1141SOL    HW214883   1.821   2.896  17.683  2.9429  1.7835 -0.5948
 1142SOL     OW14884   2.026   3.145   6.399 -0.1528 -0.8608  0.5767
 1142SOL    HW114885   2.016   3.059   6.439 -2.6546 -0.7202  0.2773
 1142SOL    HW214886   2.082   3.198   6.456  0.7332 -0.9121 -0.2521
 1143SOL     OW14887   0.333   3.558   8.201 -0.1331 -0.3850 -0.5952
 1143SOL    HW114888   0.254   3.610   8.212  0.8333  0.5002  2.2701
 1143SOL    HW214889   0.394   3.627   8.176 -1.0577  0.4308 -0.5932
 1144SOL     OW14890   4.029   0.544   5.439  0.3326  0.1030 -0.2457
 1144SOL    HW114891   4.021   0.586   5.524  1.6110  1.3039 -0.7140
 1144SOL    HW214892   4.124   0.551   5.436  0.3975  0.0871  1.7446
 1145SOL     OW14893   1.907   2.560   6.113  0.0108  0.1335  0.0534
 1145SOL    HW114894   1.990   2.571   6.160 -0.2472 -1.8243  0.9480
 1145SOL    HW214895   1.876   2.480   6.155  1.9474 -1.6891 -1.9925
 1146SOL     OW14896   2.250   3.573   4.425  0.2913 -0.1786  0.4518
 1146SOL    HW114897   2.240   3.615   4.511  0.5095 -3.0720  1.8737
 1146SOL    HW214898   2.207   3.632   4.363 -1.7963 -1.1019  1.0311
 1147SOL     OW14899   2.495   4.661   4.261 -0.2194 -0.2470  0.1692
 1147SOL    HW114900   2.418   4.719   4.260  0.0618  0.0994 -0.8157
 1147SOL    HW214901   2.457   4.594   4.318 -1.2008  0.9064  0.8787
 1148SOL     OW14902   2.266   0.037   7.372 -0.0032  0.5118  0.1738
 1148SOL    HW114903   2.287   4.670   7.340  2.9122  0.1497  3.1585
 1148SOL    HW214904   2.198   0.012   7.434  0.2244 -1.2870 -0.3213
 1149SOL     OW14905   1.646   3.930   0.753  0.2259 -0.0269  0.2053
 1149SOL    HW114906   1.673   3.850   0.799  0.9716 -0.4148 -0.9131
 1149SOL    HW214907   1.681   3.913   0.666  0.5987  0.9418  0.1630
 1150SOL     OW14908   2.977   3.055  16.967 -0.6093 -0.0500  0.1967
 1150SOL    HW114909   2.967   2.985  17.032 -1.2756  1.4053  1.6594
 1150SOL    HW214910   3.054   3.099  17.003 -0.5031 -0.6869  0.7512
 1151SOL     OW14911   2.989   0.344   2.735 -0.7226  0.6236  0.1197
 1151SOL    HW114912   3.000   0.439   2.727  0.1944  0.6376  1.5000
 1151SOL    HW214913   3.064   0.312   2.784  0.6095  0.4446 -2.0269
 1152SOL     OW14914   0.593   0.508  13.691  0.0480 -0.8022 -0.2296
 1152SOL    HW114915   0.610   0.535  13.782  1.4920 -2.2980 -0.0467
 1152SOL    HW214916   0.505   0.542  13.682 -0.1256 -0.7025  1.7400
 1153SOL     OW14917   3.011   3.955  11.799 -0.8509  0.1262 -0.1293
 1153SOL    HW114918   2.933   3.911  11.834 -1.8432  0.2410 -2.2340
 1153SOL    HW214919   3.002   4.045  11.830 -0.8679 -0.3854  1.3775
 1154SOL     OW14920   3.462   0.065   2.356  0.0596 -0.4457  0.3445
 1154SOL    HW114921   3.388   0.076   2.295 -0.2994  0.6182  0.9685
 1154SOL    HW214922   3.534   0.061   2.292  1.2905  0.9418  1.6523
 1155SOL     OW14923   4.321   0.556   0.242 -0.6086 -0.6179 -0.1640
 1155SOL    HW114924   4.410   0.588   0.251 -0.9918 -0.1222  1.8994
 1155SOL    HW214925   4.324   0.498   0.166  0.0954  2.4271 -2.4761
 1156SOL     OW14926   3.060   3.228   8.361  0.9577 -0.6854 -0.2121
 1156SOL    HW114927   3.052   3.174   8.439 -1.4265  2.4417  1.7372
 1156SOL    HW214928   3.114   3.304   8.386  0.1689 -0.4833  0.9126
 1157SOL     OW14929   4.717   3.719  15.793  0.5221 -0.4721  0.1389
 1157SOL    HW114930   4.661   3.642  15.788  0.2722 -0.2438 -0.5767
 1157SOL    HW214931   0.081   3.674  15.795  0.6174 -0.2409  1.9378
 1158SOL     OW14932   2.005   4.400   6.996  0.3210  0.0857  0.3462
 1158SOL    HW114933   1.911   4.392   7.012  0.3677 -1.8249 -0.3319
 1158SOL    HW214934   2.048   4.360   7.072 -0.9350  2.8125  2.4929
 1159SOL     OW14935   4.238   4.503  13.179  0.1001  0.2843  0.2363
 1159SOL    HW114936   4.298   4.518  13.252  1.0913 -0.9318 -0.3086
 1159SOL    HW214937   4.164   4.547  13.221 -0.3881  0.5889 -0.9281
 1160SOL     OW14938   2.246   2.392  16.521 -0.4863 -0.0305 -0.5909
 1160SOL    HW114939   2.295   2.406  16.441  0.5252 -1.9243 -0.3249
 1160SOL    HW214940   2.296   2.322  16.563 -0.8070 -0.4302 -0.8751
 1161SOL     OW14941   0.810   0.317  11.768 -0.3489  0.4338  0.7621
 1161SOL    HW114942   0.772   0.394  11.725 -1.4826 -1.1441 -1.0481
 1161SOL    HW214943   0.863   0.337  11.845 -1.8836  0.9831  1.6889
 1162SOL     OW14944   0.015   4.192   3.833 -1.1288  0.0584 -0.5958
 1162SOL    HW114945   0.076   4.240   3.777  1.2353  0.4675  2.3696
 1162SOL    HW214946   4.672   4.168   3.765 -0.4272 -1.0805 -0.8505
 1163SOL     OW14947   1.564   1.270  11.815 -0.0292  0.5137  0.4749
 1163SOL    HW114948   1.583   1.349  11.866  1.7630  0.0575  0.5029
 1163SOL    HW214949   1.593   1.202  11.876  0.4222  0.4248  0.1632
 1164SOL     OW14950   0.899   2.125   8.812 -0.4007  0.8019  0.0940
 1164SOL    HW114951   0.920   2.164   8.897  0.4574 -0.1888  0.3331
 1164SOL    HW214952   0.920   2.036   8.839  2.1052  1.3253 -0.1018
 1165SOL     OW14953   3.261   2.321   6.596 -0.0282  0.5475 -0.0145
 1165SOL    HW114954   3.237   2.395   6.652  0.9180  1.1929 -0.4751
 1165SOL    HW214955   3.283   2.369   6.516  1.4078  3.0111  1.8482
 1166SOL     OW14956   3.557   0.205   4.102  0.1510 -0.4071 -0.6480
 1166SOL    HW114957   3.652   0.209   4.107  0.1349 -0.7082 -0.1052
 1166SOL    HW214958   3.534   0.141   4.170  0.2887  1.4686  1.1706
 1167SOL     OW14959   3.502   0.347   1.137 -0.5364  0.4850  0.0342
 1167SOL    HW114960   3.581   0.389   1.171  0.3006 -0.9522 -0.1560
 1167SOL    HW214961   3.485   0.406   1.063 -0.1331  0.2432 -0.2500
 1168SOL     OW14962   1.673   3.678   0.285 -0.0276  0.3512 -0.1730
 1168SOL    HW114963   1.710   3.728   0.212  0.1765 -1.3368 -1.2367
 1168SOL    HW214964   1.605   3.621   0.250  0.2883  0.1436 -0.4523
 1169SOL     OW14965   0.198   1.091  13.903 -0.4384  0.3023 -0.2064
 1169SOL    HW114966   0.251   1.081  13.982  1.3546  0.9207 -1.3133
 1169SOL    HW214967   0.192   1.006  13.861 -1.7769 -0.7741  2.1792
 1170SOL     OW14968   2.054   0.142   1.913  0.0764 -0.2410  0.6118
 1170SOL    HW114969   2.045   0.238   1.908 -0.0230 -0.2394  0.8361
 1170SOL    HW214970   2.080   0.113   1.825 -1.4151 -3.7871  1.3539
 1171SOL     OW14971   1.623   1.477  10.886 -0.6003 -0.1381  0.2619
 1171SOL    HW114972   1.605   1.527  10.966 -3.0220 -1.3844  0.5074
 1171SOL    HW214973   1.599   1.392  10.921 -2.0494  0.5745  1.0244
 1172SOL     OW14974   2.768   3.285   7.662 -0.1959  0.3939  0.1830
 1172SOL    HW114975   2.810   3.362   7.625  0.9291 -0.5966 -0.6168
 1172SOL    HW214976   2.799   3.296   7.752  1.0822 -1.8320  0.0305
 1173SOL     OW14977   4.538   0.100   9.118  0.1481 -0.0667 -0.1774
 1173SOL    HW114978   4.455   0.147   9.110 -1.0410 -1.8578  1.7083
 1173SOL    HW214979   4.596   0.149   9.060 -1.3598  0.1312 -1.5216
 1174SOL     OW14980   0.609   4.338   3.937  0.4383 -0.4140  0.1573
 1174SOL    HW114981   0.623   4.387   4.018 -3.7676  0.1664  0.5436
 1174SOL    HW214982   0.563   4.407   3.889 -2.2788 -2.5098 -0.2246
 1175SOL     OW14983   2.697   0.809  16.610  0.0225 -0.2901  0.1921
 1175SOL    HW114984   2.745   0.889  16.629 -0.0312 -0.5353  1.3199
 1175SOL    HW214985   2.763   0.743  16.632  0.9126  0.6175  0.2119
 1176SOL     OW14986   0.715   3.743   5.876  0.8534 -0.0496 -0.1279
 1176SOL    HW114987   0.769   3.669   5.847 -3.4930 -3.4498  0.5118
 1176SOL    HW214988   0.638   3.735   5.819  0.8356  0.0317 -0.1146
 1177SOL     OW14989   0.356   4.119   3.380  0.0408 -0.4037 -1.2991
 1177SOL    HW114990   0.266   4.099   3.403  0.3194  0.8449  0.9017
 1177SOL    HW214991   0.396   4.035   3.401 -2.1992 -1.0186  0.4719
 1178SOL     OW14992   4.655   1.879  12.434  0.5848  0.5287  0.2889
 1178SOL    HW114993   4.591   1.868  12.363  0.8236  0.8283  0.0233
 1178SOL    HW214994   4.609   1.937  12.495  1.2094  1.3734 -0.0413
 1179SOL     OW14995   4.658   0.617   4.597  0.3455 -0.2864 -0.4581
 1179SOL    HW114996   4.661   0.555   4.669 -0.1497 -1.4103 -1.4152
 1179SOL    HW214997   0.022   0.663   4.603  1.0161 -1.2499 -2.5270
 1180SOL     OW14998   2.108   0.996  10.290  0.1407  0.2835  0.6705
 1180SOL    HW114999   2.131   1.014  10.382  0.3545 -0.3964  0.7496
 1180SOL    HW215000   2.160   0.917  10.277  3.1152  1.9825  2.1477
 1181SOL     OW15001   1.758   0.802  14.952  0.1572  0.2883  0.1634
 1181SOL    HW115002   1.834   0.768  14.998  0.5566  3.3352  1.7618
 1181SOL    HW215003   1.768   0.892  14.983  2.9113  0.6760 -1.8360
 1182SOL     OW15004   2.725   3.695   2.805  0.2017 -0.1207  0.3815
 1182SOL    HW115005   2.660   3.648   2.753  1.3567 -2.0848  0.7389
 1182SOL    HW215006   2.781   3.620   2.826 -0.5647 -1.2820 -1.7284
 1183SOL     OW15007   1.911   0.814   3.373 -0.5791  0.3060  0.1606
 1183SOL    HW115008   1.994   0.819   3.326 -1.0131 -1.7844 -0.8354
 1183SOL    HW215009   1.876   0.731   3.341 -2.1009  0.7420  0.7094
 1184SOL     OW15010   0.131   4.616   5.590 -0.2194  0.0755  0.8785
 1184SOL    HW115011   0.158   4.579   5.674  0.6474  2.1504  1.5112
 1184SOL    HW215012   0.179   4.698   5.588 -1.2617  0.6865  0.9726
 1185SOL     OW15013   2.641   0.452   3.546 -0.1603  0.3202  0.1312
 1185SOL    HW115014   2.629   0.494   3.632  0.2698 -0.4237  0.5547
 1185SOL    HW215015   2.724   0.408   3.566 -1.2968 -1.1029  1.7123
 1186SOL     OW15016   0.353   3.074   7.063  0.3716 -0.4820 -0.0073
 1186SOL    HW115017   0.430   3.096   7.010  1.1116  0.0977  1.2923
 1186SOL    HW215018   0.346   2.980   7.044  0.6065 -0.4560 -0.2242
 1187SOL     OW15019   0.413   0.990   5.813  0.3720 -0.3692  0.1036
 1187SOL    HW115020   0.423   0.967   5.721  2.8410 -0.4905  0.4152
 1187SOL    HW215021   0.337   0.932   5.823 -1.3096  1.5870 -1.1792
 1188SOL     OW15022   1.361   4.028  12.506 -0.2753 -0.4412  0.7006
 1188SOL    HW115023   1.337   4.120  12.509 -2.7233 -1.0342 -0.6001
 1188SOL    HW215024   1.334   4.001  12.419  3.6873 -1.4610 -0.1954
 1189SOL     OW15025   1.094   0.308  16.501  0.1601  0.1741 -0.2497
 1189SOL    HW115026   1.007   0.268  16.507 -0.5376  1.7588  0.2063
 1189SOL    HW215027   1.072   0.347  16.417  3.5019  1.0980 -0.6683
 1190SOL     OW15028   2.882   3.410   8.812 -0.0795 -0.1733  0.4157
 1190SOL    HW115029   2.939   3.447   8.744 -0.5038 -0.7513 -0.2573
 1190SOL    HW215030   2.873   3.495   8.856 -0.0541 -0.3179  0.6927
 1191SOL     OW15031   3.587   4.469   1.441  0.1718 -0.1082  0.4451
 1191SOL    HW115032   3.637   4.539   1.399 -0.2480 -0.8548 -1.2961
 1191SOL    HW215033   3.505   4.515   1.455 -1.3295 -2.6809  0.1002
 1192SOL     OW15034   4.005   1.640  16.588  0.0852  0.1433  0.3446
 1192SOL    HW115035   4.029   1.731  16.608 -0.8466  0.2563  0.9574
 1192SOL    HW215036   4.087   1.595  16.606  0.1286 -0.3806 -1.1473
 1193SOL     OW15037   1.749   4.695   5.111 -0.2334  0.3586 -0.4141
 1193SOL    HW115038   1.723   4.669   5.023  2.2693 -1.9456 -0.4989
 1193SOL    HW215039   1.769   4.607   5.143 -0.6256  0.3977 -0.0626
 1194SOL     OW15040   1.986   4.052  16.582 -0.7514  0.3845  0.2960
 1194SOL    HW115041   2.015   4.141  16.562 -2.2789  1.4228  2.6639
 1194SOL    HW215042   2.036   4.005  16.515 -0.0491 -0.8212  1.6429
 1195SOL     OW15043   4.352   1.426  11.620  0.1091 -0.1132 -0.0739
 1195SOL    HW115044   4.431   1.373  11.611  0.1940 -0.0160  0.1093
 1195SOL    HW215045   4.365   1.499  11.560 -1.5491  0.1885 -0.0692
 1196SOL     OW15046   4.331   1.354  12.800 -0.8796  0.2312  0.3209
 1196SOL    HW115047   4.354   1.285  12.863  0.7394 -0.1993 -0.7240
 1196SOL    HW215048   4.280   1.410  12.858  0.9065  1.7970  0.3962
 1197SOL     OW15049   3.606   3.981   5.653 -0.1188  0.9398 -0.5312
 1197SOL    HW115050   3.618   4.003   5.561 -2.2214 -3.3566 -1.8520
 1197SOL    HW215051   3.628   4.064   5.694 -0.1772  0.4469  0.5010
 1198SOL     OW15052   0.189   4.363   3.667  0.9762  0.3108 -0.0176
 1198SOL    HW115053   0.278   4.352   3.634  2.2706  3.0778  2.5045
 1198SOL    HW215054   0.190   4.430   3.736  0.2880  0.4302 -0.1240
 1199SOL     OW15055   1.889   2.123   9.196  0.2235  0.0455  0.1313
 1199SOL    HW115056   1.926   2.075   9.271 -0.3774  2.5406  2.0206
 1199SOL    HW215057   1.968   2.106   9.145  0.8380  2.4187  0.3271
 1200SOL     OW15058   4.193   0.304   9.993  0.4587  0.5129 -0.4756
 1200SOL    HW115059   4.186   0.390   9.952 -0.7602  0.9972  0.7374
 1200SOL    HW215060   4.107   0.270   9.965  0.7524 -0.2097 -0.5070
 1201SOL     OW15061   2.312   0.373   7.251  0.6784 -0.0817 -0.0265
 1201SOL    HW115062   2.361   0.291   7.249 -0.9203 -1.0324 -0.5418
 1201SOL    HW215063   2.367   0.432   7.201  2.0879 -1.7366 -0.4236
 1202SOL     OW15064   1.631   0.008  16.577 -0.3331 -0.3973  0.1840
 1202SOL    HW115065   1.606   0.072  16.644  0.2523  0.4778 -0.4408
 1202SOL    HW215066   1.562   4.662  16.585 -0.6303 -0.2531 -1.1287
 1203SOL     OW15067   2.660   1.698   5.081  0.4845 -0.4038  0.0737
 1203SOL    HW115068   2.692   1.613   5.049  0.4841 -0.9316  1.4735
 1203SOL    HW215069   2.725   1.754   5.039 -1.8928  1.9167 -0.5289
 1204SOL     OW15070   0.671   2.247  16.969 -0.6384 -0.1610  0.2082
 1204SOL    HW115071   0.727   2.235  17.046  0.2890 -0.1675 -0.4761
 1204SOL    HW215072   0.632   2.160  16.970  0.6180 -0.7271 -3.4047
 1205SOL     OW15073   0.314   2.719   9.692  0.3613 -0.8580  0.1495
 1205SOL    HW115074   0.355   2.796   9.731  2.7369 -2.0780  0.0481
 1205SOL    HW215075   0.267   2.677   9.764 -2.5266  0.3150 -1.0418
 1206SOL     OW15076   3.576   0.132   0.980 -0.2912  0.1958  0.1935
 1206SOL    HW115077   3.642   0.108   1.044 -0.0744  2.7294  0.9337
 1206SOL    HW215078   3.529   0.198   1.031  0.3153  0.1620  0.7894
 1207SOL     OW15079   3.807   4.148   4.906 -0.2058 -0.1039 -0.1545
 1207SOL    HW115080   3.827   4.143   5.000 -0.7844 -0.3820 -0.0488
 1207SOL    HW215081   3.728   4.096   4.913  1.6650 -2.5874  2.4578
 1208SOL     OW15082   1.020   2.595   4.438  0.5578 -0.3776  0.2378
 1208SOL    HW115083   1.055   2.522   4.387  1.3438  1.9748 -2.6205
 1208SOL    HW215084   0.980   2.542   4.506 -1.2964  1.5152  0.6157
 1209SOL     OW15085   2.471   2.434   5.519  0.6607  0.4974  0.3664
 1209SOL    HW115086   2.438   2.447   5.429  0.7006 -1.5958  0.0615
 1209SOL    HW215087   2.468   2.521   5.560 -1.0036  0.9712 -0.7240
 1210SOL     OW15088   2.139   0.094  12.391  0.2470 -0.6616 -0.7171
 1210SOL    HW115089   2.061   0.118  12.440 -0.6279 -1.4980 -1.7288
 1210SOL    HW215090   2.111   0.009  12.358 -0.9432 -2.0812  3.9587
 1211SOL     OW15091   1.812   0.705   9.230  0.0562 -0.1643  0.2573
 1211SOL    HW115092   1.809   0.792   9.271 -1.8253  0.2336 -0.7226
 1211SOL    HW215093   1.897   0.676   9.263  0.3497  1.5318  1.0226
 1212SOL     OW15094   0.280   3.312   9.474 -0.1346 -0.8125 -0.1320
 1212SOL    HW115095   0.185   3.300   9.467 -0.3369  2.1318 -2.2611
 1212SOL    HW215096   0.316   3.229   9.505 -0.4914 -2.2436 -3.5683
 1213SOL     OW15097   1.752   0.256   8.442  0.1893  0.1107 -0.0971
 1213SOL    HW115098   1.672   0.252   8.494 -0.0746 -0.2125 -0.5201
 1213SOL    HW215099   1.763   0.165   8.411  1.0360  0.5725 -1.1787
 1214SOL     OW15100   1.276   0.289  11.968 -0.2303 -0.0935  0.5566
 1214SOL    HW115101   1.299   0.231  11.895  1.0131  0.5793  0.4298
 1214SOL    HW215102   1.257   0.223  12.035 -0.5477 -0.5997 -0.0313
 1215SOL     OW15103   1.595   3.639   7.972  0.2873 -0.0009 -0.3647
 1215SOL    HW115104   1.566   3.626   7.882  2.1506 -0.2387 -0.9334
 1215SOL    HW215105   1.639   3.556   7.986 -0.9770 -0.3786  1.3015
 1216SOL     OW15106   1.059   0.067  16.267 -1.4475  0.6529  0.3898
 1216SOL    HW115107   1.091   0.032  16.184  0.2934  0.7835  1.0179
 1216SOL    HW215108   1.026   0.155  16.248  0.4356  1.2739  0.0408
 1217SOL     OW15109   0.317   4.687   2.155 -0.7343  0.0946  0.6886
 1217SOL    HW115110   0.335   0.059   2.171  3.5025 -0.6273  0.2183
 1217SOL    HW215111   0.221   4.683   2.159 -0.7631  2.0047  2.0062
 1218SOL     OW15112   1.212   0.680   0.995 -0.2888  0.1046 -0.5592
 1218SOL    HW115113   1.281   0.627   1.035  0.7851  2.5809  0.8044
 1218SOL    HW215114   1.247   0.768   1.006  0.9307 -0.6356  1.3735
 1219SOL     OW15115   0.785   0.441   5.487 -0.2727  0.5461 -0.1368
 1219SOL    HW115116   0.825   0.440   5.400 -0.9867 -1.0288 -0.4407
 1219SOL    HW215117   0.864   0.444   5.540 -0.4734 -3.0536  0.3196
 1220SOL     OW15118   4.002   0.436   2.069  0.0072  0.2050  0.1280
 1220SOL    HW115119   3.966   0.351   2.095 -0.0456 -0.6519 -2.7657
 1220SOL    HW215120   3.981   0.490   2.146 -0.8870  0.6389 -0.4193
 1221SOL     OW15121   2.762   0.381  10.068 -0.5063  0.4792  0.4645
 1221SOL    HW115122   2.819   0.457  10.068 -0.6669  0.5969 -3.8721
 1221SOL    HW215123   2.752   0.366  10.162  0.3816 -1.2717  0.2811
 1222SOL     OW15124   2.630   1.989   2.033  0.7006  0.5333 -0.4564
 1222SOL    HW115125   2.620   2.041   2.113 -1.1063 -1.2153  0.4801
 1222SOL    HW215126   2.614   2.059   1.970 -0.6048  0.1200 -0.5782
 1223SOL     OW15127   2.893   2.576   2.546  0.0885 -0.0185  0.3152
 1223SOL    HW115128   2.964   2.535   2.596 -0.1436  2.2913  2.5437
 1223SOL    HW215129   2.928   2.665   2.537  1.6897 -0.7676 -0.7844
 1224SOL     OW15130   0.378   4.262   1.711 -0.7002 -0.1236  0.1436
 1224SOL    HW115131   0.331   4.186   1.677 -0.8962  1.7208 -3.7027
 1224SOL    HW215132   0.432   4.214   1.774 -0.9618 -1.3069 -0.5473
 1225SOL     OW15133   3.673   1.853   1.623  0.1151  0.3273 -0.7016
 1225SOL    HW115134   3.582   1.883   1.617  0.7076  1.9543 -1.5619
 1225SOL    HW215135   3.689   1.828   1.532 -0.1102  2.2304 -1.2776
 1226SOL     OW15136   2.994   4.583   3.073 -0.2489 -0.3485  0.7363
 1226SOL    HW115137   2.994   4.656   3.135 -1.6284  0.6211 -0.4044
 1226SOL    HW215138   3.035   4.517   3.129  2.6849  0.0160 -0.9607
 1227SOL     OW15139   2.447   3.169  10.131 -0.0073 -0.4391  0.3630
 1227SOL    HW115140   2.510   3.240  10.147  0.0082 -0.1040 -1.1725
 1227SOL    HW215141   2.384   3.167  10.203  0.4354  0.9180  0.7794
 1228SOL     OW15142   0.731   0.948   0.683  0.4419  0.0996 -0.2331
 1228SOL    HW115143   0.745   0.854   0.687 -0.4022 -0.0130  0.0489
 1228SOL    HW215144   0.794   0.980   0.747  1.1597 -1.1165 -0.3358
 1229SOL     OW15145   4.558   0.584  12.211  0.3060 -0.6993  0.4164
 1229SOL    HW115146   4.496   0.616  12.277 -0.9609  2.0531 -2.0959
 1229SOL    HW215147   4.636   0.594  12.267  0.5389  0.4575 -0.1115
 1230SOL     OW15148   2.231   1.189   2.636 -0.0538  0.2957  0.8168
 1230SOL    HW115149   2.142   1.225   2.639  0.4131  1.4960 -0.0080
 1230SOL    HW215150   2.208   1.112   2.688  1.6137  0.2166  1.4430
 1231SOL     OW15151   1.863   2.307  12.038  0.2521 -0.4663  0.2599
 1231SOL    HW115152   1.854   2.235  12.101  1.3605 -0.2135  0.7096
 1231SOL    HW215153   1.775   2.301  12.000  0.7108  2.0454 -1.1775
 1232SOL     OW15154   4.628   1.251   5.245 -0.6351  0.2566 -0.1292
 1232SOL    HW115155   4.623   1.332   5.194 -1.9042  0.5650  0.4882
 1232SOL    HW215156   4.549   1.204   5.218 -0.5851  0.7337 -1.1138
 1233SOL     OW15157   1.895   1.389   9.081  0.2309  0.0611 -0.9096
 1233SOL    HW115158   1.812   1.436   9.087  2.0360  3.1788 -0.3152
 1233SOL    HW215159   1.919   1.391   9.173 -1.6156 -0.5950 -0.4082
 1234SOL     OW15160   1.759   1.674   4.663  0.0181  0.3881  0.1242
 1234SOL    HW115161   1.768   1.734   4.737 -1.6769  0.9008 -0.0766
 1234SOL    HW215162   1.794   1.730   4.594  1.2294 -1.8003 -1.0443
 1235SOL     OW15163   2.860   1.568   2.712 -0.1526 -0.6893  0.2078
 1235SOL    HW115164   2.793   1.632   2.688 -0.1726 -0.1637  1.6578
 1235SOL    HW215165   2.916   1.624   2.766  2.2877 -2.4846 -0.4584
 1236SOL     OW15166   3.045   2.854  13.292 -0.2857  0.4590 -0.2102
 1236SOL    HW115167   3.032   2.934  13.241 -1.0251 -0.3723 -1.3423
 1236SOL    HW215168   3.078   2.889  13.375 -0.1487  0.8258 -0.4194
 1237SOL     OW15169   3.352   1.103   0.274 -0.4226 -0.4972 -0.9034
 1237SOL    HW115170   3.320   1.102   0.364  2.3875  1.4181  0.1159
 1237SOL    HW215171   3.287   1.051   0.227 -2.2846  1.0132 -0.0368
 1238SOL     OW15172   2.982   3.331   7.141 -0.3434  0.6170  0.3230
 1238SOL    HW115173   2.887   3.344   7.138 -0.3349  1.5021  3.7879
 1238SOL    HW215174   3.005   3.420   7.114  0.8332 -0.9589 -3.7036
 1239SOL     OW15175   4.323   0.193  12.022  0.1652 -0.4609 -0.7602
 1239SOL    HW115176   4.229   0.201  12.041  0.1340  0.7400 -1.4682
 1239SOL    HW215177   4.339   0.102  12.048 -0.3316 -0.2723  0.2320
 1240SOL     OW15178   2.908   3.669   3.399  0.4947  0.2339  0.4017
 1240SOL    HW115179   2.829   3.708   3.360  0.6017 -1.4563 -1.5440
 1240SOL    HW215180   2.967   3.666   3.323 -1.0103 -0.2655 -0.7687
 1241SOL     OW15181   4.144   3.698   7.113  0.6059 -0.4848  0.4474
 1241SOL    HW115182   4.197   3.621   7.092  2.3225  0.9998 -0.7738
 1241SOL    HW215183   4.057   3.660   7.104  0.2027  0.4137  0.5942
 1242SOL     OW15184   4.032   0.299  10.933 -0.2298 -0.3854 -0.2103
 1242SOL    HW115185   4.106   0.347  10.896 -0.0327 -0.3094  0.2691
 1242SOL    HW215186   4.067   0.211  10.923 -0.1408 -0.5536  1.5500
 1243SOL     OW15187   0.049   3.476   6.698 -0.0342  0.1157 -0.0782
 1243SOL    HW115188   0.043   3.388   6.661 -1.3685 -0.1499  0.8250
 1243SOL    HW215189   4.713   3.482   6.774  0.0483 -0.5036  0.0266
 1244SOL     OW15190   0.570   0.282  11.506  0.0840 -0.0412 -0.1407
 1244SOL    HW115191   0.662   0.258  11.493  0.3023  0.0934  1.1763
 1244SOL    HW215192   0.555   0.352  11.443 -2.8699  0.3884  1.0681
 1245SOL     OW15193   0.297   2.397   2.689 -0.0117  0.3827 -0.6833
 1245SOL    HW115194   0.317   2.451   2.613 -1.4600  0.5249 -0.9652
 1245SOL    HW215195   0.281   2.310   2.653  2.4838 -0.5827  0.5643
 1246SOL     OW15196   3.810   2.395  12.163  0.3714 -0.3064 -0.3560
 1246SOL    HW115197   3.787   2.321  12.218 -2.2913 -0.3123 -1.4765
 1246SOL    HW215198   3.755   2.458  12.208 -0.7198 -2.0080  0.6754
 1247SOL     OW15199   1.715   1.060   3.431  0.5625  0.0238 -0.2268
 1247SOL    HW115200   1.634   1.012   3.412 -0.2527  1.7779 -1.1528
 1247SOL    HW215201   1.769   0.982   3.422 -0.3166 -0.7315  0.9045
 1248SOL     OW15202   0.294   0.428   4.145  0.4719  0.0846  0.5914
 1248SOL    HW115203   0.286   0.333   4.133 -1.1053  0.1957  0.7926
 1248SOL    HW215204   0.222   0.468   4.097  1.1423  0.5760  0.0063
 1249SOL     OW15205   3.314   1.884   9.898 -0.3684 -0.0280  0.3038
 1249SOL    HW115206   3.344   1.946   9.964  0.7840  0.5896 -0.7894
 1249SOL    HW215207   3.357   1.918   9.819 -0.3851 -0.1651  0.2358
 1250SOL     OW15208   4.667   4.413  15.079  0.5993 -0.0724 -0.1760
 1250SOL    HW115209   4.701   4.327  15.106 -1.2532 -0.6845  0.1515
 1250SOL    HW215210   4.700   4.426  14.989  2.5320 -0.7349  0.4339
 1251SOL     OW15211   3.764   3.832  10.013 -0.0723  0.3862  0.5151
 1251SOL    HW115212   3.746   3.863  10.102 -0.0286 -2.9084  1.6601
 1251SOL    HW215213   3.757   3.916   9.967  1.0785 -0.3946 -1.0851
 1252SOL     OW15214   1.985   0.106   6.799  0.0452 -0.0298  0.2522
 1252SOL    HW115215   1.920   0.111   6.728 -1.2973  1.8468  1.6128
 1252SOL    HW215216   2.052   0.159   6.756  1.1564 -0.2205  1.7630
 1253SOL     OW15217   4.525   4.264   8.028  0.2794  0.3183 -0.2066
 1253SOL    HW115218   4.535   4.182   8.076 -1.0273  0.5128  0.4117
 1253SOL    HW215219   4.496   4.229   7.943 -1.0234  0.6948  0.0769
 1254SOL     OW15220   2.323   3.559   6.456  0.0016 -0.2531  0.2734
 1254SOL    HW115221   2.368   3.642   6.471  0.7078 -1.0112  2.3177
 1254SOL    HW215222   2.389   3.490   6.464  1.1433  0.5300 -2.1806
 1255SOL     OW15223   3.848   0.595  17.464  0.4263  0.2239 -0.1414
 1255SOL    HW115224   3.874   0.659  17.531  0.0326  2.4247 -2.0703
 1255SOL    HW215225   3.931   0.589  17.416  0.7320  0.0804  0.4109
 1256SOL     OW15226   4.566   3.379   3.790  0.0469 -0.3818  0.0695
 1256SOL    HW115227   4.638   3.362   3.851  0.1982 -1.3442 -0.3780
 1256SOL    HW215228   4.599   3.457   3.746 -1.0898  1.0924  1.8531
 1257SOL     OW15229   1.551   1.061  13.608  0.4028 -0.6173  1.1299
 1257SOL    HW115230   1.600   1.013  13.674 -0.1750  0.0497  2.0478
 1257SOL    HW215231   1.462   1.028  13.623 -0.0014 -0.0704 -0.0844
 1258SOL     OW15232   0.711   3.335  12.618  0.6982  0.1105 -0.5772
 1258SOL    HW115233   0.685   3.249  12.649 -2.0098  1.7430  1.6876
 1258SOL    HW215234   0.806   3.324  12.621  0.8088  1.4788  1.3063
 1259SOL     OW15235   3.593   3.079   3.636  0.0614 -0.5918 -0.6366
 1259SOL    HW115236   3.522   3.045   3.583 -2.1598  0.3184  1.7835
 1259SOL    HW215237   3.568   3.051   3.724 -0.9090  1.7167 -0.1857
 1260SOL     OW15238   1.004   0.416   2.689 -0.0956 -0.1784  0.1409
 1260SOL    HW115239   1.001   0.365   2.607 -1.7038  2.0046 -1.1614
 1260SOL    HW215240   1.096   0.442   2.685  0.8500 -3.7617 -1.7802
 1261SOL     OW15241   4.628   1.176   4.441 -0.1908  0.3553  0.4002
 1261SOL    HW115242   4.645   1.099   4.386  0.8378  0.3184  0.7762
 1261SOL    HW215243   4.661   1.147   4.526  2.4000 -0.5303 -0.9054
 1262SOL     OW15244   1.553   1.350  10.624 -0.0100 -0.1426  0.1508
 1262SOL    HW115245   1.598   1.302  10.555 -1.3367  0.7771 -1.3798
 1262SOL    HW215246   1.463   1.319  10.610 -0.7036  0.3405  3.7250
 1263SOL     OW15247   2.371   1.047   4.576  0.1032 -0.4864  0.3602
 1263SOL    HW115248   2.375   0.962   4.618 -4.1754 -1.7619 -1.7820
 1263SOL    HW215249   2.307   1.085   4.636 -0.2772 -1.1613  0.3793
 1264SOL     OW15250   1.325   4.381   3.148  0.0550  0.0448  0.7875
 1264SOL    HW115251   1.391   4.322   3.185 -0.9412 -2.1153 -0.9201
 1264SOL    HW215252   1.251   4.322   3.136 -0.5891  0.4625  2.7334
 1265SOL     OW15253   2.624   3.866  14.689 -0.1047 -0.1321 -0.2061
 1265SOL    HW115254   2.700   3.825  14.730  0.7158  1.4964 -0.1033
 1265SOL    HW215255   2.576   3.799  14.640 -2.5888  2.5918 -1.5573
 1266SOL     OW15256   4.144   2.550   6.034 -0.0313 -0.1321 -0.3556
 1266SOL    HW115257   4.178   2.585   6.116 -1.6437 -0.2684  0.3549
 1266SOL    HW215258   4.052   2.577   6.037  0.0810  0.4260 -1.9765
 1267SOL     OW15259   3.276   1.729   3.780 -0.0912 -0.5265 -0.8437
 1267SOL    HW115260   3.294   1.820   3.758 -1.2658 -0.8162 -3.0461
 1267SOL    HW215261   3.216   1.737   3.854  1.1966 -2.3795  0.4018
 1268SOL     OW15262   4.249   3.276   4.359  0.2604 -0.2264 -0.1277
 1268SOL    HW115263   4.319   3.340   4.369 -0.3987  0.7070 -1.4766
 1268SOL    HW215264   4.235   3.281   4.265 -0.0266 -0.2878 -0.0887
 1269SOL     OW15265   0.340   3.267   0.258  0.0834  0.3210  0.3357
 1269SOL    HW115266   0.389   3.218   0.323 -0.2160 -0.0084  0.3147
 1269SOL    HW215267   0.279   3.312   0.318 -0.0053  0.7109 -0.0491
 1270SOL     OW15268   0.993   3.293  14.588  1.1077 -0.3423  0.7428
 1270SOL    HW115269   1.077   3.334  14.569  0.4628  0.5665 -0.1781
 1270SOL    HW215270   0.989   3.236  14.512  1.4344 -0.5089  0.8535
 1271SOL     OW15271   0.824   2.074   8.305  0.6146 -0.7454 -0.0261
 1271SOL    HW115272   0.899   2.014   8.301  0.7099 -0.4205 -2.8681
 1271SOL    HW215273   0.849   2.118   8.386 -1.2683 -3.6735  2.1542
 1272SOL     OW15274   3.867   2.966   4.059 -0.4537  0.3574 -0.0068
 1272SOL    HW115275   3.837   2.936   4.145  1.5549  0.8207  0.8586
 1272SOL    HW215276   3.940   3.018   4.092  0.4505 -0.7054 -0.3478
 1273SOL     OW15277   3.868   0.475   9.305 -0.2638 -0.4832  0.2895
 1273SOL    HW115278   3.949   0.524   9.318 -0.1388 -0.7242  0.4220
 1273SOL    HW215279   3.806   0.521   9.362  1.5900  0.9889  1.1219
 1274SOL     OW15280   2.591   3.141   2.931  0.0689 -0.4079  0.2306
 1274SOL    HW115281   2.680   3.159   2.962  0.3336  0.6408 -1.1590
 1274SOL    HW215282   2.541   3.210   2.975  2.0599  1.2442 -0.1380
 1275SOL     OW15283   1.486   4.039   8.241 -0.6372  1.1678 -0.6258
 1275SOL    HW115284   1.513   3.958   8.200  1.8815  1.0406  1.3282
 1275SOL    HW215285   1.410   4.034   8.183 -0.5156  0.8682 -0.7585
 1276SOL     OW15286   3.450   0.608   6.998 -0.0302  0.7704 -0.9195
 1276SOL    HW115287   3.393   0.677   7.033 -3.1224 -2.3352  0.2260
 1276SOL    HW215288   3.414   0.537   7.052  0.9978  2.7004  2.2578
 1277SOL     OW15289   0.361   4.657   3.374 -0.0077  0.0289 -0.3667
 1277SOL    HW115290   0.411   4.626   3.298  1.8101  0.2376  0.7588
 1277SOL    HW215291   0.425   4.634   3.440 -0.6042  0.5221  0.3825
 1278SOL     OW15292   1.355   1.801   7.298  0.4639  0.4541  0.3856
 1278SOL    HW115293   1.391   1.833   7.381  1.7297 -2.2185  0.8542
 1278SOL    HW215294   1.363   1.706   7.308  1.1734  0.6998  2.1832
 1279SOL     OW15295   2.066   3.119   5.652  0.3889 -0.1618  0.2662
 1279SOL    HW115296   2.028   3.041   5.694  0.4729  0.8437  2.2355
 1279SOL    HW215297   2.091   3.079   5.569 -1.0182  0.9509 -0.6742
 1280SOL     OW15298   2.812   0.129   5.915 -0.2923 -0.2452 -0.1496
 1280SOL    HW115299   2.737   0.180   5.945 -0.2603  0.5178 -1.3445
 1280SOL    HW215300   2.798   0.044   5.956 -0.0835  0.5786  1.6013
 1281SOL     OW15301   3.930   3.965  13.007 -0.1122 -0.2440  0.0484
 1281SOL    HW115302   3.940   4.034  13.073 -1.5354 -0.4569  0.4772
 1281SOL    HW215303   3.971   4.007  12.931 -3.1795  1.4181 -0.6612
 1282SOL     OW15304   4.303   1.072  17.113  0.0377 -0.0419 -0.2625
 1282SOL    HW115305   4.362   1.034  17.178 -1.3076  0.0299  1.0083
 1282SOL    HW215306   4.266   1.143  17.164 -0.5610  0.7988 -1.8643
 1283SOL     OW15307   2.872   1.800   2.110  0.2397 -0.0463 -0.3289
 1283SOL    HW115308   2.939   1.863   2.085  0.2656 -0.0766 -0.3356
 1283SOL    HW215309   2.803   1.866   2.120 -1.0868 -1.3811 -0.6156
 1284SOL     OW15310   4.556   0.815   1.492  0.4779  0.3175 -0.1323
 1284SOL    HW115311   4.642   0.799   1.452 -0.6150 -1.3338 -1.8111
 1284SOL    HW215312   4.560   0.766   1.574 -0.6187 -1.9815 -1.4732
 1285SOL     OW15313   2.825   2.524   7.452  0.4732 -0.0211  0.3432
 1285SOL    HW115314   2.751   2.470   7.478 -0.5038  1.8170  1.3341
 1285SOL    HW215315   2.834   2.587   7.523  0.1812 -0.0501  0.4063
 1286SOL     OW15316   1.491   4.103   6.226  0.4397 -0.3270  0.0088
 1286SOL    HW115317   1.414   4.156   6.248  1.4515 -0.4077  3.6112
 1286SOL    HW215318   1.534   4.152   6.155  0.3533  0.0390  0.2056
 1287SOL     OW15319   0.805   4.074   8.589  0.2884 -0.5115 -0.1480
 1287SOL    HW115320   0.816   4.021   8.668  2.3400 -1.3574 -1.0226
 1287SOL    HW215321   0.814   4.016   8.514 -1.5618  0.5982 -1.2233
 1288SOL     OW15322   3.802   0.286   3.748 -0.0741 -0.3839  0.2384
 1288SOL    HW115323   3.829   0.308   3.659 -0.6056  0.7477  0.3530
 1288SOL    HW215324   3.855   0.346   3.801  1.4754 -1.2768 -0.3159
 1289SOL     OW15325   1.390   0.405   7.551  0.7787  0.8757  1.0882
 1289SOL    HW115326   1.396   0.499   7.537 -2.9630  1.0714  0.7124
 1289SOL    HW215327   1.317   0.396   7.612  0.2278  1.0421  0.4585
 1290SOL     OW15328   4.056   3.084   8.500 -0.4543 -0.5201  0.1137
 1290SOL    HW115329   4.076   3.014   8.562 -0.8304 -1.7430 -1.1422
 1290SOL    HW215330   3.973   3.116   8.537 -0.0639  0.3011  0.2857
 1291SOL     OW15331   1.755   2.983   3.073  0.1687 -0.3968 -0.3772
 1291SOL    HW115332   1.672   2.960   3.033  0.2501 -0.4682 -0.5050
 1291SOL    HW215333   1.813   3.007   3.001  0.3381 -1.1984 -0.5068
 1292SOL     OW15334   0.531   4.577   3.604  0.3817 -0.1699  0.7748
 1292SOL    HW115335   0.488   4.492   3.594 -0.2090 -0.0089  1.8970
 1292SOL    HW215336   0.595   4.585   3.533  0.3137 -1.7340  0.5520
 1293SOL     OW15337   3.473   2.812  17.060 -0.5279  0.0726 -0.0706
 1293SOL    HW115338   3.380   2.799  17.040 -0.5423  0.4534 -0.2538
 1293SOL    HW215339   3.512   2.840  16.977 -1.0289 -2.5931 -1.1933
 1294SOL     OW15340   2.802   4.183  10.887  0.5404  0.0626 -0.1599
 1294SOL    HW115341   2.746   4.258  10.869 -0.9158 -0.9837  0.0808
 1294SOL    HW215342   2.748   4.108  10.864 -0.9286  0.7302  1.1314
 1295SOL     OW15343   1.881   3.535   7.609 -0.6151 -0.5318 -0.2855
 1295SOL    HW115344   1.968   3.573   7.595 -0.0796 -1.9258 -0.8582
 1295SOL    HW215345   1.841   3.556   7.525  0.8577  0.1948 -0.8074
 1296SOL     OW15346   0.189   3.806  16.265 -0.0127 -0.5401  0.1388
 1296SOL    HW115347   0.160   3.897  16.271 -3.3573 -1.5876 -0.2835
 1296SOL    HW215348   0.116   3.780  16.209 -0.1561 -0.6170  0.3668
 1297SOL     OW15349   0.258   4.707   2.902 -0.2235 -0.1032  0.0351
 1297SOL    HW115350   0.283   4.689   2.811  1.6843 -0.4889  0.6246
 1297SOL    HW215351   0.232   4.621   2.934  0.8622 -0.1925  0.6520
 1298SOL     OW15352   3.963   3.917   0.031  0.1637  0.0769  0.2013
 1298SOL    HW115353   4.020   3.977   0.079  0.1722  0.3365 -0.1384
 1298SOL    HW215354   4.018   3.840   0.016  1.6432  0.8978  1.4924
 1299SOL     OW15355   3.607   1.267  17.332 -0.0526  0.5451  0.0308
 1299SOL    HW115356   3.565   1.337  17.382  1.4717  1.2550  0.3058
 1299SOL    HW215357   3.589   1.184  17.377 -1.1300  0.1564 -1.1042
 1300SOL     OW15358   2.245   2.800   5.029  0.1342  0.4053  0.2678
 1300SOL    HW115359   2.173   2.856   5.060  1.7897  3.4045 -1.2534
 1300SOL    HW215360   2.257   2.749   5.109  2.6344  0.4815 -0.0492
 1301SOL     OW15361   4.613   1.506   8.624 -0.0649  0.1717 -0.8736
 1301SOL    HW115362   4.575   1.524   8.539  1.4252  0.7710 -1.4185
 1301SOL    HW215363   4.708   1.500   8.613 -0.1612 -1.7045 -0.7158
 1302SOL     OW15364   3.552   0.328   5.053  0.5120 -0.2427  0.7179
 1302SOL    HW115365   3.582   0.246   5.013 -1.5469 -0.5161 -0.2231
 1302SOL    HW215366   3.580   0.318   5.144  1.4467  0.5936  0.5225
 1303SOL     OW15367   2.378   2.858   9.278  0.7183  0.7127  0.2211
 1303SOL    HW115368   2.384   2.881   9.371  2.3845 -0.1986  0.3382
 1303SOL    HW215369   2.396   2.764   9.276 -0.2386  0.5446 -0.3003
 1304SOL     OW15370   0.693   1.369   6.576  0.1580  0.3083 -0.4940
 1304SOL    HW115371   0.733   1.414   6.650 -2.7200  2.8175 -0.5071
 1304SOL    HW215372   0.647   1.298   6.621  1.1255 -0.8772 -1.3758
 1305SOL     OW15373   2.685   3.690  10.792  0.0778 -0.0977 -0.5616
 1305SOL    HW115374   2.740   3.707  10.868 -0.6818 -0.2801  0.0266
 1305SOL    HW215375   2.620   3.761  10.795  0.4782  0.3268 -1.8390
 1306SOL     OW15376   1.477   1.692  16.607 -0.0083  0.1046  0.2488
 1306SOL    HW115377   1.549   1.629  16.599 -1.8364 -1.9570 -0.1327
 1306SOL    HW215378   1.408   1.655  16.551  0.7105 -1.2466  0.2634
 1307SOL     OW15379   4.474   1.875   4.289  0.2259 -0.1587  0.4629
 1307SOL    HW115380   4.456   1.967   4.270 -0.6775 -0.4770 -0.1972
 1307SOL    HW215381   4.416   1.849   4.360 -0.8990  1.2531  0.0498
 1308SOL     OW15382   4.359   0.004  15.181  0.3517  0.3321  0.2869
 1308SOL    HW115383   4.328   0.018  15.271  0.4639 -1.7492  0.6562
 1308SOL    HW215384   4.353   4.630  15.163 -0.3307  0.5938 -0.8197
 1309SOL     OW15385   3.946   3.701   5.454  0.5211 -0.4504  0.1672
 1309SOL    HW115386   3.877   3.635   5.463  1.2316 -1.1715  0.3367
 1309SOL    HW215387   3.957   3.704   5.359  1.0307 -0.3938  0.2318
 1310SOL     OW15388   4.560   3.480   3.325  0.5752  0.1604 -0.5326
 1310SOL    HW115389   4.470   3.499   3.353  0.3153 -1.4202 -0.3018
 1310SOL    HW215390   4.557   3.385   3.337 -0.1600 -0.0091 -2.0597
 1311SOL     OW15391   4.237   2.316   6.898 -0.4529  0.0886 -0.0415
 1311SOL    HW115392   4.291   2.319   6.820  0.4970 -0.3587  0.6010
 1311SOL    HW215393   4.164   2.372   6.871  0.1012  1.0548  0.4563
 1312SOL     OW15394   0.771   1.824   7.084  0.1932  0.1071  0.0494
 1312SOL    HW115395   0.809   1.781   7.007 -0.2213 -0.9889  0.4582
 1312SOL    HW215396   0.730   1.757   7.139 -1.8303 -0.2535 -1.9326
 1313SOL     OW15397   0.641   2.253   4.686  0.3116 -0.0031 -0.6685
 1313SOL    HW115398   0.700   2.230   4.614 -0.1196  1.8355 -1.6179
 1313SOL    HW215399   0.561   2.211   4.653  0.0236 -0.1672  0.2366
 1314SOL     OW15400   0.805   1.205  12.725 -0.2491 -0.0460  0.4251
 1314SOL    HW115401   0.837   1.272  12.665  0.1535 -0.8030 -0.1986
 1314SOL    HW215402   0.711   1.225  12.720 -0.0742  0.4652 -0.7922
 1315SOL     OW15403   2.443   3.270   6.359 -0.3675  0.2979 -0.0427
 1315SOL    HW115404   2.472   3.199   6.302 -1.9481 -0.0459 -0.4133
 1315SOL    HW215405   2.433   3.342   6.297 -1.6246  0.0877 -0.0989
 1316SOL     OW15406   2.069   3.520  11.524 -0.3194 -0.5899  0.4576
 1316SOL    HW115407   2.147   3.473  11.495 -0.1553  0.4343 -0.7826
 1316SOL    HW215408   2.000   3.455  11.509 -0.7489  0.0269 -0.2800
 1317SOL     OW15409   3.963   3.768   8.520 -0.1433 -0.2528 -0.3252
 1317SOL    HW115410   3.989   3.771   8.612  3.6265  0.1636 -1.3876
 1317SOL    HW215411   3.930   3.678   8.517  1.4387 -0.8545  0.4218
 1318SOL     OW15412   4.149   1.243  11.404  0.0448  0.2710 -0.2274
 1318SOL    HW115413   4.124   1.267  11.315  1.0228 -2.6770 -1.2880
 1318SOL    HW215414   4.235   1.285  11.411  0.0976  0.5151 -2.4600
 1319SOL     OW15415   0.519   2.157   5.166 -0.3401 -0.2818  0.4452
 1319SOL    HW115416   0.602   2.138   5.211  0.1242  0.3199 -0.1559
 1319SOL    HW215417   0.505   2.088   5.102  0.0890 -0.5669  0.6603
 1320SOL     OW15418   1.478   4.212  11.636 -0.6085 -0.2706  0.5579
 1320SOL    HW115419   1.502   4.279  11.700  0.7801 -1.7119  1.5531
 1320SOL    HW215420   1.472   4.265  11.557 -1.6150  0.6815  1.2752
 1321SOL     OW15421   1.065   4.479   2.321 -0.0478  0.4179 -0.1016
 1321SOL    HW115422   1.054   4.395   2.276 -4.2942  0.6627  0.5007
 1321SOL    HW215423   0.998   4.521   2.267 -1.1980 -0.7734  0.3958
 1322SOL     OW15424   1.170   4.704   3.449  0.0588  0.0016 -0.0858
 1322SOL    HW115425   1.255   4.666   3.428  0.5762  1.6758 -0.9693
 1322SOL    HW215426   1.132   4.648   3.517  2.7345 -2.1590 -0.3844
 1323SOL     OW15427   3.637   3.057   1.443  0.5049  0.2367 -0.6395
 1323SOL    HW115428   3.708   2.995   1.429 -1.0856 -1.1705 -2.4437
 1323SOL    HW215429   3.681   3.131   1.485  0.9057 -1.1633  1.4103
 1324SOL     OW15430   3.693   2.135   6.172 -0.0108  0.1016  0.6843
 1324SOL    HW115431   3.785   2.152   6.192  0.0267  1.5654 -0.7704
 1324SOL    HW215432   3.686   2.160   6.080  0.6837 -0.0516  0.5875
 1325SOL     OW15433   4.067   1.222   5.972  0.4880 -0.2057 -0.7882
 1325SOL    HW115434   4.112   1.272   6.041 -0.3994 -1.1171  0.4613
 1325SOL    HW215435   4.141   1.181   5.927  1.5812 -1.6427  2.2946
 1326SOL     OW15436   4.368   2.981   9.230  0.0165  0.5614  0.2926
 1326SOL    HW115437   4.303   2.948   9.292  0.8967 -2.8614 -0.6306
 1326SOL    HW215438   4.311   3.032   9.173 -0.2372 -0.0234  0.0214
 1327SOL     OW15439   4.476   0.720  15.033  0.5318 -0.1044  0.3726
 1327SOL    HW115440   4.510   0.681  15.114 -0.5422  0.9627  1.3279
 1327SOL    HW215441   4.556   0.709  14.981  0.4659  0.1988  0.2087
 1328SOL     OW15442   0.466   0.843   6.322 -0.3428  0.1096  0.4600
 1328SOL    HW115443   0.433   0.753   6.317  1.5244 -0.4671 -1.4055
 1328SOL    HW215444   0.558   0.828   6.345  0.0140 -0.4387 -1.3213
 1329SOL     OW15445   3.392   4.517   0.247  0.1762  0.4002  0.3675
 1329SOL    HW115446   3.398   4.429   0.208  0.1735  1.1105 -1.2366
 1329SOL    HW215447   3.299   4.536   0.234 -0.1976 -1.4530  0.3424
 1330SOL     OW15448   4.632   2.932  13.576  0.5221  0.4331  0.1445
 1330SOL    HW115449   4.563   2.953  13.639  0.3442 -0.0563  0.1170
 1330SOL    HW215450   4.715   2.943  13.622  1.7852 -0.2042 -1.9696
 1331SOL     OW15451   0.987   3.906   8.145  0.0536  0.4285  0.4489
 1331SOL    HW115452   1.033   3.839   8.195  1.2683 -1.2280 -2.8801
 1331SOL    HW215453   0.950   3.860   8.069  1.2080 -1.1671  0.8667
 1332SOL     OW15454   2.884   0.309   7.967  0.2070  0.0219 -0.5192
 1332SOL    HW115455   2.813   0.365   7.999  1.0262  0.8473 -0.1498
 1332SOL    HW215456   2.847   0.285   7.882  0.6545  1.5920 -1.1692
 1333SOL     OW15457   2.461   0.344  10.109  0.0424  0.2601  0.3113
 1333SOL    HW115458   2.530   0.361  10.044 -1.0886  3.4258 -0.0943
 1333SOL    HW215459   2.515   0.307  10.178  0.7859 -1.8428 -1.3988
 1334SOL     OW15460   2.370   1.880   6.154 -0.4575  0.3708  0.4847
 1334SOL    HW115461   2.374   1.908   6.063 -0.3169 -1.1804  0.0144
 1334SOL    HW215462   2.355   1.786   6.145 -1.8604  0.5777  0.5609
 1335SOL     OW15463   1.723   1.699   3.862 -0.3772 -0.4481 -0.0161
 1335SOL    HW115464   1.810   1.711   3.823 -0.1156  0.6680  0.9125
 1335SOL    HW215465   1.697   1.613   3.828 -1.3777  0.2634 -1.0101
 1336SOL     OW15466   0.205   4.469   3.014  0.1759  0.0384 -0.1715
 1336SOL    HW115467   0.259   4.401   3.054  2.2518  0.7441 -1.7291
 1336SOL    HW215468   0.161   4.415   2.948 -2.5353  1.0670  0.7847
 1337SOL     OW15469   1.622   3.551   7.698  0.1346  0.2087 -0.2896
 1337SOL    HW115470   1.578   3.617   7.644 -3.3412 -0.2242  1.9921
 1337SOL    HW215471   1.711   3.544   7.663  1.1665  0.7325  2.2120
 1338SOL     OW15472   3.948   2.448  17.066  0.6387  0.1252 -0.1397
 1338SOL    HW115473   3.920   2.475  17.153 -0.8348 -0.0018 -0.5831
 1338SOL    HW215474   3.913   2.359  17.065  0.6012  0.1401 -0.1604
 1339SOL     OW15475   0.494   3.212  15.286  0.2080  0.2519  0.3404
 1339SOL    HW115476   0.487   3.281  15.353 -2.1006  0.2121  0.1179
 1339SOL    HW215477   0.505   3.138  15.345 -0.9274  0.9482  1.4355
 1340SOL     OW15478   1.830   4.100   5.556  0.1930 -0.1460  0.0094
 1340SOL    HW115479   1.900   4.035   5.565 -0.2724 -1.0333 -2.9842
 1340SOL    HW215480   1.780   4.084   5.636  0.2859 -1.6305 -0.2258
 1341SOL     OW15481   0.823   4.214   3.251  0.2955  0.0733  0.9510
 1341SOL    HW115482   0.778   4.130   3.236  0.7486 -0.3518  1.9608
 1341SOL    HW215483   0.800   4.271   3.178 -0.7301 -1.5415 -0.0013
 1342SOL     OW15484   3.309   4.576   8.170  0.3825  0.4823 -0.1653
 1342SOL    HW115485   3.391   4.533   8.144  0.0162  0.5208 -1.3909
 1342SOL    HW215486   3.335   4.664   8.197  2.9955 -0.8119  1.5337
 1343SOL     OW15487   2.160   1.061   6.170  0.7987 -0.4343 -0.5973
 1343SOL    HW115488   2.187   1.021   6.087 -0.8596 -0.7924 -0.9573
 1343SOL    HW215489   2.201   1.146   6.153 -2.3325  1.0400 -0.7849
 1344SOL     OW15490   2.435   3.866   3.716  0.1307  0.4020  0.0456
 1344SOL    HW115491   2.371   3.937   3.712  1.7040  1.7462 -1.0323
 1344SOL    HW215492   2.516   3.913   3.695  0.9430 -0.2664  1.6254
 1345SOL     OW15493   2.548   2.886   2.984  0.1092 -0.3221  0.1591
 1345SOL    HW115494   2.582   2.848   2.903  3.0974 -0.0948  1.2941
 1345SOL    HW215495   2.530   2.974   2.951 -0.0863  0.4425  2.3220
 1346SOL     OW15496   3.947   2.465   8.224 -0.2916 -0.2775  0.4299
 1346SOL    HW115497   3.874   2.449   8.164 -0.0353  1.3138 -0.3045
 1346SOL    HW215498   3.893   2.457   8.302 -0.1558  0.6052  0.6172
 1347SOL     OW15499   3.561   2.707   4.374  0.1477  0.0934  0.0908
 1347SOL    HW115500   3.514   2.764   4.312  0.6885  0.2754 -0.1502
 1347SOL    HW215501   3.524   2.621   4.354 -0.1663  0.9754 -3.1890
 1348SOL     OW15502   0.701   1.609   7.266 -0.3178  0.4452  0.1389
 1348SOL    HW115503   0.638   1.537   7.263 -1.0966  1.2758 -3.6815
 1348SOL    HW215504   0.766   1.582   7.331  1.0256  0.8684 -1.0283
 1349SOL     OW15505   0.972   3.482   7.118 -1.0698  0.2165  0.4783
 1349SOL    HW115506   1.002   3.552   7.061 -0.3200  0.0455  0.6714
 1349SOL    HW215507   0.952   3.530   7.198 -0.6270  0.6067  0.3463
 1350SOL     OW15508   3.304   1.871   1.208 -0.3464 -0.1529 -0.1951
 1350SOL    HW115509   3.362   1.866   1.131 -0.1552 -1.4763  0.0201
 1350SOL    HW215510   3.218   1.880   1.168 -0.5016  3.0061  0.9057
 1351SOL     OW15511   2.028   1.773   8.277  0.0685 -0.5456  0.0503
 1351SOL    HW115512   1.990   1.729   8.353  0.3681  0.6626  0.9007
 1351SOL    HW215513   2.057   1.855   8.316 -0.9691  0.1917 -0.7469
 1352SOL     OW15514   0.506   4.252   6.067 -0.8176 -0.0605  0.3195
 1352SOL    HW115515   0.529   4.323   6.008 -1.1969 -0.1504  0.0654
 1352SOL    HW215516   0.557   4.281   6.143  0.0104  1.3386 -0.7714
 1353SOL     OW15517   1.728   1.712  17.070  0.0695 -0.3603  0.1202
 1353SOL    HW115518   1.717   1.761  16.988 -0.3949 -0.5093  0.0941
 1353SOL    HW215519   1.681   1.775  17.125 -0.7361 -1.0710  0.2494
 1354SOL     OW15520   1.966   0.032   8.592  0.4321  0.0324  0.1605
 1354SOL    HW115521   1.882   0.020   8.549  0.1945 -2.9335  1.4228
 1354SOL    HW215522   2.024   4.688   8.551  0.5709  0.6955 -0.6829
 1355SOL     OW15523   1.398   1.884  14.173 -0.3398 -0.2455 -0.2449
 1355SOL    HW115524   1.416   1.846  14.259 -0.8485 -3.6486 -1.6564
 1355SOL    HW215525   1.321   1.827  14.162 -0.4517 -0.0388 -0.5280
 1356SOL     OW15526   1.951   0.428   4.915 -0.5917  0.4856  0.1840
 1356SOL    HW115527   1.954   0.334   4.933  1.0307  0.4918 -0.0470
 1356SOL    HW215528   1.864   0.455   4.886 -1.0655 -0.2366  0.9231
 1357SOL     OW15529   4.264   3.249   4.670  0.1908 -0.0825  0.2140
 1357SOL    HW115530   4.257   3.163   4.711  0.0190 -1.8400 -3.6115
 1357SOL    HW215531   4.327   3.223   4.604  1.6338 -0.7189  1.8393
 1358SOL     OW15532   3.035   0.170  14.253 -0.5587  0.0439 -0.1041
 1358SOL    HW115533   3.118   0.216  14.270  0.2145 -1.0313 -0.9822
 1358SOL    HW215534   3.001   0.188  14.340 -1.0819 -1.4284 -0.0076
 1359SOL     OW15535   1.802   4.446  11.805  0.3250 -0.1740 -0.2493
 1359SOL    HW115536   1.800   4.468  11.711  0.1180  1.2154  0.0892
 1359SOL    HW215537   1.710   4.422  11.810  1.0871 -2.2904  3.4304
 1360SOL     OW15538   0.104   1.430   2.409  0.4470 -0.0170  0.2904
 1360SOL    HW115539   0.052   1.442   2.330 -1.4707 -0.7419  1.4380
 1360SOL    HW215540   0.186   1.474   2.387  1.3280 -0.8243  1.9115
 1361SOL     OW15541   3.725   3.698   2.739 -0.1050 -0.1319  0.3427
 1361SOL    HW115542   3.636   3.685   2.707  0.2721 -0.9644 -0.3607
 1361SOL    HW215543   3.775   3.739   2.668 -2.2869 -1.6739 -2.0851
 1362SOL     OW15544   0.417   3.685   5.096 -0.6396 -0.1547 -0.3918
 1362SOL    HW115545   0.409   3.604   5.045  1.6017 -1.7272  1.7351
 1362SOL    HW215546   0.401   3.663   5.188  0.2330 -0.6575 -0.3544
 1363SOL     OW15547   2.188   1.830   3.081 -0.1274  0.1647 -0.2039
 1363SOL    HW115548   2.274   1.815   3.120 -0.7238  1.0347  1.4339
 1363SOL    HW215549   2.138   1.770   3.136 -0.3398 -0.7155 -1.3548
 1364SOL     OW15550   2.671   0.208  17.649 -0.0523 -0.3933  0.0217
 1364SOL    HW115551   2.670   0.140  17.582 -1.1254 -0.5380  0.1891
 1364SOL    HW215552   2.723   0.280  17.613 -0.3117  0.9305  2.3411
 1365SOL     OW15553   0.223   3.395   2.136 -0.0502  0.0296 -0.3925
 1365SOL    HW115554   0.162   3.468   2.135  0.3394  0.3303 -2.1227
 1365SOL    HW215555   0.189   3.334   2.071 -2.4589  2.3104 -1.2299
 1366SOL     OW15556   2.807   0.160   7.107  0.1039 -0.1907  0.2760
 1366SOL    HW115557   2.805   0.246   7.065  2.1628 -0.0327  0.5414
 1366SOL    HW215558   2.897   0.163   7.138 -0.9338  1.9417  3.1494
 1367SOL     OW15559   4.260   3.914   0.252 -0.7450 -0.1409 -0.2126
 1367SOL    HW115560   4.184   3.972   0.258  0.1948  1.0056  0.4159
 1367SOL    HW215561   4.312   3.966   0.190 -1.0613  0.1880 -0.2020
 1368SOL     OW15562   2.223   1.977   2.848  0.3464  0.6882  0.0823
 1368SOL    HW115563   2.236   2.069   2.874  0.5404 -0.4715  4.1011
 1368SOL    HW215564   2.226   1.924   2.928  1.5891 -0.6080 -0.8119
 1369SOL     OW15565   0.527   0.921  11.825  0.2739 -0.4310 -0.3970
 1369SOL    HW115566   0.586   0.908  11.751  1.3640  1.5442  0.1090
 1369SOL    HW215567   0.459   0.871  11.781 -0.9998 -0.4094  1.5378
 1370SOL     OW15568   2.791   0.450   8.495 -0.5115  0.0750  0.2873
 1370SOL    HW115569   2.774   0.453   8.401 -1.6334 -1.7267  0.4280
 1370SOL    HW215570   2.835   0.365   8.503  1.0773  0.9210  0.5262
 1371SOL     OW15571   0.724   0.878  12.208  0.2219  0.0053  0.8019
 1371SOL    HW115572   0.774   0.838  12.279  0.4589 -1.3644 -0.1315
 1371SOL    HW215573   0.765   0.964  12.198  2.3206 -0.9123  1.6168
 1372SOL     OW15574   1.305   2.142   0.071 -0.0907  0.2837 -0.3646
 1372SOL    HW115575   1.393   2.112   0.047 -0.4769 -0.8565 -0.3783
 1372SOL    HW215576   1.254   2.070   0.109  1.3168 -0.2429  0.5454
 1373SOL     OW15577   4.620   2.718   4.132  0.4259  0.2769  0.1352
 1373SOL    HW115578   4.556   2.751   4.069 -0.2231  1.2231  1.2994
 1373SOL    HW215579   4.678   2.672   4.071  0.5189  1.5369 -0.7230
 1374SOL     OW15580   3.888   1.948  14.062  0.3660 -0.1184 -0.4680
 1374SOL    HW115581   3.969   1.969  14.109  0.5733  0.9155 -1.2959
 1374SOL    HW215582   3.905   1.856  14.039 -0.8888 -1.0474  2.2673
 1375SOL     OW15583   3.426   2.240  14.030  0.2177 -0.0024 -0.5913
 1375SOL    HW115584   3.361   2.220  13.963 -2.6636 -2.9661  3.0543
 1375SOL    HW215585   3.480   2.164  14.007  0.1912 -0.0018 -0.6544
 1376SOL     OW15586   0.556   2.612   9.632 -0.1357 -0.4629 -0.0132
 1376SOL    HW115587   0.572   2.553   9.706  1.3675  2.0693  1.7170
 1376SOL    HW215588   0.469   2.647   9.654  0.6839  1.3267  0.3987
 1377SOL     OW15589   0.236   0.151   5.570  0.3299 -0.4156  0.9458
 1377SOL    HW115590   0.323   0.190   5.571  0.1652  0.0707 -2.0093
 1377SOL    HW215591   0.186   0.232   5.578 -0.9921 -1.2110  0.8033
 1378SOL     OW15592   0.136   1.798   7.460 -0.1388 -0.0013 -0.4442
 1378SOL    HW115593   0.210   1.854   7.437 -0.9568  0.7215 -1.3028
 1378SOL    HW215594   0.063   1.851   7.429 -0.1796  0.2748  0.1365
 1379SOL     OW15595   2.205   0.640   4.856 -0.0238  0.3998 -0.3941
 1379SOL    HW115596   2.189   0.562   4.910  1.1469  0.3424 -0.1206
 1379SOL    HW215597   2.201   0.590   4.774 -0.6340  1.2572 -0.8789
 1380SOL     OW15598   2.067   4.117   4.493 -0.1545  0.0246  0.3543
 1380SOL    HW115599   2.080   4.212   4.495  0.1513 -0.0227  0.5096
 1380SOL    HW215600   2.126   4.092   4.564 -1.5265  1.5868  2.0479
 1381SOL     OW15601   0.529   3.498   9.124  0.9282  0.0587 -0.4050
 1381SOL    HW115602   0.565   3.416   9.157  1.1456 -0.0524 -0.9170
 1381SOL    HW215603   0.440   3.483   9.155  1.3815  2.7660  2.2319
 1382SOL     OW15604   4.514   0.658   1.709  0.3907  0.9969 -0.1626
 1382SOL    HW115605   4.422   0.645   1.733  0.9908 -2.3242  0.2704
 1382SOL    HW215606   4.548   0.588   1.764 -2.2136 -1.1490 -1.2470
 1383SOL     OW15607   4.404   2.334   6.331 -0.2189  0.4070 -0.1709
 1383SOL    HW115608   4.485   2.324   6.381  0.3457  0.2550 -1.1098
 1383SOL    HW215609   4.438   2.348   6.242  2.1607  2.1458  0.9932
 1384SOL     OW15610   3.975   0.130   8.654  0.4916  0.3325  0.2824
 1384SOL    HW115611   3.990   0.199   8.589 -0.5563  1.6035  1.4009
 1384SOL    HW215612   3.904   0.076   8.619  0.8910 -1.8748  2.9118
 1385SOL     OW15613   2.329   4.431   2.123 -0.3940  0.3271  0.0271
 1385SOL    HW115614   2.287   4.506   2.081  1.3990  0.5092 -1.4268
 1385SOL    HW215615   2.251   4.384   2.153 -0.1456 -0.8156 -1.0844
 1386SOL     OW15616   4.425   3.652   4.475 -0.3361  0.1980  0.7113
 1386SOL    HW115617   4.449   3.723   4.534  0.4567  0.8995 -0.4504
 1386SOL    HW215618   4.376   3.701   4.408 -2.5848  0.1762  2.3315
 1387SOL     OW15619   4.364   1.222   5.142 -0.2083 -0.4637 -0.6821
 1387SOL    HW115620   4.400   1.244   5.056 -2.1733 -0.2445 -1.4561
 1387SOL    HW215621   4.273   1.252   5.141  0.5244  1.7301 -1.2090
 1388SOL     OW15622   4.089   1.187  12.147  0.3529  0.2563 -0.1192
 1388SOL    HW115623   4.141   1.114  12.179  0.9494  0.3756 -0.8226
 1388SOL    HW215624   4.014   1.142  12.107  1.0176 -1.7133  0.8289
 1389SOL     OW15625   3.358   2.257   0.940 -0.1892  0.1813  0.0135
 1389SOL    HW115626   3.267   2.231   0.928 -1.4449  2.9122  3.7905
 1389SOL    HW215627   3.337   2.341   0.980 -0.9130 -0.5839  1.2557
 1390SOL     OW15628   1.512   4.464   8.082  0.3673  0.5644 -0.0565
 1390SOL    HW115629   1.428   4.508   8.094 -1.2398 -1.8201 -2.6106
 1390SOL    HW215630   1.527   4.495   7.992 -0.1416  0.8816 -0.0315
 1391SOL     OW15631   1.815   3.326   1.778 -0.4264 -0.1610 -0.2763
 1391SOL    HW115632   1.910   3.318   1.784 -0.4547 -0.4502 -0.2170
 1391SOL    HW215633   1.808   3.422   1.780  2.2861 -0.0123  2.5672
 1392SOL     OW15634   4.411   2.482  13.193  0.2067 -0.9846 -0.1869
 1392SOL    HW115635   4.433   2.553  13.133 -1.5685  0.2863  0.6751
 1392SOL    HW215636   4.477   2.416  13.172  0.8642 -0.2780 -0.3531
 1393SOL     OW15637   1.423   0.383   5.230  0.2092  0.3260  0.3951
 1393SOL    HW115638   1.432   0.450   5.162 -0.0919  1.6870  1.6965
 1393SOL    HW215639   1.430   0.299   5.185 -2.8433 -0.5446  1.5104
 1394SOL     OW15640   2.053   1.975   4.280 -0.4956  0.0724 -0.0806
 1394SOL    HW115641   1.962   2.004   4.284 -0.2341  1.0556 -1.5467
 1394SOL    HW215642   2.058   1.944   4.190  0.8732 -1.2275  0.4435
 1395SOL     OW15643   2.244   2.594   0.515  0.2577  0.1736 -0.7212
 1395SOL    HW115644   2.283   2.508   0.506 -0.6548 -0.4511  1.4629
 1395SOL    HW215645   2.325   2.646   0.514  2.1892 -2.8224  0.4012
 1396SOL     OW15646   3.345   0.018   7.392 -0.1131 -0.5552 -0.0256
 1396SOL    HW115647   3.439   0.015   7.408 -0.5323  1.6541  2.9479
 1396SOL    HW215648   3.315   0.029   7.483 -1.6164 -1.7157 -0.3801
 1397SOL     OW15649   1.593   1.908   3.625  0.1263  0.5739 -0.1495
 1397SOL    HW115650   1.631   1.876   3.543  0.2552  0.2964  0.0215
 1397SOL    HW215651   1.570   1.829   3.673  0.6220  0.3677 -0.2541
 1398SOL     OW15652   0.799   2.471  13.046 -0.0912 -0.1336  0.2798
 1398SOL    HW115653   0.709   2.494  13.021 -0.3542  0.2160  1.5535
 1398SOL    HW215654   0.790   2.378  13.068  1.5261 -0.4029 -0.2029
 1399SOL     OW15655   3.842   2.193   7.822  0.1079 -0.1345 -0.2446
 1399SOL    HW115656   3.842   2.114   7.768  0.8546 -1.3587  1.5482
 1399SOL    HW215657   3.848   2.259   7.753  1.1728 -0.4573 -0.4728
 1400SOL     OW15658   1.073   1.473   8.629 -0.1543  0.0354 -0.6673
 1400SOL    HW115659   1.142   1.489   8.694 -0.4017  0.7597 -0.5875
 1400SOL    HW215660   1.135   1.440   8.563  1.9473  1.1976  0.7151
 1401SOL     OW15661   1.317   0.646   3.876  0.4651 -0.2436  0.0137
 1401SOL    HW115662   1.332   0.704   3.950 -0.4345  0.3283 -0.2442
 1401SOL    HW215663   1.401   0.642   3.830  0.1505 -0.5867 -0.5325
 1402SOL     OW15664   3.732   0.959   4.340 -0.3090  0.4136  0.4409
 1402SOL    HW115665   3.761   0.936   4.252  0.7372  0.8809  0.6670
 1402SOL    HW215666   3.749   0.877   4.385  0.8577  1.2069  1.4605
 1403SOL     OW15667   2.062   1.203   3.848  0.1945 -0.4664  0.5130
 1403SOL    HW115668   2.130   1.137   3.865  0.1619 -0.4871  0.5655
 1403SOL    HW215669   2.115   1.276   3.815 -1.2392  0.5541  0.4472
 1404SOL     OW15670   3.127   2.946   2.080 -0.3126  0.1500  0.1176
 1404SOL    HW115671   3.188   2.910   2.015 -2.8021 -3.2705 -0.2931
 1404SOL    HW215672   3.193   2.987   2.137  3.0844 -3.2181 -1.3491
 1405SOL     OW15673   1.076   1.422   8.953 -0.1898  0.3761  0.0548
 1405SOL    HW115674   1.052   1.510   8.982 -1.4041 -0.0419  0.3208
 1405SOL    HW215675   0.989   1.401   8.920 -0.1447  0.0387  0.1469
 1406SOL     OW15676   1.285   1.323  11.825  0.4356  0.0499  0.3981
 1406SOL    HW115677   1.379   1.309  11.838  0.8638  0.9258 -1.7934
 1406SOL    HW215678   1.265   1.361  11.910 -2.2936 -2.0361  0.6859
 1407SOL     OW15679   3.291   0.296  11.951 -0.0332  0.5550 -0.0425
 1407SOL    HW115680   3.226   0.238  11.990  0.8224  1.5360  2.9048
 1407SOL    HW215681   3.274   0.372  12.007 -1.2833 -0.6049  1.1573
 1408SOL     OW15682   4.468   1.886  17.055 -0.0881  0.0189 -0.1621
 1408SOL    HW115683   4.511   1.820  17.000  1.6085  1.3021 -0.3906
 1408SOL    HW215684   4.378   1.855  17.061 -0.9919  2.9730  1.9804
 1409SOL     OW15685   1.730   1.666   2.792  0.0169 -0.2681 -0.1353
 1409SOL    HW115686   1.704   1.682   2.702  2.6649  0.0043 -0.8455
 1409SOL    HW215687   1.659   1.704   2.844 -1.1870 -2.1366 -0.4111
 1410SOL     OW15688   3.926   0.738  14.528  0.4796 -0.8942  0.4823
 1410SOL    HW115689   3.969   0.706  14.607  0.7753  1.2493  1.1815
 1410SOL    HW215690   3.892   0.655  14.496 -0.4331  0.3265 -1.7070
 1411SOL     OW15691   2.607   4.265   8.725  0.0931 -0.1507  0.1178
 1411SOL    HW115692   2.546   4.314   8.780 -0.5821  0.0095 -0.7722
 1411SOL    HW215693   2.552   4.192   8.698 -1.7280  1.0832  0.5006
 1412SOL     OW15694   0.509   2.090   2.430  0.2053 -0.2568 -1.0711
 1412SOL    HW115695   0.526   2.182   2.452 -0.9885 -0.2892  0.0202
 1412SOL    HW215696   0.523   2.088   2.336 -1.3352 -1.1626 -1.2799
 1413SOL     OW15697   3.781   4.713   7.218 -0.0565 -0.6408 -0.1329
 1413SOL    HW115698   3.864   0.009   7.261  0.6783 -1.4044 -1.2731
 1413SOL    HW215699   3.746   0.077   7.189 -1.0006 -1.3203 -0.9975
 1414SOL     OW15700   4.032   0.274   8.393  0.6954  0.4307  0.6760
 1414SOL    HW115701   3.940   0.293   8.373  1.0830 -0.1027 -1.6488
 1414SOL    HW215702   4.053   0.206   8.329 -0.4177  0.7282 -0.0141
 1415SOL     OW15703   3.800   3.811   5.036 -0.1254 -0.0512 -1.0938
 1415SOL    HW115704   3.753   3.861   4.969  2.4722  3.0202 -0.6021
 1415SOL    HW215705   3.841   3.753   4.971  1.2939 -0.5668  0.2767
 1416SOL     OW15706   3.247   4.179   5.032 -0.1574  0.5316 -0.3320
 1416SOL    HW115707   3.224   4.091   5.003 -0.6799 -0.6936  3.7617
 1416SOL    HW215708   3.287   4.218   4.954  0.7828 -1.1284 -0.6787
 1417SOL     OW15709   2.610   1.944  17.639 -0.7006 -0.1381 -0.0696
 1417SOL    HW115710   2.533   1.897  17.607 -1.7726  2.2243 -1.0139
 1417SOL    HW215711   2.671   1.936  17.565  0.7246  0.7727  1.0041
 1418SOL     OW15712   3.243   1.119   5.641  0.5194  0.0716 -0.1294
 1418SOL    HW115713   3.185   1.196   5.639  0.2501 -0.0842  1.8628
 1418SOL    HW215714   3.323   1.158   5.605  0.8239  0.1054  0.5839
 1419SOL     OW15715   3.383   3.437  17.268 -0.4986 -0.5737  0.0793
 1419SOL    HW115716   3.398   3.447  17.362 -0.3862  0.5663 -0.0534
 1419SOL    HW215717   3.291   3.410  17.271 -0.3685 -1.0121  0.1566
 1420SOL     OW15718   0.897   3.065   9.160 -0.3296  0.4593 -0.6841
 1420SOL    HW115719   0.979   3.033   9.198  0.4145  1.9678 -1.0149
 1420SOL    HW215720   0.869   2.985   9.116  2.2296 -0.2645 -0.9877
 1421SOL     OW15721   2.364   2.356  15.714 -0.3532 -0.5470  0.3383
 1421SOL    HW115722   2.418   2.302  15.657  0.3803 -0.6895  1.1568
 1421SOL    HW215723   2.422   2.431  15.729 -0.3316 -0.2124 -1.4435
 1422SOL     OW15724   0.408   1.034  16.388 -0.2179  0.2391 -0.1327
 1422SOL    HW115725   0.328   1.024  16.441 -0.3609  0.8828 -0.2259
 1422SOL    HW215726   0.393   0.992  16.303 -2.7470  2.2373 -0.6853
 1423SOL     OW15727   0.125   0.391   1.601  0.0401  0.0536 -0.1033
 1423SOL    HW115728   0.062   0.460   1.624  0.1149  0.1036 -0.0494
 1423SOL    HW215729   0.143   0.361   1.690 -1.9181  0.1531  0.3362
 1424SOL     OW15730   2.683   0.998   4.868 -0.4732  1.1642 -0.6266
 1424SOL    HW115731   2.729   0.917   4.848 -0.3131  0.6866  1.6128
 1424SOL    HW215732   2.750   1.061   4.844 -1.8078  2.6023 -0.5640
 1425SOL     OW15733   4.018   1.929   2.924 -0.7716  0.1913 -0.4995
 1425SOL    HW115734   3.986   1.847   2.963 -1.9184  1.0039  0.2955
 1425SOL    HW215735   4.013   1.911   2.830 -1.0873 -2.0995 -0.0470
 1426SOL     OW15736   4.440   4.307   6.958  0.0304  0.4496 -0.0091
 1426SOL    HW115737   4.418   4.297   7.051  0.3065  3.4411  0.3906
 1426SOL    HW215738   4.526   4.266   6.955 -1.3794 -2.2569 -2.8870
 1427SOL     OW15739   2.549   1.801  11.553  0.3843 -0.5910  0.2598
 1427SOL    HW115740   2.531   1.750  11.632 -0.0641  0.7497  1.0121
 1427SOL    HW215741   2.622   1.859  11.573 -0.8354  1.2614 -0.6981
 1428SOL     OW15742   0.333   0.988   1.343 -0.8467 -0.0891  0.0687
 1428SOL    HW115743   0.265   1.043   1.381 -0.8276  1.1305 -1.7105
 1428SOL    HW215744   0.387   0.960   1.417  0.9172 -0.3074 -1.3179
 1429SOL     OW15745   2.235   4.460   9.823 -0.2617 -0.1973 -0.4155
 1429SOL    HW115746   2.281   4.400   9.882 -0.5431 -0.1716 -0.1700
 1429SOL    HW215747   2.306   4.481   9.762  0.8112 -0.7829  0.6300
 1430SOL     OW15748   0.620   3.432   7.094 -0.5601 -0.4863 -0.5891
 1430SOL    HW115749   0.707   3.399   7.069 -0.8379 -3.0231  1.8325
 1430SOL    HW215750   0.618   3.524   7.068  0.0863 -0.0593  0.9096
 1431SOL     OW15751   1.361   3.461   3.465 -0.0607  0.4088  0.2386
 1431SOL    HW115752   1.267   3.472   3.483 -0.0747  1.0096 -0.2465
 1431SOL    HW215753   1.354   3.379   3.416 -1.0623  1.0558 -0.7052
 1432SOL     OW15754   0.417   0.848   9.015 -0.1231  0.0098  0.1941
 1432SOL    HW115755   0.361   0.912   9.059  0.3693  1.1589 -0.8321
 1432SOL    HW215756   0.385   0.771   9.063 -2.4055  0.8856  0.1075
 1433SOL     OW15757   1.233   0.246   2.379 -0.1434 -0.1154  0.5187
 1433SOL    HW115758   1.299   0.182   2.351  1.6450  1.8780  0.1962
 1433SOL    HW215759   1.225   0.304   2.304 -1.2147 -1.5954 -0.5158
 1434SOL     OW15760   3.217   3.130   8.152 -0.6810 -0.0463 -0.3734
 1434SOL    HW115761   3.132   3.121   8.108 -0.5250  1.9558 -1.0918
 1434SOL    HW215762   3.197   3.183   8.230  0.5186  0.1342 -0.1855
 1435SOL     OW15763   3.603   0.684  14.508 -0.7177  0.5584 -1.1219
 1435SOL    HW115764   3.612   0.659  14.416 -1.2916  0.1874 -1.0781
 1435SOL    HW215765   3.540   0.756  14.507 -0.9921  0.3081 -1.8757
 1436SOL     OW15766   4.537   1.471  10.902 -0.0864  0.0270  0.1231
 1436SOL    HW115767   4.546   1.562  10.927  1.4008 -0.7171  2.2598
 1436SOL    HW215768   4.603   1.462  10.833  1.3051  1.2005  1.3247
 1437SOL     OW15769   0.753   0.354   3.866 -0.4822 -0.0924  1.2067
 1437SOL    HW115770   0.691   0.367   3.938 -1.2661 -2.5842  0.9784
 1437SOL    HW215771   0.817   0.302   3.914 -0.0149 -0.1381  0.5306
 1438SOL     OW15772   3.821   3.330   3.961  0.2047  0.1953  0.4171
 1438SOL    HW115773   3.846   3.243   3.990  0.4170  0.7997  2.0469
 1438SOL    HW215774   3.907   3.367   3.978 -0.1020  1.1128 -0.0090
 1439SOL     OW15775   1.367   1.178  10.505  0.4869 -0.1739  0.5941
 1439SOL    HW115776   1.324   1.192  10.420  2.2079  0.7665 -0.1135
 1439SOL    HW215777   1.298   1.126  10.547  0.1835  1.9863  2.7851
 1440SOL     OW15778   4.297   3.630   8.562  0.3524  0.0620  0.6828
 1440SOL    HW115779   4.255   3.563   8.615 -0.0244 -0.3647 -0.1485
 1440SOL    HW215780   4.389   3.626   8.589  0.1421 -0.9394  1.2159
 1441SOL     OW15781   0.747   3.216   9.377 -0.2857 -0.7037  0.1793
 1441SOL    HW115782   0.801   3.202   9.298 -0.8140  1.4188 -0.5584
 1441SOL    HW215783   0.808   3.181   9.442  1.1026 -0.7326 -1.1281
 1442SOL     OW15784   1.822   3.773  13.480 -0.3351 -0.1209 -0.1080
 1442SOL    HW115785   1.807   3.780  13.575 -1.9259 -0.7550 -0.3138
 1442SOL    HW215786   1.917   3.763  13.470  0.0005  2.0879  0.8622
 1443SOL     OW15787   2.176   2.529   4.822  0.4799 -0.6235 -0.3008
 1443SOL    HW115788   2.231   2.599   4.787  1.7998 -1.0705  0.8627
 1443SOL    HW215789   2.191   2.547   4.914  0.6675 -2.7264  0.0806
 1444SOL     OW15790   1.707   2.866   3.936 -0.9669 -0.2757 -0.3208
 1444SOL    HW115791   1.667   2.935   3.989  1.9825  3.2700 -2.6885
 1444SOL    HW215792   1.783   2.912   3.901 -0.3919 -1.3432 -0.4360
 1445SOL     OW15793   3.559   1.575  13.460 -0.4568 -0.1529 -0.3795
 1445SOL    HW115794   3.530   1.523  13.534  1.2213 -2.6490 -1.4690
 1445SOL    HW215795   3.638   1.529  13.433 -0.9844 -1.0513 -0.3774
 1446SOL     OW15796   4.218   1.480   0.042  0.2940  0.1281  0.0011
 1446SOL    HW115797   4.270   1.413   0.086 -0.2397  0.3359  0.9423
 1446SOL    HW215798   4.133   1.469   0.084  0.1399  0.0212 -0.3393
 1447SOL     OW15799   3.860   2.929   8.283  0.1216 -0.1867  0.2022
 1447SOL    HW115800   3.932   2.972   8.327  0.1382 -0.1544  0.1432
 1447SOL    HW215801   3.801   2.921   8.357  0.1072 -1.1619  0.0875
 1448SOL     OW15802   0.028   2.578   1.355  0.3275  0.0951 -0.1435
 1448SOL    HW115803   0.059   2.659   1.314 -0.7371 -0.1560 -1.4148
 1448SOL    HW215804   4.654   2.589   1.356  0.2829 -0.2275 -2.0484
 1449SOL     OW15805   2.648   2.776   2.251 -0.8619 -0.6163 -0.2956
 1449SOL    HW115806   2.682   2.692   2.221  2.0177 -0.9359  3.8007
 1449SOL    HW215807   2.731   2.824   2.255 -0.9503 -0.4835 -0.0116
 1450SOL     OW15808   0.600   4.580   6.529 -0.4037  0.1539  0.1745
 1450SOL    HW115809   0.615   4.503   6.584 -0.6672  0.4815  0.7054
 1450SOL    HW215810   0.591   4.556   6.437  0.6161  1.2150 -0.2131
 1451SOL     OW15811   0.340   0.674  16.237  0.0123  0.0847 -0.1221
 1451SOL    HW115812   0.262   0.681  16.293 -1.4712 -0.4049 -2.1419
 1451SOL    HW215813   0.403   0.641  16.302 -0.7273  0.7255  0.9265
 1452SOL     OW15814   4.660   2.882   9.181  0.0139 -0.8381  0.7906
 1452SOL    HW115815   4.647   2.973   9.209  0.1750 -0.9540  1.2441
 1452SOL    HW215816   4.575   2.840   9.193 -0.3776  0.1767  1.5824
 1453SOL     OW15817   3.552   3.441   1.788  0.4647  0.2895 -0.2586
 1453SOL    HW115818   3.571   3.526   1.750  1.5826 -0.0079 -0.3783
 1453SOL    HW215819   3.478   3.464   1.844 -0.2128 -2.0886 -0.1637
 1454SOL     OW15820   4.176   2.295   5.966  0.1668 -0.2016 -0.4337
 1454SOL    HW115821   4.160   2.263   6.055 -0.5755 -0.6709 -0.7407
 1454SOL    HW215822   4.171   2.390   5.978  0.6561 -0.0616 -1.3179
 1455SOL     OW15823   3.069   4.215   2.234 -0.5499 -0.5052 -0.4473
 1455SOL    HW115824   2.993   4.243   2.184 -0.7971 -0.6921 -0.1714
 1455SOL    HW215825   3.056   4.264   2.315 -1.9355 -4.3664  1.6694
 1456SOL     OW15826   3.564   1.586  15.589  0.3128  0.3288  0.1373
 1456SOL    HW115827   3.501   1.587  15.661  0.0837 -1.6075 -0.0429
 1456SOL    HW215828   3.509   1.614  15.515 -1.7557 -0.9532  1.2053
 1457SOL     OW15829   0.635   0.789   5.409  0.2662 -0.3454 -0.7527
 1457SOL    HW115830   0.591   0.704   5.406 -0.0145 -0.2023 -0.6959
 1457SOL    HW215831   0.668   0.796   5.319  0.5111  0.6121 -0.5872
 1458SOL     OW15832   1.952   1.063   9.618 -0.4224 -0.6797  0.1947
 1458SOL    HW115833   2.014   1.110   9.563 -0.4670  0.2131  0.9105
 1458SOL    HW215834   1.907   1.023   9.543 -1.9378  1.8058 -0.2196
 1459SOL     OW15835   3.825   2.398   7.641 -0.2505  0.5648  0.5024
 1459SOL    HW115836   3.868   2.392   7.555 -0.2062  4.2242  0.2870
 1459SOL    HW215837   3.818   2.492   7.657  0.5093  0.4166  1.6826
 1460SOL     OW15838   2.935   4.463   7.839 -0.0954  0.1757  0.1122
 1460SOL    HW115839   3.007   4.524   7.851  0.5494 -0.1548 -2.0434
 1460SOL    HW215840   2.888   4.505   7.766 -0.2527  0.5187  0.4099
 1461SOL     OW15841   1.230   0.371   7.014 -0.5569 -0.5155  0.0077
 1461SOL    HW115842   1.249   0.281   7.041  1.5228  0.3251  1.3866
 1461SOL    HW215843   1.234   0.405   7.104  2.0808  0.8819 -0.6407
 1462SOL     OW15844   2.571   0.978   7.682 -0.5878  0.1506  0.5547
 1462SOL    HW115845   2.649   1.033   7.686  1.0554 -2.1113 -0.2643
 1462SOL    HW215846   2.522   1.013   7.756  1.1767  1.6069  1.0167
 1463SOL     OW15847   2.422   3.487   4.997 -0.5167  0.1408  0.0081
 1463SOL    HW115848   2.454   3.577   4.985 -1.0527  0.1669 -1.2111
 1463SOL    HW215849   2.426   3.458   4.906  1.3935 -0.5509  0.3076
 1464SOL     OW15850   2.097   2.766   4.254  0.4450  0.0951 -0.2827
 1464SOL    HW115851   2.087   2.827   4.327  0.7884  0.7843 -0.8105
 1464SOL    HW215852   2.192   2.752   4.249  0.3190  0.1179 -2.8318
 1465SOL     OW15853   0.119   0.552   1.961  0.1965  0.0491 -0.7027
 1465SOL    HW115854   0.144   0.634   1.919 -1.1810  0.9672  0.2396
 1465SOL    HW215855   0.110   0.584   2.051 -2.4898 -1.5535 -0.3670
 1466SOL     OW15856   1.285   0.705   3.295 -0.3090  0.2323 -0.3404
 1466SOL    HW115857   1.314   0.659   3.216 -0.1799 -1.3228  0.6235
 1466SOL    HW215858   1.368   0.715   3.341 -0.8768 -1.9235  1.1283
 1467SOL     OW15859   1.679   0.665   3.903 -0.3697  0.2657  0.0037
 1467SOL    HW115860   1.664   0.759   3.909 -0.3927  0.4129 -2.4162
 1467SOL    HW215861   1.764   0.668   3.859 -0.3016  0.4995  0.1506
 1468SOL     OW15862   2.471   1.951   5.185 -0.5489 -0.5171 -0.0066
 1468SOL    HW115863   2.381   1.957   5.153  0.3144 -1.5075 -2.5924
 1468SOL    HW215864   2.469   1.880   5.249  1.3608 -0.9560 -0.4437
 1469SOL     OW15865   1.532   0.169   8.606 -0.8448 -0.0797 -0.0606
 1469SOL    HW115866   1.525   0.126   8.520  2.1688 -0.8494  0.0813
 1469SOL    HW215867   1.441   0.190   8.626 -0.7388  1.4281 -1.1553
 1470SOL     OW15868   4.176   1.836   4.880 -0.0504 -0.2323  0.1166
 1470SOL    HW115869   4.152   1.845   4.972  3.4000  1.2268  0.8874
 1470SOL    HW215870   4.109   1.771   4.859  0.1629  0.6009 -3.0799
 1471SOL     OW15871   1.090   1.501  16.676 -0.1684 -0.3361  0.9510
 1471SOL    HW115872   1.109   1.495  16.769 -0.5074 -1.7614  0.9151
 1471SOL    HW215873   1.042   1.420  16.662 -1.4500  0.5611  0.0855
 1472SOL     OW15874   3.214   2.366  15.887  0.1956  0.8545 -0.1988
 1472SOL    HW115875   3.182   2.384  15.976 -0.4924 -0.2538 -0.2263
 1472SOL    HW215876   3.138   2.324  15.847 -1.3691  2.2394  1.3081
 1473SOL     OW15877   2.507   3.875   7.214  0.3671  0.1660  0.3647
 1473SOL    HW115878   2.575   3.928   7.173 -0.4907 -1.4058 -3.1058
 1473SOL    HW215879   2.513   3.909   7.303  0.3432  0.0136  0.4258
 1474SOL     OW15880   1.240   3.615   5.233 -0.1851 -0.1019 -0.1900
 1474SOL    HW115881   1.173   3.613   5.164  0.8166  0.7370 -1.1680
 1474SOL    HW215882   1.189   3.656   5.303  1.8503 -2.2924  2.6025
 1475SOL     OW15883   1.654   2.290   5.005 -0.0404  0.3219 -0.3159
 1475SOL    HW115884   1.573   2.319   5.046 -0.0923 -0.4541  0.1432
 1475SOL    HW215885   1.722   2.341   5.048  1.2547 -1.3649 -0.3807
 1476SOL     OW15886   2.151   1.143  10.554  0.5679  0.0603 -0.6647
 1476SOL    HW115887   2.140   1.154  10.648  0.3179 -0.4586 -0.6298
 1476SOL    HW215888   2.060   1.138  10.525  1.3003 -1.3008 -2.7739
 1477SOL     OW15889   3.932   0.447   3.931  0.4683  0.1201 -0.4379
 1477SOL    HW115890   4.027   0.456   3.936  0.4518  0.8859 -1.6899
 1477SOL    HW215891   3.910   0.533   3.896  0.0431 -0.2901 -1.1669
 1478SOL     OW15892   4.202   0.962   5.569  0.6521 -0.0754  0.4749
 1478SOL    HW115893   4.285   1.010   5.572  0.2636  0.7327 -2.4261
 1478SOL    HW215894   4.230   0.887   5.516 -0.2407 -0.1872  0.1713
 1479SOL     OW15895   4.667   2.239   8.836  0.5463 -0.2628 -0.0177
 1479SOL    HW115896   0.023   2.297   8.835  0.7522 -0.5120  1.3150
 1479SOL    HW215897   4.661   2.231   8.932 -1.4962 -2.6886 -0.3647
 1480SOL     OW15898   1.316   4.502   8.793  0.2115  0.1535 -0.3492
 1480SOL    HW115899   1.257   4.458   8.732 -1.8441  1.2843  0.8193
 1480SOL    HW215900   1.355   4.433   8.847 -0.6405 -1.0255 -1.2304
 1481SOL     OW15901   3.839   2.604   6.575 -0.3833 -0.0580  0.6939
 1481SOL    HW115902   3.768   2.614   6.511  0.4796  2.2421  0.0940
 1481SOL    HW215903   3.825   2.681   6.630 -2.1458  0.5183 -0.5347
 1482SOL     OW15904   0.576   4.685  12.074 -0.0310 -0.0885 -0.2807
 1482SOL    HW115905   0.491   0.000  12.048  0.7566  1.4024 -0.8269
 1482SOL    HW215906   0.625   0.014  12.008  2.4988 -1.1696  0.7916
 1483SOL     OW15907   0.086   2.217   0.554  0.1617  0.2273  0.1771
 1483SOL    HW115908   0.074   2.122   0.546  0.7876  0.3938 -2.5607
 1483SOL    HW215909   0.031   2.234   0.631 -0.9935  0.7090 -0.7490
 1484SOL     OW15910   0.320   2.426   3.944  0.2141  0.2223 -0.4583
 1484SOL    HW115911   0.354   2.503   3.898 -0.4375 -0.8923 -2.8320
 1484SOL    HW215912   0.404   2.407   3.985  0.8542  1.4038 -1.2519
 1485SOL     OW15913   3.723   3.716  11.814  0.4899 -0.3048  0.1177
 1485SOL    HW115914   3.685   3.668  11.887 -1.9671  2.6880  0.7895
 1485SOL    HW215915   3.644   3.732  11.763  0.8581  0.5747 -0.1717
 1486SOL     OW15916   2.829   4.034   5.392  0.1096 -0.0753  0.2019
 1486SOL    HW115917   2.896   4.014   5.326  1.5900  3.2518  0.6763
 1486SOL    HW215918   2.752   4.062   5.343  0.2511 -1.6574 -0.9080
 1487SOL     OW15919   4.057   0.093   7.548 -0.2105  0.2935  0.7489
 1487SOL    HW115920   4.044   0.137   7.632 -2.5368 -0.2913  0.6830
 1487SOL    HW215921   4.150   0.110   7.535  0.1559 -1.4632  1.1471
 1488SOL     OW15922   3.548   1.612   0.052  0.4045  0.1125 -0.0891
 1488SOL    HW115923   3.619   1.665   0.016  0.6906  0.0538  0.3877
 1488SOL    HW215924   3.537   1.552  17.663  1.7799 -0.0589 -0.1403
 1489SOL     OW15925   1.137   4.587   1.173 -0.2281 -0.4582 -0.3671
 1489SOL    HW115926   1.108   4.497   1.155  0.7584 -0.5676 -1.4164
 1489SOL    HW215927   1.079   4.649   1.128  0.4141  0.2414 -0.2362
 1490SOL     OW15928   3.116   2.598   3.204  0.1600  0.1882 -0.2757
 1490SOL    HW115929   3.069   2.681   3.203  0.5187  0.3950 -0.0690
 1490SOL    HW215930   3.206   2.629   3.215  0.0443  1.0178 -1.7946
 1491SOL     OW15931   0.071   1.594  12.726 -0.1791  0.2463 -0.6429
 1491SOL    HW115932   4.696   1.601  12.725 -0.1158  1.2658  0.5449
 1491SOL    HW215933   0.088   1.617  12.634  1.9086  2.9870  0.4157
 1492SOL     OW15934   0.282   0.180   7.090 -0.5038 -0.1571 -0.0048
 1492SOL    HW115935   0.374   0.201   7.070 -1.1356  2.8432  0.2675
 1492SOL    HW215936   0.232   0.249   7.048 -1.0388 -2.1396 -2.5798
 1493SOL     OW15937   2.612   3.568   3.123 -0.7444  0.2243 -0.1115
 1493SOL    HW115938   2.563   3.493   3.088  0.8236 -0.5205 -0.7016
 1493SOL    HW215939   2.684   3.570   3.060 -0.5437 -1.5269  0.0649
 1494SOL     OW15940   0.537   1.182   4.335  0.6001  0.0737 -0.5330
 1494SOL    HW115941   0.579   1.246   4.277  1.1751  1.5121  1.4859
 1494SOL    HW215942   0.525   1.103   4.283  0.8209  0.9964 -1.9829
 1495SOL     OW15943   1.709   3.267  14.778  0.0991  0.3340  0.1392
 1495SOL    HW115944   1.732   3.180  14.745 -0.1752  1.1437 -2.2489
 1495SOL    HW215945   1.769   3.320  14.726  0.6885 -0.5497 -0.0682
 1496SOL     OW15946   4.280   1.553   6.555 -0.1686 -0.7185 -0.2584
 1496SOL    HW115947   4.204   1.499   6.575 -0.0471 -1.1855 -1.0500
 1496SOL    HW215948   4.347   1.503   6.601 -0.9495  0.1938  1.8460
 1497SOL     OW15949   1.991   3.467   1.361 -0.1814 -0.1093  0.2068
 1497SOL    HW115950   1.965   3.494   1.273 -3.2185 -0.5374  0.9738
 1497SOL    HW215951   1.905   3.475   1.402  0.4389 -1.2081  1.7030
 1498SOL     OW15952   2.329   3.631   5.902  0.1375  0.1618  0.3034
 1498SOL    HW115953   2.281   3.687   5.964  0.4574  0.9170 -0.1429
 1498SOL    HW215954   2.421   3.651   5.920  0.6540 -0.9500 -1.0443
 1499SOL     OW15955   0.077   0.647   8.254 -0.0747 -0.0285 -0.7055
 1499SOL    HW115956   0.091   0.620   8.164 -0.3767 -0.0936 -0.7344
 1499SOL    HW215957   0.044   0.737   8.247 -1.4736 -0.5796 -1.1742
 1500SOL     OW15958   4.036   0.004   8.340  0.0469 -0.4422 -0.4801
 1500SOL    HW115959   3.986   4.648   8.371  1.5819 -0.7374  1.3214
 1500SOL    HW215960   4.046   4.698   8.249  2.8354 -0.3997 -0.1929
 1501SOL     OW15961   1.739   1.982   7.324 -0.2432  0.2811 -0.5542
 1501SOL    HW115962   1.742   2.071   7.290  0.8361  0.4499 -0.0299
 1501SOL    HW215963   1.681   1.996   7.399 -0.2623  0.3841 -0.5879
 1502SOL     OW15964   4.513   3.169   6.264  0.2218  0.4432 -0.0760
 1502SOL    HW115965   4.453   3.133   6.329  0.3193 -0.0857 -0.2724
 1502SOL    HW215966   4.475   3.146   6.179 -0.5530 -0.4958  0.5210
 1503SOL     OW15967   2.338   0.080   4.941  0.0266  0.0979  0.0345
 1503SOL    HW115968   2.294   0.064   4.858  0.2907 -0.6902  0.0438
 1503SOL    HW215969   2.413   0.135   4.918 -0.1166 -0.2178 -1.1866
 1504SOL     OW15970   1.855   4.269   3.089  0.4288 -0.1800  0.2850
 1504SOL    HW115971   1.901   4.325   3.027 -0.5943  0.0674 -0.2592
 1504SOL    HW215972   1.785   4.234   3.034  4.4388 -1.9248 -3.6991
 1505SOL     OW15973   0.679   3.809  12.916 -0.2263 -0.2142  0.1430
 1505SOL    HW115974   0.642   3.896  12.930 -2.6990 -1.4481  1.3068
 1505SOL    HW215975   0.723   3.789  12.999 -0.5818  0.8987  0.6078
 1506SOL     OW15976   0.779   1.791   8.689  0.2125  0.3706 -0.4748
 1506SOL    HW115977   0.867   1.829   8.690 -0.6522  2.3600 -0.0841
 1506SOL    HW215978   0.744   1.809   8.776  0.1856  0.6999 -0.5504
 1507SOL     OW15979   0.081   1.780   4.072 -0.2501 -0.3420  0.4210
 1507SOL    HW115980   0.078   1.869   4.108 -1.0854  0.2460 -1.1100
 1507SOL    HW215981   0.031   1.734   4.139 -0.6681 -0.0922  0.2818
 1508SOL     OW15982   3.921   1.411  10.859  0.2808 -0.1303 -0.3240
 1508SOL    HW115983   3.883   1.371  10.781 -2.2848 -0.6878  1.2009
 1508SOL    HW215984   3.957   1.328  10.889 -1.1255 -1.0984 -1.3556
 1509SOL     OW15985   4.197   4.353   2.161 -1.1874  0.3161  0.7619
 1509SOL    HW115986   4.198   4.342   2.066 -2.9361 -0.0564  0.7867
 1509SOL    HW215987   4.277   4.404   2.177 -1.5628  0.5665  1.8576
 1510SOL     OW15988   0.054   3.852  14.384 -0.0950 -0.5484 -0.5718
 1510SOL    HW115989   0.125   3.861  14.320 -0.9296  3.1011 -1.0146
 1510SOL    HW215990   4.698   3.857  14.326 -0.7758  0.5393  0.4272
 1511SOL     OW15991   3.367   2.632  12.259 -0.0571 -0.2874 -0.1979
 1511SOL    HW115992   3.312   2.636  12.337  1.1762 -1.9604  0.7782
 1511SOL    HW215993   3.303   2.657  12.193  0.4815 -0.5712 -0.8232
 1512SOL     OW15994   4.121   4.501  17.193 -0.2043 -0.2520 -0.7565
 1512SOL    HW115995   4.167   4.439  17.137 -0.6320  1.4628 -3.0127
 1512SOL    HW215996   4.176   4.578  17.181 -0.5499  0.1931  0.5491
 1513SOL     OW15997   3.492   0.878   0.366 -0.5214  0.0264 -0.3197
 1513SOL    HW115998   3.464   0.960   0.324  1.9378 -0.5628 -3.1076
 1513SOL    HW215999   3.468   0.819   0.295  1.3816 -0.2727 -0.7044
 1514SOL     OW16000   3.990   2.693   7.781  0.3248 -0.0356 -0.3469
 1514SOL    HW116001   3.923   2.723   7.841  0.7474  0.4053 -0.1003
 1514SOL    HW216002   4.056   2.667   7.846 -1.0329  0.6826  1.3072
 1515SOL     OW16003   0.104   2.962  15.558  0.2266  0.7360  0.0556
 1515SOL    HW116004   0.096   2.935  15.650 -1.2703 -0.1426 -0.3230
 1515SOL    HW216005   0.113   3.057  15.564 -1.8621  0.9842 -0.5648
 1516SOL     OW16006   4.126   4.115   8.154  0.2261  0.0592  0.4839
 1516SOL    HW116007   4.201   4.057   8.146 -0.0429 -0.0192 -1.4224
 1516SOL    HW216008   4.114   4.126   8.060 -1.6251  3.7472  1.1631
 1517SOL     OW16009   3.614   3.534   9.218  0.2580  0.1283 -0.4715
 1517SOL    HW116010   3.638   3.449   9.180 -1.5707 -0.0003 -1.3331
 1517SOL    HW216011   3.610   3.586   9.137 -0.5000  1.2549  0.2934
 1518SOL     OW16012   1.297   3.964  11.635  0.1549  0.2714 -0.0667
 1518SOL    HW116013   1.232   3.959  11.565 -0.5840  1.4426  0.5295
 1518SOL    HW216014   1.331   4.053  11.629 -0.1340  0.2883 -1.3330
 1519SOL     OW16015   2.127   1.467   6.295  0.1726 -0.2002 -0.4997
 1519SOL    HW116016   2.168   1.398   6.243  0.7533 -0.1284 -0.1373
 1519SOL    HW216017   2.112   1.430   6.382  3.3285 -2.6846 -1.0031
 1520SOL     OW16018   1.125   0.547   7.630  0.5419 -0.9969 -0.4563
 1520SOL    HW116019   1.130   0.471   7.688 -1.1474 -1.5120 -0.9697
 1520SOL    HW216020   1.100   0.497   7.552  0.8010 -0.1901 -1.0545
 1521SOL     OW16021   3.172   3.986   2.278  0.5336 -0.5234  0.4566
 1521SOL    HW116022   3.109   3.916   2.264  0.9779 -0.6128 -1.0319
 1521SOL    HW216023   3.109   4.058   2.282 -0.2175 -1.2433  1.6540
 1522SOL     OW16024   1.977   2.303   1.870 -0.0475  0.4145 -0.3516
 1522SOL    HW116025   2.069   2.280   1.884  0.0893  1.0422 -0.2431
 1522SOL    HW216026   1.934   2.226   1.907  2.0046 -0.5834 -0.0240
 1523SOL     OW16027   1.516   3.670  12.657  0.6293  0.0200 -0.1300
 1523SOL    HW116028   1.540   3.731  12.587  0.1545 -0.1301 -0.4264
 1523SOL    HW216029   1.469   3.599  12.614 -2.1549  2.1870 -0.6864
 1524SOL     OW16030   0.346   4.102   5.617 -0.5965 -0.6312  0.6198
 1524SOL    HW116031   0.316   4.122   5.705  0.3091  1.0255  0.5536
 1524SOL    HW216032   0.288   4.156   5.563 -2.4934 -0.9420  2.3465
 1525SOL     OW16033   1.145   2.000  13.798 -0.2967 -0.3594  0.2458
 1525SOL    HW116034   1.070   2.030  13.746  0.8035  1.5509 -0.2488
 1525SOL    HW216035   1.206   2.071  13.778 -1.3968 -0.1907 -2.4902
 1526SOL     OW16036   4.218   1.320   5.401  0.1523 -1.2991 -0.0972
 1526SOL    HW116037   4.290   1.277   5.449  0.5150 -1.3667 -0.6994
 1526SOL    HW216038   4.138   1.273   5.423  0.3004 -2.0971 -1.2535
 1527SOL     OW16039   1.873   2.956   5.776 -0.4224 -0.1229 -0.2713
 1527SOL    HW116040   1.956   2.961   5.824 -0.6872  2.1218 -0.0429
 1527SOL    HW216041   1.838   2.873   5.807  1.7410  0.0659  2.6149
 1528SOL     OW16042   3.524   1.465  17.481 -0.1457 -0.3199  0.4545
 1528SOL    HW116043   3.518   1.540  17.421  1.2901 -0.7703 -0.2669
 1528SOL    HW216044   3.439   1.471  17.523 -0.7793 -1.7717 -0.6332
 1529SOL     OW16045   1.658   4.331   6.188  0.1936  0.7495 -0.2717
 1529SOL    HW116046   1.659   4.289   6.274  0.0634  1.5057  0.0999
 1529SOL    HW216047   1.718   4.405   6.194  1.3649 -0.0505 -2.2786
 1530SOL     OW16048   3.292   4.243   3.286  0.7807  0.0641  0.2175
 1530SOL    HW116049   3.374   4.292   3.290 -0.5225  2.3559 -1.7328
 1530SOL    HW216050   3.299   4.195   3.204 -0.9022  0.2505 -0.0389
 1531SOL     OW16051   3.716   0.449   6.580 -0.0601 -0.0862 -0.4337
 1531SOL    HW116052   3.778   0.521   6.570  0.7180 -0.9924 -2.0705
 1531SOL    HW216053   3.762   0.393   6.643 -0.9624  0.8733  1.0888
 1532SOL     OW16054   4.165   3.566  15.129 -0.0757 -0.4438 -0.3953
 1532SOL    HW116055   4.206   3.625  15.065  1.2229  0.9481  1.7549
 1532SOL    HW216056   4.238   3.516  15.164 -0.2816 -0.5960 -0.1878
 1533SOL     OW16057   0.190   2.442   2.269  0.2030 -0.3665  0.6032
 1533SOL    HW116058   0.118   2.494   2.306  1.0923  0.9556  0.4561
 1533SOL    HW216059   0.215   2.491   2.191  0.0434  1.2248  1.5413
 1534SOL     OW16060   2.839   4.663   3.457  0.2574 -0.1004 -0.1962
 1534SOL    HW116061   2.894   4.653   3.535  0.6077  2.0971 -0.1525
 1534SOL    HW216062   2.892   4.717   3.397  1.5485 -3.0216 -1.6736
 1535SOL     OW16063   3.399   1.840   4.099 -0.3795  0.1332  0.0065
 1535SOL    HW116064   3.450   1.780   4.044  0.6998  1.6443 -0.6598
 1535SOL    HW216065   3.309   1.809   4.096 -0.5586  0.7450 -1.2021
 1536SOL     OW16066   0.219   3.563  15.762 -0.3454 -0.3151 -0.3054
 1536SOL    HW116067   0.312   3.584  15.773 -0.5988 -1.1974  3.5658
 1536SOL    HW216068   0.229   3.535  15.670  1.0570  0.0526 -0.2746
 1537SOL     OW16069   0.084   2.068   4.102 -0.1447  0.0758  0.3433
 1537SOL    HW116070   0.075   2.150   4.150 -0.2357 -1.4552  2.9712
 1537SOL    HW216071   0.073   2.099   4.013 -1.2562 -0.0274  0.4414
 1538SOL     OW16072   0.492   1.537   4.299  0.7146 -0.3059 -0.2034
 1538SOL    HW116073   0.419   1.518   4.240  2.8725 -1.1661 -2.6116
 1538SOL    HW216074   0.452   1.534   4.385 -1.5062  1.5017 -1.1766
 1539SOL     OW16075   1.207   4.002   7.255  0.2348  0.1664 -0.3546
 1539SOL    HW116076   1.256   4.066   7.204  0.8231  0.6681  0.8258
 1539SOL    HW216077   1.245   3.919   7.227 -1.2820 -1.1626  1.4887
 1540SOL     OW16078   1.850   4.484   0.663 -0.6289 -0.3986 -0.2164
 1540SOL    HW116079   1.837   4.536   0.584  2.9913 -0.4259 -0.8310
 1540SOL    HW216080   1.777   4.514   0.718 -0.5303  1.3589 -1.0398
 1541SOL     OW16081   0.226   1.538  11.852  0.3574  0.1451  0.1833
 1541SOL    HW116082   0.300   1.546  11.912 -1.2998 -0.8104  2.3732
 1541SOL    HW216083   0.236   1.445  11.833  0.3333  0.3998 -1.0732
 1542SOL     OW16084   4.061   3.391   4.057 -0.3987  0.0222  0.6156
 1542SOL    HW116085   4.111   3.413   3.979 -2.0093 -1.0057 -0.7031
 1542SOL    HW216086   4.063   3.466   4.117 -1.3922 -0.9317  1.8609
 1543SOL     OW16087   2.558   4.255  11.205 -0.0878  0.2382  0.3928
 1543SOL    HW116088   2.637   4.201  11.201 -1.7514 -2.1304 -0.6391
 1543SOL    HW216089   2.483   4.205  11.238 -1.0421  0.1697 -1.8678
 1544SOL     OW16090   3.128   4.682   4.858  0.2011  0.5603 -0.1709
 1544SOL    HW116091   3.059   0.027   4.845  0.5920  1.7535  3.6349
 1544SOL    HW216092   3.188   0.005   4.798  0.6157 -0.1839 -0.2928
 1545SOL     OW16093   2.608   3.815  16.326  0.6686  0.3960 -0.0123
 1545SOL    HW116094   2.560   3.774  16.398 -1.8504  0.6160 -1.6014
 1545SOL    HW216095   2.697   3.787  16.348  0.0238 -0.6784  1.2065
 1546SOL     OW16096   2.024   1.399   2.860  0.2911 -0.0751 -0.7701
 1546SOL    HW116097   2.003   1.361   2.775  0.7809 -2.1208  0.0352
 1546SOL    HW216098   2.048   1.487   2.830  1.5080 -0.3286 -0.5517
 1547SOL     OW16099   1.320   0.155  15.837  0.4577 -0.6262 -0.4963
 1547SOL    HW116100   1.327   0.231  15.779  0.7800  0.0278  0.3995
 1547SOL    HW216101   1.371   0.190  15.910 -0.1089  1.9915 -1.3407
 1548SOL     OW16102   3.957   3.607   4.535  0.2071  0.0520  0.1872
 1548SOL    HW116103   3.978   3.545   4.465  2.5542  0.6853  0.3538
 1548SOL    HW216104   4.009   3.564   4.603  0.2776 -0.3313 -0.1091
 1549SOL     OW16105   3.096   4.466   1.972 -0.6734 -0.0718  0.0364
 1549SOL    HW116106   3.001   4.470   1.956 -0.6071  0.3639 -0.2472
 1549SOL    HW216107   3.136   4.485   1.887  0.1902  1.3770  0.7696
 1550SOL     OW16108   0.447   1.405  13.676  0.0323 -0.8465 -0.5365
 1550SOL    HW116109   0.530   1.443  13.704  0.5950 -1.6303 -1.1515
 1550SOL    HW216110   0.463   1.315  13.648 -0.6329 -2.0856  3.0889
 1551SOL     OW16111   3.084   3.038   7.530 -0.3579 -0.0129  0.3879
 1551SOL    HW116112   3.126   2.953   7.514  0.0010  0.2456 -0.0668
 1551SOL    HW216113   3.077   3.074   7.442 -0.0355  0.6710  0.6427
 1552SOL     OW16114   3.008   3.980  11.513  0.6561  0.1753  0.4823
 1552SOL    HW116115   2.949   3.907  11.533 -0.9230  1.5789  0.8739
 1552SOL    HW216116   3.037   4.002  11.601 -0.0618 -0.7098  0.9345
 1553SOL     OW16117   3.007   2.905  10.568  0.0576 -0.6400  0.5148
 1553SOL    HW116118   2.931   2.951  10.534  0.9538  1.8062  1.8363
 1553SOL    HW216119   3.037   2.859  10.489 -0.8010  2.2335 -1.4696
 1554SOL     OW16120   4.680   1.740   8.215 -0.6517  0.1152 -0.5469
 1554SOL    HW116121   0.018   1.805   8.255 -0.7288 -0.1491  0.0005
 1554SOL    HW216122   4.716   1.654   8.238  0.2726  0.7204  0.3324
 1555SOL     OW16123   4.312   1.479  13.645 -0.3857 -0.0937  0.4981
 1555SOL    HW116124   4.388   1.472  13.703  0.6882 -1.0008 -1.0150
 1555SOL    HW216125   4.312   1.572  13.623 -0.5279 -0.2931 -0.3237
 1556SOL     OW16126   1.432   2.942   1.206 -0.3580  0.0854  0.3420
 1556SOL    HW116127   1.446   3.036   1.202  1.7062 -0.1755  1.3912
 1556SOL    HW216128   1.408   2.923   1.115 -1.7735 -1.0292  0.9562
 1557SOL     OW16129   3.215   4.681   6.787  0.6179  0.1538  0.3930
 1557SOL    HW116130   3.247   4.686   6.697 -0.3929 -0.2019  0.0182
 1557SOL    HW216131   3.290   4.636   6.828  2.1513  1.5996 -0.8393
 1558SOL     OW16132   2.689   0.689  17.163  0.4341  0.3433  0.6082
 1558SOL    HW116133   2.608   0.739  17.176  0.6031  0.3274  1.6892
 1558SOL    HW216134   2.683   0.613  17.221  0.6107 -1.0131 -1.1478
 1559SOL     OW16135   2.845   2.540  16.241  0.2614  0.3432  0.2690
 1559SOL    HW116136   2.869   2.496  16.322 -0.4704 -0.3849  0.0912
 1559SOL    HW216137   2.820   2.464  16.189 -2.2771  1.0030  0.5199
 1560SOL     OW16138   3.728   3.355   4.407 -0.7112  0.4358  0.1170
 1560SOL    HW116139   3.821   3.372   4.392 -0.1593  0.0645  3.1026
 1560SOL    HW216140   3.688   3.391   4.327  0.8012 -0.9736 -1.2834
 1561SOL     OW16141   0.671   3.139   9.744 -0.2391 -0.0173  0.5721
 1561SOL    HW116142   0.742   3.088   9.705  1.0149  1.0178  1.5026
 1561SOL    HW216143   0.710   3.222   9.771 -1.0780  0.4916  0.2336
 1562SOL     OW16144   0.097   4.648   9.392  0.3292  0.3639  0.0270
 1562SOL    HW116145   0.181   4.672   9.354 -0.6261 -0.6334 -2.6650
 1562SOL    HW216146   0.110   4.561   9.430 -1.9430  0.5547  1.2513
 1563SOL     OW16147   3.357   3.083   2.192 -0.1521 -0.2409 -0.1963
 1563SOL    HW116148   3.351   3.150   2.123 -1.3187 -0.2282 -0.0857
 1563SOL    HW216149   3.434   3.036   2.158  0.2837  0.2970  0.0437
 1564SOL     OW16150   1.417   0.263  12.788  0.8811  0.2526 -1.0046
 1564SOL    HW116151   1.495   0.214  12.814  0.3024 -0.2813 -0.2666
 1564SOL    HW216152   1.431   0.330  12.855 -0.1147 -1.0824  0.5384
 1565SOL     OW16153   2.462   4.576  12.506 -0.2807 -0.2190  0.5831
 1565SOL    HW116154   2.464   4.671  12.496 -0.8321 -0.0703  1.8614
 1565SOL    HW216155   2.389   4.550  12.450  0.6639  1.4420 -1.4344
 1566SOL     OW16156   3.137   2.060   2.869 -0.1268 -0.1725 -0.1840
 1566SOL    HW116157   3.197   2.026   2.803  0.6335  0.9262 -0.0684
 1566SOL    HW216158   3.064   2.104   2.824 -0.5857  1.9240  2.5636
 1567SOL     OW16159   1.492   4.206   0.109 -0.0653 -0.7332  0.4610
 1567SOL    HW116160   1.456   4.280   0.060  0.5079 -0.4972  0.3929
 1567SOL    HW216161   1.437   4.211   0.187  0.1874  0.7133  0.5460
 1568SOL     OW16162   0.228   1.455   2.780 -0.2587  0.0280 -0.2780
 1568SOL    HW116163   0.134   1.439   2.776 -0.1051 -0.6517 -1.1898
 1568SOL    HW216164   0.239   1.428   2.872  0.4530  1.3074  0.0067
 1569SOL     OW16165   2.101   3.815  13.248 -0.3584  0.0383  0.1524
 1569SOL    HW116166   2.181   3.866  13.230  1.9234 -4.5183 -2.5123
 1569SOL    HW216167   2.097   3.819  13.344  1.7850 -0.7076  0.2779
 1570SOL     OW16168   2.747   1.295  11.903  0.0529 -0.2024  0.2401
 1570SOL    HW116169   2.771   1.205  11.924 -0.1971 -0.0888  1.0252
 1570SOL    HW216170   2.659   1.276  11.871 -1.3875  3.1740  2.2069
 1571SOL     OW16171   2.685   1.024  10.832 -0.2701  0.2382 -0.3186
 1571SOL    HW116172   2.693   1.075  10.913  0.8702  0.9534 -0.8857
 1571SOL    HW216173   2.703   1.094  10.770  0.1310  0.5566  0.1556
 1572SOL     OW16174   1.365   1.347   2.472 -0.2788  0.1473 -0.4773
 1572SOL    HW116175   1.400   1.434   2.452 -0.7777  0.3667 -0.3841
 1572SOL    HW216176   1.425   1.282   2.435 -1.4209 -0.5031 -1.1807
 1573SOL     OW16177   4.249   4.643  16.662  0.3048 -0.3180  0.3027
 1573SOL    HW116178   4.173   4.617  16.715 -0.2288 -1.8678 -1.2412
 1573SOL    HW216179   4.312   4.603  16.721 -0.9651 -0.5574  1.5072
 1574SOL     OW16180   3.917   3.137  16.268  0.4142 -0.4031 -0.6899
 1574SOL    HW116181   3.971   3.068  16.306 -0.6140 -0.7137  0.1960
 1574SOL    HW216182   3.826   3.119  16.290 -0.0335  1.0430 -1.3377
 1575SOL     OW16183   1.609   2.960   6.794  0.4333 -0.6983 -0.3533
 1575SOL    HW116184   1.552   2.981   6.868  1.8608  1.7444  0.0482
 1575SOL    HW216185   1.541   2.932   6.732  0.3251 -0.2457 -0.4387
 1576SOL     OW16186   3.168   3.372   0.449 -0.0342  0.1025  0.4210
 1576SOL    HW116187   3.248   3.370   0.502 -0.3409  0.4454  0.9006
 1576SOL    HW216188   3.137   3.286   0.478 -0.3489 -0.9926 -3.1829
 1577SOL     OW16189   2.479   1.522   9.575  0.8461 -0.0233 -0.4531
 1577SOL    HW116190   2.453   1.515   9.483  0.8361 -1.1375 -0.3621
 1577SOL    HW216191   2.550   1.457   9.578 -2.7234 -3.8284  1.6098
 1578SOL     OW16192   0.230   0.313   1.348  0.3916  0.4691  0.6133
 1578SOL    HW116193   0.198   0.351   1.430 -1.6149 -1.3544  0.6804
 1578SOL    HW216194   0.259   0.223   1.366 -0.6434 -0.3177 -1.6936
 1579SOL     OW16195   1.017   4.055   6.199 -0.3799 -0.0627  0.4476
 1579SOL    HW116196   1.100   4.030   6.160 -1.3661  0.8710 -2.2489
 1579SOL    HW216197   0.956   4.024   6.132 -0.1540 -0.8472  0.6145
 1580SOL     OW16198   4.617   3.289   4.157  0.1796 -0.0752 -0.4543
 1580SOL    HW116199   4.635   3.302   4.250  2.3166 -1.2306 -0.7034
 1580SOL    HW216200   4.700   3.294   4.109 -0.0544  3.1635 -0.5170
 1581SOL     OW16201   1.251   1.964   2.995  0.7832 -0.4627  0.6129
 1581SOL    HW116202   1.264   1.877   3.034 -1.3217 -1.1211 -0.1036
 1581SOL    HW216203   1.207   1.938   2.914  3.0508  0.3024 -0.8549
 1582SOL     OW16204   3.563   1.612  15.943  0.4510  0.1106 -0.2168
 1582SOL    HW116205   3.589   1.691  15.989 -0.2834  0.5734 -0.6065
 1582SOL    HW216206   3.503   1.638  15.873  2.5723  1.7186 -1.4499
 1583SOL     OW16207   0.179   0.358  12.528 -0.3139  0.2963  0.3190
 1583SOL    HW116208   0.230   0.410  12.590 -3.2691  1.3335  1.9047
 1583SOL    HW216209   0.244   0.293  12.503 -1.4537 -0.2135 -1.3395
 1584SOL     OW16210   4.663   4.428   0.871 -0.0835  1.1307 -0.3127
 1584SOL    HW116211   4.619   4.431   0.956 -0.3330  0.1622 -0.4067
 1584SOL    HW216212   4.710   4.512   0.869 -0.5595  1.4268  1.2455
 1585SOL     OW16213   1.335   4.598   2.957  0.2600 -0.3348  0.0745
 1585SOL    HW116214   1.337   4.513   3.001  0.7699  0.2440  1.1514
 1585SOL    HW216215   1.309   4.563   2.871  1.9713 -0.2887 -0.4520
 1586SOL     OW16216   2.998   2.470   5.219  0.3609  0.0432  0.9087
 1586SOL    HW116217   2.942   2.547   5.210  0.4492  0.2852  2.4967
 1586SOL    HW216218   2.937   2.400   5.243  1.1267 -1.1073 -0.4182
 1587SOL     OW16219   4.077   3.826   2.506  0.5187  0.2315  0.1824
 1587SOL    HW116220   4.015   3.890   2.541  2.0392  1.0830  1.3654
 1587SOL    HW216221   4.155   3.881   2.513 -0.6405  1.5745  2.6262
 1588SOL     OW16222   4.398   2.263   6.625  0.7439  0.2151 -0.3034
 1588SOL    HW116223   4.399   2.171   6.652  0.2048 -0.3415 -2.2078
 1588SOL    HW216224   4.466   2.263   6.557  1.1218 -0.6552  0.0709
 1589SOL     OW16225   0.121   1.544  15.141  0.1090  0.0933  0.6886
 1589SOL    HW116226   0.072   1.464  15.163  0.3891 -0.5731 -1.0837
 1589SOL    HW216227   0.047   1.605  15.140 -0.4983 -0.6087  1.8143
 1590SOL     OW16228   1.811   2.540   9.923 -0.6907  0.6406  0.1486
 1590SOL    HW116229   1.825   2.465   9.865  1.3244  2.1972 -1.3789
 1590SOL    HW216230   1.821   2.502  10.011  1.7287 -0.5486 -0.6327
 1591SOL     OW16231   4.720   4.096   4.248 -0.6241 -0.2608 -0.3878
 1591SOL    HW116232   4.690   4.060   4.165 -0.6878  0.8085 -0.8341
 1591SOL    HW216233   0.052   4.024   4.283 -1.4678  0.0245  1.4564
 1592SOL     OW16234   2.292   2.754   6.151  0.2232 -0.5443 -0.1877
 1592SOL    HW116235   2.251   2.841   6.152  0.9872 -0.1815 -1.5462
 1592SOL    HW216236   2.364   2.765   6.213  0.3447 -2.0629 -0.0497
 1593SOL     OW16237   4.447   2.974  10.185  0.0345  0.2900  0.1197
 1593SOL    HW116238   4.409   3.035  10.249 -1.4156 -1.4344  0.8982
 1593SOL    HW216239   4.527   2.937  10.221 -0.8892 -1.1149  0.7136
 1594SOL     OW16240   0.702   3.955   3.187 -1.3721 -0.0568  0.1381
 1594SOL    HW116241   0.656   3.931   3.268 -0.2400  1.1644  1.1405
 1594SOL    HW216242   0.656   3.898   3.125 -0.9988  0.1603 -0.3441
 1595SOL     OW16243   1.440   3.493   0.750 -0.1154 -0.7316 -0.0628
 1595SOL    HW116244   1.486   3.537   0.678 -0.7150  1.5043  0.9244
 1595SOL    HW216245   1.459   3.557   0.819  2.9059 -0.6164 -1.0022
 1596SOL     OW16246   3.308   0.132   0.377 -0.7619 -0.4162 -0.0535
 1596SOL    HW116247   3.264   0.187   0.313  1.8339  1.8098  0.0563
 1596SOL    HW216248   3.246   0.077   0.424 -0.1988 -1.9601 -1.1159
 1597SOL     OW16249   0.460   3.450   7.345  0.1308  0.0374 -0.0426
 1597SOL    HW116250   0.413   3.376   7.383  1.9056 -0.4111  1.2880
 1597SOL    HW216251   0.499   3.417   7.264 -0.1350  0.1406 -0.2116
 1598SOL     OW16252   0.004   2.141   6.011  0.1353 -0.2025  0.1146
 1598SOL    HW116253   4.635   2.172   6.003 -0.3418 -1.3199  1.1324
 1598SOL    HW216254   0.050   2.217   6.045  1.6924 -0.7609 -0.7265
 1599SOL     OW16255   3.665   1.512  12.957  0.1513  0.3336 -0.5104
 1599SOL    HW116256   3.675   1.463  13.038 -1.4749  0.8677  0.0157
 1599SOL    HW216257   3.737   1.575  12.965  0.9467 -0.6431 -0.0516
 1600SOL     OW16258   3.891   0.621   0.272  0.2184  0.1648 -0.6575
 1600SOL    HW116259   3.868   0.652   0.184  1.0387  1.4359 -0.4203
 1600SOL    HW216260   3.869   0.700   0.320 -1.3497 -0.4632 -0.3188
 1601SOL     OW16261   3.682   0.542   8.069 -0.0553 -0.2100 -0.1144
 1601SOL    HW116262   3.716   0.628   8.043 -1.7574  0.9346  1.3913
 1601SOL    HW216263   3.588   0.561   8.075 -0.0792 -1.0143  2.0252
 1602SOL     OW16264   3.161   0.262   7.944  0.1177  0.7242  0.2251
 1602SOL    HW116265   3.068   0.273   7.963  0.6055 -0.1949  3.1937
 1602SOL    HW216266   3.163   0.295   7.855  0.4168 -0.5975 -0.2523
 1603SOL     OW16267   0.729   0.789   6.910  1.0032 -0.1657  0.0508
 1603SOL    HW116268   0.816   0.809   6.877  0.5712  0.7063 -0.5748
 1603SOL    HW216269   0.676   0.848   6.856  1.3404  1.3613  1.3660
 1604SOL     OW16270   2.146   0.327  12.904  0.2709 -0.2590 -0.1515
 1604SOL    HW116271   2.166   0.248  12.954  1.2468 -0.3288 -0.6662
 1604SOL    HW216272   2.214   0.388  12.932  0.3880 -0.6370  0.3834
 1605SOL     OW16273   1.389   2.936  11.019 -0.2675 -0.4088 -0.5002
 1605SOL    HW116274   1.473   2.920  10.976  0.3973  0.7708  0.3573
 1605SOL    HW216275   1.326   2.898  10.958 -0.5929 -3.2355  1.5747
 1606SOL     OW16276   1.246   3.613  14.113  0.3244 -0.1257  0.0544
 1606SOL    HW116277   1.232   3.697  14.069  3.0582  0.0414 -0.4610
 1606SOL    HW216278   1.221   3.549  14.046  1.5482 -1.0456  0.4964
 1607SOL     OW16279   2.330   1.036   9.604 -0.1374  0.2787  0.5554
 1607SOL    HW116280   2.336   1.107   9.668 -1.4395 -1.4443  2.6031
 1607SOL    HW216281   2.347   1.086   9.525  0.4989  0.8236  1.0406
 1608SOL     OW16282   0.340   0.752  16.670 -0.2756  0.2096 -0.1960
 1608SOL    HW116283   0.436   0.742  16.668 -0.2199  0.6364  0.4831
 1608SOL    HW216284   0.319   0.690  16.740 -1.0641 -0.1514 -0.7590
 1609SOL     OW16285   2.308   2.001   5.876  0.9885  0.3563  0.0083
 1609SOL    HW116286   2.263   1.963   5.801 -0.5994 -0.6929  1.4764
 1609SOL    HW216287   2.299   2.096   5.869 -0.2923  0.2580  0.4321
 1610SOL     OW16288   2.163   4.120   6.703  0.7528 -0.5380 -0.1229
 1610SOL    HW116289   2.184   4.058   6.772  0.0652  0.0171  0.5870
 1610SOL    HW216290   2.108   4.186   6.745 -0.6830 -1.1718 -1.0184
 1611SOL     OW16291   1.164   3.745  16.846  0.4182  0.2401 -0.2404
 1611SOL    HW116292   1.215   3.817  16.808 -2.0345  1.6744 -0.8180
 1611SOL    HW216293   1.157   3.700  16.761 -0.3968  0.6097 -0.3690
 1612SOL     OW16294   3.109   3.803  14.885  0.2074  0.4827 -0.3085
 1612SOL    HW116295   3.105   3.877  14.825  4.0949  0.3965 -0.6761
 1612SOL    HW216296   3.128   3.842  14.971  2.7135 -1.7961  0.1868
 1613SOL     OW16297   2.110   0.959   1.020 -0.4255 -0.1702 -0.2888
 1613SOL    HW116298   2.130   1.022   1.089  0.5342  0.8934 -1.5439
 1613SOL    HW216299   2.147   0.881   1.063  1.0649  0.3424 -0.6447
 1614SOL     OW16300   2.424   0.360   7.740  0.3923 -0.1088 -0.1460
 1614SOL    HW116301   2.365   0.406   7.800  0.0049 -2.3874  1.1901
 1614SOL    HW216302   2.357   0.365   7.671 -0.0644 -1.0654  0.2391
 1615SOL     OW16303   4.311   3.442   9.523  0.0685  0.2514  0.2120
 1615SOL    HW116304   4.259   3.487   9.456  1.6086 -0.0913 -1.2143
 1615SOL    HW216305   4.386   3.500   9.516 -1.2556  1.8405 -0.7706
 1616SOL     OW16306   1.128   2.526  13.304 -0.5551  0.2649 -0.0096
 1616SOL    HW116307   1.218   2.558  13.300  0.2196 -2.2537 -2.0035
 1616SOL    HW216308   1.071   2.603  13.312  1.6025  1.9384 -0.8428
 1617SOL     OW16309   1.160   1.749   1.206 -0.5541  0.4656 -0.2561
 1617SOL    HW116310   1.248   1.711   1.197 -0.8931 -0.7055  1.3715
 1617SOL    HW216311   1.121   1.684   1.264  0.0746  0.1573 -0.1765
 1618SOL     OW16312   0.408   1.841   9.187  0.5704  0.5275 -0.5469
 1618SOL    HW116313   0.475   1.900   9.154  1.4166 -1.0745 -1.6771
 1618SOL    HW216314   0.375   1.894   9.260 -2.0955 -4.0292  1.5617
 1619SOL     OW16315   0.131   4.367   9.264 -0.4696  0.7580  0.2582
 1619SOL    HW116316   0.159   4.424   9.192 -1.5253 -1.5554 -1.9822
 1619SOL    HW216317   0.113   4.286   9.216 -0.4889  1.0763 -0.2720
 1620SOL     OW16318   1.222   0.164   8.318  0.4107 -0.2233  0.6117
 1620SOL    HW116319   1.149   0.110   8.288 -0.5562  0.8490  1.0335
 1620SOL    HW216320   1.183   0.234   8.371  3.3690 -0.4670  3.0744
 1621SOL     OW16321   2.963   3.676   1.726 -0.2446 -0.1774  0.1395
 1621SOL    HW116322   2.876   3.636   1.731  0.9923 -2.7435  1.0401
 1621SOL    HW216323   2.996   3.633   1.647 -0.1038  0.0410  0.0784
 1622SOL     OW16324   2.548   0.301   2.439  0.1929  0.1743  0.3109
 1622SOL    HW116325   2.609   0.368   2.471 -1.2399  0.4090  2.5780
 1622SOL    HW216326   2.580   0.305   2.349  1.2634  0.1522  0.6872
 1623SOL     OW16327   3.037   3.862  16.570  0.3504 -0.3558  0.2675
 1623SOL    HW116328   3.038   3.868  16.666 -0.1303  1.4785  0.1548
 1623SOL    HW216329   3.109   3.917  16.539 -2.5210  1.7304 -2.6917
 1624SOL     OW16330   1.212   1.035   8.711  0.5502  0.4344 -0.6945
 1624SOL    HW116331   1.261   1.110   8.745  1.1517  0.0740 -0.7702
 1624SOL    HW216332   1.164   1.015   8.792  0.9826 -0.7561 -0.7329
 1625SOL     OW16333   4.442   1.220  13.554  0.0865  0.4083 -0.3017
 1625SOL    HW116334   4.369   1.274  13.584 -1.2485 -0.7115 -1.4818
 1625SOL    HW216335   4.499   1.290  13.524  1.2882 -0.1971  0.5565
 1626SOL     OW16336   2.638   0.527   7.622  0.1571  0.1404  0.1572
 1626SOL    HW116337   2.595   0.610   7.642 -0.0528  0.0093  0.2564
 1626SOL    HW216338   2.606   0.471   7.693  0.2797 -0.4179 -0.2235
 1627SOL     OW16339   0.283   1.019   6.194  0.2327  0.4933 -0.0517
 1627SOL    HW116340   0.330   0.957   6.249  0.9383  0.6816 -0.4479
 1627SOL    HW216341   0.191   1.001   6.212  0.1710  1.9520  1.1107
 1628SOL     OW16342   0.280   1.791  15.181  0.7435  0.4175  0.7162
 1628SOL    HW116343   0.233   1.721  15.135 -0.7507 -0.1477  3.0846
 1628SOL    HW216344   0.333   1.816  15.106  1.5879 -2.9142  0.2001
 1629SOL     OW16345   0.927   2.277   6.663  0.4305  0.6006 -0.0326
 1629SOL    HW116346   0.845   2.228   6.676  0.0902  1.2604  0.3307
 1629SOL    HW216347   0.932   2.322   6.747  0.4076  1.6080 -0.5775
 1630SOL     OW16348   2.059   3.599   6.445 -0.5766  0.1017 -0.1036
 1630SOL    HW116349   2.154   3.591   6.457 -0.0135  2.4885 -2.7712
 1630SOL    HW216350   2.038   3.531   6.508  2.0763  0.9150  1.6701
 1631SOL     OW16351   3.337   2.242   4.032 -0.7780 -0.4512  0.7106
 1631SOL    HW116352   3.410   2.295   4.064  1.7627 -3.5613  0.0952
 1631SOL    HW216353   3.301   2.224   4.119 -3.0437 -0.5846 -0.2574
 1632SOL     OW16354   1.674   4.229   8.161 -0.2424  0.2854  0.0885
 1632SOL    HW116355   1.604   4.166   8.176 -0.1960 -0.0734 -1.2081
 1632SOL    HW216356   1.626   4.307   8.133  0.3429  0.0209 -1.6634
 1633SOL     OW16357   3.529   2.746  11.922 -0.3154  0.7573 -0.5091
 1633SOL    HW116358   3.593   2.775  11.856 -0.1351  0.0983 -0.6253
 1633SOL    HW216359   3.526   2.651  11.913 -0.3663  0.6545  0.6138
 1634SOL     OW16360   3.566   2.810   7.157 -0.4554 -0.3106  0.4726
 1634SOL    HW116361   3.538   2.777   7.242 -3.8431  2.8664  0.5776
 1634SOL    HW216362   3.536   2.745   7.093  1.8161  0.2602 -1.1942
 1635SOL     OW16363   1.975   4.705   2.308 -0.1833  0.1805  0.4704
 1635SOL    HW116364   2.026   4.625   2.318 -1.3322 -0.3514  2.2177
 1635SOL    HW216365   1.888   4.665   2.308  0.3555 -0.9903 -0.2983
 1636SOL     OW16366   4.429   0.033   7.244  0.1306  0.0220  0.6217
 1636SOL    HW116367   4.461   0.007   7.158 -2.0164  0.3943 -0.3099
 1636SOL    HW216368   4.395   0.121   7.226  0.6929  0.2268  0.5635
 1637SOL     OW16369   3.138   2.029   4.929  0.0033 -0.3394 -0.9868
 1637SOL    HW116370   3.164   2.028   5.021  0.1532  0.0646 -1.0239
 1637SOL    HW216371   3.137   1.937   4.903 -0.6804 -0.3237 -1.0319
 1638SOL     OW16372   2.098   1.671   3.272 -0.5447 -0.3723 -0.5907
 1638SOL    HW116373   2.090   1.576   3.276  0.0005 -0.4234 -0.7373
 1638SOL    HW216374   2.151   1.693   3.349  0.1238  0.0727 -1.1772
 1639SOL     OW16375   2.688   1.780   2.627  0.6033 -0.2277  0.7080
 1639SOL    HW116376   2.750   1.853   2.628 -0.2768  0.4729  4.5482
 1639SOL    HW216377   2.651   1.789   2.715  0.6299 -0.4802  0.7453
 1640SOL     OW16378   1.615   3.401   3.634  0.1791  0.1006  0.0049
 1640SOL    HW116379   1.646   3.370   3.549  1.7844  3.9268 -0.7919
 1640SOL    HW216380   1.538   3.446   3.598  0.6674 -0.2870 -1.5162
 1641SOL     OW16381   0.208   1.721   9.072  0.3017 -0.6325 -0.4201
 1641SOL    HW116382   0.275   1.781   9.107  1.0933 -0.2961 -2.5040
 1641SOL    HW216383   0.260   1.653   9.028 -1.4747 -1.9698 -0.4296
 1642SOL     OW16384   1.230   0.064   7.538 -0.2605  0.4210  0.9260
 1642SOL    HW116385   1.270   4.702   7.508 -0.3558  0.6739  0.0967
 1642SOL    HW216386   1.270   0.122   7.473  2.4344  0.8812  2.9858
 1643SOL     OW16387   2.048   3.845   1.345  0.4568 -0.1890 -0.7778
 1643SOL    HW116388   2.051   3.937   1.319  0.6004 -0.5386 -2.0303
 1643SOL    HW216389   1.957   3.818   1.333  0.6302 -0.1278 -2.2149
 1644SOL     OW16390   4.557   0.227   4.490  0.5360  0.4442  0.3328
 1644SOL    HW116391   4.565   0.254   4.398 -0.9301 -2.4746 -0.6569
 1644SOL    HW216392   4.499   0.154   4.471  0.9690  0.7001 -1.9718
 1645SOL     OW16393   4.436   1.781   9.194  0.4381  0.8449 -0.0314
 1645SOL    HW116394   4.394   1.734   9.122  0.2135  0.0323  0.6253
 1645SOL    HW216395   4.529   1.764   9.177  0.2023 -0.2891 -0.1890
 1646SOL     OW16396   3.120   2.473   2.665 -0.2043  0.1415 -0.0317
 1646SOL    HW116397   3.186   2.443   2.602 -1.7267 -0.8518 -1.1485
 1646SOL    HW216398   3.169   2.527   2.727  0.5549 -0.8986  0.2756
 1647SOL     OW16399   1.350   4.610  15.830  0.0701  0.7822  0.2114
 1647SOL    HW116400   1.443   4.590  15.835  0.2993  1.5824 -1.0315
 1647SOL    HW216401   1.355   4.704  15.848  1.6537  0.6768  0.3201
 1648SOL     OW16402   2.237   2.106  11.245  0.4275 -0.0316 -0.4262
 1648SOL    HW116403   2.223   2.045  11.317  1.2358 -0.0586 -0.2919
 1648SOL    HW216404   2.147   2.137  11.236  1.1669  1.7042 -1.7627
 1649SOL     OW16405   0.259   2.235  16.197  0.3983 -0.1338  0.9563
 1649SOL    HW116406   0.201   2.205  16.267 -0.4875  0.7490  0.5991
 1649SOL    HW216407   0.228   2.183  16.123 -1.1075 -0.0832  1.5410
 1650SOL     OW16408   1.310   3.715   6.281  0.5104  0.0998  0.2476
 1650SOL    HW116409   1.345   3.777   6.216  1.8059  2.4395  3.1595
 1650SOL    HW216410   1.259   3.769   6.342 -1.0092 -0.9136 -0.1462
 1651SOL     OW16411   0.297   2.479  12.469 -0.8664 -0.0543 -0.3611
 1651SOL    HW116412   0.227   2.462  12.406 -0.2950  3.9056 -2.0184
 1651SOL    HW216413   0.313   2.572  12.460  1.6287 -0.5604 -1.2694
 1652SOL     OW16414   0.918   1.627   9.003 -0.0107 -0.3615  0.1119
 1652SOL    HW116415   0.850   1.560   8.995 -1.4112  1.0730 -0.0641
 1652SOL    HW216416   0.868   1.709   8.998  0.8927  0.2654  1.2177
 1653SOL     OW16417   1.881   4.509   4.490  0.3896  0.1086 -0.2665
 1653SOL    HW116418   1.875   4.470   4.403  0.9900  1.9561 -1.1421
 1653SOL    HW216419   1.882   4.604   4.478  0.5770  0.0048 -1.0633
 1654SOL     OW16420   0.917   4.703   6.479  0.0205  0.7303 -0.4764
 1654SOL    HW116421   0.912   0.031   6.561  0.2200  0.9943 -0.6223
 1654SOL    HW216422   0.916   4.612   6.508  0.8544  0.9089  0.0959
 1655SOL     OW16423   3.252   0.746   5.012 -0.2106  0.4080  0.6135
 1655SOL    HW116424   3.339   0.787   5.003 -0.7267  1.6224  1.1314
 1655SOL    HW216425   3.273   0.666   5.060  2.6196  1.2043  0.7444
 1656SOL     OW16426   1.604   2.819  11.529 -0.0179  0.1747 -0.1084
 1656SOL    HW116427   1.544   2.869  11.474  0.8192  0.2277 -0.9765
 1656SOL    HW216428   1.661   2.879  11.578 -0.6122  0.9080 -0.3292
 1657SOL     OW16429   4.343   4.158  12.393 -0.0743  0.0250  0.8044
 1657SOL    HW116430   4.343   4.240  12.344  1.3417 -0.4605 -0.0151
 1657SOL    HW216431   4.424   4.171  12.443  1.2826 -1.8608 -0.8910
 1658SOL     OW16432   0.917   3.710  13.699  0.1319  0.0943  0.7150
 1658SOL    HW116433   1.010   3.690  13.692  0.3249  1.3441 -0.3788
 1658SOL    HW216434   0.877   3.627  13.672  1.6388 -1.3851  3.0701
 1659SOL     OW16435   4.284   4.280   6.336  0.2118  0.1850 -0.9112
 1659SOL    HW116436   4.246   4.368   6.338  0.3975  0.2492  0.0921
 1659SOL    HW216437   4.235   4.239   6.265  1.3074 -1.0298 -0.9608
 1660SOL     OW16438   0.693   0.243   7.475  0.3384  0.3267 -0.3148
 1660SOL    HW116439   0.656   0.289   7.400 -1.0711 -0.3962 -0.0668
 1660SOL    HW216440   0.689   0.151   7.447 -0.0144  0.5656 -1.0444
 1661SOL     OW16441   4.280   2.279   9.333  0.4399 -0.1185  0.4837
 1661SOL    HW116442   4.340   2.329   9.278 -0.3862 -0.4116 -0.6694
 1661SOL    HW216443   4.314   2.193   9.311 -2.4088 -1.0150 -0.4154
 1662SOL     OW16444   1.494   4.047   4.950 -0.2600 -0.1087  0.0028
 1662SOL    HW116445   1.548   4.120   4.979  1.7783 -1.1353 -1.2095
 1662SOL    HW216446   1.561   3.979   4.944 -1.3062 -1.2216  0.7550
 1663SOL     OW16447   0.805   4.666  13.201  0.2736 -0.0939 -0.2490
 1663SOL    HW116448   0.840   0.034  13.211 -1.1204  0.5414 -1.0628
 1663SOL    HW216449   0.738   4.666  13.269  1.3348  1.1794  0.8108
 1664SOL     OW16450   4.534   4.596   6.520  0.1879  0.4890  0.1961
 1664SOL    HW116451   4.602   4.568   6.581 -0.3273  0.4339  0.7446
 1664SOL    HW216452   4.551   4.689   6.536 -2.4065  0.8876  0.6397
 1665SOL     OW16453   3.424   1.160  10.216  0.5378  0.3076 -0.1252
 1665SOL    HW116454   3.369   1.173  10.293 -1.1319 -0.0947 -1.2478
 1665SOL    HW216455   3.444   1.067  10.226  1.1921  0.5363  0.6777
 1666SOL     OW16456   2.873   1.638   1.888 -0.2496  0.5283  0.2058
 1666SOL    HW116457   2.869   1.692   1.966  0.4240 -0.9759  1.2746
 1666SOL    HW216458   2.858   1.690   1.809 -0.3593  2.2010  1.3267
 1667SOL     OW16459   4.557   0.595   4.355  0.0373 -0.2290 -0.3661
 1667SOL    HW116460   4.617   0.622   4.425 -0.6338  1.9882 -0.6502
 1667SOL    HW216461   4.477   0.600   4.407  1.2833 -1.5015  1.6728
 1668SOL     OW16462   2.152   4.328   7.505  0.8775 -0.2778  0.6961
 1668SOL    HW116463   2.195   4.244   7.525  2.8748  0.6864  0.3830
 1668SOL    HW216464   2.176   4.380   7.582  0.9332  1.5722 -0.5860
 1669SOL     OW16465   3.938   3.527   7.121  0.7484 -0.1593  0.4820
 1669SOL    HW116466   3.913   3.440   7.152  2.0144 -0.0949  1.6919
 1669SOL    HW216467   3.867   3.546   7.060  1.1075  2.8514  1.0280
 1670SOL     OW16468   4.117   0.965  15.533 -0.4691 -0.3469  0.1671
 1670SOL    HW116469   4.053   0.956  15.605 -0.5487  1.8032  0.3480
 1670SOL    HW216470   4.062   1.004  15.465 -0.5702  2.4315  1.8461
 1671SOL     OW16471   0.406   4.388   7.362  0.6759 -0.1969  0.0823
 1671SOL    HW116472   0.498   4.413   7.354  0.6138 -0.1175 -0.4114
 1671SOL    HW216473   0.371   4.440   7.290  3.8157 -1.7737 -2.5753
 1672SOL     OW16474   1.752   2.699   3.609  0.2324 -0.7101 -0.0578
 1672SOL    HW116475   1.677   2.749   3.641  1.4566 -1.5193  4.0829
 1672SOL    HW216476   1.725   2.610   3.634  4.3997 -2.0527 -0.3094
 1673SOL     OW16477   3.110   2.174   2.442 -0.5112  0.4482  0.1865
 1673SOL    HW116478   3.064   2.176   2.358  0.8561 -2.8021 -0.6337
 1673SOL    HW216479   3.150   2.087   2.446 -0.7042  0.2686 -1.7542
 1674SOL     OW16480   3.619   3.726   8.980 -0.1319  0.4189  0.1232
 1674SOL    HW116481   3.603   3.819   8.993  0.1068  0.6774 -1.4618
 1674SOL    HW216482   3.709   3.721   8.949 -0.0658  1.2190  0.1984
 1675SOL     OW16483   3.810   2.627   7.392 -0.0323 -0.2154 -0.4999
 1675SOL    HW116484   3.825   2.645   7.300  0.4973  0.2471 -0.3242
 1675SOL    HW216485   3.897   2.650   7.424 -0.0844 -0.5950 -0.0914
 1676SOL     OW16486   3.031   4.693  15.836  0.1956  0.1868  0.6099
 1676SOL    HW116487   3.066   4.684  15.747  1.1721 -0.1110  1.0167
 1676SOL    HW216488   3.101   0.005  15.893  0.4825  0.5574  0.0505
 1677SOL     OW16489   3.010   1.042   7.317 -0.1427 -0.1881 -0.5151
 1677SOL    HW116490   3.092   1.046   7.366 -0.4476  0.5862 -0.0707
 1677SOL    HW216491   2.982   1.134   7.321 -0.9440 -0.5135  1.3963
 1678SOL     OW16492   4.308   1.470   1.489 -0.1584 -0.0254 -0.0136
 1678SOL    HW116493   4.246   1.461   1.417  1.5984 -0.0280 -1.5161
 1678SOL    HW216494   4.243   1.493   1.556 -0.1104 -0.0783  0.0510
 1679SOL     OW16495   1.774   1.014   4.164  0.1207 -0.0965 -0.1341
 1679SOL    HW116496   1.706   1.081   4.151  1.3801  1.5833  2.0026
 1679SOL    HW216497   1.727   0.930   4.167  1.9958 -1.1028  0.8872
 1680SOL     OW16498   0.979   2.472  14.386 -0.3976 -0.0692  0.3530
 1680SOL    HW116499   0.932   2.555  14.392  0.6358  0.5868 -0.7098
 1680SOL    HW216500   1.068   2.501  14.405 -0.1204 -0.0078 -1.0722
 1681SOL     OW16501   2.474   3.187   7.206  0.0458 -0.3999 -0.1816
 1681SOL    HW116502   2.505   3.107   7.248  0.7563 -0.0359 -0.0105
 1681SOL    HW216503   2.516   3.247   7.268  0.1163  0.5435 -1.1391
 1682SOL     OW16504   4.282   1.296   8.044 -0.2113 -0.7466  0.4788
 1682SOL    HW116505   4.279   1.359   8.116  0.0857 -0.9493  0.6709
 1682SOL    HW216506   4.204   1.323   7.995  0.4061 -1.5396 -0.9219
 1683SOL     OW16507   3.682   1.810   2.952 -0.4392 -0.2643  0.2373
 1683SOL    HW116508   3.631   1.816   3.033 -3.2059 -0.3921 -1.5075
 1683SOL    HW216509   3.764   1.772   2.983 -0.3963 -0.2831  0.1025
 1684SOL     OW16510   1.999   3.728   5.039 -0.7977  0.3447  0.1626
 1684SOL    HW116511   1.917   3.711   5.085 -1.3730 -0.0402 -1.0248
 1684SOL    HW216512   1.973   3.680   4.961  1.3035  2.3331 -1.7661
 1685SOL     OW16513   2.308   1.198   1.035  0.4559  0.1479 -0.9055
 1685SOL    HW116514   2.288   1.262   1.104  2.0890 -0.8159  0.4642
 1685SOL    HW216515   2.332   1.123   1.089 -0.5023  0.1388 -0.4859
 1686SOL     OW16516   1.157   3.854   6.454 -1.1220 -0.1941 -1.1681
 1686SOL    HW116517   1.173   3.945   6.428 -2.4958  0.1671 -0.7264
 1686SOL    HW216518   1.084   3.861   6.515  1.1505  2.8689  1.2251
 1687SOL     OW16519   2.087   1.041   2.794 -0.8010  0.3616  0.7117
 1687SOL    HW116520   2.023   1.057   2.864 -1.0063 -2.4259  1.1706
 1687SOL    HW216521   2.141   0.980   2.844 -0.4175 -0.0444 -0.2103
 1688SOL     OW16522   4.436   3.493   6.012 -0.1406 -0.0944 -0.4529
 1688SOL    HW116523   4.497   3.468   6.082 -0.7928 -0.6355 -0.0789
 1688SOL    HW216524   4.392   3.412   5.986  1.1241 -0.0263 -2.7902
 1689SOL     OW16525   1.528   1.950   5.251  0.4474  0.2096  0.2624
 1689SOL    HW116526   1.584   1.984   5.320 -1.5856  0.9352  1.5550
 1689SOL    HW216527   1.591   1.967   5.181  1.5641  1.8050  1.6648
 1690SOL     OW16528   4.055   4.566   1.322 -0.2222  0.1341  0.6771
 1690SOL    HW116529   4.132   4.513   1.299  0.8194  2.0301 -0.2147
 1690SOL    HW216530   4.008   4.515   1.387 -0.2322 -0.5669  0.1118
 1691SOL     OW16531   3.531   0.379  11.292 -0.4788 -0.0784 -0.2310
 1691SOL    HW116532   3.462   0.355  11.354 -1.7907 -0.5480 -1.8835
 1691SOL    HW216533   3.537   0.473  11.309 -4.1189  0.8559 -3.9359
 1692SOL     OW16534   1.156   2.285  10.858 -0.1213 -0.2116  0.2823
 1692SOL    HW116535   1.221   2.348  10.827  1.6823 -1.3384  1.8096
 1692SOL    HW216536   1.213   2.223  10.902  0.9340  0.1563 -0.5527
 1693SOL     OW16537   1.998   1.651   5.604 -0.5891  0.0679 -0.2762
 1693SOL    HW116538   1.963   1.590   5.539  0.0284 -0.9041  0.2895
 1693SOL    HW216539   2.070   1.600   5.642  0.3468 -0.7903 -3.2032
 1694SOL     OW16540   2.056   1.873   4.599 -0.2972 -0.0986 -0.1522
 1694SOL    HW116541   2.090   1.827   4.521  2.2838 -0.3224  1.0958
 1694SOL    HW216542   1.974   1.910   4.568 -0.0168 -0.5309 -1.4258
 1695SOL     OW16543   4.514   1.109  11.825  0.1569 -0.1195  0.6453
 1695SOL    HW116544   4.547   1.020  11.809  1.3024  0.8942 -2.6756
 1695SOL    HW216545   4.436   1.104  11.770 -1.0539 -0.6512  2.4534
 1696SOL     OW16546   2.666   4.706  13.334 -0.1505 -0.4671 -0.7565
 1696SOL    HW116547   2.744   0.041  13.329  0.2413 -0.8000  2.2167
 1696SOL    HW216548   2.707   4.625  13.363  2.6486  2.5544  3.7437
 1697SOL     OW16549   0.156   2.865   3.963  0.5540  0.1346  0.4875
 1697SOL    HW116550   0.167   2.922   3.887  0.7127 -0.0246  0.3913
 1697SOL    HW216551   0.082   2.912   4.002  0.5206  0.3757  0.1361
 1698SOL     OW16552   1.854   3.510  16.511  0.0936  0.3727  0.0662
 1698SOL    HW116553   1.910   3.453  16.460 -0.8953  0.2996 -0.9309
 1698SOL    HW216554   1.827   3.437  16.566  0.5705  1.0094  1.1601
 1699SOL     OW16555   3.017   3.478   9.370  0.4235  0.0923  0.3458
 1699SOL    HW116556   3.009   3.560   9.419  1.5979  1.2974 -1.4818
 1699SOL    HW216557   3.045   3.414   9.434 -0.2895 -1.8748 -1.3251
 1700SOL     OW16558   0.930   3.448   2.972  0.3923 -0.0157 -0.5035
 1700SOL    HW116559   0.943   3.365   2.926  0.1829 -1.3875  1.9162
 1700SOL    HW216560   0.890   3.502   2.904 -0.3130 -1.7874 -1.4680
 1701SOL     OW16561   3.681   3.087   4.366  0.2326 -0.0159 -0.3551
 1701SOL    HW116562   3.587   3.087   4.385  0.5843  0.6722  1.4501
 1701SOL    HW216563   3.697   3.181   4.374  2.3876 -0.5936  2.3908
 1702SOL     OW16564   1.829   4.631   4.093 -0.0102 -0.0080  1.1838
 1702SOL    HW116565   1.750   4.635   4.039 -0.4031  0.3840  1.7868
 1702SOL    HW216566   1.793   4.631   4.182  1.3810  1.2875  1.7612
 1703SOL     OW16567   1.070   4.014   5.449 -0.2949 -0.3111 -0.1386
 1703SOL    HW116568   1.025   4.085   5.402 -2.1773 -0.1801  1.8635
 1703SOL    HW216569   1.099   4.055   5.530  1.2535 -3.3824  0.8500
 1704SOL     OW16570   0.324   3.368  13.801 -0.4836  0.2496 -0.7364
 1704SOL    HW116571   0.246   3.391  13.750 -0.3056  0.0908 -1.0747
 1704SOL    HW216572   0.328   3.276  13.777  0.3825 -0.2895  1.5374
 1705SOL     OW16573   3.601   0.320   9.266 -0.4940 -0.0067 -0.0210
 1705SOL    HW116574   3.678   0.377   9.273 -0.3672  0.1432 -2.7072
 1705SOL    HW216575   3.570   0.316   9.357 -1.9086 -0.7795 -0.5441
 1706SOL     OW16576   0.268   0.206   3.723 -0.6305  0.1217  0.1995
 1706SOL    HW116577   0.271   0.208   3.627 -0.3568 -0.0654  0.2066
 1706SOL    HW216578   0.361   0.219   3.740 -0.9465  1.7974  0.7216
 1707SOL     OW16579   2.325   0.488   8.326 -0.0676  1.1845  0.7822
 1707SOL    HW116580   2.246   0.500   8.274  0.8534  1.8169 -0.4865
 1707SOL    HW216581   2.283   0.480   8.411  0.8044 -0.0766  1.0959
 1708SOL     OW16582   1.209   4.389   4.850 -0.1388  0.3221 -0.1510
 1708SOL    HW116583   1.164   4.305   4.857  0.3854 -0.0353 -1.0846
 1708SOL    HW216584   1.167   4.429   4.774 -1.2106  0.2598  0.4086
 1709SOL     OW16585   1.999   0.737  15.041  0.1386 -0.7598 -0.5547
 1709SOL    HW116586   2.020   0.778  15.125  0.3624 -0.7226 -0.6267
 1709SOL    HW216587   2.084   0.702  15.014  0.0132 -0.8259 -0.8615
 1710SOL     OW16588   3.970   4.300  10.182  0.0531  0.3273  0.0927
 1710SOL    HW116589   3.983   4.260  10.096  1.8754  0.8245  0.1512
 1710SOL    HW216590   3.875   4.289  10.188 -0.0239  0.1446 -1.3949
 1711SOL     OW16591   4.177   1.392   9.198 -0.3591  0.0461 -0.3355
 1711SOL    HW116592   4.113   1.396   9.126 -0.4838 -3.5980 -0.4644
 1711SOL    HW216593   4.260   1.413   9.156 -0.1749 -1.6362 -0.8167
 1712SOL     OW16594   2.575   0.677  13.301  0.2588  0.1145  0.0827
 1712SOL    HW116595   2.506   0.696  13.364 -0.8510 -1.8311 -0.5657
 1712SOL    HW216596   2.624   0.610  13.349  0.5573  0.2403 -0.0448
 1713SOL     OW16597   0.530   1.921   7.637 -0.0206 -0.4717 -0.0527
 1713SOL    HW116598   0.473   1.921   7.714 -3.6303 -1.7998 -2.7284
 1713SOL    HW216599   0.560   1.830   7.630  0.1597 -0.4226  0.0591
 1714SOL     OW16600   0.831   3.919   7.047 -0.3555 -0.3165  0.5255
 1714SOL    HW116601   0.881   3.963   6.979  1.1171  0.3503  2.0630
 1714SOL    HW216602   0.777   3.993   7.074  1.1249  0.9783 -0.0707
 1715SOL     OW16603   4.146   0.707   6.873  0.1013  0.1119  0.3769
 1715SOL    HW116604   4.198   0.679   6.948  1.2572 -2.9300 -1.5750
 1715SOL    HW216605   4.110   0.793   6.894  0.1217 -0.0649  1.1442
 1716SOL     OW16606   2.687   2.128  15.827 -0.2542 -0.2684  0.0148
 1716SOL    HW116607   2.684   2.216  15.791  1.2849 -0.3920 -0.4088
 1716SOL    HW216608   2.767   2.090  15.790  0.0706  1.2160 -0.8140
 1717SOL     OW16609   0.875   3.538   9.319 -0.4507  0.2897  0.0298
 1717SOL    HW116610   0.963   3.577   9.321 -0.2224 -0.1929 -0.4249
 1717SOL    HW216611   0.896   3.475   9.388  0.8653  0.8016  0.1021
 1718SOL     OW16612   2.692   2.426   8.362  0.6063  0.4420 -0.2259
 1718SOL    HW116613   2.605   2.415   8.400  1.4031  0.9567  1.7453
 1718SOL    HW216614   2.746   2.414   8.441 -0.6688 -0.5079  0.4992
 1719SOL     OW16615   1.966   4.604   5.808  0.4871 -0.4917  0.0598
 1719SOL    HW116616   1.965   4.644   5.721  1.3041 -0.9893 -0.1717
 1719SOL    HW216617   1.978   4.514   5.778 -0.3924 -0.5703 -0.0561
 1720SOL     OW16618   1.933   0.192   3.649 -0.1191 -0.0093  0.5850
 1720SOL    HW116619   1.871   0.162   3.583  0.5761  2.9694 -1.3890
 1720SOL    HW216620   1.877   0.254   3.695  1.3957  0.4856  1.7668
 1721SOL     OW16621   1.162   3.909   4.378  0.1033 -0.1158 -0.1758
 1721SOL    HW116622   1.184   3.876   4.290 -1.2493 -0.1018 -0.5211
 1721SOL    HW216623   1.176   4.002   4.361 -1.2555  0.1014 -0.0882
 1722SOL     OW16624   3.759   0.440   0.432 -0.0823  0.0410  0.1600
 1722SOL    HW116625   3.830   0.461   0.370  0.9055  0.7153  1.5203
 1722SOL    HW216626   3.765   0.509   0.498 -0.8027  0.8843 -0.6601
 1723SOL     OW16627   1.128   3.040   6.570  0.3637 -0.2258 -0.6570
 1723SOL    HW116628   1.168   3.106   6.513  2.9039 -1.1326  0.0730
 1723SOL    HW216629   1.082   2.982   6.509 -1.7709  1.0951 -0.2980
 1724SOL     OW16630   1.090   0.438  15.958  0.3049 -0.1612 -0.0364
 1724SOL    HW116631   1.054   0.378  15.893 -2.1350  0.0038  1.1564
 1724SOL    HW216632   1.022   0.451  16.024  0.4929  2.1589 -0.2832
 1725SOL     OW16633   3.166   4.148   3.059 -0.1203  0.2346  0.2609
 1725SOL    HW116634   3.123   4.210   3.000 -0.0084  0.9516  0.9355
 1725SOL    HW216635   3.079   4.117   3.085 -0.0693  0.2669  0.4647
 1726SOL     OW16636   0.081   3.917   5.491  0.1936 -0.2646 -0.3008
 1726SOL    HW116637   0.052   3.994   5.540  1.6375  0.8428 -1.1839
 1726SOL    HW216638   0.102   3.852   5.559  0.8012  0.7277  0.4695
 1727SOL     OW16639   3.563   1.231   1.870 -0.8488 -0.1820  0.0777
 1727SOL    HW116640   3.518   1.311   1.847  1.6794  0.7715 -1.5643
 1727SOL    HW216641   3.582   1.197   1.783 -0.6228  0.6290 -0.1866
 1728SOL     OW16642   3.214   1.550   2.173  0.2778  0.4492 -0.4309
 1728SOL    HW116643   3.186   1.554   2.264 -2.7026 -0.1571 -1.3289
 1728SOL    HW216644   3.150   1.492   2.132  0.5732 -1.5829  2.0185
 1729SOL     OW16645   0.067   0.797  14.642 -0.5855 -0.1520 -0.3431
 1729SOL    HW116646   0.140   0.741  14.616  1.9128  3.1095 -0.2540
 1729SOL    HW216647   0.095   0.886  14.661  1.5463 -0.7886 -0.5414
 1730SOL     OW16648   2.467   4.202   2.706  0.1990 -0.5130  0.3595
 1730SOL    HW116649   2.513   4.217   2.789 -0.2419  1.7036  0.2175
 1730SOL    HW216650   2.378   4.188   2.736  0.4595  0.5236  1.6380
 1731SOL     OW16651   2.945   0.151   5.686  0.1922  0.2953 -0.1343
 1731SOL    HW116652   3.037   0.175   5.698 -0.0684  0.8806  0.7586
 1731SOL    HW216653   2.909   0.139   5.774  1.0282  0.0623  0.1743
 1732SOL     OW16654   3.138   1.261   3.445 -0.4943  0.7053  0.4184
 1732SOL    HW116655   3.090   1.273   3.526  0.8427 -2.7210  1.7345
 1732SOL    HW216656   3.133   1.166   3.437 -2.0238  0.8137  0.0536
 1733SOL     OW16657   1.539   1.884  15.356 -0.0632 -0.7664 -0.1324
 1733SOL    HW116658   1.501   1.804  15.393  0.8123 -0.6032  1.1155
 1733SOL    HW216659   1.613   1.834  15.321 -1.2505 -2.4613 -0.2028
 1734SOL     OW16660   3.940   2.653  17.460 -0.2877  0.0024  0.1696
 1734SOL    HW116661   3.917   2.745  17.454  0.3445  0.0556 -1.3873
 1734SOL    HW216662   4.035   2.652  17.456 -0.2808 -0.4558  0.4595
 1735SOL     OW16663   0.535   0.926   0.870 -0.2639  0.1382 -0.3673
 1735SOL    HW116664   0.442   0.945   0.861 -0.9217 -0.8900  4.1995
 1735SOL    HW216665   0.576   0.951   0.787  1.9339  2.5251  1.4320
 1736SOL     OW16666   1.119   1.671   4.363  0.1182  0.3779 -0.3000
 1736SOL    HW116667   1.212   1.685   4.382  0.4962 -3.1958  0.4192
 1736SOL    HW216668   1.077   1.751   4.395  1.2286  1.4096 -1.4094
 1737SOL     OW16669   0.960   2.264  11.943 -0.1498 -0.1084 -1.0569
 1737SOL    HW116670   0.954   2.177  11.904 -0.1930 -0.5425 -0.0880
 1737SOL    HW216671   0.968   2.315  11.862 -2.7862  0.7673 -0.7667
 1738SOL     OW16672   1.693   0.461   4.106  0.5291  0.0145  0.4785
 1738SOL    HW116673   1.604   0.429   4.121  0.7328 -0.9416 -0.3416
 1738SOL    HW216674   1.684   0.527   4.037  1.8643 -0.0537  0.2396
 1739SOL     OW16675   2.419   2.786  16.138  0.2100  0.2670  0.6065
 1739SOL    HW116676   2.439   2.713  16.196  0.1311 -0.9171 -0.8611
 1739SOL    HW216677   2.398   2.858  16.198  1.4392 -1.1429  2.6880
 1740SOL     OW16678   2.112   1.493  16.224 -0.1009  0.0183  0.0376
 1740SOL    HW116679   2.071   1.478  16.140 -1.3809  3.4822  0.0482
 1740SOL    HW216680   2.096   1.404  16.257  1.6399 -0.6453 -0.8982
 1741SOL     OW16681   4.704   2.414   5.921 -0.5189  0.1456  0.3229
 1741SOL    HW116682   4.659   2.375   5.846  1.6085  0.0210 -0.8935
 1741SOL    HW216683   0.023   2.493   5.885  0.0745 -0.3336 -0.0927
 1742SOL     OW16684   3.367   4.021  12.629  0.0526  0.2379 -0.3853
 1742SOL    HW116685   3.460   4.009  12.612 -0.1203  0.6188 -1.5947
 1742SOL    HW216686   3.341   4.066  12.548 -1.6189 -2.1046 -1.1373
 1743SOL     OW16687   3.670   2.947   8.492  0.5127 -0.3512  0.4212
 1743SOL    HW116688   3.636   3.024   8.446 -2.5388 -2.3066 -0.5497
 1743SOL    HW216689   3.594   2.944   8.550  1.0813  0.3386  1.2003
 1744SOL     OW16690   4.167   3.873  13.140  0.4132 -0.0757  0.2182
 1744SOL    HW116691   4.243   3.844  13.090  1.5541 -0.7212  2.3177
 1744SOL    HW216692   4.153   3.963  13.109 -1.2116 -0.6009 -0.5752
 1745SOL     OW16693   0.913   2.429   4.064 -0.9876 -0.3418 -0.6230
 1745SOL    HW116694   0.992   2.393   4.025  0.4696  1.7714  0.3634
 1745SOL    HW216695   0.851   2.380   4.010 -2.2168  1.4596 -0.8359
 1746SOL     OW16696   0.185   4.454   2.336  0.0419 -0.1329 -0.0703
 1746SOL    HW116697   0.126   4.380   2.322 -0.4130  0.2632 -0.2633
 1746SOL    HW216698   0.190   4.456   2.432 -1.0751  0.5000 -0.0213
 1747SOL     OW16699   4.641   4.108   9.288 -0.3793  0.1549 -0.0622
 1747SOL    HW116700   4.644   4.146   9.376  0.6794  0.1758 -0.1076
 1747SOL    HW216701   4.561   4.151   9.258 -0.5918 -1.0807 -1.2674
 1748SOL     OW16702   4.046   3.485   2.131 -0.4524 -0.1913  0.1352
 1748SOL    HW116703   4.015   3.468   2.221  0.2620 -0.1359  0.3882
 1748SOL    HW216704   4.012   3.574   2.123  0.9959  0.4156  0.8220
 1749SOL     OW16705   1.529   3.760   8.231  0.4473 -0.0622 -0.0472
 1749SOL    HW116706   1.452   3.702   8.230 -0.7005  1.4914 -1.9013
 1749SOL    HW216707   1.560   3.737   8.143 -1.9358  0.1726 -0.9558
 1750SOL     OW16708   0.316   3.331  13.348 -0.5997  0.0031  0.0556
 1750SOL    HW116709   0.395   3.354  13.299 -0.7195 -0.0842 -0.1794
 1750SOL    HW216710   0.358   3.271  13.410 -0.8346 -0.5926 -0.3564
 1751SOL     OW16711   1.311   2.649   4.296 -0.0216 -0.1255 -0.8011
 1751SOL    HW116712   1.241   2.702   4.333 -0.9018 -0.4218 -2.0343
 1751SOL    HW216713   1.316   2.692   4.211 -0.5015  0.6565 -0.4315
 1752SOL     OW16714   0.716   0.266   8.428 -0.3569 -0.1531 -0.4297
 1752SOL    HW116715   0.711   0.237   8.337 -1.4525 -0.0361 -0.4146
 1752SOL    HW216716   0.673   0.352   8.424 -1.1378 -0.5786 -1.2738
 1753SOL     OW16717   3.843   0.333   6.288  0.5040  0.3579 -0.1387
 1753SOL    HW116718   3.752   0.333   6.260  1.1711  3.1440 -2.2750
 1753SOL    HW216719   3.868   0.424   6.301  0.8812  0.1633  0.5059
 1754SOL     OW16720   0.362   2.676   3.833 -0.3166 -0.3901  0.1542
 1754SOL    HW116721   0.403   2.754   3.870 -1.7746  0.7547 -0.6027
 1754SOL    HW216722   0.270   2.703   3.828 -0.6169 -0.8638  3.3028
 1755SOL     OW16723   3.688   1.415   7.115 -0.1683  0.5818 -0.0102
 1755SOL    HW116724   3.729   1.354   7.177 -1.7597  0.6388  1.0829
 1755SOL    HW216725   3.751   1.401   7.044 -0.4583 -0.8332  0.0295
 1756SOL     OW16726   2.547   1.635   6.409 -0.0026 -0.1610  0.1710
 1756SOL    HW116727   2.570   1.566   6.470  0.3385  1.3413  1.7378
 1756SOL    HW216728   2.622   1.620   6.350  0.2359 -1.0698  0.7071
 1757SOL     OW16729   4.148   0.241   3.437  0.2359  0.5218  0.2204
 1757SOL    HW116730   4.146   0.215   3.345  0.6189 -1.5118  0.7812
 1757SOL    HW216731   4.242   0.236   3.455  0.1259  3.1039  1.4700
 1758SOL     OW16732   2.509   0.792   1.353 -0.2372 -0.3856  0.0210
 1758SOL    HW116733   2.442   0.729   1.323 -0.3166  0.2093 -1.0264
 1758SOL    HW216734   2.579   0.775   1.291 -0.9394 -1.5881 -0.4522
 1759SOL     OW16735   1.795   2.428  10.158 -0.1621  0.2670 -0.1591
 1759SOL    HW116736   1.712   2.389  10.187 -0.5897  1.7173  0.5411
 1759SOL    HW216737   1.801   2.498  10.222 -2.7305  0.6473 -0.3312
 1760SOL     OW16738   0.095   4.158   7.929  0.0914  0.1163 -0.0249
 1760SOL    HW116739   0.009   4.116   7.926 -0.0700  0.3147  1.6164
 1760SOL    HW216740   0.144   4.096   7.984  0.2026  1.3775  1.2919
 1761SOL     OW16741   1.452   0.174  10.275  0.6478 -0.2557 -0.2549
 1761SOL    HW116742   1.463   0.156  10.368  0.6761  1.2856  0.0386
 1761SOL    HW216743   1.542   0.166  10.243  0.9630  2.3177  0.0404
 1762SOL     OW16744   2.404   1.161   2.433  0.5832 -0.2191 -0.1552
 1762SOL    HW116745   2.468   1.150   2.504  0.4973 -1.4043 -0.2563
 1762SOL    HW216746   2.323   1.181   2.480 -0.1645  3.1304 -2.8444
 1763SOL     OW16747   3.564   2.690   8.841  0.2871  0.2758 -0.0467
 1763SOL    HW116748   3.489   2.635   8.866  1.6209 -1.1809  0.8059
 1763SOL    HW216749   3.531   2.753   8.778  0.7933 -1.0592 -1.6418
 1764SOL     OW16750   0.709   2.622  13.314  0.0111  0.0649  0.0408
 1764SOL    HW116751   0.726   2.579  13.398 -0.7204  0.6219  0.4728
 1764SOL    HW216752   0.677   2.549  13.261 -1.7179  1.6520 -1.0912
 1765SOL     OW16753   1.450   2.499   3.482 -0.2031  0.7045  0.4583
 1765SOL    HW116754   1.443   2.455   3.397  1.5814 -0.6871  1.0272
 1765SOL    HW216755   1.385   2.569   3.470 -2.7954 -2.0601 -1.6959
 1766SOL     OW16756   2.045   2.312   2.278 -0.0945  0.1522  0.2005
 1766SOL    HW116757   2.104   2.366   2.226 -0.5221  1.4921  1.1222
 1766SOL    HW216758   2.107   2.260   2.330  0.1210  0.7091  0.4985
 1767SOL     OW16759   0.199   1.109   4.011  0.1107 -0.8274 -0.1503
 1767SOL    HW116760   0.170   1.200   4.022  1.2230 -0.5473  0.4754
 1767SOL    HW216761   0.125   1.074   3.961 -0.5808  0.8730 -0.3090
 1768SOL     OW16762   1.688   0.828  14.148  0.1366  0.0405  0.2407
 1768SOL    HW116763   1.768   0.813  14.099  0.1144  2.8626 -0.6396
 1768SOL    HW216764   1.667   0.736  14.163  1.4080 -0.0927  1.1430
 1769SOL     OW16765   1.847   1.713   8.089  0.3076  0.1781  0.6391
 1769SOL    HW116766   1.814   1.651   8.154 -0.1642 -0.4613 -0.2092
 1769SOL    HW216767   1.854   1.788   8.147 -0.2624  2.1237 -1.8018
 1770SOL     OW16768   3.784   1.654   6.470  0.1189  0.4134 -0.5411
 1770SOL    HW116769   3.832   1.651   6.387  2.1882 -0.8129  0.6893
 1770SOL    HW216770   3.834   1.705   6.534  0.0940  0.8696 -0.8857
 1771SOL     OW16771   2.148   3.665  13.858 -0.3323  0.7577  0.0351
 1771SOL    HW116772   2.234   3.706  13.869 -0.1539  0.1402  0.8884
 1771SOL    HW216773   2.094   3.743  13.841 -0.0781  0.9717  0.2126
 1772SOL     OW16774   2.562   1.877   8.284 -0.1213 -0.0549  0.4931
 1772SOL    HW116775   2.565   1.969   8.310  1.7076  0.1093 -0.2793
 1772SOL    HW216776   2.560   1.832   8.368 -1.7976 -1.7804 -0.4670
 1773SOL     OW16777   1.491   0.986   7.992 -0.3870 -0.8158 -0.5638
 1773SOL    HW116778   1.567   0.930   8.010  0.1412  0.1553  0.2359
 1773SOL    HW216779   1.536   1.066   7.963 -2.6923  1.3787  1.9567
 1774SOL     OW16780   1.229   1.575   9.381  0.2987 -0.3667  0.0048
 1774SOL    HW116781   1.230   1.522   9.302 -0.8061 -0.1376 -0.1596
 1774SOL    HW216782   1.148   1.536   9.415  0.0361 -1.1102 -1.4802
 1775SOL     OW16783   2.010   1.923   3.976  0.2157 -0.4088  0.6020
 1775SOL    HW116784   1.946   1.956   3.913 -0.2436 -1.5874  0.4567
 1775SOL    HW216785   2.053   1.843   3.947  0.1707 -0.1915 -0.0608
 1776SOL     OW16786   0.353   4.344   4.787 -0.3234  0.2888 -0.0995
 1776SOL    HW116787   0.325   4.254   4.771 -0.3580  0.5513 -1.4994
 1776SOL    HW216788   0.386   4.327   4.875 -0.4049 -1.8730 -0.4797
 1777SOL     OW16789   1.451   3.688   1.870 -0.2208  0.3602  0.3897
 1777SOL    HW116790   1.545   3.695   1.886 -0.2454 -0.2170  0.7550
 1777SOL    HW216791   1.437   3.594   1.870 -0.9248  0.4651  0.2566
 1778SOL     OW16792   0.387   1.829  11.371 -0.2209 -0.0863 -0.2404
 1778SOL    HW116793   0.453   1.780  11.322  2.4799  2.2850  1.0520
 1778SOL    HW216794   0.421   1.819  11.460  0.3496 -0.7193 -0.5273
 1779SOL     OW16795   1.115   1.571   7.863 -0.0832 -0.5876 -0.0855
 1779SOL    HW116796   1.037   1.571   7.919  0.5277  0.3536  0.7759
 1779SOL    HW216797   1.105   1.488   7.817  1.3266  0.1294 -1.6563
 1780SOL     OW16798   0.494   3.764   5.734  0.1120 -0.0882 -0.1560
 1780SOL    HW116799   0.435   3.709   5.683 -0.2167  0.6737 -0.6002
 1780SOL    HW216800   0.439   3.798   5.805  0.4023 -0.6449  0.3386
 1781SOL     OW16801   2.203   2.476   4.182  0.0834  0.2597 -0.6625
 1781SOL    HW116802   2.163   2.562   4.195  3.9391  1.7477  1.5231
 1781SOL    HW216803   2.248   2.443   4.260 -0.5011 -0.2336 -0.5289
 1782SOL     OW16804   2.214   2.981   6.911  0.8092  0.1677  0.1627
 1782SOL    HW116805   2.201   2.950   6.821 -0.2172 -0.5474  0.5624
 1782SOL    HW216806   2.181   2.905   6.958  1.7133  0.0513  0.6083
 1783SOL     OW16807   2.478   1.948  15.933  0.6175 -0.1246  0.1147
 1783SOL    HW116808   2.561   1.903  15.949  0.2846 -0.6602  0.3327
 1783SOL    HW216809   2.507   2.020  15.878  0.4137 -1.9207 -2.3840
 1784SOL     OW16810   3.742   3.763  15.700  0.1626  0.1501  0.9086
 1784SOL    HW116811   3.733   3.706  15.776 -0.7590  2.0208  2.2209
 1784SOL    HW216812   3.677   3.832  15.714  1.5256  1.8575 -1.1188
 1785SOL     OW16813   1.955   0.328  15.169  0.1655 -0.0559 -0.1315
 1785SOL    HW116814   1.887   0.385  15.134 -1.8347 -0.3760  3.1532
 1785SOL    HW216815   1.987   0.287  15.089  1.6753 -0.7491  0.8147
 1786SOL     OW16816   3.827   0.034  11.906 -0.1191  0.2777 -0.3600
 1786SOL    HW116817   3.794   0.007  11.820  2.6184 -1.2684 -0.9535
 1786SOL    HW216818   3.884   0.109  11.887 -1.1888  0.7943 -1.5059
 1787SOL     OW16819   3.068   0.693   6.527  0.4639 -0.2049  0.8182
 1787SOL    HW116820   3.012   0.769   6.543 -1.7773 -2.1892  2.2760
 1787SOL    HW216821   3.083   0.664   6.617 -1.5716  1.7715  1.7936
 1788SOL     OW16822   2.291   4.201  13.222  0.7663 -0.4144  0.2580
 1788SOL    HW116823   2.364   4.183  13.281  0.4284  1.1853  1.1594
 1788SOL    HW216824   2.310   4.124  13.168  1.3824  0.4710 -0.7891
 1789SOL     OW16825   2.602   0.940   8.030 -0.0018 -0.1061 -0.3085
 1789SOL    HW116826   2.691   0.924   7.999 -0.5955 -3.7918 -0.0683
 1789SOL    HW216827   2.619   0.993   8.108 -0.3005  0.5864 -0.7194
 1790SOL     OW16828   1.059   2.221   2.582 -0.4082  0.2163 -0.6468
 1790SOL    HW116829   0.969   2.204   2.611  0.0060 -1.7338 -0.5362
 1790SOL    HW216830   1.050   2.310   2.548 -2.4365  0.2943  0.0682
 1791SOL     OW16831   2.503   2.848  15.160 -0.3343  0.2318 -0.6190
 1791SOL    HW116832   2.513   2.908  15.086  1.5887  0.5565 -0.0967
 1791SOL    HW216833   2.458   2.766  15.140  0.9422 -1.1067  1.9398
 1792SOL     OW16834   3.677   3.316  17.522 -0.0824 -0.0718 -0.5777
 1792SOL    HW116835   3.743   3.349  17.583 -0.4888 -1.5028  0.6602
 1792SOL    HW216836   3.657   3.231  17.563 -3.2234 -0.0651 -2.1427
 1793SOL     OW16837   0.078   2.614   2.506  0.3482  1.0597  0.0078
 1793SOL    HW116838   0.171   2.593   2.505  0.4557  1.5015  0.3743
 1793SOL    HW216839   0.084   2.709   2.522  0.4780  0.9491  0.6218
 1794SOL     OW16840   0.667   3.885  13.358 -0.5882 -0.7304  0.0028
 1794SOL    HW116841   0.724   3.920  13.427 -0.3904 -0.5741 -0.2396
 1794SOL    HW216842   0.577   3.901  13.387 -0.0838  1.0218  0.6131
 1795SOL     OW16843   0.417   1.174   9.833 -0.3064 -0.0325 -0.0990
 1795SOL    HW116844   0.490   1.222   9.793  1.3308 -0.7911  2.0010
 1795SOL    HW216845   0.445   1.184   9.924  1.1513  2.2280 -0.7994
 1796SOL     OW16846   3.234   2.783   4.507 -0.4674 -0.3294 -0.2147
 1796SOL    HW116847   3.270   2.739   4.584  2.2507  1.1033 -0.6696
 1796SOL    HW216848   3.316   2.785   4.457  1.0952 -0.9140  2.3079
 1797SOL     OW16849   4.392   4.312   8.841 -0.0655 -0.4339 -0.1375
 1797SOL    HW116850   4.311   4.362   8.838 -0.1615 -0.5840 -0.0599
 1797SOL    HW216851   4.429   4.363   8.913 -1.3415  4.4219 -2.9498
 1798SOL     OW16852   4.505   1.894   5.584  0.5494  0.1795  0.3028
 1798SOL    HW116853   4.445   1.898   5.658  0.1223  1.1592 -0.1030
 1798SOL    HW216854   4.580   1.860   5.634  0.8805 -0.1808 -0.4436
 1799SOL     OW16855   0.934   3.152   8.666  0.0482  0.0364  0.0046
 1799SOL    HW116856   0.991   3.105   8.726 -2.0945 -0.5850  1.5635
 1799SOL    HW216857   0.878   3.199   8.728 -1.1215 -0.8144 -0.3909
 1800SOL     OW16858   2.245   2.268   9.794 -0.3508  0.3522 -0.0288
 1800SOL    HW116859   2.155   2.259   9.760 -0.4497  4.5447 -0.9055
 1800SOL    HW216860   2.253   2.177   9.823 -1.0058 -0.5244 -2.5794
 1801SOL     OW16861   3.240   3.559   1.512  0.7105 -0.4426 -0.6806
 1801SOL    HW116862   3.292   3.639   1.514  1.4839 -1.0339  3.6191
 1801SOL    HW216863   3.206   3.541   1.425 -3.9498  0.2756  0.9456
 1802SOL     OW16864   1.079   3.033   7.299 -0.2495 -0.5962  0.3469
 1802SOL    HW116865   1.159   2.984   7.316 -0.7912 -1.2847  0.8725
 1802SOL    HW216866   1.110   3.120   7.272  1.3010 -0.2953  3.0478
 1803SOL     OW16867   0.426   0.746   7.615 -0.1028  0.4302 -0.1936
 1803SOL    HW116868   0.343   0.782   7.647  0.2071  0.9927 -0.0150
 1803SOL    HW216869   0.458   0.711   7.698  0.1520  0.4495 -0.2854
 1804SOL     OW16870   2.716   2.435  17.034 -0.4343  0.5672 -0.0356
 1804SOL    HW116871   2.690   2.523  17.009  0.1573  1.1384  1.3886
 1804SOL    HW216872   2.670   2.383  16.968 -1.0702  0.2366  0.6735
 1805SOL     OW16873   1.225   1.484   8.375  0.3203 -0.2722 -0.3149
 1805SOL    HW116874   1.242   1.413   8.312 -1.9589  0.6926 -2.0314
 1805SOL    HW216875   1.301   1.487   8.432  0.7080 -0.9111 -0.7971
 1806SOL     OW16876   2.528   4.506   4.745  0.0062 -0.1504  0.0485
 1806SOL    HW116877   2.486   4.429   4.784 -0.4778 -1.0783 -2.2530
 1806SOL    HW216878   2.510   4.507   4.651  2.7314 -1.0111 -0.5038
 1807SOL     OW16879   3.542   2.901   7.972  0.0009 -0.0049 -0.0997
 1807SOL    HW116880   3.549   2.906   8.067  0.5573 -0.8279 -0.0975
 1807SOL    HW216881   3.472   2.837   7.960 -1.1954  0.7519  2.9850
 1808SOL     OW16882   2.398   1.649   3.096 -0.1890  0.0473 -0.5851
 1808SOL    HW116883   2.418   1.559   3.122 -0.6943  0.0423 -0.1990
 1808SOL    HW216884   2.342   1.626   3.021 -0.7736  1.0746 -0.4685
 1809SOL     OW16885   0.031   2.867  12.240  0.4049  0.2900 -0.0919
 1809SOL    HW116886   4.663   2.842  12.214  0.6545 -1.3156  0.5723
 1809SOL    HW216887   0.082   2.791  12.212  0.1778 -0.6209  1.9141
 1810SOL     OW16888   4.582   0.325   3.216 -0.0141  0.2918  0.2373
 1810SOL    HW116889   4.555   0.319   3.125 -0.1136 -0.2336  0.2995
 1810SOL    HW216890   4.558   0.414   3.239  1.0552  1.1171 -1.8534
 1811SOL     OW16891   3.433   4.171   0.892  0.0175  0.2744 -0.5572
 1811SOL    HW116892   3.458   4.161   0.983  0.5274  1.3627 -0.5738
 1811SOL    HW216893   3.402   4.081   0.880  1.7741 -0.2532 -1.1831
 1812SOL     OW16894   2.682   4.231   3.847  0.2656  0.3131 -0.1243
 1812SOL    HW116895   2.648   4.249   3.759 -0.5010  0.2393  0.1573
 1812SOL    HW216896   2.731   4.149   3.840 -0.0669  0.1238 -0.2274
 1813SOL     OW16897   3.843   2.029   3.460 -0.5557  0.0494  0.0962
 1813SOL    HW116898   3.770   1.974   3.489 -0.7657  0.4831  0.3920
 1813SOL    HW216899   3.870   1.990   3.377 -1.3481  0.0868 -0.1809
 1814SOL     OW16900   1.614   1.100  13.335  0.0927  0.2186 -0.0660
 1814SOL    HW116901   1.640   1.010  13.315 -1.5188  0.0056 -1.1655
 1814SOL    HW216902   1.609   1.094  13.431  0.5896 -0.8004 -0.1032
 1815SOL     OW16903   3.517   0.047   4.323  0.3555  0.2626  0.4929
 1815SOL    HW116904   3.462   4.700   4.283  2.0988 -0.2575 -1.0286
 1815SOL    HW216905   3.569   4.713   4.381  0.8979  1.0841  0.7753
 1816SOL     OW16906   0.277   3.242   5.441  0.0270 -0.1922 -0.7458
 1816SOL    HW116907   0.221   3.299   5.389 -2.0085 -0.2457  1.4234
 1816SOL    HW216908   0.306   3.185   5.369  1.3606 -1.5165  0.8445
 1817SOL     OW16909   1.583   0.919  10.433 -0.4615 -0.3172  0.1277
 1817SOL    HW116910   1.662   0.920  10.378 -2.3458 -0.5981 -2.6212
 1817SOL    HW216911   1.511   0.872  10.391 -1.7235 -0.0467  2.0085
 1818SOL     OW16912   2.082   4.699   7.014 -0.1826  0.7366  0.3060
 1818SOL    HW116913   2.042   4.614   7.033  0.2709  0.3013 -0.6513
 1818SOL    HW216914   2.038   4.716   6.931  2.3267  1.9247 -0.7857
 1819SOL     OW16915   1.145   0.270   5.734 -0.5952  0.1667  0.1389
 1819SOL    HW116916   1.131   0.336   5.666 -1.9509  0.0776  0.3161
 1819SOL    HW216917   1.236   0.279   5.761 -0.3891 -0.5847 -0.2955
 1820SOL     OW16918   0.387   4.191   2.504  0.1248  0.4599  0.5733
 1820SOL    HW116919   0.325   4.210   2.433  0.0851  0.7001  0.6685
 1820SOL    HW216920   0.331   4.189   2.582 -0.8111  0.0379 -0.1182
 1821SOL     OW16921   3.781   4.181   7.774 -0.5251 -0.0947 -0.2064
 1821SOL    HW116922   3.808   4.271   7.758  1.7095 -1.0214 -1.5707
 1821SOL    HW216923   3.791   4.178   7.869 -0.6940 -1.1249 -0.2210
 1822SOL     OW16924   3.277   3.787   6.481  0.0189  0.2071 -0.2199
 1822SOL    HW116925   3.283   3.851   6.552 -0.8090  1.6391 -1.4449
 1822SOL    HW216926   3.185   3.763   6.492  0.5562 -1.8627 -0.1560
 1823SOL     OW16927   1.309   1.557   8.086 -0.4076  0.4064 -0.1562
 1823SOL    HW116928   1.271   1.581   8.002 -1.0082 -1.2459 -0.3437
 1823SOL    HW216929   1.278   1.469   8.107  0.2535  0.2565  0.2168
 1824SOL     OW16930   2.836   0.472   5.355  0.1944  0.0249 -0.6301
 1824SOL    HW116931   2.854   0.566   5.353  0.2965  0.0270  0.5163
 1824SOL    HW216932   2.925   0.437   5.367 -0.1180  0.2859  2.3296
 1825SOL     OW16933   2.444   2.090   9.189 -0.1235  0.1365  0.3638
 1825SOL    HW116934   2.532   2.063   9.214  0.5173  0.1323 -1.9262
 1825SOL    HW216935   2.395   2.064   9.266  0.4302  1.2292  1.0823
 1826SOL     OW16936   1.108   2.113  12.686 -0.0495  0.4090  0.0855
 1826SOL    HW116937   1.128   2.182  12.749  0.7185 -1.9406  2.3972
 1826SOL    HW216938   1.184   2.133  12.631 -0.7097 -0.4413 -1.1460
 1827SOL     OW16939   2.249   1.496   7.957  0.3742  0.1031 -0.4101
 1827SOL    HW116940   2.248   1.588   7.981  1.6950  0.1072 -0.3959
 1827SOL    HW216941   2.312   1.451   8.012  0.9733  1.3109 -0.1092
 1828SOL     OW16942   2.101   4.161   7.833 -0.3904  0.1933  0.2140
 1828SOL    HW116943   2.079   4.069   7.850  1.1871 -0.0151  1.1565
 1828SOL    HW216944   2.168   4.159   7.764  0.8966 -0.2785  1.4761
 1829SOL     OW16945   2.888   3.858  17.539  0.0335 -0.8756 -0.6479
 1829SOL    HW116946   2.974   3.852  17.581 -1.7588  0.0365  3.1762
 1829SOL    HW216947   2.847   3.775  17.564  0.9808 -1.5348 -1.3033
 1830SOL     OW16948   3.799   1.736  17.652 -0.0523  0.0807 -0.2726
 1830SOL    HW116949   3.838   1.788   0.037 -0.2838  1.7673 -1.4182
 1830SOL    HW216950   3.854   1.767  17.580 -0.1132 -0.6896 -0.6534
 1831SOL     OW16951   4.561   0.668   9.558 -0.4672 -0.0041  0.1097
 1831SOL    HW116952   4.476   0.627   9.540  0.5030 -1.7615 -0.5319
 1831SOL    HW216953   4.616   0.596   9.526 -0.0678  1.2422 -2.0535
 1832SOL     OW16954   1.453   3.807   4.719 -0.3436  0.2865 -1.0834
 1832SOL    HW116955   1.446   3.896   4.686 -0.3406  0.7491  0.1417
 1832SOL    HW216956   1.546   3.792   4.702 -0.2880 -0.7378  0.1424
 1833SOL     OW16957   0.598   4.414   8.583  0.3566  0.2894  0.5229
 1833SOL    HW116958   0.567   4.361   8.656 -2.7836 -0.9285 -1.7016
 1833SOL    HW216959   0.694   4.412   8.591  0.2710  0.1918  1.5883
 1834SOL     OW16960   0.214   3.650  15.113 -0.1620  0.3636 -0.0604
 1834SOL    HW116961   0.233   3.641  15.020  1.4509 -1.4908  0.4480
 1834SOL    HW216962   0.301   3.646  15.153 -0.9434 -0.6859  1.5165
 1835SOL     OW16963   3.866   0.445  10.400  0.4595 -0.0824  0.0680
 1835SOL    HW116964   3.871   0.503  10.476  2.1463 -1.6789  1.1874
 1835SOL    HW216965   3.840   0.505  10.331  1.5043 -0.0361 -0.2756
 1836SOL     OW16966   2.689   1.475   7.133 -0.1658 -0.0868 -0.8524
 1836SOL    HW116967   2.676   1.563   7.098  0.1537  0.6152  0.7817
 1836SOL    HW216968   2.622   1.430   7.080  0.6626  0.8649 -2.7108
 1837SOL     OW16969   1.917   3.454   2.152 -0.1369  0.0854 -0.5122
 1837SOL    HW116970   1.981   3.462   2.222 -0.5558 -1.2629  0.0339
 1837SOL    HW216971   1.934   3.363   2.127 -1.5994 -0.2626 -0.2072
 1838SOL     OW16972   2.246   1.414   1.221 -0.6311  0.6858  0.2398
 1838SOL    HW116973   2.341   1.407   1.226 -0.5014  0.2466 -3.0129
 1838SOL    HW216974   2.237   1.490   1.164  0.8128  2.7839  2.7624
 1839SOL     OW16975   1.699   4.277   2.371 -0.0343 -0.4435  0.0602
 1839SOL    HW116976   1.668   4.236   2.290 -0.8552 -0.3231  0.3128
 1839SOL    HW216977   1.617   4.292   2.418  1.1067  0.9939  1.5894
 1840SOL     OW16978   0.750   1.524   8.290  0.5404  0.4136 -0.2737
 1840SOL    HW116979   0.782   1.516   8.379 -0.5057  1.4339  0.2007
 1840SOL    HW216980   0.830   1.551   8.245  0.8223 -1.0157 -0.6580
 1841SOL     OW16981   2.222   4.489   5.606  0.6911 -0.4210  0.4313
 1841SOL    HW116982   2.190   4.514   5.519  0.4679 -2.0627  0.0376
 1841SOL    HW216983   2.154   4.431   5.639 -1.7743  1.3706 -1.4574
 1842SOL     OW16984   1.649   2.833   4.237  0.1469 -0.1018 -0.1065
 1842SOL    HW116985   1.716   2.881   4.285 -0.1944  1.4498 -1.1652
 1842SOL    HW216986   1.611   2.907   4.190  1.3701 -0.0865 -1.0693
 1843SOL     OW16987   3.814   4.135  12.032  0.4024 -0.2883  0.4003
 1843SOL    HW116988   3.827   4.174  11.945 -2.3924 -0.5915 -0.1499
 1843SOL    HW216989   3.875   4.190  12.081 -1.1444  0.1027  1.9115
 1844SOL     OW16990   0.793   2.952   2.681 -0.4794  0.1660 -0.3095
 1844SOL    HW116991   0.728   2.999   2.732 -1.7399 -2.1982  0.2989
 1844SOL    HW216992   0.728   2.927   2.615 -2.4472  1.8196  1.0195
 1845SOL     OW16993   1.945   2.561  12.085 -0.4298 -0.6432  0.0651
 1845SOL    HW116994   1.886   2.624  12.043  0.0540 -1.1398 -1.3621
 1845SOL    HW216995   1.916   2.483  12.038  0.5627 -1.9796  1.6573
 1846SOL     OW16996   4.114   1.679   5.697 -0.4822  0.0036  0.5490
 1846SOL    HW116997   4.174   1.610   5.723 -0.1139  0.3318  0.5677
 1846SOL    HW216998   4.071   1.708   5.778 -2.0488 -0.0442 -0.2757
 1847SOL     OW16999   3.898   1.339   4.436  0.7826 -0.1423  0.2054
 1847SOL    HW117000   3.843   1.264   4.460  1.1137 -0.0579  1.2369
 1847SOL    HW217001   3.852   1.411   4.479 -1.3844 -0.6058 -1.3630
 1848SOL     OW17002   3.559   4.257   6.241 -0.4245  0.5377 -0.3176
 1848SOL    HW117003   3.588   4.256   6.149 -1.7492 -2.6239 -0.7024
 1848SOL    HW217004   3.468   4.231   6.234  0.2213 -1.7537 -0.1940
 1849SOL     OW17005   4.524   4.425   7.461  0.0877  0.0757  0.1162
 1849SOL    HW117006   4.521   4.339   7.419  1.0517  0.0735  0.0493
 1849SOL    HW217007   4.543   4.409   7.553  0.1484  0.5804  0.1878
 1850SOL     OW17008   0.082   3.402   5.807  0.3176  0.1283  0.0175
 1850SOL    HW117009   0.032   3.334   5.762  1.0669  1.9715 -3.5883
 1850SOL    HW217010   0.022   3.471   5.780 -0.1231 -0.6815 -1.0956
 1851SOL     OW17011   1.338   0.793   6.968  0.0108 -0.2518  0.9860
 1851SOL    HW117012   1.427   0.803   6.937 -0.1804 -0.6576  0.2943
 1851SOL    HW217013   1.295   0.876   6.950 -0.7617 -0.6800  0.8292
 1852SOL     OW17014   1.562   2.688   8.177 -0.2712 -0.3864 -0.3773
 1852SOL    HW117015   1.545   2.678   8.084  0.4808 -0.8617 -0.4602
 1852SOL    HW217016   1.472   2.697   8.207 -0.6063 -3.2569 -0.5576
 1853SOL     OW17017   0.491   3.405   5.217  0.0473  0.2877  0.0439
 1853SOL    HW117018   0.455   3.317   5.224  0.7285 -0.0173 -0.2374
 1853SOL    HW217019   0.572   3.387   5.168 -0.8696 -1.8851 -0.6495
 1854SOL     OW17020   0.521   4.023  15.675 -0.1501 -0.2407  0.1250
 1854SOL    HW117021   0.485   3.944  15.636 -0.2773  0.2561 -0.7716
 1854SOL    HW217022   0.562   3.991  15.755 -0.0800  0.4786  0.3761
 1855SOL     OW17023   4.115   3.369  12.433  0.3504  0.1449 -0.0517
 1855SOL    HW117024   4.135   3.397  12.343  0.0545  0.2322 -0.0907
 1855SOL    HW217025   4.032   3.324  12.413 -0.0264  0.4503  0.8462
 1856SOL     OW17026   1.484   3.122   9.199  0.0289 -0.3807  0.0228
 1856SOL    HW117027   1.397   3.156   9.179 -0.4013 -0.8293  1.1357
 1856SOL    HW217028   1.465   3.066   9.274 -0.8749  0.9357  0.7945
 1857SOL     OW17029   2.089   3.216   8.300 -0.7038  0.0603 -0.2450
 1857SOL    HW117030   2.082   3.126   8.269 -0.8168 -1.0796  3.0855
 1857SOL    HW217031   2.111   3.271   8.225 -1.6796 -1.6173 -1.7469
 1858SOL     OW17032   0.250   0.886   3.224 -0.6926 -0.3510  0.3836
 1858SOL    HW117033   0.183   0.836   3.270  0.4231 -2.0215  0.1892
 1858SOL    HW217034   0.205   0.912   3.143 -1.4079 -0.7558  0.6501
 1859SOL     OW17035   4.531   2.713  13.063  0.5709 -0.6611 -0.6017
 1859SOL    HW117036   4.543   2.807  13.068 -0.6625 -0.7042  3.1142
 1859SOL    HW217037   4.556   2.685  12.975  0.7679  1.6475 -1.2705
 1860SOL     OW17038   1.786   4.069   7.779 -0.2800  0.0656 -0.5322
 1860SOL    HW117039   1.727   4.034   7.846 -0.8152  2.4089  0.2233
 1860SOL    HW217040   1.865   4.038   7.825 -2.2720 -1.6286  1.7973
 1861SOL     OW17041   0.328   4.515   1.848 -0.1163  0.2318 -0.6393
 1861SOL    HW117042   0.337   4.450   1.778 -1.2196  0.1883 -0.7427
 1861SOL    HW217043   0.314   4.597   1.800  0.4658 -0.0776 -1.3344
 1862SOL     OW17044   2.146   1.113   4.727 -0.1516  0.3257  0.7365
 1862SOL    HW117045   2.079   1.142   4.665  2.9821  3.8699 -1.0224
 1862SOL    HW217046   2.147   1.185   4.790 -1.8961  0.4173  0.6433
 1863SOL     OW17047   1.749   4.308   6.737  0.2178  0.4006 -0.3423
 1863SOL    HW117048   1.823   4.355   6.699 -1.8982  2.0448 -2.4004
 1863SOL    HW217049   1.771   4.229   6.688 -2.0326 -1.3465  1.4994
 1864SOL     OW17050   3.176   2.493  11.157 -0.0802 -0.2452 -0.5578
 1864SOL    HW117051   3.247   2.458  11.210 -0.1664 -0.1386 -0.3704
 1864SOL    HW217052   3.106   2.432  11.181 -0.2135 -0.0289 -0.3902
 1865SOL     OW17053   3.899   4.242   6.894  0.0330  0.1385 -0.8763
 1865SOL    HW117054   3.971   4.183   6.872  0.2941 -0.1567  0.7720
 1865SOL    HW217055   3.861   4.238   6.806  0.2915  1.0760 -1.0333
 1866SOL     OW17056   1.460   3.758  13.344 -0.2453  0.0723 -0.1402
 1866SOL    HW117057   1.437   3.843  13.380 -2.9294 -0.3715 -0.7711
 1866SOL    HW217058   1.466   3.704  13.423 -0.3809 -2.7021 -1.9873
 1867SOL     OW17059   0.448   3.106   9.588 -0.2779  0.0389 -0.3030
 1867SOL    HW117060   0.509   3.125   9.659 -0.1389  2.8160 -1.1738
 1867SOL    HW217061   0.507   3.056   9.531  1.4320  1.1565  0.4973
 1868SOL     OW17062   0.459   4.620   2.402 -0.1270 -0.0958 -0.4243
 1868SOL    HW117063   0.392   4.603   2.336  1.0290 -0.0919 -1.6089
 1868SOL    HW217064   0.489   4.531   2.418 -0.4784 -0.3198 -0.9946
 1869SOL     OW17065   0.822   1.377   7.823 -0.0739 -0.0127 -0.0760
 1869SOL    HW117066   0.899   1.342   7.778  0.4211  0.3302  0.5094
 1869SOL    HW217067   0.855   1.404   7.908  0.6582 -0.4044 -0.2292
 1870SOL     OW17068   0.882   0.152   7.008  0.4556  0.0989 -0.0735
 1870SOL    HW117069   0.950   0.085   6.999  0.3201 -0.3990  2.3501
 1870SOL    HW217070   0.896   0.193   7.094  1.3193  1.3886 -0.8432
 1871SOL     OW17071   2.678   0.684   3.766  0.4297 -0.2667  0.0575
 1871SOL    HW117072   2.674   0.760   3.824  0.4033 -1.3409  1.4670
 1871SOL    HW217073   2.598   0.636   3.790  0.5493 -1.6779 -2.4291
 1872SOL     OW17074   0.245   4.092   3.951 -0.4969 -0.3256 -0.2892
 1872SOL    HW117075   0.165   4.144   3.941 -0.3791  0.1578  1.3653
 1872SOL    HW217076   0.204   4.006   3.943  1.6127 -1.3200 -0.5417
 1873SOL     OW17077   3.864   0.054   5.725  0.2278 -0.6902 -0.1155
 1873SOL    HW117078   3.940   0.004   5.754  1.3035  0.6377 -0.6519
 1873SOL    HW217079   3.866   0.116   5.798  0.7334 -0.8330 -0.0098
 1874SOL     OW17080   2.260   0.664  12.103 -0.0641  0.2006  0.5067
 1874SOL    HW117081   2.180   0.682  12.054  0.7110 -0.5744 -1.0200
 1874SOL    HW217082   2.321   0.660  12.030 -0.0773 -1.0501  0.5670
 1875SOL     OW17083   0.469   3.312   6.151  0.1956 -0.6159  0.3742
 1875SOL    HW117084   0.493   3.403   6.132 -2.3505 -0.0653 -0.2977
 1875SOL    HW217085   0.377   3.319   6.125 -0.2779  1.8812  2.6510
 1876SOL     OW17086   0.861   4.121  16.448 -0.0801  0.2603 -0.0438
 1876SOL    HW117087   0.876   4.196  16.390 -1.3278 -0.5718 -1.4453
 1876SOL    HW217088   0.937   4.130  16.505  0.0582 -1.1891  0.0195
 1877SOL     OW17089   4.345   1.343   6.859 -0.3148 -0.6562  0.2228
 1877SOL    HW117090   4.326   1.312   6.947  1.4682 -0.4209  0.6844
 1877SOL    HW217091   4.306   1.429   6.874  1.0420  0.3192 -1.8162
 1878SOL     OW17092   0.883   0.921  10.614 -0.7107 -0.1614  0.0208
 1878SOL    HW117093   0.796   0.949  10.644 -1.6004  0.5732 -3.1838
 1878SOL    HW217094   0.941   0.996  10.619  0.1873 -0.7473 -1.6666
 1879SOL     OW17095   0.323   3.054   8.494 -0.5775 -0.0642 -0.3039
 1879SOL    HW117096   0.293   3.068   8.584  0.4052  0.8540 -0.1205
 1879SOL    HW217097   0.397   3.114   8.488 -0.2716 -0.2573  1.5407
 1880SOL     OW17098   2.146   3.848   6.059 -0.5464 -0.0322  0.2825
 1880SOL    HW117099   2.116   3.844   5.968  3.3453 -1.3700 -0.9580
 1880SOL    HW217100   2.060   3.847   6.100  0.2492  0.2435  1.9520
 1881SOL     OW17101   3.957   2.037  14.969  0.2081  0.1119  0.0618
 1881SOL    HW117102   3.867   2.054  14.940  1.3378  2.8168 -1.9148
 1881SOL    HW217103   3.991   2.126  14.964  1.3915 -0.3547 -0.1789
 1882SOL     OW17104   0.294   4.493   6.591 -0.1059 -0.0986 -0.1074
 1882SOL    HW117105   0.231   4.422   6.579  1.0977 -1.1091 -0.4229
 1882SOL    HW217106   0.381   4.469   6.560 -0.1819  2.6152 -2.4342
 1883SOL     OW17107   3.938   1.872   2.669 -0.0186 -0.0222 -0.6332
 1883SOL    HW117108   3.984   1.932   2.611  2.6837  0.0975  1.6339
 1883SOL    HW217109   3.988   1.791   2.658 -3.4463 -2.4807  1.7851
 1884SOL     OW17110   3.359   2.875   9.343  0.4493 -0.5705  0.2614
 1884SOL    HW117111   3.409   2.852   9.265  0.9510  1.0773  0.1186
 1884SOL    HW217112   3.347   2.969   9.350 -1.0112 -0.7470  0.1366
 1885SOL     OW17113   2.405   0.157  13.175 -0.0309  0.0342 -0.6593
 1885SOL    HW117114   2.489   0.203  13.178 -0.4540  0.8473 -1.6656
 1885SOL    HW217115   2.350   0.235  13.170 -4.0131 -2.7034  0.1185
 1886SOL     OW17116   4.109   4.139   7.899  0.4955  0.8865 -0.2401
 1886SOL    HW117117   4.157   4.198   7.841  2.3711  0.8667  1.3320
 1886SOL    HW217118   4.062   4.086   7.834  1.0502 -0.0294  0.1097
 1887SOL     OW17119   0.386   3.830   5.986 -0.2488 -1.1421  0.0804
 1887SOL    HW117120   0.384   3.761   6.052 -2.1247 -0.5129  0.6827
 1887SOL    HW217121   0.293   3.840   5.968  0.1831  0.6789 -1.1411
 1888SOL     OW17122   4.645   0.648   6.204 -0.1603 -0.0017 -0.0558
 1888SOL    HW117123   4.641   0.574   6.265  0.1775 -0.0882 -0.1369
 1888SOL    HW217124   4.557   0.686   6.207 -0.9710 -2.0042  1.5101
 1889SOL     OW17125   0.414   3.887   7.919 -0.1860 -0.0670 -0.7583
 1889SOL    HW117126   0.373   3.941   7.851 -0.3152  0.9542  0.1232
 1889SOL    HW217127   0.408   3.804   7.871  1.1486 -0.3071 -0.5100
 1890SOL     OW17128   3.976   0.836  10.413 -0.2159  0.2249 -0.4095
 1890SOL    HW117129   4.023   0.764  10.456 -0.6858 -0.3092 -0.7871
 1890SOL    HW217130   4.050   0.883  10.375 -0.6305  0.9398 -0.3261
 1891SOL     OW17131   0.248   4.555   3.843  0.5314 -0.5999 -0.0956
 1891SOL    HW117132   0.254   4.576   3.936 -1.3617  0.7503 -0.2639
 1891SOL    HW217133   0.340   4.571   3.825  1.1505 -2.9010  1.0218
 1892SOL     OW17134   3.811   0.079   3.919  0.3233 -0.1072 -0.5751
 1892SOL    HW117135   3.906   0.064   3.921 -0.1407 -2.8859  0.8175
 1892SOL    HW217136   3.805   0.157   3.863 -1.0080  0.8821  0.9429
 1893SOL     OW17137   4.020   1.616   2.769  0.0080  0.0268 -0.2302
 1893SOL    HW117138   4.066   1.545   2.724 -1.9814 -1.8761  0.7613
 1893SOL    HW217139   4.017   1.580   2.858  0.9919 -1.8749 -0.9664
 1894SOL     OW17140   3.154   0.790   4.295 -0.2036 -0.6947 -0.2090
 1894SOL    HW117141   3.135   0.867   4.349  1.3807 -1.3812  1.3051
 1894SOL    HW217142   3.249   0.797   4.299 -0.2777 -0.8522  1.7391
 1895SOL     OW17143   3.976   1.320   6.360  0.3103  0.4417 -0.3609
 1895SOL    HW117144   3.892   1.311   6.316  0.4281 -1.9414 -0.0788
 1895SOL    HW217145   4.018   1.245   6.317 -0.6376 -0.6405  0.6217
 1896SOL     OW17146   2.871   2.723   1.920 -0.5704  0.1272 -0.3778
 1896SOL    HW117147   2.819   2.650   1.952  1.1486 -0.6115  0.7277
 1896SOL    HW217148   2.961   2.703   1.946  0.1606  0.3589 -2.7318
 1897SOL     OW17149   0.349   1.997   9.404 -0.3538 -0.3211 -0.0702
 1897SOL    HW117150   0.333   1.955   9.488 -1.5890  1.5828  0.6519
 1897SOL    HW217151   0.444   2.001   9.408 -0.4170 -0.6702  1.6738
 1898SOL     OW17152   1.863   1.910  13.898 -0.2916 -0.2677 -0.5064
 1898SOL    HW117153   1.928   1.946  13.958  1.2093 -0.5099 -1.9804
 1898SOL    HW217154   1.791   1.973  13.894  0.9443  1.2335  0.6331
 1899SOL     OW17155   1.168   3.556   4.200  0.0535 -0.2029 -0.8251
 1899SOL    HW117156   1.171   3.506   4.119  0.0416  0.3881 -1.1892
 1899SOL    HW217157   1.153   3.488   4.265  0.7163  2.1716  1.8143
 1900SOL     OW17158   1.554   4.382  12.620  0.2432 -0.5949  0.3652
 1900SOL    HW117159   1.593   4.359  12.536  2.1319  0.8076  0.8394
 1900SOL    HW217160   1.621   4.446  12.647 -0.1216  0.3782 -1.0505
 1901SOL     OW17161   2.113   2.205   6.054  0.2588 -0.3712 -0.1341
 1901SOL    HW117162   2.085   2.182   6.143  0.5687  0.3676  0.1592
 1901SOL    HW217163   2.149   2.294   6.059 -0.0109 -0.3119  0.7002
 1902SOL     OW17164   2.480   1.035   2.798 -0.3934 -0.2127 -0.2210
 1902SOL    HW117165   2.506   1.096   2.867 -1.3786 -0.1074  0.0610
 1902SOL    HW217166   2.531   1.074   2.726  1.2185 -0.6530  0.6808
 1903SOL     OW17167   3.279   4.322  13.928 -0.0449 -0.2115  0.1774
 1903SOL    HW117168   3.208   4.380  13.955  1.9092  2.1139  0.2589
 1903SOL    HW217169   3.341   4.384  13.891  0.4573 -0.4184  0.6832
 1904SOL     OW17170   1.644   3.794  12.434  0.1955  0.0598  0.0092
 1904SOL    HW117171   1.734   3.763  12.437 -0.4985 -1.7846  1.3669
 1904SOL    HW217172   1.615   3.753  12.352  0.1775 -0.2078  0.1508
 1905SOL     OW17173   4.379   4.596  14.817  0.2175  0.0817  0.2140
 1905SOL    HW117174   4.362   4.537  14.744  0.7717  0.8821 -0.5653
 1905SOL    HW217175   4.289   4.626  14.829  0.0141 -0.9113  1.1656
 1906SOL     OW17176   2.309   0.902  17.151  0.5969  0.1371 -0.0750
 1906SOL    HW117177   2.316   0.962  17.076  1.0216  1.2517  0.8549
 1906SOL    HW217178   2.214   0.909  17.139  0.7094  1.3355 -0.3070
 1907SOL     OW17179   2.872   0.600   3.374  0.1966 -0.0329  0.2549
 1907SOL    HW117180   2.829   0.626   3.455 -2.8084 -0.1888 -1.3068
 1907SOL    HW217181   2.823   0.650   3.309  4.0867  0.1013 -2.6288
 1908SOL     OW17182   0.451   2.049  13.386 -0.4135 -0.0236 -0.2748
 1908SOL    HW117183   0.487   2.128  13.346  1.5841 -1.1193 -0.6356
 1908SOL    HW217184   0.492   1.985  13.329  1.9349  1.0287  0.2240
 1909SOL     OW17185   3.555   4.374  14.008  0.1045 -0.2716 -0.8526
 1909SOL    HW117186   3.522   4.313  13.942 -0.1964 -1.1715  0.1240
 1909SOL    HW217187   3.612   4.435  13.962  0.1387  0.1037 -0.3207
 1910SOL     OW17188   1.516   2.761   2.447 -0.1736  0.0887 -0.1228
 1910SOL    HW117189   1.580   2.803   2.504  0.1286  1.8983 -1.7896
 1910SOL    HW217190   1.448   2.828   2.444  0.7426  1.0377  0.5693
 1911SOL     OW17191   1.746   3.367   3.366 -0.3430 -0.0426  0.9433
 1911SOL    HW117192   1.688   3.301   3.328  0.7145  0.1656 -1.0387
 1911SOL    HW217193   1.776   3.412   3.287 -1.0897  0.2612  0.8303
 1912SOL     OW17194   3.547   1.163   4.127 -0.4926  0.0643 -0.1438
 1912SOL    HW117195   3.642   1.164   4.117 -0.4567  0.1854  0.2240
 1912SOL    HW217196   3.511   1.252   4.125 -2.4837 -0.7482 -0.3988
 1913SOL     OW17197   3.158   3.769  11.675  0.0530 -0.0996  0.3169
 1913SOL    HW117198   3.187   3.754  11.765  0.8106 -0.6139 -0.0093
 1913SOL    HW217199   3.094   3.835  11.700 -0.1784 -0.6619  1.1798
 1914SOL     OW17200   0.093   4.594   3.424 -0.1491  0.0635 -0.4893
 1914SOL    HW117201   0.183   4.565   3.436  0.0254 -0.0061 -1.9474
 1914SOL    HW217202   0.085   4.664   3.359 -0.8247 -0.7867 -1.3321
 1915SOL     OW17203   0.022   0.235   4.690 -0.9691 -0.2443  0.3694
 1915SOL    HW117204   4.688   0.247   4.613  0.5088  0.9038 -0.4876
 1915SOL    HW217205   4.713   0.298   4.756  0.6155  1.6897 -0.7781
 1916SOL     OW17206   1.918   0.539   0.317 -0.0474  0.3432 -0.2537
 1916SOL    HW117207   2.001   0.585   0.326  0.5736 -0.4523 -1.8102
 1916SOL    HW217208   1.895   0.558   0.226  1.5607  0.6776 -0.5866
 1917SOL     OW17209   3.094   1.368   0.749  0.0290  0.6366 -0.2014
 1917SOL    HW117210   3.071   1.419   0.671 -1.8545 -0.5820 -0.4473
 1917SOL    HW217211   3.011   1.363   0.797 -0.5674  1.4834 -1.1364
 1918SOL     OW17212   2.016   2.006   7.783  0.1688  0.3572  0.1888
 1918SOL    HW117213   2.111   2.005   7.771  0.0534  1.3922 -0.8643
 1918SOL    HW217214   1.983   2.081   7.733 -0.7379 -1.3716 -1.8352
 1919SOL     OW17215   4.646   2.716   5.088 -0.1681 -0.0105  0.7753
 1919SOL    HW117216   4.680   2.656   5.155  1.6987  0.1730 -0.0156
 1919SOL    HW217217   4.594   2.782   5.133  1.2012  0.6111  1.4543
 1920SOL     OW17218   3.015   4.155   7.360  0.0218 -0.0484 -0.2355
 1920SOL    HW117219   3.055   4.189   7.280  0.1046 -0.2283 -0.2711
 1920SOL    HW217220   3.021   4.060   7.349  1.1190 -0.0115  0.0691
 1921SOL     OW17221   3.032   4.004   7.122 -0.2533  0.0707 -0.5320
 1921SOL    HW117222   3.103   3.943   7.103  0.9714  1.7987 -1.4452
 1921SOL    HW217223   3.076   4.075   7.076 -0.5526  0.9166  0.4773
 1922SOL     OW17224   1.525   1.811   7.519  0.2097 -0.4532  0.1523
 1922SOL    HW117225   1.554   1.810   7.610  1.8391  0.3077 -0.3564
 1922SOL    HW217226   1.579   1.739   7.484 -0.5715 -1.7683  1.6552
 1923SOL     OW17227   2.516   0.071   0.270  0.0933  0.2824  0.0473
 1923SOL    HW117228   2.552   0.003   0.327 -1.0240 -1.8132 -1.7241
 1923SOL    HW217229   2.503   0.144   0.331  1.9282  0.3369  0.3736
 1924SOL     OW17230   3.258   2.234   4.791  0.7576  0.4623 -0.0453
 1924SOL    HW117231   3.203   2.167   4.832 -0.3456  1.6602  0.4347
 1924SOL    HW217232   3.214   2.317   4.811  1.3235  0.8906 -0.5371
 1925SOL     OW17233   2.438   1.682   2.539 -0.3063  0.0419 -0.1675
 1925SOL    HW117234   2.523   1.671   2.581 -0.1810  0.2132 -0.3752
 1925SOL    HW217235   2.463   1.702   2.449  0.3223  0.6740  0.1475
 1926SOL     OW17236   0.295   2.600   8.972 -0.4213 -0.5514  0.2344
 1926SOL    HW117237   0.295   2.598   8.876  3.3520  0.6845  0.1815
 1926SOL    HW217238   0.383   2.563   8.985 -0.2246  0.1422  0.8630
 1927SOL     OW17239   1.850   3.759   7.303 -0.5281  0.8122 -0.5583
 1927SOL    HW117240   1.906   3.683   7.318 -1.4597 -0.0646 -1.4971
 1927SOL    HW217241   1.911   3.827   7.275  0.3362 -0.3507 -1.4927
 1928SOL     OW17242   4.176   0.487  15.138 -0.9329 -0.5607  0.6797
 1928SOL    HW117243   4.170   0.405  15.188 -0.3727 -2.3929 -2.2446
 1928SOL    HW217244   4.101   0.469  15.081 -0.7015 -1.0635  0.5298
 1929SOL     OW17245   2.920   3.144   8.792 -0.3980  0.2551  0.5416
 1929SOL    HW117246   2.881   3.231   8.799  2.0950  1.3906  0.3232
 1929SOL    HW217247   2.982   3.161   8.863 -0.5278  1.8593  0.2623
 1930SOL     OW17248   0.815   1.338   0.004 -0.4553 -0.4314  0.4314
 1930SOL    HW117249   0.906   1.348  17.661 -0.1464 -2.8539  0.5831
 1930SOL    HW217250   0.834   1.345   0.097  1.7971 -0.6676 -0.0193
 1931SOL     OW17251   2.914   1.244   6.135  0.3141 -0.4755 -0.3369
 1931SOL    HW117252   2.830   1.224   6.094  0.2440 -0.1240 -0.3661
 1931SOL    HW217253   2.972   1.187   6.086 -1.7408 -2.7399 -0.1274
 1932SOL     OW17254   3.929   3.292  14.084 -0.6033 -0.0103  0.7014
 1932SOL    HW117255   3.874   3.281  14.007 -0.8041 -1.0775  0.9939
 1932SOL    HW217256   3.887   3.228  14.142  1.3829 -0.4120  1.7075
 1933SOL     OW17257   1.547   3.027   2.920 -0.2754 -0.1309  0.3460
 1933SOL    HW117258   1.578   3.107   2.877 -3.3510  1.2794  0.7356
 1933SOL    HW217259   1.460   3.014   2.884 -0.7317  2.1556  0.6419
 1934SOL     OW17260   4.206   2.466   5.715  0.6596 -0.6016  0.2785
 1934SOL    HW117261   4.259   2.465   5.635  2.6364 -1.4263  1.6097
 1934SOL    HW217262   4.186   2.373   5.722  0.1097 -0.6663 -2.1858
 1935SOL     OW17263   1.886   4.598   8.161 -0.2075 -0.2317  0.0696
 1935SOL    HW117264   1.967   4.647   8.143  0.9544 -0.6138  4.1665
 1935SOL    HW217265   1.850   4.631   8.079 -0.0544 -1.6180 -0.5464
 1936SOL     OW17266   3.472   1.337  13.553  0.3110  0.3145  0.3615
 1936SOL    HW117267   3.468   1.268  13.487 -4.1334  1.1091 -0.2042
 1936SOL    HW217268   3.427   1.307  13.632 -0.6314 -0.0307 -0.3144
 1937SOL     OW17269   0.720   3.540   2.524 -0.5384  0.3128  0.0209
 1937SOL    HW117270   0.687   3.454   2.499 -3.3640  0.6124  2.6472
 1937SOL    HW217271   0.739   3.534   2.618 -0.1611  3.5255  0.1666
 1938SOL     OW17272   3.191   4.365   7.654  0.1899 -0.5503  0.1609
 1938SOL    HW117273   3.251   4.394   7.585 -0.0978 -0.1841  0.0616
 1938SOL    HW217274   3.110   4.406   7.624  0.6860  0.5297  0.3009
 1939SOL     OW17275   2.720   1.725   9.188 -0.0660 -0.3278  0.2018
 1939SOL    HW117276   2.710   1.666   9.263  0.7033 -1.9635 -0.9993
 1939SOL    HW217277   2.792   1.675   9.149  0.0302  1.0085 -1.3554
 1940SOL     OW17278   0.895   4.186   5.275  0.2695 -0.2783 -0.3520
 1940SOL    HW117279   0.939   4.221   5.198 -1.0561 -2.6885 -2.1995
 1940SOL    HW217280   0.804   4.173   5.248  0.7302 -0.3785 -1.8420
 1941SOL     OW17281   3.047   2.769   1.643  0.3496 -0.0939 -0.1794
 1941SOL    HW117282   2.959   2.738   1.624  0.2282 -0.4943  1.0173
 1941SOL    HW217283   3.066   2.738   1.732  0.6104  0.8688  0.1048
 1942SOL     OW17284   2.076   1.851   2.451 -0.3674 -0.1264  0.2899
 1942SOL    HW117285   2.168   1.831   2.469 -0.4191 -2.8264 -2.5027
 1942SOL    HW217286   2.044   1.867   2.540  1.0894  2.9036  0.2840
 1943SOL     OW17287   3.992   2.511   0.954 -0.3633  0.7491 -0.4823
 1943SOL    HW117288   4.059   2.472   1.010 -0.5774  0.6564 -0.2897
 1943SOL    HW217289   3.981   2.450   0.881 -2.9237 -0.6131  1.0378
 1944SOL     OW17290   1.869   0.834   8.340 -0.8209 -0.4167  0.0807
 1944SOL    HW117291   1.798   0.897   8.327 -1.1830 -0.6081  1.2306
 1944SOL    HW217292   1.835   0.761   8.289 -2.5290  0.5256 -0.1281
 1945SOL     OW17293   3.232   0.521   2.982  0.7206  0.7554  0.7933
 1945SOL    HW117294   3.236   0.594   3.044 -0.2295  0.8926  0.6965
 1945SOL    HW217295   3.300   0.462   3.015  0.7497  0.4959  0.2628
 1946SOL     OW17296   3.993   2.173  15.674  0.5228  0.0115  0.0776
 1946SOL    HW117297   3.900   2.169  15.696  0.5932 -1.0331  0.1851
 1946SOL    HW217298   4.008   2.078  15.668  0.9622  0.0659  0.3384
 1947SOL     OW17299   1.296   1.628   8.933 -0.5980 -0.0360  0.0865
 1947SOL    HW117300   1.281   1.711   8.978  0.0256  0.8677 -1.3700
 1947SOL    HW217301   1.303   1.565   9.005  1.3394  0.4461  0.3215
 1948SOL     OW17302   4.159   2.936   7.466  0.3143 -0.0000  0.4067
 1948SOL    HW117303   4.143   2.999   7.537 -0.1144  1.9106 -1.3720
 1948SOL    HW217304   4.222   2.983   7.412  0.6038  0.0691  0.8001
 1949SOL     OW17305   1.502   1.723  10.266 -0.1020  0.5568 -0.6255
 1949SOL    HW117306   1.569   1.789  10.285  0.0331  0.1074  0.4579
 1949SOL    HW217307   1.451   1.759  10.194 -2.0038 -0.5565  0.1567
 1950SOL     OW17308   2.526   3.005   2.142  0.9580  0.1421  0.0210
 1950SOL    HW117309   2.580   3.045   2.074  3.1903  2.9827  3.5022
 1950SOL    HW217310   2.573   2.923   2.156 -0.0871 -0.7889 -1.9075
 1951SOL     OW17311   0.469   3.662   6.343 -0.2582  0.1120 -0.6904
 1951SOL    HW117312   0.524   3.634   6.270 -0.2112  0.5515 -0.8228
 1951SOL    HW217313   0.417   3.582   6.343  1.0247 -0.7257  0.2836
 1952SOL     OW17314   4.104   1.702  14.914  0.2665 -0.4360  1.0480
 1952SOL    HW117315   4.165   1.631  14.935  0.2518 -0.6142  0.4913
 1952SOL    HW217316   4.156   1.781  14.932 -2.7034  1.5915  0.7181
 1953SOL     OW17317   3.035   3.624  10.367 -0.4312  0.1660 -0.2189
 1953SOL    HW117318   3.069   3.690  10.429 -1.6736  0.9841 -0.4072
 1953SOL    HW217319   3.074   3.653  10.285  0.4744 -0.4791 -0.0169
 1954SOL     OW17320   0.141   0.781   6.978  0.4453  0.6296  0.1121
 1954SOL    HW117321   0.230   0.769   7.010  0.6777  3.3641  0.5286
 1954SOL    HW217322   0.099   0.818   7.056  0.9392  0.3046  0.5340
 1955SOL     OW17323   1.044   1.889   8.672  0.3643  0.4252  0.4806
 1955SOL    HW117324   1.086   1.803   8.665 -0.4803 -0.0203  0.8119
 1955SOL    HW217325   1.125   1.937   8.685 -0.8112  2.4436  0.3598
 1956SOL     OW17326   3.425   3.249   0.278  0.1801 -0.1470  0.1143
 1956SOL    HW117327   3.428   3.342   0.258  0.4432 -0.3820 -0.9000
 1956SOL    HW217328   3.435   3.249   0.374 -0.7019  0.8352  0.2114
 1957SOL     OW17329   3.563   4.699   8.292 -0.1848  0.2218  0.3577
 1957SOL    HW117330   3.587   0.052   8.348 -1.8913  0.9769  0.0996
 1957SOL    HW217331   3.642   4.695   8.238  0.8520  1.4604  1.8168
 1958SOL     OW17332   0.842   4.152   6.449 -0.0715 -0.3551 -0.3440
 1958SOL    HW117333   0.832   4.065   6.488  1.1089  0.0438  0.8388
 1958SOL    HW217334   0.890   4.136   6.368  0.9249 -1.3016  0.4215
 1959SOL     OW17335   4.105   0.233  14.983  0.5532  0.0159  0.1253
 1959SOL    HW117336   4.197   0.244  14.961  0.6533 -2.4532 -0.7264
 1959SOL    HW217337   4.103   0.138  14.968  1.4314  0.0074  0.0384
 1960SOL     OW17338   1.645   0.167   6.029  0.6714 -0.0827 -0.0652
 1960SOL    HW117339   1.679   0.083   5.998 -0.5221 -0.5595 -0.1149
 1960SOL    HW217340   1.685   0.232   5.972  1.0098  1.5052  1.9790
 1961SOL     OW17341   2.881   1.777   0.523  0.2805  0.3037 -0.1192
 1961SOL    HW117342   2.975   1.790   0.511  0.5813 -1.7651 -0.0211
 1961SOL    HW217343   2.849   1.727   0.448  1.1463  0.7995 -0.8269
 1962SOL     OW17344   3.233   1.177   4.144 -0.0118  0.2259  0.4435
 1962SOL    HW117345   3.271   1.163   4.057 -0.2627 -0.0268  0.3765
 1962SOL    HW217346   3.292   1.228   4.200 -0.5811  0.2899  0.9862
 1963SOL     OW17347   0.345   2.800   8.363  0.2360  0.6451 -0.2084
 1963SOL    HW117348   0.439   2.820   8.364  0.4534 -0.3931  0.3458
 1963SOL    HW217349   0.316   2.878   8.410  1.0742 -0.3191  1.9138
 1964SOL     OW17350   2.728   3.432   9.391 -0.2284 -0.2617  0.0889
 1964SOL    HW117351   2.700   3.502   9.449 -0.3403 -1.7610  1.8396
 1964SOL    HW217352   2.823   3.442   9.385 -0.5451  1.1263 -3.0382
 1965SOL     OW17353   1.255   0.153   9.144  0.3752  0.0810 -0.0096
 1965SOL    HW117354   1.351   0.145   9.139  0.4259  0.2978  0.5639
 1965SOL    HW217355   1.236   0.224   9.083  0.3039  2.2065  2.5110
 1966SOL     OW17356   2.805   0.895  12.545  0.2844 -0.0834  0.2849
 1966SOL    HW117357   2.768   0.876  12.631 -0.1680  2.0329  0.5761
 1966SOL    HW217358   2.895   0.879  12.573  0.0354 -1.3126  0.3515
 1967SOL     OW17359   1.907   4.443   3.315 -0.4443  0.2949 -0.2867
 1967SOL    HW117360   1.865   4.526   3.292  0.1875  0.9814  1.0172
 1967SOL    HW217361   1.858   4.375   3.269  1.3205 -1.8680  1.0069
 1968SOL     OW17362   1.179   1.062  15.718 -0.0609 -0.0903 -0.1470
 1968SOL    HW117363   1.220   1.133  15.668 -1.0203  0.6220  0.0676
 1968SOL    HW217364   1.087   1.058  15.690 -0.8487 -0.8240  2.5508
 1969SOL     OW17365   1.434   1.081   1.604 -0.0003 -0.0870 -0.3748
 1969SOL    HW117366   1.503   1.014   1.604  1.3868  1.3462 -2.0408
 1969SOL    HW217367   1.402   1.069   1.693  1.8605 -0.9538  0.1869
 1970SOL     OW17368   1.114   0.210   6.084 -0.5363 -0.1339  0.3410
 1970SOL    HW117369   1.162   0.289   6.109  1.8262 -1.1752 -0.8870
 1970SOL    HW217370   1.076   0.202   6.171 -3.1844  1.0923 -0.6858
 1971SOL     OW17371   1.963   2.168   5.674  0.0807  0.0770  0.9569
 1971SOL    HW117372   2.038   2.113   5.698  0.6417 -0.3320 -1.7394
 1971SOL    HW217373   1.902   2.095   5.659  1.0335 -0.1186 -1.9648
 1972SOL     OW17374   0.144   0.294  10.609 -0.2287  0.9850 -0.0261
 1972SOL    HW117375   0.135   0.330  10.697 -0.3253 -0.8382  0.7053
 1972SOL    HW217376   0.062   0.253  10.583  0.3983 -1.0127  1.1596
 1973SOL     OW17377   1.601   0.637   0.081  0.3370  0.2316 -0.1628
 1973SOL    HW117378   1.568   0.718   0.043 -1.0983 -0.1995  0.1398
 1973SOL    HW217379   1.521   0.602   0.120  0.5871  0.0203  0.1664
 1974SOL     OW17380   4.549   4.139  17.640 -0.2146  0.2542 -0.4939
 1974SOL    HW117381   4.524   4.048  17.621 -2.5351  0.7667  0.1246
 1974SOL    HW217382   4.500   4.162   0.034 -0.3369  2.3261 -1.1898
 1975SOL     OW17383   3.249   3.635   9.562 -1.0137 -0.2134  0.2445
 1975SOL    HW117384   3.199   3.706   9.520 -0.9697  0.3666  1.1704
 1975SOL    HW217385   3.223   3.651   9.653 -0.2489  0.5635  0.3318
 1976SOL     OW17386   2.439   2.693   7.703 -0.1943  0.0633  0.0656
 1976SOL    HW117387   2.392   2.636   7.764  1.1009 -0.5828  0.4429
 1976SOL    HW217388   2.530   2.687   7.731 -0.2257 -1.4493 -0.1791
 1977SOL     OW17389   0.747   0.956   1.697  0.2693  0.5766 -0.3753
 1977SOL    HW117390   0.731   1.048   1.715 -2.4775 -0.2836  1.5905
 1977SOL    HW217391   0.816   0.944   1.632  1.4574  0.8296  0.8451
 1978SOL     OW17392   1.963   4.442   6.618 -0.3170 -0.2703  0.1828
 1978SOL    HW117393   1.944   4.517   6.561  0.9471 -0.6691 -0.7821
 1978SOL    HW217394   2.047   4.460   6.661  1.0695 -2.4059 -1.6361
 1979SOL     OW17395   0.423   2.771  13.109  0.2127  0.1498 -0.2934
 1979SOL    HW117396   0.344   2.814  13.142 -0.4980 -0.5497 -1.0986
 1979SOL    HW217397   0.478   2.848  13.093  1.5293 -1.0908 -1.6720
 1980SOL     OW17398   0.783   1.802   1.201  0.1012 -0.3037 -0.1647
 1980SOL    HW117399   0.721   1.779   1.132  0.0478  0.9111 -0.5268
 1980SOL    HW217400   0.805   1.890   1.169 -2.7166  0.2061 -0.7007
 1981SOL     OW17401   0.154   3.051   5.102  0.8096  0.3886 -0.2905
 1981SOL    HW117402   0.235   3.102   5.098  0.0649  1.5165 -1.1348
 1981SOL    HW217403   0.187   2.964   5.080  0.8385 -0.0292  1.4457
 1982SOL     OW17404   4.012   2.946   2.147 -0.2726  0.5571  0.1455
 1982SOL    HW117405   4.095   2.898   2.149 -0.3587  0.4371  0.8691
 1982SOL    HW217406   3.972   2.905   2.070 -2.3876 -1.8218  2.4974
 1983SOL     OW17407   0.647   4.042   2.486 -0.2464  0.4205  1.0389
 1983SOL    HW117408   0.577   4.106   2.499 -0.9618 -0.0986 -0.3151
 1983SOL    HW217409   0.633   3.994   2.568  0.6675 -1.6730 -0.0505
 1984SOL     OW17410   2.921   4.308   5.980 -0.3535 -0.0437 -0.0990
 1984SOL    HW117411   2.886   4.227   6.017  1.2166 -0.4828  0.4072
 1984SOL    HW217412   2.932   4.287   5.887 -1.1955  0.5855 -0.3420
 1985SOL     OW17413   4.518   3.077   3.829  0.0582  0.2998 -0.7274
 1985SOL    HW117414   4.511   3.168   3.801  0.8713  0.5075 -0.2656
 1985SOL    HW217415   4.612   3.057   3.828  1.0000  4.8699 -1.1722
 1986SOL     OW17416   2.448   2.305   6.259  0.2127 -0.4607  0.6045
 1986SOL    HW117417   2.532   2.285   6.217  1.0364  0.1216  1.9796
 1986SOL    HW217418   2.412   2.365   6.194  1.0306 -1.2585 -0.5822
 1987SOL     OW17419   3.444   2.906   8.660  0.4040 -0.1729  0.7299
 1987SOL    HW117420   3.365   2.890   8.608 -0.1869 -2.0268  2.2188
 1987SOL    HW217421   3.439   3.000   8.677 -2.4964 -0.4774  1.5895
 1988SOL     OW17422   2.774   1.930   4.449 -0.3697  0.3017  0.2051
 1988SOL    HW117423   2.808   1.921   4.537  1.9217 -0.8433 -0.7987
 1988SOL    HW217424   2.744   2.020   4.462  2.9117  1.4437 -0.1133
 1989SOL     OW17425   2.279   1.307   6.119  0.0811  0.4221 -0.2239
 1989SOL    HW117426   2.352   1.318   6.180  0.3372  3.9708 -1.1995
 1989SOL    HW217427   2.320   1.316   6.034  0.2052  2.9319  0.1030
 1990SOL     OW17428   1.218   2.016   2.516  0.5070  0.1157  0.7206
 1990SOL    HW117429   1.169   2.095   2.539  0.7940  0.0030  1.7473
 1990SOL    HW217430   1.295   2.054   2.476 -0.3411  1.8306  0.7224
 1991SOL     OW17431   2.225   1.275   4.941 -0.4485  0.4649  0.2678
 1991SOL    HW117432   2.210   1.263   5.035  1.3936  2.8753  0.8710
 1991SOL    HW217433   2.306   1.228   4.922 -1.4641 -1.7822  1.5220
 1992SOL     OW17434   2.570   4.268   3.581  0.1816  0.3562 -1.0559
 1992SOL    HW117435   2.560   4.363   3.584  0.3781  0.3510 -0.3290
 1992SOL    HW217436   2.539   4.250   3.492  0.4300  1.0230 -1.2797
 1993SOL     OW17437   2.684   3.795   3.294 -0.5129 -0.7390  0.2751
 1993SOL    HW117438   2.648   3.731   3.232  1.5726 -0.7113 -1.0044
 1993SOL    HW217439   2.600   3.832   3.319  0.1712  1.1762 -0.2605
 1994SOL     OW17440   0.280   3.098   9.104 -0.2593 -0.0331  0.0991
 1994SOL    HW117441   0.307   3.006   9.100 -0.6773 -0.0990 -1.4153
 1994SOL    HW217442   0.268   3.111   9.198  1.0215  0.2569  0.2151
 1995SOL     OW17443   0.788   3.644  13.367 -0.5838  0.7328  0.0023
 1995SOL    HW117444   0.756   3.734  13.361  0.1110  0.9413 -0.6889
 1995SOL    HW217445   0.726   3.600  13.309 -1.5368 -0.6533  2.0880
 1996SOL     OW17446   0.230   3.918   5.252 -0.0597 -0.9729  0.0163
 1996SOL    HW117447   0.310   3.919   5.306  1.5199  2.2778 -2.3791
 1996SOL    HW217448   0.167   3.904   5.323 -0.8853 -0.7180 -0.6655
 1997SOL     OW17449   4.379   3.178   5.134  0.0368  0.4592 -0.2011
 1997SOL    HW117450   4.350   3.269   5.144  0.8303  0.5032  1.7817
 1997SOL    HW217451   4.452   3.201   5.077  0.2852 -1.0934 -0.4932
 1998SOL     OW17452   1.560   1.225  10.213 -0.1836 -0.5117 -0.2671
 1998SOL    HW117453   1.640   1.276  10.198  0.1804  0.4109  4.7049
 1998SOL    HW217454   1.570   1.219  10.308 -0.4210  1.3873 -0.1197
 1999SOL     OW17455   1.095   1.085   7.433  0.8321 -0.0516  0.0031
 1999SOL    HW117456   1.179   1.096   7.477  2.1839  1.6821 -2.9950
 1999SOL    HW217457   1.048   1.032   7.497  0.5637 -2.0913 -1.8731
 2000SOL     OW17458   3.043   3.387   4.263  0.1580 -0.2221 -0.0716
 2000SOL    HW117459   3.021   3.479   4.247 -0.4897  0.0944  2.7149
 2000SOL    HW217460   3.044   3.385   4.359 -2.2711  2.5988  0.0141
 2001SOL     OW17461   2.122   2.625   8.514  0.6589  0.0087  0.6907
 2001SOL    HW117462   2.111   2.536   8.480 -0.4509  1.1197 -1.9411
 2001SOL    HW217463   2.176   2.673   8.451  0.6180 -1.5267 -0.5140
 2002SOL     OW17464   2.466   0.538   4.170  0.4800 -0.1377  0.3061
 2002SOL    HW117465   2.551   0.536   4.214  0.6203  0.1063  0.0480
 2002SOL    HW217466   2.450   0.632   4.177  0.0307 -0.1916  0.0076
 2003SOL     OW17467   1.764   3.530   1.502 -1.0084  0.1835  0.0602
 2003SOL    HW117468   1.761   3.555   1.594 -2.7461  3.6384 -0.9368
 2003SOL    HW217469   1.695   3.463   1.499 -0.4715 -0.3606 -0.1613
 2004SOL     OW17470   1.889   1.764   8.617 -0.2457  0.1137  0.4954
 2004SOL    HW117471   1.834   1.839   8.639 -1.5978 -0.4377 -0.9938
 2004SOL    HW217472   1.827   1.692   8.629 -2.8497  2.4478  1.1590
 2005SOL     OW17473   0.938   3.039   7.739  0.4848  0.3530 -0.0282
 2005SOL    HW117474   0.969   3.125   7.710  0.5223  0.9631  1.8423
 2005SOL    HW217475   0.952   2.970   7.674  0.4671  0.2607  0.0660
 2006SOL     OW17476   1.138   4.276   4.340  0.5432 -0.0529  0.5199
 2006SOL    HW117477   1.099   4.330   4.271  1.0048  0.0915  0.3671
 2006SOL    HW217478   1.059   4.258   4.389  1.5227 -1.3048  1.6231
 2007SOL     OW17479   3.974   2.096   4.995 -0.0976  0.4995 -0.0145
 2007SOL    HW117480   4.070   2.092   5.002 -0.0795  0.4784 -0.2798
 2007SOL    HW217481   3.966   2.156   4.922  1.3574 -0.8963 -1.3196
 2008SOL     OW17482   0.320   3.255   6.574 -0.3256  0.0116 -0.4465
 2008SOL    HW117483   0.254   3.224   6.635  0.1596 -0.9195 -0.3933
 2008SOL    HW217484   0.327   3.171   6.529 -1.4541 -0.8801  1.0512
 2009SOL     OW17485   3.744   1.060   6.476 -0.3562 -0.0956 -0.1415
 2009SOL    HW117486   3.729   1.088   6.386 -0.0542 -2.2124 -0.8414
 2009SOL    HW217487   3.749   1.153   6.498  0.0403 -0.8577  2.9471
 2010SOL     OW17488   1.547   2.400   2.183 -0.0024  0.2262 -0.0896
 2010SOL    HW117489   1.563   2.311   2.151 -1.6688 -0.2601  0.4340
 2010SOL    HW217490   1.637   2.431   2.175  0.0245  0.3538  0.6506
 2011SOL     OW17491   2.533   4.511  11.263  0.1872  0.0826  0.1370
 2011SOL    HW117492   2.562   4.422  11.243 -0.8469 -0.1477 -0.3664
 2011SOL    HW217493   2.444   4.509  11.226 -1.0858 -0.7757  3.2039
 2012SOL     OW17494   1.641   3.586   8.746  0.0482 -0.1527  0.0329
 2012SOL    HW117495   1.565   3.630   8.707 -1.6715 -0.7366  2.7102
 2012SOL    HW217496   1.649   3.653   8.813 -1.2188  1.9321 -1.8898
 2013SOL     OW17497   4.254   2.138   8.272  0.1794 -0.1980 -0.1935
 2013SOL    HW117498   4.333   2.163   8.223 -0.1580  0.2068 -0.5329
 2013SOL    HW217499   4.284   2.071   8.333  0.2984 -0.4879 -0.5683
 2014SOL     OW17500   1.685   0.637  14.727 -0.4150 -0.0965 -0.7054
 2014SOL    HW117501   1.722   0.680  14.804  0.4058  1.0398 -1.7338
 2014SOL    HW217502   1.702   0.694  14.652 -1.1107  0.0830 -0.7296
 2015SOL     OW17503   0.689   1.661  10.724  0.0949  0.2613 -0.1332
 2015SOL    HW117504   0.735   1.613  10.794  2.2857  0.3401 -1.5087
 2015SOL    HW217505   0.761   1.716  10.693  0.9985 -1.0369 -0.3671
 2016SOL     OW17506   4.120   4.521  10.984 -0.2306  0.5318  0.5423
 2016SOL    HW117507   4.205   4.513  10.941 -0.2281  0.6074  0.5316
 2016SOL    HW217508   4.121   4.448  11.045  2.0353  0.8551  0.8980
 2017SOL     OW17509   4.026   0.676   5.663  0.7198 -0.0199  0.1011
 2017SOL    HW117510   3.984   0.649   5.745 -1.8564 -0.5018 -1.3844
 2017SOL    HW217511   4.053   0.763   5.692  0.2539  0.1658 -0.0184
 2018SOL     OW17512   1.099   0.773  17.312  0.2699  0.0467  0.7014
 2018SOL    HW117513   1.053   0.853  17.282 -0.5358 -0.9426 -0.7313
 2018SOL    HW217514   1.032   0.707  17.293 -0.3879  0.7106  0.6787
 2019SOL     OW17515   2.890   3.391   6.812  0.2503  0.1986 -0.3495
 2019SOL    HW117516   2.832   3.332   6.860  1.0292 -1.5846 -1.6182
 2019SOL    HW217517   2.936   3.438   6.882  2.3598  0.2016 -1.7541
 2020SOL     OW17518   2.927   0.306   6.610  0.4978  0.3786 -0.2924
 2020SOL    HW117519   2.848   0.260   6.640  0.6690 -0.2628 -0.8254
 2020SOL    HW217520   2.990   0.290   6.680 -0.8534 -1.9856  0.4251
 2021SOL     OW17521   4.603   1.900   7.664 -0.0276 -0.2121  0.0163
 2021SOL    HW117522   4.673   1.859   7.714 -0.1689 -1.3257 -0.6891
 2021SOL    HW217523   4.563   1.953   7.732 -0.4738  1.8501 -1.8540
 2022SOL     OW17524   3.414   4.388  11.431  0.5670  0.4770  0.2538
 2022SOL    HW117525   3.473   4.417  11.500  2.0879  0.9317 -1.2390
 2022SOL    HW217526   3.431   4.451  11.361  0.2428 -0.3049 -0.5293
 2023SOL     OW17527   2.252   1.326   7.153 -0.3561 -0.1446 -0.1059
 2023SOL    HW117528   2.204   1.287   7.225  1.0626 -1.7610 -0.0438
 2023SOL    HW217529   2.186   1.389   7.124 -0.2359  0.2069  0.3887
 2024SOL     OW17530   2.274   1.208   7.524  0.0159 -0.5508 -0.1590
 2024SOL    HW117531   2.234   1.216   7.610  1.1683 -0.6109  0.3851
 2024SOL    HW217532   2.364   1.230   7.545 -0.3088 -2.0037  2.6981
 2025SOL     OW17533   3.431   1.349   0.277 -0.3561  0.1616  0.7304
 2025SOL    HW117534   3.410   1.256   0.272 -1.4327  0.4645 -0.3919
 2025SOL    HW217535   3.372   1.377   0.206 -0.6869  0.9179  1.3049
 2026SOL     OW17536   3.709   3.434   2.424 -0.8444  0.2525  0.0981
 2026SOL    HW117537   3.631   3.439   2.369 -1.8093 -1.0130  1.3550
 2026SOL    HW217538   3.670   3.388   2.498  0.3897 -0.7960  0.1030
 2027SOL     OW17539   2.336   1.568   2.111  0.1923 -0.4965 -0.0920
 2027SOL    HW117540   2.250   1.602   2.137  1.4878  1.6200  1.4231
 2027SOL    HW217541   2.397   1.639   2.090  0.8716 -0.3860  2.3343
 2028SOL     OW17542   2.648   3.252   4.010  0.4416  0.1912 -0.1379
 2028SOL    HW117543   2.672   3.344   3.993 -1.5776  0.9563  1.1174
 2028SOL    HW217544   2.588   3.235   3.937 -1.2201 -1.4193  1.5918
 2029SOL     OW17545   4.705   0.245  15.581  0.0348 -0.0730  0.5691
 2029SOL    HW117546   0.047   0.182  15.616 -0.0615 -0.1772  0.5536
 2029SOL    HW217547   4.687   0.206  15.495  3.3357 -1.0608  0.3095
 2030SOL     OW17548   0.549   1.996   8.380  0.0250  0.0987  0.3004
 2030SOL    HW117549   0.549   2.091   8.378  1.2971  0.0712 -0.8036
 2030SOL    HW217550   0.597   1.977   8.299 -0.9801 -0.4925 -0.1605
 2031SOL     OW17551   1.597   3.552  12.262 -0.0881 -0.6623 -0.3991
 2031SOL    HW117552   1.614   3.509  12.346  2.3121 -3.1699 -2.1721
 2031SOL    HW217553   1.686   3.567  12.231  0.4510 -1.2202  0.8852
 2032SOL     OW17554   0.546   2.112   5.995 -0.0324  0.4759  0.6560
 2032SOL    HW117555   0.507   2.058   5.926 -0.5041 -0.0351  1.3079
 2032SOL    HW217556   0.475   2.165   6.033  0.1290  0.2866  1.2183
 2033SOL     OW17557   2.166   2.290   7.372 -0.7393  0.3330  0.2871
 2033SOL    HW117558   2.106   2.232   7.419 -0.0475 -1.7761 -1.4787
 2033SOL    HW217559   2.155   2.371   7.423 -2.2985 -0.3655  1.0750
 2034SOL     OW17560   0.414   0.624   7.356 -0.5998  0.2261 -0.5099
 2034SOL    HW117561   0.450   0.655   7.439  2.6850 -1.7255 -1.1862
 2034SOL    HW217562   0.410   0.528   7.365 -0.0710  0.3636  1.1532
 2035SOL     OW17563   4.611   4.672   7.056  0.0197 -0.0698  0.5978
 2035SOL    HW117564   4.679   4.707   6.998 -1.8151  0.3512 -1.2676
 2035SOL    HW217565   4.557   4.623   6.995 -0.2344 -0.5216  1.1872
 2036SOL     OW17566   4.599   0.426   1.830 -0.7156  0.1919  0.1232
 2036SOL    HW117567   4.681   0.437   1.880  0.8284  1.9166 -2.8016
 2036SOL    HW217568   4.571   0.344   1.871 -0.7120  0.5176  0.7849
 2037SOL     OW17569   2.414   3.961   5.537 -0.0061 -0.3075  0.4129
 2037SOL    HW117570   2.411   4.007   5.453  1.6626 -0.2027  0.4139
 2037SOL    HW217571   2.374   4.024   5.597 -2.2541  0.6292 -2.0801
 2038SOL     OW17572   2.203   2.534   3.850  0.4092 -0.4499  0.1679
 2038SOL    HW117573   2.202   2.475   3.776  1.1380  0.6944 -0.7605
 2038SOL    HW217574   2.176   2.482   3.926  0.7636  2.2736  2.1825
 2039SOL     OW17575   0.654   4.563  10.281  0.0551 -0.0877 -0.6895
 2039SOL    HW117576   0.663   4.498  10.211  1.5351 -0.4207 -0.1874
 2039SOL    HW217577   0.567   4.541  10.314  0.5954 -3.3032 -1.4353
 2040SOL     OW17578   0.671   3.259   6.376 -0.0900  0.6453 -0.3056
 2040SOL    HW117579   0.593   3.267   6.321 -0.9044  0.8623  0.8948
 2040SOL    HW217580   0.742   3.266   6.312 -0.3683 -0.4047 -0.7430
 2041SOL     OW17581   2.352   4.089   6.516  0.0034  0.2240  0.2443
 2041SOL    HW117582   2.268   4.089   6.562 -1.7437  0.5268 -2.9561
 2041SOL    HW217583   2.402   4.143   6.578 -0.6628  0.3684  0.6490
 2042SOL     OW17584   1.387   0.503   4.951  0.4179 -0.0546 -0.5836
 2042SOL    HW117585   1.373   0.558   5.027 -2.3216 -3.4319  1.3388
 2042SOL    HW217586   1.298   0.475   4.933 -0.0053  0.4662  0.7351
 2043SOL     OW17587   0.614   0.088   4.003 -0.4700  0.3711  0.1978
 2043SOL    HW117588   0.533   0.074   4.053 -0.2152 -1.1158  0.1829
 2043SOL    HW217589   0.654   0.156   4.058  0.8149  1.9544 -2.7295
 2044SOL     OW17590   2.776   0.306   5.003  0.1934 -0.0464  0.0601
 2044SOL    HW117591   2.762   0.213   5.021 -0.5449  0.2095  0.7863
 2044SOL    HW217592   2.719   0.344   5.069 -0.1582  0.0300 -0.2825
 2045SOL     OW17593   3.366   0.063   1.278  0.5634  0.2238 -0.0548
 2045SOL    HW117594   3.350   0.111   1.197 -0.7054  0.7656  0.5128
 2045SOL    HW217595   3.374   4.695   1.243 -1.8821 -0.2732  0.6843
 2046SOL     OW17596   0.991   4.168   7.721 -0.2125  0.4588  0.2117
 2046SOL    HW117597   0.989   4.073   7.709  2.0056  0.3160  0.9856
 2046SOL    HW217598   0.914   4.187   7.775 -1.2238 -1.6990 -0.4495
 2047SOL     OW17599   3.532   2.997  16.779  0.2207  0.0318  0.1778
 2047SOL    HW117600   3.543   3.042  16.863 -1.6965 -0.0819  0.5003
 2047SOL    HW217601   3.437   2.991  16.768  0.1671  2.3229 -0.5907
 2048SOL     OW17602   1.306   4.534   2.683  0.2300 -0.0555  0.0004
 2048SOL    HW117603   1.347   4.545   2.597 -1.3423 -0.0787 -0.7594
 2048SOL    HW217604   1.238   4.470   2.662 -0.0561  0.0046  0.7547
 2049SOL     OW17605   3.297   1.121   7.895 -0.0907 -0.2531  0.4231
 2049SOL    HW117606   3.316   1.190   7.959 -0.4186 -0.1392  0.4005
 2049SOL    HW217607   3.202   1.132   7.900  0.0231  1.0209 -0.1542
 2050SOL     OW17608   1.622   0.684   4.606  0.6487 -0.2022  0.1156
 2050SOL    HW117609   1.622   0.641   4.692  2.3873  1.9876  1.2352
 2050SOL    HW217610   1.533   0.715   4.589 -0.1022 -2.7578 -0.5888
 2051SOL     OW17611   2.079   3.658  11.773 -0.2299 -0.1483  0.3330
 2051SOL    HW117612   2.134   3.727  11.735  0.0362 -0.0214  0.9466
 2051SOL    HW217613   2.053   3.608  11.696 -1.5957  0.8363  0.1590
 2052SOL     OW17614   4.274   4.527   5.411  0.2579 -0.3216  0.3847
 2052SOL    HW117615   4.337   4.598   5.424 -0.3019  0.5247 -1.5662
 2052SOL    HW217616   4.312   4.480   5.337 -0.3716 -1.7589  0.9901
 2053SOL     OW17617   4.631   0.464   4.814  0.2687  0.2501  0.1081
 2053SOL    HW117618   4.543   0.431   4.831  0.5302 -0.2834  0.4358
 2053SOL    HW217619   4.642   0.528   4.885 -0.1513  0.2409  0.1803
 2054SOL     OW17620   2.867   3.737  14.740  0.2252 -0.2128 -0.1458
 2054SOL    HW117621   2.924   3.704  14.809  1.9121  0.0346 -1.4166
 2054SOL    HW217622   2.911   3.817  14.713 -0.1261 -0.3478 -1.1378
 2055SOL     OW17623   0.442   2.294   2.263  0.1924 -0.3127 -0.3680
 2055SOL    HW117624   0.403   2.212   2.234  0.2267 -0.1173 -0.9604
 2055SOL    HW217625   0.358   2.340   2.265  0.1126 -0.4349 -0.9436
 2056SOL     OW17626   3.055   3.616   0.591 -0.1202 -0.0091 -0.4107
 2056SOL    HW117627   3.063   3.525   0.563 -1.8219  0.3372 -1.9829
 2056SOL    HW217628   2.961   3.614   0.607 -0.3311 -1.7747 -1.9156
 2057SOL     OW17629   3.429   2.889   9.645  0.4053 -0.4112  0.2078
 2057SOL    HW117630   3.480   2.957   9.600 -1.5829  0.8872 -0.0571
 2057SOL    HW217631   3.466   2.813   9.599  1.7259  0.6438 -0.4688
 2058SOL     OW17632   1.742   1.410   4.421 -0.4283  0.9805 -0.3324
 2058SOL    HW117633   1.776   1.326   4.387 -1.9480 -0.3365  1.4608
 2058SOL    HW217634   1.825   1.457   4.422  1.4177 -2.2951  1.8686
 2059SOL     OW17635   2.361   4.189   0.469 -0.0572  0.0368 -0.4750
 2059SOL    HW117636   2.443   4.175   0.517 -0.3616  0.2162  0.0976
 2059SOL    HW217637   2.310   4.239   0.533  0.4585 -0.3622  0.2447
 2060SOL     OW17638   2.502   1.800   0.784  0.0862  0.3168 -0.6322
 2060SOL    HW117639   2.580   1.793   0.839 -1.3829 -3.5770  0.9138
 2060SOL    HW217640   2.517   1.882   0.738 -0.3933  0.7058 -0.0825
 2061SOL     OW17641   3.849   2.842   4.322 -0.4706  0.1073  0.4063
 2061SOL    HW117642   3.822   2.753   4.343 -1.0856  0.0736 -0.5253
 2061SOL    HW217643   3.788   2.890   4.379  0.4870  1.8574 -0.0520
 2062SOL     OW17644   3.362   2.920   2.891  0.0726  0.4727 -0.0944
 2062SOL    HW117645   3.409   2.959   2.817 -1.5438  0.6283 -1.0348
 2062SOL    HW217646   3.432   2.889   2.949 -1.3787 -0.9507  0.8913
 2063SOL     OW17647   2.822   0.547  14.684  0.4130  0.3777 -0.5155
 2063SOL    HW117648   2.766   0.609  14.638 -2.1592 -1.6277 -0.0592
 2063SOL    HW217649   2.802   0.467  14.635  2.1975 -1.1402  1.2395
 2064SOL     OW17650   2.739   0.219   7.534  0.6377  0.1729  0.2108
 2064SOL    HW117651   2.724   0.202   7.627  0.0960  2.6080  0.5552
 2064SOL    HW217652   2.658   0.192   7.490  0.1341 -2.6212  2.8199
 2065SOL     OW17653   1.551   1.761   5.853 -0.1141 -0.6167 -0.1601
 2065SOL    HW117654   1.549   1.665   5.850  0.1653 -0.6582  0.8662
 2065SOL    HW217655   1.643   1.786   5.861 -0.2275 -0.2131 -0.1311
 2066SOL     OW17656   1.357   0.969   0.153  0.1490  0.1869 -0.1072
 2066SOL    HW117657   1.262   0.984   0.153 -0.4559 -3.6983 -0.2009
 2066SOL    HW217658   1.375   0.883   0.191 -1.9432 -0.2197 -0.0309
 2067SOL     OW17659   0.770   2.046   1.301  0.4221  0.5474  0.2176
 2067SOL    HW117660   0.746   1.953   1.301 -0.6776  0.8265 -1.5845
 2067SOL    HW217661   0.737   2.075   1.386 -2.0400 -3.5283  0.6629
 2068SOL     OW17662   0.093   1.857  16.032  0.2133 -0.0903 -0.4665
 2068SOL    HW117663   0.169   1.815  15.993 -0.3916 -1.3955 -0.2163
 2068SOL    HW217664   0.140   1.940  16.044  0.8046 -0.3940 -0.7004
 2069SOL     OW17665   0.969   2.954  17.664 -0.0790  0.3088  0.0649
 2069SOL    HW117666   0.968   2.859  17.648  1.3058  0.6159 -1.9861
 2069SOL    HW217667   1.004   2.984  17.580 -0.5689  1.0554  0.1325
 2070SOL     OW17668   3.850   1.431   3.035  0.5301  0.1255  0.1280
 2070SOL    HW117669   3.885   1.370   2.970 -0.2545 -2.0581  1.7458
 2070SOL    HW217670   3.762   1.394   3.028  0.2980  0.6073  0.5453
 2071SOL     OW17671   3.392   3.183   5.221  0.4558  0.6859 -0.2141
 2071SOL    HW117672   3.437   3.109   5.181 -1.5930 -0.8077  0.2749
 2071SOL    HW217673   3.451   3.210   5.292 -0.3893  2.5502 -0.2078
 2072SOL     OW17674   0.350   2.403  10.105 -0.0610 -0.2188 -0.4545
 2072SOL    HW117675   0.427   2.362  10.144 -0.6938 -0.1354  0.9007
 2072SOL    HW217676   0.288   2.405  10.178 -0.2657 -0.0186 -0.6335
 2073SOL     OW17677   1.235   2.987   6.180 -0.7316 -0.3056 -0.0233
 2073SOL    HW117678   1.235   2.932   6.259  0.9647  0.1384  0.2722
 2073SOL    HW217679   1.306   2.944   6.133 -2.1328 -2.4023 -0.2267
 2074SOL     OW17680   4.577   3.196   2.736  0.9776  0.2532 -0.0391
 2074SOL    HW117681   4.567   3.281   2.692 -1.4478 -0.1885 -0.3485
 2074SOL    HW217682   4.529   3.138   2.677  2.3934 -0.9183 -0.0369
 2075SOL     OW17683   2.803   1.510   8.156  0.5683  0.1163 -0.1578
 2075SOL    HW117684   2.824   1.448   8.086  0.3198  0.0216 -0.1464
 2075SOL    HW217685   2.878   1.494   8.215  0.4415 -1.8500 -0.5052
 2076SOL     OW17686   4.479   1.709  11.794 -0.3143 -0.5524 -0.2580
 2076SOL    HW117687   4.473   1.724  11.699  1.2890 -0.2981 -0.3145
 2076SOL    HW217688   4.562   1.662  11.801  0.7179  1.3129  0.0577
 2077SOL     OW17689   3.319   1.548   4.862  0.2861 -0.4825 -0.1452
 2077SOL    HW117690   3.256   1.618   4.853 -0.9851 -1.7447 -1.0075
 2077SOL    HW217691   3.379   1.564   4.935 -2.4383  0.1733  1.9344
 2078SOL     OW17692   2.448   3.939  10.467  0.3981 -0.5703 -0.2645
 2078SOL    HW117693   2.542   3.932  10.483  0.4044  1.1972  0.5569
 2078SOL    HW217694   2.440   3.983  10.382 -2.8716 -0.4368  0.1167
 2079SOL     OW17695   2.546   2.059   4.924  0.4093 -0.9066  0.2761
 2079SOL    HW117696   2.462   2.038   4.884  0.6871 -0.1655 -0.7181
 2079SOL    HW217697   2.545   2.011   5.006 -1.4962  0.3946  0.9966
 2080SOL     OW17698   2.752   4.170   0.889  0.7963  0.9139 -0.4485
 2080SOL    HW117699   2.694   4.242   0.867  1.9340  1.7621 -0.7119
 2080SOL    HW217700   2.785   4.145   0.802 -0.3775  3.1172 -1.5101
 2081SOL     OW17701   2.958   2.370  16.431  0.0131 -0.1646  0.0425
 2081SOL    HW117702   2.977   2.311  16.359 -0.9371  1.6538 -1.6943
 2081SOL    HW217703   3.047   2.399  16.451  0.4434 -1.9005  0.6348
 2082SOL     OW17704   4.553   1.353   2.084 -0.3656 -0.4638  0.3816
 2082SOL    HW117705   4.507   1.415   2.026 -0.7300 -0.5035  0.6243
 2082SOL    HW217706   4.632   1.405   2.100 -0.1860 -0.4037 -0.7210
 2083SOL     OW17707   2.359   0.395   1.571  0.1825  0.2035  0.0873
 2083SOL    HW117708   2.409   0.330   1.621 -1.3392  0.2451  1.6402
 2083SOL    HW217709   2.286   0.395   1.633  0.2458  0.7654  0.1570
 2084SOL     OW17710   0.310   4.413   7.605 -0.2126  0.3430 -0.4625
 2084SOL    HW117711   0.253   4.336   7.604  0.3216 -0.0749  1.0563
 2084SOL    HW217712   0.330   4.422   7.512  0.4552 -0.0089 -0.3598
 2085SOL     OW17713   3.286   2.661   7.127 -0.9898  0.0244  0.3362
 2085SOL    HW117714   3.267   2.749   7.093 -1.0176  0.8429  2.4372
 2085SOL    HW217715   3.295   2.681   7.220  2.4929 -0.7103  0.1480
 2086SOL     OW17716   0.210   1.883   1.731  0.2608  0.3283  0.2303
 2086SOL    HW117717   0.198   1.958   1.789  2.3893  0.9647 -0.1556
 2086SOL    HW217718   0.147   1.826   1.774  0.8314  0.9552  1.9044
 2087SOL     OW17719   2.045   1.454   0.089 -0.5077 -0.0726 -0.0436
 2087SOL    HW117720   2.035   1.540   0.048 -0.8186  0.7990  1.8700
 2087SOL    HW217721   2.108   1.462   0.161 -0.7708 -1.3128  0.3297
 2088SOL     OW17722   3.365   3.942   8.603  0.2458 -0.3717  0.1798
 2088SOL    HW117723   3.364   3.964   8.509  0.1982  2.0981  0.7506
 2088SOL    HW217724   3.450   3.981   8.626  1.1916 -1.9454 -0.6368
 2089SOL     OW17725   4.124   4.666  14.917 -0.2482  0.7386  0.6749
 2089SOL    HW117726   4.045   4.655  14.864 -0.6510 -0.5028  1.5199
 2089SOL    HW217727   4.107   4.608  14.992 -0.7411  1.2054  0.9307
 2090SOL     OW17728   2.095   2.012   7.149 -0.1413 -0.2260 -0.1965
 2090SOL    HW117729   2.071   2.057   7.230 -1.1118  1.7985 -1.6051
 2090SOL    HW217730   2.189   2.031   7.149 -0.6631  2.4390 -1.0331
 2091SOL     OW17731   0.660   1.977   2.870 -0.3464  0.0561  0.0280
 2091SOL    HW117732   0.706   1.956   2.788  0.8882 -0.0031  0.7372
 2091SOL    HW217733   0.619   1.894   2.894  0.6757  1.1513  5.6370
 2092SOL     OW17734   3.521   0.044   0.128  0.4741  0.3937 -0.0682
 2092SOL    HW117735   3.478   4.681   0.149 -1.5811  1.6357  0.6506
 2092SOL    HW217736   3.447   0.105   0.129  0.4920  0.4159 -1.1012
 2093SOL     OW17737   2.833   1.172   8.639  0.4702  0.4128 -1.0230
 2093SOL    HW117738   2.755   1.228   8.640 -0.7173 -1.1995 -3.2991
 2093SOL    HW217739   2.885   1.213   8.708  0.1316  0.2165 -0.6548
 2094SOL     OW17740   3.388   2.534   5.452 -0.3713 -0.6335  0.3175
 2094SOL    HW117741   3.390   2.471   5.380 -0.3341 -0.6657  0.3472
 2094SOL    HW217742   3.383   2.616   5.403 -1.2353 -0.6131  0.4447
 2095SOL     OW17743   3.775   4.627   2.241 -0.1266  0.2052  0.5068
 2095SOL    HW117744   3.755   4.534   2.248  1.4978 -0.1288  0.6275
 2095SOL    HW217745   3.792   4.627   2.147 -1.9216  0.8867  0.1839
 2096SOL     OW17746   2.669   4.469  12.376  0.3898 -0.3933  0.1031
 2096SOL    HW117747   2.611   4.527  12.426 -1.3191 -0.4524 -1.7711
 2096SOL    HW217748   2.647   4.386  12.418  2.5649 -0.2999  1.4247
 2097SOL     OW17749   1.519   1.420  13.054 -0.5347  0.0198 -0.3914
 2097SOL    HW117750   1.465   1.444  12.979 -1.1602 -1.4399 -0.4227
 2097SOL    HW217751   1.494   1.329  13.072 -0.4681  0.0183 -0.3066
 2098SOL     OW17752   3.538   1.629   0.355 -1.0253  0.5810  0.3084
 2098SOL    HW117753   3.505   1.599   0.271 -0.5166  0.7745  0.0371
 2098SOL    HW217754   3.494   1.569   0.415 -1.6838 -0.8114 -1.5788
 2099SOL     OW17755   1.389   3.799   5.675  0.3562  0.8604  0.1134
 2099SOL    HW117756   1.419   3.839   5.594  0.4381 -0.6487 -0.5919
 2099SOL    HW217757   1.447   3.724   5.685  0.5760  1.0241  0.0728
 2100SOL     OW17758   2.092   2.375  10.159 -0.2705  0.5391 -0.4470
 2100SOL    HW117759   2.037   2.297  10.155 -0.6504  0.7251  1.3367
 2100SOL    HW217760   2.040   2.434  10.214  0.1802 -0.7066  1.2985
 2101SOL     OW17761   4.400   0.801   2.987 -0.2321  0.3685  0.0045
 2101SOL    HW117762   4.367   0.729   2.934 -0.0545 -0.2021  0.6613
 2101SOL    HW217763   4.492   0.786   2.967 -0.1425  0.8222  0.0827
 2102SOL     OW17764   0.057   1.874   9.979  0.0311  0.5970  0.0701
 2102SOL    HW117765   0.091   1.945   9.925 -1.0170  1.7782  0.9674
 2102SOL    HW217766   4.689   1.898  10.007  0.1331 -0.6643  1.4638
 2103SOL     OW17767   3.422   2.672   4.702 -0.7460 -0.0170 -0.1146
 2103SOL    HW117768   3.427   2.686   4.797  0.2905  0.2748 -0.2118
 2103SOL    HW217769   3.506   2.629   4.685 -0.9537 -0.3245 -0.3652
 2104SOL     OW17770   0.710   2.380   5.738  0.1077  0.1353 -0.4799
 2104SOL    HW117771   0.787   2.352   5.688  0.7972  0.6892  0.2879
 2104SOL    HW217772   0.659   2.304   5.709 -1.5071  1.4151 -0.9739
 2105SOL     OW17773   0.764   1.109   7.893 -0.0759 -0.2007  0.3386
 2105SOL    HW117774   0.674   1.076   7.892  0.4069 -1.5296  0.4168
 2105SOL    HW217775   0.755   1.198   7.860  1.5626 -0.6424 -1.3184
 2106SOL     OW17776   1.779   0.396   6.271 -0.4162 -0.5005 -0.2856
 2106SOL    HW117777   1.795   0.484   6.235 -3.9865  0.5517  0.7360
 2106SOL    HW217778   1.778   0.333   6.199 -0.7172 -1.4095  0.5235
 2107SOL     OW17779   3.343   2.437   3.457  0.2069 -0.0466 -0.1085
 2107SOL    HW117780   3.403   2.363   3.465  0.3572 -0.1205 -1.7679
 2107SOL    HW217781   3.303   2.446   3.543 -0.3142 -1.5657 -0.1995
 2108SOL     OW17782   3.720   2.277   2.658  0.0987  0.0557 -0.0788
 2108SOL    HW117783   3.687   2.203   2.607 -2.4044  0.7672  0.5139
 2108SOL    HW217784   3.754   2.233   2.736 -1.7437 -0.1182  0.6000
 2109SOL     OW17785   1.345   2.265   4.158 -0.5920  0.0096  0.2392
 2109SOL    HW117786   1.397   2.324   4.105 -0.6582 -1.1859 -1.1496
 2109SOL    HW217787   1.411   2.196   4.167  1.0842  1.5691 -0.2126
 2110SOL     OW17788   1.827   3.780  12.796  0.6113  0.4174 -0.8059
 2110SOL    HW117789   1.813   3.767  12.702  2.9296  0.2425 -1.1246
 2110SOL    HW217790   1.803   3.692  12.824  0.5428  0.5926 -0.3203
 2111SOL     OW17791   2.863   1.764   8.465  0.2034  0.3322  0.7650
 2111SOL    HW117792   2.774   1.729   8.460  0.4749 -0.2864  0.1136
 2111SOL    HW217793   2.887   1.719   8.383  0.0963  0.1530  0.8315
 2112SOL     OW17794   1.347   3.172   1.529 -0.4975  0.0955  0.9530
 2112SOL    HW117795   1.289   3.096   1.518  1.8344 -1.9452  2.7194
 2112SOL    HW217796   1.389   3.195   1.446 -3.4557  2.9382  0.2366
 2113SOL     OW17797   4.064   1.946   6.095 -0.0379  0.1857 -0.1502
 2113SOL    HW117798   3.981   1.983   6.125  0.7469 -0.1468  2.4217
 2113SOL    HW217799   4.120   2.023   6.087 -0.4682  0.5451  0.3024
 2114SOL     OW17800   2.830   0.622  16.762  0.1878  0.7103 -0.2572
 2114SOL    HW117801   2.830   0.697  16.822 -0.3659 -0.8378  1.6901
 2114SOL    HW217802   2.925   0.618  16.753  0.4358  1.1091  2.1974
 2115SOL     OW17803   0.980   1.061   6.715 -0.3789  0.5103 -0.6611
 2115SOL    HW117804   1.072   1.066   6.689 -0.4874 -1.0073 -1.3128
 2115SOL    HW217805   0.973   0.972   6.747  1.3707  0.2902 -0.9155
 2116SOL     OW17806   2.207   4.285   4.278  0.3934 -0.5500 -0.1837
 2116SOL    HW117807   2.170   4.199   4.300  0.2846  0.3512  3.0087
 2116SOL    HW217808   2.229   4.320   4.364 -0.9447 -1.4211  0.5105
 2117SOL     OW17809   4.161   0.821   3.152  0.3074  0.4725  0.5935
 2117SOL    HW117810   4.245   0.828   3.106  0.0163  0.0655  0.0039
 2117SOL    HW217811   4.104   0.887   3.110 -0.7016 -1.3521 -0.9097
 2118SOL     OW17812   2.418   3.291   4.497  0.5298  0.0418  0.5132
 2118SOL    HW117813   2.476   3.347   4.445 -1.5458  1.2903 -0.4695
 2118SOL    HW217814   2.336   3.315   4.455  0.6639  1.0669  0.8178
 2119SOL     OW17815   1.606   4.097   7.281 -0.1723 -0.1246 -0.1769
 2119SOL    HW117816   1.588   4.077   7.373 -0.5461  0.8017 -0.0440
 2119SOL    HW217817   1.561   4.181   7.270 -0.6854 -0.2698  0.7201
 2120SOL     OW17818   3.656   2.095  17.540  0.2170  0.0592  0.3746
 2120SOL    HW117819   3.616   2.177  17.509  0.6576  0.7431  1.6061
 2120SOL    HW217820   3.585   2.031  17.542  0.2503  0.0439  1.4314
 2121SOL     OW17821   1.944   2.914   1.844  0.3157 -0.1114  0.8841
 2121SOL    HW117822   1.924   2.906   1.937  1.3949 -0.5437  1.0820
 2121SOL    HW217823   1.989   2.832   1.825 -0.0751  0.0053 -0.5167
 2122SOL     OW17824   4.181   1.514  16.045  0.0846  0.5916  0.2367
 2122SOL    HW117825   4.182   1.474  15.959 -0.1976 -0.5168  0.7525
 2122SOL    HW217826   4.256   1.569  16.020  0.6746  0.6180  2.0219
 2123SOL     OW17827   0.071   2.535   3.978  0.5623 -0.2258  0.1524
 2123SOL    HW117828   0.141   2.477   3.948  1.1733  1.1004 -1.0167
 2123SOL    HW217829   0.057   2.588   3.899  0.4639 -0.0680  0.2769
 2124SOL     OW17830   3.665   0.806   7.952 -0.0103  0.8851  0.4361
 2124SOL    HW117831   3.578   0.842   7.936 -0.4736 -1.3323 -2.0080
 2124SOL    HW217832   3.718   0.885   7.965  2.6124 -0.9437  0.8851
 2125SOL     OW17833   2.040   3.360   5.788  0.2843 -0.3736 -0.8633
 2125SOL    HW117834   2.131   3.355   5.817  0.6012 -0.7971 -1.9719
 2125SOL    HW217835   2.048   3.273   5.749  0.5631 -0.6263 -0.2468
 2126SOL     OW17836   0.222   0.962   4.853 -0.3148  0.2270 -0.2312
 2126SOL    HW117837   0.192   0.948   4.943 -3.3161  1.3651 -1.0627
 2126SOL    HW217838   0.212   0.875   4.815  0.9629 -0.1457  0.2748
 2127SOL     OW17839   0.552   2.099   3.977 -0.1765  0.2845 -0.2496
 2127SOL    HW117840   0.503   2.048   4.042 -0.6549  0.0961 -0.7561
 2127SOL    HW217841   0.542   2.045   3.899 -1.7580  0.3699 -0.1210
 2128SOL     OW17842   1.427   4.118  15.663  0.0292 -0.2904  0.1614
 2128SOL    HW117843   1.440   4.212  15.679  0.9493 -0.0215 -2.0883
 2128SOL    HW217844   1.426   4.127  15.567  1.1862 -0.2725  0.1521
 2129SOL     OW17845   2.526   4.557   5.031 -0.2656  0.3965  0.3892
 2129SOL    HW117846   2.544   4.514   4.947  0.9800  2.3171 -0.3204
 2129SOL    HW217847   2.475   4.631   4.998  1.6849  1.1305 -1.0083
 2130SOL     OW17848   2.395   1.183  10.653  0.2718  0.2310 -0.6479
 2130SOL    HW117849   2.330   1.142  10.596  1.3494 -0.1300 -1.6057
 2130SOL    HW217850   2.443   1.224  10.581  0.7519  1.3745  0.3243
 2131SOL     OW17851   1.159   1.784   9.121  0.1565 -0.6818 -0.5577
 2131SOL    HW117852   1.090   1.722   9.100 -1.3334  0.3306  1.3057
 2131SOL    HW217853   1.100   1.860   9.116  0.5608 -0.2018  2.1735
 2132SOL     OW17854   4.144   1.232  17.261 -0.8419  0.3909  0.1608
 2132SOL    HW117855   4.054   1.259  17.244 -1.2217 -0.2648  1.1841
 2132SOL    HW217856   4.177   1.302  17.318 -1.2318  0.1698  0.6561
 2133SOL     OW17857   3.764   1.670  10.965 -0.3648  0.3331 -0.0786
 2133SOL    HW117858   3.752   1.678  10.871  3.8018  1.2450 -0.5181
 2133SOL    HW217859   3.787   1.578  10.958  1.2598  0.8182 -1.1192
 2134SOL     OW17860   4.315   0.232   7.575  0.3980  0.4456  0.2086
 2134SOL    HW117861   4.391   0.193   7.532 -0.0779  0.9626 -1.0990
 2134SOL    HW217862   4.337   0.325   7.568 -0.2596  0.6472  0.8951
 2135SOL     OW17863   0.274   3.831  15.965  0.3338  1.3315  0.5112
 2135SOL    HW117864   0.345   3.802  15.907  0.3110 -1.6097  1.9744
 2135SOL    HW217865   0.243   3.750  16.005 -0.3267  0.7388 -1.1874
 2136SOL     OW17866   1.773   1.386  10.155  0.0663  0.0165  0.2874
 2136SOL    HW117867   1.781   1.481  10.148 -1.1621 -0.0863 -2.4054
 2136SOL    HW217868   1.830   1.357  10.084 -1.6354 -0.6517 -0.7961
 2137SOL     OW17869   1.499   4.686  14.283 -0.3200  0.4623 -0.1626
 2137SOL    HW117870   1.591   4.680  14.256 -0.2805  0.0939  0.0616
 2137SOL    HW217871   1.459   4.709  14.199 -0.1522 -1.0294 -0.6561
 2138SOL     OW17872   1.398   4.575   7.515  0.8850  0.9190  0.0407
 2138SOL    HW117873   1.351   4.492   7.523  1.3867  0.7834  1.7040
 2138SOL    HW217874   1.482   4.547   7.550  0.2185  0.2692  1.1514
 2139SOL     OW17875   0.082   3.682   6.534  0.3277  0.2239 -0.0097
 2139SOL    HW117876   0.009   3.653   6.479  2.4331 -1.0276 -2.1814
 2139SOL    HW217877   0.090   3.613   6.599  1.6575 -1.4816 -1.9668
 2140SOL     OW17878   2.166   0.192  17.619  0.5598  0.3707  0.2831
 2140SOL    HW117879   2.255   0.204  17.652  0.7459  2.9304 -1.1459
 2140SOL    HW217880   2.136   0.278  17.648  4.1666  2.1189 -1.1264
 2141SOL     OW17881   2.752   0.520   2.957 -0.5942 -0.4831 -0.6731
 2141SOL    HW117882   2.696   0.576   2.904 -0.4532  1.4095  1.2201
 2141SOL    HW217883   2.830   0.573   2.940 -0.7677  0.0969  0.3947
 2142SOL     OW17884   3.049   0.080   6.145  0.1323 -0.3468 -0.3710
 2142SOL    HW117885   3.006   0.019   6.085  0.5271 -1.0436  0.0550
 2142SOL    HW217886   2.975   0.113   6.197 -1.6033 -0.6684 -2.6134
 2143SOL     OW17887   4.140   2.498  12.981  0.2349 -0.5489  0.3000
 2143SOL    HW117888   4.115   2.590  12.981 -0.4561 -0.7334 -2.1212
 2143SOL    HW217889   4.192   2.485  13.060  2.4389  0.8674 -0.9259
 2144SOL     OW17890   2.335   1.274   2.172 -0.4723  0.2843  0.0634
 2144SOL    HW117891   2.315   1.365   2.191  0.8767  0.5463  0.1828
 2144SOL    HW217892   2.376   1.241   2.253  1.4391  2.4493 -0.0483
 2145SOL     OW17893   1.898   3.833   3.072 -0.4826 -0.1075  0.6102
 2145SOL    HW117894   1.841   3.781   3.129  1.0697 -1.7394  0.6743
 2145SOL    HW217895   1.852   3.830   2.988  1.1205  1.6710 -0.3107
 2146SOL     OW17896   0.976   1.400   4.014 -0.2553  0.0523 -0.3955
 2146SOL    HW117897   1.027   1.423   3.936  2.4775  1.3631  1.7697
 2146SOL    HW217898   0.893   1.447   4.005 -0.6987 -1.1263 -2.4416
 2147SOL     OW17899   1.445   4.279  15.950 -0.2529 -0.3384  0.3147
 2147SOL    HW117900   1.523   4.287  15.895 -0.3218  0.5413  0.3400
 2147SOL    HW217901   1.467   4.212  16.015  3.0348 -2.1745 -2.7378
 2148SOL     OW17902   3.317   1.204  13.710  0.2792 -0.2240 -0.2416
 2148SOL    HW117903   3.236   1.168  13.676  0.4074 -1.4061  0.6995
 2148SOL    HW217904   3.363   1.121  13.724  2.8094  0.9740 -1.2415
 2149SOL     OW17905   4.527   0.426  17.115  0.3879  0.3723 -0.5545
 2149SOL    HW117906   4.510   0.399  17.025 -2.6617  0.0904  0.1001
 2149SOL    HW217907   4.618   0.455  17.111  1.1107 -1.8463 -0.4492
 2150SOL     OW17908   0.352   0.778   3.945  0.1295  0.3382  0.3023
 2150SOL    HW117909   0.279   0.728   3.909 -0.0946  1.1678 -0.4102
 2150SOL    HW217910   0.320   0.807   4.030  1.1693 -0.5623  0.9906
 2151SOL     OW17911   4.379   4.076   4.775 -0.6561  0.1069 -0.3703
 2151SOL    HW117912   4.329   4.076   4.857  2.4583  0.4108  1.5336
 2151SOL    HW217913   4.464   4.105   4.808 -1.0459  0.0388  0.7197
 2152SOL     OW17914   3.689   3.723   0.757  0.2889 -0.3219 -0.6334
 2152SOL    HW117915   3.698   3.802   0.704  0.0974 -0.2691 -0.5889
 2152SOL    HW217916   3.653   3.773   0.831  1.0391  0.9117 -1.0912
 2153SOL     OW17917   3.455   4.063   7.980  0.0558  0.2023  0.4571
 2153SOL    HW117918   3.425   4.120   7.909 -0.6336 -1.6758 -0.7562
 2153SOL    HW217919   3.437   4.098   8.067  0.1846  1.6478 -0.0999
 2154SOL     OW17920   3.557   0.666   1.160 -0.3606 -0.0859 -0.8284
 2154SOL    HW117921   3.467   0.636   1.148 -0.3621 -1.2683  2.1890
 2154SOL    HW217922   3.570   0.740   1.101  1.7646  0.7088  0.6606
 2155SOL     OW17923   1.006   3.153   6.785  0.5865  0.0815 -0.4935
 2155SOL    HW117924   1.019   3.242   6.751  1.4686 -0.4573 -1.5921
 2155SOL    HW217925   1.029   3.105   6.705 -1.5697 -1.1264 -0.4001
 2156SOL     OW17926   3.412   3.261   0.580  0.4751 -0.0752  0.6346
 2156SOL    HW117927   3.335   3.204   0.587  1.8080 -1.7952  1.3424
 2156SOL    HW217928   3.460   3.218   0.651  1.1513 -0.7249 -0.2186
 2157SOL     OW17929   3.279   2.595  14.441 -0.2181 -0.7325  0.3496
 2157SOL    HW117930   3.245   2.516  14.399 -0.2009  0.1486 -1.3063
 2157SOL    HW217931   3.352   2.547  14.481  1.6686  1.2417 -0.7188
 2158SOL     OW17932   4.654   2.361   4.576  0.2561  0.3543  0.1281
 2158SOL    HW117933   4.579   2.419   4.562 -0.1245 -0.4498 -1.1263
 2158SOL    HW217934   0.004   2.411   4.535  1.1427 -1.1106 -0.1240
 2159SOL     OW17935   0.481   0.531  15.880 -0.2271 -0.6750 -0.0902
 2159SOL    HW117936   0.447   0.504  15.795 -0.5048  1.2913 -0.5863
 2159SOL    HW217937   0.492   0.625  15.867  1.0593 -1.1389 -2.2491
 2160SOL     OW17938   4.226   2.757   5.525  0.2609 -0.1666  0.2643
 2160SOL    HW117939   4.275   2.767   5.444  0.8758 -2.1367  0.3986
 2160SOL    HW217940   4.299   2.759   5.587 -0.3440  1.4068  0.9243
 2161SOL     OW17941   0.408   1.762   5.608 -0.5381 -0.3740 -0.2249
 2161SOL    HW117942   0.387   1.700   5.539  1.1921  0.5520 -1.5764
 2161SOL    HW217943   0.397   1.836   5.548 -1.0273  0.5787  1.0281
 2162SOL     OW17944   2.750   4.367   5.238 -0.3056 -0.3874  0.0679
 2162SOL    HW117945   2.727   4.274   5.234 -1.2094 -0.0828 -1.5676
 2162SOL    HW217946   2.832   4.372   5.189  1.2957  0.7429  2.8410
 2163SOL     OW17947   4.694   2.477   0.489  0.2199 -0.4267 -0.4991
 2163SOL    HW117948   0.001   2.414   0.422 -2.6763 -1.5529 -0.6529
 2163SOL    HW217949   4.695   2.417   0.564  0.3722 -2.1647 -1.8934
 2164SOL     OW17950   1.513   2.336  11.078 -0.4989  0.2493  0.5773
 2164SOL    HW117951   1.482   2.427  11.083  0.1194  0.5140 -0.3589
 2164SOL    HW217952   1.602   2.341  11.040 -0.2948 -0.1109  1.0132
 2165SOL     OW17953   3.819   2.904  17.266 -0.1473  0.0245 -0.7328
 2165SOL    HW117954   3.818   3.000  17.274  1.7606 -0.0596  0.5531
 2165SOL    HW217955   3.806   2.901  17.171  0.0645 -0.6584 -0.7407
 2166SOL     OW17956   2.496   0.878   7.159  0.1919 -0.1843  0.0373
 2166SOL    HW117957   2.530   0.888   7.248  0.8043  5.2492 -0.7758
 2166SOL    HW217958   2.427   0.944   7.164  0.2385 -0.1314 -0.0084
 2167SOL     OW17959   4.304   0.692  15.255  0.4165 -0.0358  0.6198
 2167SOL    HW117960   4.252   0.622  15.214  2.4389 -0.0592 -1.9429
 2167SOL    HW217961   4.335   0.724  15.171 -1.1630  0.1204  0.0819
 2168SOL     OW17962   0.065   3.183   2.898 -0.5368 -0.0225  0.1744
 2168SOL    HW117963   4.705   3.191   2.847 -0.2454 -1.3748 -0.4882
 2168SOL    HW217964   0.076   3.088   2.897  0.5478  0.0972  1.0553
 2169SOL     OW17965   1.342   1.957   0.398  0.1297  0.9452  0.5215
 2169SOL    HW117966   1.378   1.931   0.482  0.6299  2.6839  0.8493
 2169SOL    HW217967   1.418   1.980   0.345 -1.1571  0.0758 -1.7390
 2170SOL     OW17968   0.357   3.625   6.994 -0.0564  0.1004  0.3681
 2170SOL    HW117969   0.339   3.695   7.057 -1.0373 -0.4135  0.6475
 2170SOL    HW217970   0.451   3.626   6.975 -0.1013  0.7524  0.1558
 2171SOL     OW17971   0.636   3.588   6.146 -0.0514  0.1891 -0.1704
 2171SOL    HW117972   0.687   3.522   6.099 -1.2345 -1.2913  0.6328
 2171SOL    HW217973   0.674   3.671   6.117 -1.4505  0.9702  0.2296
 2172SOL     OW17974   3.330   1.993   8.480  0.2331 -0.8503  0.0805
 2172SOL    HW117975   3.300   2.046   8.406 -0.8277  0.6537  1.5966
 2172SOL    HW217976   3.253   1.944   8.509 -0.2084  0.2472  0.7649
 2173SOL     OW17977   2.057   4.336   1.823 -0.0316  0.1897 -0.2005
 2173SOL    HW117978   2.069   4.331   1.918  0.6134 -0.0242 -0.2893
 2173SOL    HW217979   1.989   4.402   1.811  0.1839  0.5236  0.3906
 2174SOL     OW17980   3.299   4.094  11.964 -0.5852 -0.1811 -0.4783
 2174SOL    HW117981   3.370   4.136  11.915 -0.0180 -1.6811 -0.9463
 2174SOL    HW217982   3.332   4.005  11.978 -1.2600 -0.5241 -1.0748
 2175SOL     OW17983   0.579   2.024   9.060  0.3913 -0.3202 -0.3229
 2175SOL    HW117984   0.597   2.097   9.120 -1.9845  0.2885 -0.3357
 2175SOL    HW217985   0.523   2.065   8.995  0.2360  0.1617  0.1103
 2176SOL     OW17986   1.834   3.702   2.075  0.0608 -0.2499 -0.1181
 2176SOL    HW117987   1.754   3.727   2.120 -1.7024  1.2245 -4.0753
 2176SOL    HW217988   1.842   3.609   2.099 -1.1129  0.1260  1.7370
 2177SOL     OW17989   0.886   4.665   4.263 -0.2718 -0.3552  0.2373
 2177SOL    HW117990   0.944   4.715   4.321 -1.2878 -0.8886  1.7018
 2177SOL    HW217991   0.840   0.017   4.219  0.0532 -0.0180  0.4525
 2178SOL     OW17992   1.996   0.935   4.010  0.1153 -0.1730 -0.2798
 2178SOL    HW117993   2.031   0.990   4.080  0.8432 -0.5560 -0.3465
 2178SOL    HW217994   1.902   0.953   4.014  0.0037 -1.1782  1.5760
 2179SOL     OW17995   3.171   0.257  10.148  0.4090  0.0902  0.3529
 2179SOL    HW117996   3.232   0.330  10.154 -0.0918  0.7524 -2.3202
 2179SOL    HW217997   3.240   0.191  10.148 -0.4527 -0.8048 -0.2503
 2180SOL     OW17998   1.812   1.677   9.544  0.3955 -0.1351 -0.8965
 2180SOL    HW117999   1.896   1.721   9.559 -0.1601  0.4992  0.3215
 2180SOL    HW218000   1.768   1.749   9.498  1.4022  0.7009 -0.5527
 2181SOL     OW18001   0.756   0.622   6.196 -0.4484 -1.0073  0.0252
 2181SOL    HW118002   0.742   0.529   6.213 -1.5467 -1.0480 -1.1186
 2181SOL    HW218003   0.683   0.650   6.142 -0.5976 -0.5589  0.4604
 2182SOL     OW18004   4.218   3.190   6.871 -0.1240  0.8358  0.1401
 2182SOL    HW118005   4.306   3.168   6.903  0.0927  0.6311 -0.6086
 2182SOL    HW218006   4.196   3.262   6.931 -0.9198  2.0578 -1.6370
 2183SOL     OW18007   1.293   3.296  12.006 -0.1060 -0.0980 -0.2883
 2183SOL    HW118008   1.381   3.258  11.996 -0.2864 -0.7169  0.5549
 2183SOL    HW218009   1.319   3.383  12.037 -0.4557 -0.4342  0.9502
 2184SOL     OW18010   3.593   2.245   6.970  0.3195 -0.4303 -0.0936
 2184SOL    HW118011   3.550   2.327   6.995  2.6957  1.7725 -3.2047
 2184SOL    HW218012   3.538   2.171   6.995 -1.2316 -1.4167 -6.5276
 2185SOL     OW18013   1.729   1.051   8.753  0.2172  0.1634 -0.0871
 2185SOL    HW118014   1.753   1.083   8.839  1.5377  1.5147 -0.9635
 2185SOL    HW218015   1.813   1.072   8.711  0.8592  0.5821  1.4296
 2186SOL     OW18016   1.803   0.023   7.174  0.1726  0.0912  1.0048
 2186SOL    HW118017   1.870   4.701   7.227  0.6897  0.1151  0.3652
 2186SOL    HW218018   1.726   4.688   7.183  0.8212 -0.5667  2.5065
 2187SOL     OW18019   1.443   0.504   1.008  0.2909  0.0079 -0.3978
 2187SOL    HW118020   1.417   0.448   1.081 -0.7665  0.8820 -0.1047
 2187SOL    HW218021   1.538   0.512   1.018  0.0030  0.6656  1.7905
 2188SOL     OW18022   3.237   3.284   8.679  0.1389 -0.1429 -0.0726
 2188SOL    HW118023   3.146   3.253   8.687 -0.4758  1.4498 -0.8326
 2188SOL    HW218024   3.232   3.338   8.600  3.1543  1.7149  1.0477
 2189SOL     OW18025   4.363   1.934   5.834  0.3691  0.0722 -0.3424
 2189SOL    HW118026   4.300   1.875   5.877 -1.8167  2.1325 -0.7006
 2189SOL    HW218027   4.408   1.968   5.911 -0.0665  0.0309 -0.0680
 2190SOL     OW18028   3.813   4.694   3.657 -0.2487 -0.1305  0.5557
 2190SOL    HW118029   3.895   4.710   3.611 -0.2734 -0.5712  0.3607
 2190SOL    HW218030   3.821   0.036   3.729  0.9957 -0.4142  0.6575
 2191SOL     OW18031   3.515   0.431   0.298 -0.8191  0.3808  0.0815
 2191SOL    HW118032   3.584   0.437   0.364 -0.7328  0.5087 -0.0215
 2191SOL    HW218033   3.543   0.362   0.238 -0.6521  1.1855 -0.7519
 2192SOL     OW18034   0.997   0.144   5.060 -0.6837 -0.4190 -0.3893
 2192SOL    HW118035   0.951   0.226   5.076  0.9530  1.2244 -4.1345
 2192SOL    HW218036   1.023   0.148   4.967  1.2224  1.2905  0.2129
 2193SOL     OW18037   1.088   1.220  12.522  0.5259 -0.2876 -0.1480
 2193SOL    HW118038   1.028   1.154  12.489 -0.0837  0.1582  0.0767
 2193SOL    HW218039   1.133   1.170  12.591 -0.3187 -1.1354 -0.2146
 2194SOL     OW18040   0.761   3.969  14.191 -0.1556 -0.1541  0.1482
 2194SOL    HW118041   0.742   3.875  14.190 -0.9036 -0.0207  1.6738
 2194SOL    HW218042   0.794   3.974  14.280 -0.4605 -3.1416  0.4412
 2195SOL     OW18043   2.751   3.942   1.877 -0.6214  0.3436 -0.6632
 2195SOL    HW118044   2.748   4.036   1.893 -2.7012 -0.3400  2.8886
 2195SOL    HW218045   2.657   3.925   1.886 -1.0517  2.1359 -1.8121
 2196SOL     OW18046   2.638   4.493   6.496 -0.0247  0.4515 -0.3145
 2196SOL    HW118047   2.571   4.529   6.554  0.6643  0.1885  0.6458
 2196SOL    HW218048   2.591   4.410   6.491 -2.2626  1.6991  0.1135
 2197SOL     OW18049   3.145   0.853   5.622  0.8510 -0.0280  0.9070
 2197SOL    HW118050   3.135   0.838   5.528 -0.3134 -0.6848  1.1376
 2197SOL    HW218051   3.172   0.945   5.625  0.1723  0.1535  1.5115
 2198SOL     OW18052   2.639   3.956  15.400  0.6349 -0.1298  0.0284
 2198SOL    HW118053   2.560   3.997  15.438  1.6872  1.0123  1.0045
 2198SOL    HW218054   2.693   3.934  15.476 -0.6387 -3.4502 -0.0304
 2199SOL     OW18055   0.496   3.804  17.634 -0.0376 -0.4062 -0.3179
 2199SOL    HW118056   0.532   3.891  17.652  1.0403 -1.1702  1.2504
 2199SOL    HW218057   0.567   3.764  17.585  2.0393  2.1887  0.6006
 2200SOL     OW18058   4.125   2.192   5.617 -0.4853 -0.6388  0.4296
 2200SOL    HW118059   4.071   2.117   5.644  0.0138 -1.0778  0.2227
 2200SOL    HW218060   4.060   2.253   5.582  0.7399  0.3128 -0.1839
 2201SOL     OW18061   4.617   4.152  11.655  0.3436  0.1739  0.4351
 2201SOL    HW118062   4.687   4.093  11.628 -0.2014 -0.4716  0.4473
 2201SOL    HW218063   4.652   4.232  11.616  0.3154  0.5818  1.2219
 2202SOL     OW18064   1.887   2.786   7.696  0.0757  0.3126  0.3798
 2202SOL    HW118065   1.962   2.738   7.730  0.6692  0.6919 -0.3995
 2202SOL    HW218066   1.916   2.836   7.620  2.6733 -3.3801 -1.0370
 2203SOL     OW18067   2.812   0.644   1.815  0.1918 -0.6940  0.1500
 2203SOL    HW118068   2.819   0.664   1.722  0.7372 -2.8871 -0.2728
 2203SOL    HW218069   2.718   0.650   1.830  0.0708 -0.2323 -0.8322
 2204SOL     OW18070   0.454   4.232   8.725  0.4407 -0.3226 -0.2031
 2204SOL    HW118071   0.473   4.142   8.700  1.5239 -0.5536  1.4920
 2204SOL    HW218072   0.398   4.228   8.803  0.6471 -1.4392 -0.1109
 2205SOL     OW18073   2.188   0.950   7.079  0.3076 -0.0313  0.2096
 2205SOL    HW118074   2.191   0.867   7.126  0.2347 -0.8471 -1.2316
 2205SOL    HW218075   2.155   1.013   7.143 -1.0768 -0.1471 -0.3984
 2206SOL     OW18076   2.511   2.838   5.767  0.0746 -0.3039  0.1182
 2206SOL    HW118077   2.595   2.830   5.723 -0.5543  0.7702 -1.2629
 2206SOL    HW218078   2.512   2.932   5.789  0.6110  0.1334 -1.8388
 2207SOL     OW18079   4.710   3.431  15.184 -0.0840  0.4182 -0.4924
 2207SOL    HW118080   0.060   3.494  15.173 -0.7204  1.1627 -0.2450
 2207SOL    HW218081   4.672   3.452  15.269  0.0894  2.5091 -0.9491
 2208SOL     OW18082   1.687   2.538   5.514 -0.1739 -0.2224 -0.5692
 2208SOL    HW118083   1.664   2.447   5.493  0.3161 -0.0576 -1.8119
 2208SOL    HW218084   1.690   2.546   5.609  0.4372 -2.5555 -0.3761
 2209SOL     OW18085   4.611   2.629   1.738  0.6046 -0.4303 -0.6000
 2209SOL    HW118086   4.519   2.650   1.750 -0.4301 -5.5919  0.2305
 2209SOL    HW218087   4.638   2.677   1.816  2.5363  0.1926 -1.6403
 2210SOL     OW18088   3.138   0.780   7.442 -1.2553 -0.4143 -0.4844
 2210SOL    HW118089   3.207   0.840   7.414 -1.1355  0.4411  1.6917
 2210SOL    HW218090   3.052   0.813   7.415 -1.0906 -0.0018 -0.5175
 2211SOL     OW18091   2.305   3.426   7.427 -0.6549 -0.4727  0.3503
 2211SOL    HW118092   2.377   3.377   7.467 -0.4475  1.3611  2.2603
 2211SOL    HW218093   2.234   3.384   7.476 -0.5923  1.7154  2.3321
 2212SOL     OW18094   3.679   3.700   2.194  0.5903  0.6215 -0.7090
 2212SOL    HW118095   3.638   3.778   2.232 -0.6642 -0.6080  0.4518
 2212SOL    HW218096   3.627   3.624   2.218 -0.7888  2.5712  2.5964
 2213SOL     OW18097   0.233   3.316   6.023 -0.1984  0.1677 -0.0072
 2213SOL    HW118098   0.188   3.340   5.942  0.0407  2.1257  0.4447
 2213SOL    HW218099   0.288   3.242   5.994 -1.3399 -1.0566  0.9413
 2214SOL     OW18100   0.496   3.851   3.895  0.2912  0.2841 -0.2529
 2214SOL    HW118101   0.504   3.924   3.956  0.2163 -0.5200  0.7177
 2214SOL    HW218102   0.540   3.789   3.952 -0.2699 -0.5204 -0.6891
 2215SOL     OW18103   3.937   1.367   6.942  0.2579  0.0029 -0.1293
 2215SOL    HW118104   4.012   1.382   7.000 -0.0555 -0.1452  0.3175
 2215SOL    HW218105   3.957   1.279   6.911  0.8192 -0.7290  2.2801
 2216SOL     OW18106   0.909   0.917   7.541  0.4778  0.0077 -0.8073
 2216SOL    HW118107   0.823   0.884   7.515  0.5787  0.0026 -1.1346
 2216SOL    HW218108   0.904   0.909   7.637  1.9007 -1.5220 -0.8615
 2217SOL     OW18109   4.052   1.926   3.956 -0.2139  0.1767  0.6904
 2217SOL    HW118110   4.001   2.007   3.968 -0.2622  0.3760 -0.8685
 2217SOL    HW218111   4.049   1.926   3.860  0.2137 -0.0610  0.6824
 2218SOL     OW18112   3.640   2.760   3.012 -0.6221  0.1805 -0.4102
 2218SOL    HW118113   3.695   2.811   2.952 -2.9722  1.6391 -1.3010
 2218SOL    HW218114   3.686   2.756   3.097 -0.0179 -2.7934 -0.8918
 2219SOL     OW18115   3.244   0.082   2.165 -0.1948 -0.4359  0.4651
 2219SOL    HW118116   3.216   0.097   2.075 -0.5236  0.1964  0.6724
 2219SOL    HW218117   3.210   4.718   2.194  2.4034 -1.6080  0.0805
 2220SOL     OW18118   0.480   3.073   4.572  0.1682 -0.2042 -0.4535
 2220SOL    HW118119   0.405   3.051   4.516 -0.7084 -0.7893  0.9626
 2220SOL    HW218120   0.535   3.108   4.503  1.5543 -0.1213  0.7030
 2221SOL     OW18121   2.442   2.449   8.949 -0.0935  0.6492 -0.3405
 2221SOL    HW118122   2.474   2.366   8.912 -2.7776  0.3186 -1.8882
 2221SOL    HW218123   2.363   2.464   8.897  0.9610  3.3609 -1.1709
 2222SOL     OW18124   0.633   2.895   5.720  0.5823 -0.4977  0.3651
 2222SOL    HW118125   0.662   2.891   5.812 -0.2479  0.0533  0.6528
 2222SOL    HW218126   0.679   2.824   5.675 -5.1103 -2.0105 -3.0449
 2223SOL     OW18127   3.302   2.974   1.800 -0.0125  0.2633  1.1744
 2223SOL    HW118128   3.241   3.043   1.774  0.4630 -0.3238 -1.4250
 2223SOL    HW218129   3.383   3.025   1.801 -0.8311  1.6165 -1.7933
 2224SOL     OW18130   0.825   3.752   9.956 -0.5443 -0.8104  0.1520
 2224SOL    HW118131   0.759   3.797   9.903 -3.4542 -1.7965  2.9295
 2224SOL    HW218132   0.811   3.804  10.035 -0.2891 -0.6300  0.0799
 2225SOL     OW18133   1.457   1.656   0.815  0.1780 -0.3903  0.5912
 2225SOL    HW118134   1.420   1.743   0.803 -1.9883 -1.7981 -2.9859
 2225SOL    HW218135   1.384   1.596   0.828 -0.0063 -0.4729 -0.8194
 2226SOL     OW18136   1.533   0.873  17.648 -0.1535  0.7998 -0.3000
 2226SOL    HW118137   1.452   0.917  17.674  0.4726  0.6865  1.8784
 2226SOL    HW218138   1.587   0.945  17.615 -0.6709  1.0659 -0.5697
 2227SOL     OW18139   1.480   4.389  15.697  0.4939  0.3502  0.3258
 2227SOL    HW118140   1.406   4.436  15.735 -0.9182 -2.5099  1.1539
 2227SOL    HW218141   1.528   4.460  15.656  0.0436  1.5060  1.8162
 2228SOL     OW18142   2.282   1.614   2.836 -0.4962  0.4886 -0.3616
 2228SOL    HW118143   2.323   1.667   2.769  0.7938 -1.9142 -1.4833
 2228SOL    HW218144   2.193   1.642   2.816 -1.1732 -0.7662  0.8671
 2229SOL     OW18145   0.905   3.118   3.214 -0.2445 -0.6846 -0.4974
 2229SOL    HW118146   0.835   3.064   3.178 -0.6411 -0.2182 -0.4111
 2229SOL    HW218147   0.855   3.198   3.222  0.3600 -0.4654  1.1003
 2230SOL     OW18148   0.618   0.039  16.956 -0.2609 -0.1170  0.2519
 2230SOL    HW118149   0.634   0.132  16.942  0.7620 -0.4112 -0.5903
 2230SOL    HW218150   0.524   0.039  16.935  0.0424  3.4427 -1.1008
 2231SOL     OW18151   1.992   4.651   3.742 -0.0226 -0.0626 -0.0108
 2231SOL    HW118152   1.998   4.670   3.835 -0.5609  1.6630 -0.3243
 2231SOL    HW218153   2.011   0.016   3.705  1.8098  0.9549  3.3183
 2232SOL     OW18154   4.678   0.032   5.402 -0.5094 -0.4856  0.2871
 2232SOL    HW118155   4.707   4.680   5.458 -1.2428  0.5369  1.9815
 2232SOL    HW218156   4.706   4.719   5.317  0.4379 -0.1930  0.4808
 2233SOL     OW18157   0.233   0.035  11.327 -0.2482  0.4317  0.6037
 2233SOL    HW118158   0.218   4.679  11.273 -1.2167  1.1868 -0.1985
 2233SOL    HW218159   0.171   0.093  11.283 -1.5646  0.1574  2.1008
 2234SOL     OW18160   0.530   1.402   7.244 -0.5110  0.3828 -0.2603
 2234SOL    HW118161   0.463   1.394   7.177 -0.8615 -0.9220  0.2420
 2234SOL    HW218162   0.569   1.316   7.231  0.9143  0.9816  0.0372
 2235SOL     OW18163   2.068   4.712   4.013  0.3175 -0.2889  0.0778
 2235SOL    HW118164   1.981   4.682   4.038  0.7516 -1.8144 -0.2151
 2235SOL    HW218165   2.125   4.641   4.044  0.5688  0.8366  2.1931
 2236SOL     OW18166   4.685   4.614  17.493 -0.4007  0.0892 -0.3534
 2236SOL    HW118167   0.015   4.565  17.428  1.3527  2.5221 -0.8442
 2236SOL    HW218168   4.665   4.537  17.546 -0.0916  0.2533 -0.0000
 2237SOL     OW18169   0.500   3.778   8.168  0.3283 -0.4410  0.4591
 2237SOL    HW118170   0.486   3.863   8.210  1.7662  0.0282 -0.0133
 2237SOL    HW218171   0.469   3.799   8.080 -1.6133  2.2109  1.7911
 2238SOL     OW18172   1.372   3.024  10.590  0.0430  0.2586  0.6052
 2238SOL    HW118173   1.379   2.936  10.626 -0.2414 -1.2050 -2.8383
 2238SOL    HW218174   1.298   3.010  10.530  0.4258  0.5654  0.0598
 2239SOL     OW18175   0.918   2.447   9.859  0.4484 -0.6386  0.0933
 2239SOL    HW118176   0.988   2.417   9.801  1.2431 -0.3379  0.8949
 2239SOL    HW218177   0.940   2.537   9.884  1.1315 -1.1367  1.2985
 2240SOL     OW18178   2.295   1.599   5.166  0.1061  0.1874 -0.7915
 2240SOL    HW118179   2.320   1.649   5.089 -1.9077  1.1210 -0.8317
 2240SOL    HW218180   2.374   1.595   5.219 -0.3112  1.6235 -0.0785
 2241SOL     OW18181   1.433   4.111   5.701  0.6898  0.2511 -0.7083
 2241SOL    HW118182   1.479   4.191   5.674  0.6815  0.8926  1.1989
 2241SOL    HW218183   1.494   4.056   5.750 -1.1583  1.0701  2.5011
 2242SOL     OW18184   3.558   1.964   4.291 -0.1410  0.5677 -0.5163
 2242SOL    HW118185   3.520   1.942   4.207 -0.2225  5.3801 -1.7495
 2242SOL    HW218186   3.642   1.918   4.283 -1.6968 -2.0503 -1.6141
 2243SOL     OW18187   4.206   4.100   2.268 -0.5552  0.3841  0.1325
 2243SOL    HW118188   4.229   4.038   2.199  2.9280 -0.1126  1.7417
 2243SOL    HW218189   4.199   4.183   2.220  0.0478 -0.2563 -1.0523
 2244SOL     OW18190   3.978   3.009   5.446  0.1794  0.4308 -0.8617
 2244SOL    HW118191   3.960   2.918   5.420 -0.9879 -0.3886  2.7661
 2244SOL    HW218192   4.042   3.022   5.377 -2.5687  0.6522 -3.3798
 2245SOL     OW18193   3.499   4.273   5.476  0.2588  0.2253 -0.0142
 2245SOL    HW118194   3.433   4.232   5.531  1.5630 -0.7426  0.8390
 2245SOL    HW218195   3.444   4.320   5.413  1.9108  1.4574 -0.5621
 2246SOL     OW18196   3.315   0.606  14.620  0.3404 -0.2290 -0.2930
 2246SOL    HW118197   3.284   0.643  14.703 -0.7709  1.6421 -1.5389
 2246SOL    HW218198   3.313   0.685  14.566 -0.6114 -1.0095 -1.3923
 2247SOL     OW18199   0.774   3.848   2.276  0.1875  0.1726  0.1456
 2247SOL    HW118200   0.737   3.877   2.359  0.5085 -1.1494  0.7552
 2247SOL    HW218201   0.708   3.886   2.218  2.4424  1.4618 -1.6048
 2248SOL     OW18202   3.358   1.109   4.466 -0.6844  0.4776 -0.1818
 2248SOL    HW118203   3.270   1.113   4.427 -1.5169 -0.4519  1.6356
 2248SOL    HW218204   3.370   1.014   4.461 -2.7903  0.2052 -0.0042
 2249SOL     OW18205   1.594   0.938  11.471 -0.2823  1.1259 -0.1873
 2249SOL    HW118206   1.566   0.884  11.396 -0.4815  1.7144 -0.5356
 2249SOL    HW218207   1.687   0.932  11.453 -0.4727 -1.0434 -0.5223
 2250SOL     OW18208   2.312   2.261   8.051 -0.3453  0.1754  0.8942
 2250SOL    HW118209   2.266   2.315   7.986 -0.4236  0.4476  1.1726
 2250SOL    HW218210   2.247   2.193   8.069 -0.0992  0.1686  1.7705
 2251SOL     OW18211   2.942   2.607  13.533 -0.2886 -0.4685 -0.3188
 2251SOL    HW118212   2.853   2.591  13.501  0.2464 -3.0048 -0.5028
 2251SOL    HW218213   2.930   2.681  13.592 -0.9066 -1.0431  0.2825
 2252SOL     OW18214   0.548   1.434   6.347  0.1296 -0.0351  0.0025
 2252SOL    HW118215   0.604   1.403   6.418 -0.3961 -0.4194  0.2490
 2252SOL    HW218216   0.618   1.463   6.289 -2.0010  1.4816 -1.8112
 2253SOL     OW18217   1.657   2.678   1.773  0.2513  0.0765 -0.1559
 2253SOL    HW118218   1.731   2.683   1.712  1.9830 -2.3940  1.7693
 2253SOL    HW218219   1.689   2.605   1.825  1.2114  0.3200 -0.3947
 2254SOL     OW18220   3.869   1.476  15.909 -0.5312 -0.1711  0.2775
 2254SOL    HW118221   3.906   1.441  15.828  0.0785 -0.6072  0.7437
 2254SOL    HW218222   3.837   1.395  15.950 -0.1481 -0.4573 -0.0031
 2255SOL     OW18223   4.613   4.128   8.751 -0.5384  0.0365 -0.3936
 2255SOL    HW118224   4.531   4.174   8.763 -0.5371  0.1979 -1.0179
 2255SOL    HW218225   4.578   4.040   8.738  0.0286 -0.2807  0.1898
 2256SOL     OW18226   3.180   2.765  15.922  0.1349 -0.4464  0.3962
 2256SOL    HW118227   3.124   2.841  15.937  1.3297  0.4169  0.5592
 2256SOL    HW218228   3.140   2.693  15.970  1.8383 -1.9135 -0.3536
 2257SOL     OW18229   1.569   2.604  10.848  0.3228 -0.1243  0.2919
 2257SOL    HW118230   1.525   2.629  10.929  1.2178 -1.6502  1.2507
 2257SOL    HW218231   1.616   2.523  10.869 -2.7194 -1.2599  2.7795
 2258SOL     OW18232   3.472   4.401   2.748 -0.9271 -0.1222  0.3346
 2258SOL    HW118233   3.428   4.483   2.772  2.9445  3.0338 -3.4329
 2258SOL    HW218234   3.461   4.406   2.653  1.6908 -0.0813  0.0403
 2259SOL     OW18235   1.705   0.104  15.009 -0.2435  0.2037 -0.1023
 2259SOL    HW118236   1.785   0.100  15.061  0.1459 -0.7970 -0.7903
 2259SOL    HW218237   1.646   0.148  15.071 -0.8411 -1.5556  0.5832
 2260SOL     OW18238   2.424   1.915   4.263  0.8130  0.6664  0.7140
 2260SOL    HW118239   2.494   1.932   4.199  0.8897 -0.4818  0.4924
 2260SOL    HW218240   2.362   1.983   4.240  1.9458  0.6206 -2.4787
 2261SOL     OW18241   3.455   1.573   2.776 -0.0076 -0.3462  0.2815
 2261SOL    HW118242   3.550   1.568   2.767  0.2866  2.0394  1.7849
 2261SOL    HW218243   3.434   1.617   2.694 -1.3965  1.5756  1.6648
 2262SOL     OW18244   0.756   1.293   3.010  0.1534 -0.2566 -0.5867
 2262SOL    HW118245   0.831   1.282   2.951  0.1888  0.1608 -0.6162
 2262SOL    HW218246   0.764   1.383   3.041  2.3841 -1.3440  1.9827
 2263SOL     OW18247   1.174   2.738   5.689 -0.0275 -0.5750 -0.0778
 2263SOL    HW118248   1.241   2.672   5.672 -0.1327 -0.7563  0.2153
 2263SOL    HW218249   1.192   2.759   5.781  2.4356  2.7411 -1.2843
 2264SOL     OW18250   1.857   1.995   3.721 -0.5385  0.1242  0.0844
 2264SOL    HW118251   1.837   2.079   3.679  1.8604 -0.0986 -1.5161
 2264SOL    HW218252   1.776   1.946   3.713 -0.2768 -0.4413  0.8960
 2265SOL     OW18253   2.548   0.696   2.949 -0.3602 -0.7440  0.2495
 2265SOL    HW118254   2.476   0.753   2.975 -0.6398 -0.7251 -0.5683
 2265SOL    HW218255   2.533   0.630   3.016 -0.6616  0.3690  1.2671
 2266SOL     OW18256   2.146   1.342   9.607  0.6140 -0.1279  0.2943
 2266SOL    HW118257   2.225   1.316   9.654  0.6687 -2.1736 -0.9311
 2266SOL    HW218258   2.181   1.316   9.522  1.2095  0.6003  0.3173
 2267SOL     OW18259   0.267   2.562   6.511 -0.0762  0.1708 -0.4218
 2267SOL    HW118260   0.322   2.493   6.548  2.0285  2.4481  0.6539
 2267SOL    HW218261   0.237   2.527   6.427  2.6527  2.6063 -2.4097
 2268SOL     OW18262   1.748   0.826   5.303 -0.3451  0.1718  0.1103
 2268SOL    HW118263   1.751   0.735   5.330  1.0773  0.7779  2.0336
 2268SOL    HW218264   1.785   0.874   5.378  2.4375 -0.0569 -1.1279
 2269SOL     OW18265   0.084   2.725  16.891 -0.3896  0.1991 -0.0768
 2269SOL    HW118266   0.115   2.750  16.978  2.4460 -3.1364 -0.1383
 2269SOL    HW218267   0.010   2.667  16.907 -0.5292 -0.1677 -2.0806
 2270SOL     OW18268   3.494   1.508   0.758  0.1451  0.0923 -0.3449
 2270SOL    HW118269   3.582   1.532   0.729  0.6376 -0.7213  0.4713
 2270SOL    HW218270   3.463   1.467   0.677 -3.2248  1.2192  0.3793
 2271SOL     OW18271   0.996   0.207   3.362  0.2271 -0.5085 -0.3248
 2271SOL    HW118272   1.058   0.139   3.390  1.2669  0.8008  0.6143
 2271SOL    HW218273   0.959   0.168   3.283  1.0483  0.5574 -1.2503
 2272SOL     OW18274   2.557   1.689  14.527 -0.0736  0.1261 -0.0301
 2272SOL    HW118275   2.591   1.776  14.549  1.0042 -0.0812 -0.9175
 2272SOL    HW218276   2.622   1.622  14.549 -0.4239  0.0869  0.9005
 2273SOL     OW18277   4.063   2.273   8.935 -0.1618  0.2709  0.6073
 2273SOL    HW118278   4.020   2.266   9.020  0.4668  0.6338  0.9582
 2273SOL    HW218279   4.043   2.364   8.913  1.2048  0.4741  0.2085
 2274SOL     OW18280   4.614   0.623   0.111  0.1270 -0.3210  0.7327
 2274SOL    HW118281   4.559   0.701   0.100 -1.0207 -1.1450  0.5872
 2274SOL    HW218282   4.630   0.634   0.204  2.4860 -1.1116  0.4319
 2275SOL     OW18283   2.823   1.456   3.748  0.0453  0.1359 -0.1503
 2275SOL    HW118284   2.894   1.520   3.747  0.6160 -0.5057 -0.8901
 2275SOL    HW218285   2.866   1.388   3.799  2.4270  2.3456  0.7535
 2276SOL     OW18286   3.807   2.486   4.186 -0.2367 -0.0908 -0.3147
 2276SOL    HW118287   3.886   2.458   4.141 -0.7727  0.1589 -1.4341
 2276SOL    HW218288   3.782   2.415   4.244 -3.5362  0.4761 -0.9873
 2277SOL     OW18289   2.847   4.670   2.533 -0.3449  0.1694 -0.0927
 2277SOL    HW118290   2.915   4.635   2.476  0.0862 -1.6432  1.4987
 2277SOL    HW218291   2.896   4.715   2.602  0.1963  0.4848 -0.6866
 2278SOL     OW18292   1.964   3.184  15.404  0.9035 -0.5031  0.0650
 2278SOL    HW118293   2.006   3.113  15.452 -0.4173 -0.5572  1.1644
 2278SOL    HW218294   1.985   3.262  15.456  0.6667  0.3178 -1.0702
 2279SOL     OW18295   4.520   2.142   8.137 -0.6600  0.3086  0.0494
 2279SOL    HW118296   4.557   2.140   8.225 -0.1672 -1.6563 -0.1891
 2279SOL    HW218297   4.583   2.202   8.098 -0.9117  1.9638  2.2005
 2280SOL     OW18298   2.550   0.076   7.409  0.3870 -0.2683 -0.2513
 2280SOL    HW118299   2.565   4.707   7.440  3.7171 -0.1694 -1.5972
 2280SOL    HW218300   2.455   0.073   7.413  0.4308  0.8472  1.3699
 2281SOL     OW18301   2.767   0.642  15.009  0.0162  0.3886 -0.3121
 2281SOL    HW118302   2.819   0.695  14.948 -0.3772 -0.4947 -1.4025
 2281SOL    HW218303   2.737   0.701  15.078  0.2397 -1.0597  1.0247
 2282SOL     OW18304   1.552   0.481   5.547  0.1886  0.1897  0.4899
 2282SOL    HW118305   1.518   0.429   5.475  1.5291 -2.1739  1.5342
 2282SOL    HW218306   1.497   0.558   5.537  0.7677  0.5370 -0.0141
 2283SOL     OW18307   3.585   1.171  10.524 -0.0079  0.0662  0.0103
 2283SOL    HW118308   3.635   1.102  10.480  0.9051 -0.4259  1.8283
 2283SOL    HW218309   3.516   1.116  10.560 -0.0069 -0.7359 -1.1958
 2284SOL     OW18310   2.384   4.262   0.215 -0.1362 -0.0913  0.5070
 2284SOL    HW118311   2.316   4.329   0.220  0.2514  0.4131 -0.9232
 2284SOL    HW218312   2.371   4.224   0.302 -2.7391 -0.9730 -0.2497
 2285SOL     OW18313   1.401   1.015   4.930 -0.1385 -0.3043  0.1938
 2285SOL    HW118314   1.345   1.070   4.985 -1.8179 -0.4961 -1.3097
 2285SOL    HW218315   1.445   0.955   4.991  1.1030 -0.5398 -0.9353
 2286SOL     OW18316   0.776   4.533   7.926 -0.4956 -0.1281 -0.5109
 2286SOL    HW118317   0.724   4.495   7.855 -0.2924 -0.5027 -0.4598
 2286SOL    HW218318   0.800   4.453   7.972  1.9718 -0.3038 -2.0878
 2287SOL     OW18319   1.567   3.372   5.145  0.0696  0.1756 -0.0796
 2287SOL    HW118320   1.553   3.434   5.073  1.6346  1.4516  0.7171
 2287SOL    HW218321   1.505   3.403   5.210  0.0820  0.7494 -0.3397
 2288SOL     OW18322   4.312   3.166   9.055 -0.3759  0.0171  0.0477
 2288SOL    HW118323   4.262   3.234   9.100 -0.8522 -1.4521  1.7646
 2288SOL    HW218324   4.391   3.206   9.019 -0.4783 -0.9642 -1.2625
 2289SOL     OW18325   4.018   2.800   6.728  0.2930  0.2810 -0.2341
 2289SOL    HW118326   3.933   2.767   6.756  1.3292 -1.8149  0.5215
 2289SOL    HW218327   4.004   2.893   6.747 -1.4404  0.4407 -2.3156
 2290SOL     OW18328   1.901   2.936   7.952 -0.0901  0.0960  0.3572
 2290SOL    HW118329   1.868   2.924   7.863 -0.5410 -1.8930  0.7992
 2290SOL    HW218330   1.969   2.870   7.962  0.8492  0.9490 -0.3608
 2291SOL     OW18331   3.190   1.069  16.242 -0.3887  0.8169 -0.0563
 2291SOL    HW118332   3.193   1.164  16.230  2.6797  0.7813  0.6416
 2291SOL    HW218333   3.162   1.069  16.333 -1.2905  0.3713 -0.3231
 2292SOL     OW18334   2.608   0.512   4.862  0.8025  0.4695 -0.8244
 2292SOL    HW118335   2.673   0.443   4.851 -0.8647 -1.2941  0.2142
 2292SOL    HW218336   2.656   0.564   4.926 -1.2056  1.9292 -0.5108
 2293SOL     OW18337   4.580   3.147   5.416 -0.1573  0.4555  0.4206
 2293SOL    HW118338   4.516   3.218   5.418  1.4044  1.8959 -0.0949
 2293SOL    HW218339   4.642   3.174   5.484 -0.2318  2.7033 -0.3770
 2294SOL     OW18340   3.487   3.504   0.212 -0.6312  0.4173 -0.2707
 2294SOL    HW118341   3.452   3.593   0.215  0.7016  0.9862 -1.4877
 2294SOL    HW218342   3.565   3.515   0.157 -0.3489 -0.9937 -0.1709
 2295SOL     OW18343   2.435   0.272   8.506  0.1395  0.3483 -0.4159
 2295SOL    HW118344   2.366   0.302   8.565  0.4717  1.1622 -0.4539
 2295SOL    HW218345   2.446   0.351   8.453 -0.5681  1.4709  1.1274
 2296SOL     OW18346   3.911   3.196   2.087 -0.6306  0.0679 -0.2043
 2296SOL    HW118347   3.962   3.115   2.095  0.4968  0.6242 -1.7651
 2296SOL    HW218348   3.875   3.200   2.175 -0.9131  0.1676 -0.3245
 2297SOL     OW18349   1.216   3.487   9.093  0.2838  0.4301  0.2005
 2297SOL    HW118350   1.129   3.473   9.056  0.1162 -1.1620  1.2336
 2297SOL    HW218351   1.196   3.530   9.176  2.2831 -0.1049  0.9463
 2298SOL     OW18352   4.007   1.168  15.307  0.2009 -0.2065  0.1392
 2298SOL    HW118353   4.100   1.150  15.292  0.2933 -1.1163  1.7826
 2298SOL    HW218354   3.989   1.261  15.289 -0.5333 -0.1459  1.1904
 2299SOL     OW18355   1.030   4.566   1.880 -0.5159  0.3147 -0.3786
 2299SOL    HW118356   1.057   4.484   1.921 -1.9786 -1.0481 -2.2207
 2299SOL    HW218357   1.082   4.569   1.800 -0.4670 -0.3169 -0.3721
 2300SOL     OW18358   2.913   0.113  17.535 -0.2541 -0.0893  0.0850
 2300SOL    HW118359   2.966   0.110  17.455 -1.7237  2.4081 -0.9797
 2300SOL    HW218360   2.830   0.090  17.494  0.9992 -2.1720 -1.2836
 2301SOL     OW18361   1.587   0.896   8.337  0.1801 -0.0873 -0.3145
 2301SOL    HW118362   1.509   0.949   8.357  0.0671 -0.5507  0.4859
 2301SOL    HW218363   1.582   0.889   8.242 -3.2138  0.3910 -0.1724
 2302SOL     OW18364   4.519   4.697   0.706 -0.1219 -0.2348 -0.5683
 2302SOL    HW118365   4.594   4.665   0.657  0.9404  0.6984  0.4286
 2302SOL    HW218366   4.558   0.017   0.784 -0.4578  2.3642 -1.7447
 2303SOL     OW18367   0.145   1.702  12.480  0.2552  0.4591  0.6618
 2303SOL    HW118368   0.167   1.616  12.443  1.2724  1.2650 -0.6260
 2303SOL    HW218369   0.077   1.733  12.421  1.4084 -0.7995 -1.3412
 2304SOL     OW18370   4.570   3.023   7.721 -0.3100 -0.3706 -0.6210
 2304SOL    HW118371   4.650   3.006   7.770 -1.0372 -4.4774 -0.9147
 2304SOL    HW218372   4.501   2.985   7.775 -0.2775  4.6120  3.0525
 2305SOL     OW18373   0.011   2.964  17.461 -0.0478 -0.0911  0.2598
 2305SOL    HW118374   4.709   2.878  17.498  0.1332  0.2569  1.1776
 2305SOL    HW218375   0.061   3.003  17.532  1.9185 -2.1658  0.0064
 2306SOL     OW18376   0.013   2.725  13.357  0.5664  0.1275  0.0072
 2306SOL    HW118377   4.701   2.707  13.269 -1.4096  1.1024  0.5249
 2306SOL    HW218378   4.651   2.736  13.404 -0.3278 -0.2589 -1.5015
 2307SOL     OW18379   4.112   3.098   4.087  0.3154 -0.1744  0.4664
 2307SOL    HW118380   4.154   3.086   4.002  1.6111  0.7276  0.9667
 2307SOL    HW218381   4.100   3.190   4.109 -1.1703 -0.3402  0.3577
 2308SOL     OW18382   1.386   0.560   3.063 -0.1140  0.0359 -0.3086
 2308SOL    HW118383   1.464   0.506   3.055  0.2266  0.5814 -0.7264
 2308SOL    HW218384   1.313   0.510   3.028  0.0751  0.0618 -0.7461
 2309SOL     OW18385   1.884   2.144   1.305  0.4133  0.0366  0.3088
 2309SOL    HW118386   1.852   2.223   1.349 -2.2827 -0.8557 -0.0142
 2309SOL    HW218387   1.865   2.075   1.368  1.9352 -0.6394  0.0255
 2310SOL     OW18388   1.359   4.126   4.331  0.2321  0.1984 -0.3010
 2310SOL    HW118389   1.293   4.195   4.341 -1.1763 -1.3564  1.2285
 2310SOL    HW218390   1.410   4.150   4.254 -0.5857  3.1200  0.0727
 2311SOL     OW18391   4.079   0.855  14.289 -0.1801  0.3995  0.0071
 2311SOL    HW118392   4.024   0.903  14.228 -0.9978 -0.7578 -0.1697
 2311SOL    HW218393   4.082   0.761  14.270  0.3324  0.1416  1.3195
 2312SOL     OW18394   3.676   3.531   5.551 -0.1156  0.2735  0.3017
 2312SOL    HW118395   3.656   3.570   5.636 -0.6547  1.3631 -0.3289
 2312SOL    HW218396   3.647   3.600   5.492  0.4652 -0.0043 -0.3079
 2313SOL     OW18397   2.113   0.649   2.278 -0.2662 -0.2092 -0.0513
 2313SOL    HW118398   2.151   0.717   2.222 -0.5499  1.9988  2.3953
 2313SOL    HW218399   2.130   0.565   2.236  0.0018  0.2796 -0.9095
 2314SOL     OW18400   0.233   1.442   4.850 -0.1250 -0.2616 -0.1787
 2314SOL    HW118401   0.164   1.493   4.806  0.1140  1.6831  1.7036
 2314SOL    HW218402   0.180   1.362   4.852  0.7178 -0.8555 -2.5173
 2315SOL     OW18403   1.324   0.799   4.115  0.2550  0.5446  0.1036
 2315SOL    HW118404   1.282   0.884   4.127 -1.0245 -0.2147  1.1094
 2315SOL    HW218405   1.296   0.749   4.192 -1.1995  0.1857 -0.6548
 2316SOL     OW18406   3.409   0.352  12.814  0.3069 -0.3861 -0.9076
 2316SOL    HW118407   3.447   0.270  12.784  0.0647 -0.5959 -0.6398
 2316SOL    HW218408   3.326   0.342  12.768  0.4509  0.2645 -1.3108
 2317SOL     OW18409   1.311   2.967   9.400  0.7497 -0.1243  0.2816
 2317SOL    HW118410   1.388   2.922   9.434  0.0261 -1.1995  0.4966
 2317SOL    HW218411   1.281   3.026   9.470 -0.9054 -0.6227 -0.0026
 2318SOL     OW18412   3.171   3.057   4.504 -0.3300 -0.4069  0.1459
 2318SOL    HW118413   3.221   2.976   4.493 -0.8656 -1.1393  3.0054
 2318SOL    HW218414   3.086   3.025   4.473 -0.6352 -0.7430  1.3522
 2319SOL     OW18415   4.441   4.095  13.117  0.0226 -0.0869  0.5615
 2319SOL    HW118416   4.468   4.117  13.206 -0.2805  1.5991  0.2369
 2319SOL    HW218417   4.373   4.161  13.102  0.2436  0.0632  0.2276
 2320SOL     OW18418   4.467   0.293  11.577 -0.2271  0.4568  0.1119
 2320SOL    HW118419   4.477   0.242  11.657 -0.3305  1.1945  0.6001
 2320SOL    HW218420   4.455   0.223  11.514 -0.0630  1.5867 -1.1755
 2321SOL     OW18421   1.291   3.709  11.726  0.2582  0.3228 -0.0834
 2321SOL    HW118422   1.364   3.681  11.782  0.1808 -0.6616 -0.4793
 2321SOL    HW218423   1.317   3.801  11.711 -2.3601  1.1775  0.6640
 2322SOL     OW18424   3.017   1.736   9.805 -0.1380 -0.2685  0.1816
 2322SOL    HW118425   3.019   1.812   9.864 -0.0322  1.4033 -1.9840
 2322SOL    HW218426   3.084   1.687   9.853  0.1879 -0.1381 -0.1449
 2323SOL     OW18427   3.181   2.462   5.038  0.1823 -0.3091  0.1589
 2323SOL    HW118428   3.131   2.443   5.118  3.1316 -2.2611  1.5353
 2323SOL    HW218429   3.118   2.447   4.967 -0.6151  0.1763  0.7612
 2324SOL     OW18430   3.726   0.437  14.586 -0.4809 -0.0043 -0.2452
 2324SOL    HW118431   3.680   0.380  14.524 -0.2314 -0.6440  0.1610
 2324SOL    HW218432   3.665   0.509  14.576 -0.0970  0.3061 -0.3446
 2325SOL     OW18433   1.393   1.567   3.448  0.0848  0.0228  0.0440
 2325SOL    HW118434   1.483   1.599   3.451  0.5691 -1.4583  1.5285
 2325SOL    HW218435   1.411   1.475   3.426  0.1159 -0.0332  0.3010
 2326SOL     OW18436   4.031   1.848   7.129  0.0909  0.0172 -0.0756
 2326SOL    HW118437   4.100   1.906   7.098  0.8663 -1.4450 -1.1029
 2326SOL    HW218438   4.089   1.794   7.182 -0.8218 -0.5275  0.3812
 2327SOL     OW18439   3.929   2.839   2.519  0.1017 -1.0020 -0.2128
 2327SOL    HW118440   3.916   2.768   2.582 -0.3026  0.5622  1.4288
 2327SOL    HW218441   3.980   2.784   2.459 -0.7090 -0.9466 -0.9696
 2328SOL     OW18442   3.042   1.201   3.796  0.1426  0.2821 -0.1022
 2328SOL    HW118443   3.076   1.114   3.817  0.0197  0.2419 -0.0678
 2328SOL    HW218444   3.123   1.253   3.798  1.3928 -1.6891 -0.1728
 2329SOL     OW18445   3.302   0.345   6.112  0.2294  0.0566 -0.5255
 2329SOL    HW118446   3.281   0.414   6.049  1.6901  0.0858 -0.9713
 2329SOL    HW218447   3.364   0.397   6.164 -0.2658  1.9299 -1.7911
 2330SOL     OW18448   0.853   0.584   9.338  0.3308 -0.4613 -0.8571
 2330SOL    HW118449   0.868   0.639   9.261  1.4151 -1.6628 -1.4802
 2330SOL    HW218450   0.935   0.601   9.384 -0.0711 -2.1269  0.4658
 2331SOL     OW18451   4.090   3.380   6.080  0.0248  0.9999  0.0041
 2331SOL    HW118452   4.162   3.327   6.044  0.7117  1.7795  0.2257
 2331SOL    HW218453   4.052   3.429   6.008  1.8348  2.4596  0.0430
 2332SOL     OW18454   1.693   2.021   5.058 -0.6572 -0.0130  0.2554
 2332SOL    HW118455   1.707   2.111   5.031 -0.0296 -0.0142  0.5674
 2332SOL    HW218456   1.783   1.998   5.084 -0.2177  0.0631 -1.2215
 2333SOL     OW18457   3.096   3.532   6.984 -0.1735 -0.3820 -0.0200
 2333SOL    HW118458   3.126   3.622   6.973  1.7717 -0.7144  2.5210
 2333SOL    HW218459   3.169   3.489   6.939 -1.6301 -1.7520 -1.0760
 2334SOL     OW18460   2.631   2.597   2.454  0.2310 -0.3930  0.4609
 2334SOL    HW118461   2.718   2.604   2.494  0.6644  0.9823 -0.7072
 2334SOL    HW218462   2.618   2.677   2.403 -1.6534 -1.2957 -0.4771
 2335SOL     OW18463   2.671   4.331  11.700 -0.6644  0.1894 -0.1216
 2335SOL    HW118464   2.699   4.285  11.779  1.7990  0.4001 -0.8565
 2335SOL    HW218465   2.707   4.272  11.634 -0.5277 -0.2007  0.3002
 2336SOL     OW18466   3.604   1.873   5.681  0.0913  0.2232  0.1734
 2336SOL    HW118467   3.573   1.884   5.771 -0.8932 -2.2584  0.1217
 2336SOL    HW218468   3.696   1.852   5.697 -0.1461  0.8880  2.4312
 2337SOL     OW18469   2.276   0.670   1.591  0.0016  0.8133  0.2218
 2337SOL    HW118470   2.314   0.621   1.517  1.1919  3.0140 -0.6132
 2337SOL    HW218471   2.247   0.597   1.646 -1.0300  0.7033 -0.4697
 2338SOL     OW18472   0.527   2.546   2.268  0.1091  0.4442 -0.5678
 2338SOL    HW118473   0.525   2.450   2.267  1.8027  0.3802  1.6209
 2338SOL    HW218474   0.483   2.565   2.186  1.5548  1.1569 -1.1620
 2339SOL     OW18475   1.226   3.815   4.143  0.2872 -0.1591 -0.1124
 2339SOL    HW118476   1.316   3.785   4.129  0.1772 -1.1241  1.2137
 2339SOL    HW218477   1.185   3.729   4.155 -0.7215  0.5431  1.3397
 2340SOL     OW18478   0.424   1.557  12.085 -0.0396  0.1029  0.2106
 2340SOL    HW118479   0.415   1.523  12.175  0.2951  0.0075  0.2076
 2340SOL    HW218480   0.510   1.522  12.062 -1.3131 -2.4522 -0.6029
 2341SOL     OW18481   2.261   4.599   7.981 -0.0515 -0.0309 -0.0299
 2341SOL    HW118482   2.242   4.506   7.965 -1.0058  0.1964 -0.2526
 2341SOL    HW218483   2.206   4.618   8.057 -1.6877  0.5069 -1.3391
 2342SOL     OW18484   3.932   2.460   1.973 -0.1504 -0.5618  0.1642
 2342SOL    HW118485   3.983   2.380   1.984 -1.6354 -1.5190  0.1036
 2342SOL    HW218486   3.863   2.429   1.915 -0.8725  0.6301  0.3969
 2343SOL     OW18487   3.399   0.176  13.778  0.1536 -0.1931 -1.1531
 2343SOL    HW118488   3.418   0.169  13.871  0.3676  1.0069 -1.1008
 2343SOL    HW218489   3.304   0.179  13.787  0.2344  1.4988 -0.7972
 2344SOL     OW18490   2.863   0.676   5.734  0.2583  0.3286  0.7896
 2344SOL    HW118491   2.895   0.700   5.647 -0.5232 -0.7276  0.2068
 2344SOL    HW218492   2.923   0.602   5.747  0.1212  0.1530  0.4400
 2345SOL     OW18493   3.748   1.352  17.600 -0.3023 -0.1439 -0.2186
 2345SOL    HW118494   3.665   1.356  17.552 -0.6592  1.5490  0.5520
 2345SOL    HW218495   3.723   1.362   0.007  0.2076 -0.4954 -0.0451
 2346SOL     OW18496   1.473   0.677   5.858 -0.0529 -0.5911 -0.3270
 2346SOL    HW118497   1.436   0.701   5.773 -1.3105  2.7136  1.1608
 2346SOL    HW218498   1.468   0.763   5.900 -1.4165  0.2357 -2.1883
 2347SOL     OW18499   4.707   1.556  11.759 -0.2858 -0.0980  0.1065
 2347SOL    HW118500   0.063   1.567  11.816 -0.3401 -2.5970  0.6437
 2347SOL    HW218501   0.012   1.496  11.689 -1.5551  1.0123 -1.3049
 2348SOL     OW18502   2.639   4.398  17.215 -0.2605 -0.1289 -0.1273
 2348SOL    HW118503   2.680   4.313  17.203  0.6328  0.0381  1.7284
 2348SOL    HW218504   2.697   4.427  17.285 -1.2257  0.7941  0.2856
 2349SOL     OW18505   3.607   4.033  11.375 -0.5728 -0.1293  0.0858
 2349SOL    HW118506   3.690   4.079  11.375 -0.6536  0.0123 -1.2393
 2349SOL    HW218507   3.631   3.946  11.408 -0.3474 -0.0884  0.0287
 2350SOL     OW18508   2.385   3.924   6.216  0.6359  0.3054 -0.1203
 2350SOL    HW118509   2.308   3.890   6.171  1.2709 -2.2623  0.7738
 2350SOL    HW218510   2.396   4.011   6.176  0.2648  0.1985 -0.4508
 2351SOL     OW18511   2.380   3.278   8.327  0.3252 -0.2339 -0.1262
 2351SOL    HW118512   2.393   3.372   8.316 -1.3222  0.2846  2.2791
 2351SOL    HW218513   2.287   3.261   8.308  0.4684 -1.2382  0.0881
 2352SOL     OW18514   1.908   3.887   3.717  0.2296  0.9561 -0.3219
 2352SOL    HW118515   1.924   3.799   3.683 -1.9726 -0.1749  1.6014
 2352SOL    HW218516   1.930   3.887   3.810 -1.2388  2.9718  0.0169
 2353SOL     OW18517   1.742   1.268   2.679  0.1679  0.2070 -0.0651
 2353SOL    HW118518   1.718   1.209   2.751 -1.5386  1.1195  0.1115
 2353SOL    HW218519   1.650   1.290   2.663  0.4535  1.0776 -0.4703
 2354SOL     OW18520   0.319   1.349   2.151  0.2591 -0.3034 -0.0332
 2354SOL    HW118521   0.346   1.424   2.096  0.1546 -0.2896 -0.0645
 2354SOL    HW218522   0.225   1.337   2.139  0.3957  0.4745 -1.8265
 2355SOL     OW18523   3.849   2.746   8.609  0.1698  0.1302 -0.1279
 2355SOL    HW118524   3.813   2.825   8.569 -0.9216  0.2882  1.1621
 2355SOL    HW218525   3.820   2.775   8.695 -2.4462 -2.4223 -0.1525
 2356SOL     OW18526   3.726   3.187  12.636  0.1599 -0.5578  0.1760
 2356SOL    HW118527   3.756   3.192  12.545 -1.2444  0.2188 -0.2289
 2356SOL    HW218528   3.806   3.226  12.673  1.0648 -1.7932 -0.4726
 2357SOL     OW18529   0.603   4.570  10.905 -0.3368  0.3582  0.6901
 2357SOL    HW118530   0.533   4.513  10.874 -0.0190  0.0269  0.5889
 2357SOL    HW218531   0.637   4.613  10.826 -1.9059 -0.1852 -0.2781
 2358SOL     OW18532   0.822   3.922   8.376 -0.1706  0.0673  0.1583
 2358SOL    HW118533   0.774   3.840   8.382 -0.8287  0.6551  2.6680
 2358SOL    HW218534   0.882   3.912   8.302  0.3424 -3.6578  1.1031
 2359SOL     OW18535   0.892   0.406  12.203 -0.2219  0.4519  0.7710
 2359SOL    HW118536   0.835   0.358  12.263  1.0155  0.2430  1.7723
 2359SOL    HW218537   0.824   0.455  12.157 -0.8217 -1.9566 -0.9152
 2360SOL     OW18538   0.908   2.960   7.063 -0.2606  0.6752  0.0663
 2360SOL    HW118539   0.869   3.045   7.045  0.6698  0.8076 -1.3036
 2360SOL    HW218540   0.950   2.978   7.147 -2.1177  0.2339  1.0774
 2361SOL     OW18541   0.272   0.683   5.277  0.0182  0.4066  0.1155
 2361SOL    HW118542   0.232   0.687   5.364  1.9435  2.3836  0.9206
 2361SOL    HW218543   0.353   0.638   5.301 -1.0276 -1.5760 -0.0955
 2362SOL     OW18544   3.882   1.325   5.792 -0.0304  0.4763 -0.5183
 2362SOL    HW118545   3.870   1.406   5.841  1.8438  0.2524  0.3074
 2362SOL    HW218546   3.954   1.290   5.846  0.4448  0.1307 -1.3736
 2363SOL     OW18547   1.578   3.029  14.229  0.0365 -0.1394 -0.4824
 2363SOL    HW118548   1.541   2.942  14.239 -0.0111 -0.5695 -4.4334
 2363SOL    HW218549   1.672   3.016  14.240 -0.1594 -2.3632 -1.3968
 2364SOL     OW18550   0.339   1.280   1.213  0.0685  0.2096 -0.3355
 2364SOL    HW118551   0.410   1.239   1.165  0.3115  0.6191 -0.3329
 2364SOL    HW218552   0.312   1.216   1.279 -1.7221 -1.6874 -2.9548
 2365SOL     OW18553   1.103   0.587   6.357  0.7161 -0.1675 -0.3279
 2365SOL    HW118554   1.087   0.677   6.383  0.7555 -0.3496  0.3373
 2365SOL    HW218555   1.161   0.610   6.285 -0.2920  0.8034 -0.8381
 2366SOL     OW18556   2.017   2.630   9.696 -0.1053  0.2933 -0.4734
 2366SOL    HW118557   1.933   2.591   9.722  0.6840 -0.0791  1.4822
 2366SOL    HW218558   2.068   2.612   9.774  0.6372 -0.4816 -1.1384
 2367SOL     OW18559   0.501   1.899   9.891  0.5413  0.7451  0.0174
 2367SOL    HW118560   0.420   1.945   9.912  0.3070 -0.4261  1.7082
 2367SOL    HW218561   0.535   1.961   9.827  0.8527  1.5762  0.9864
 2368SOL     OW18562   1.370   3.843   8.475 -0.0922 -0.1704  0.1790
 2368SOL    HW118563   1.383   3.832   8.381  0.8674 -3.3251  0.6764
 2368SOL    HW218564   1.279   3.871   8.474  0.7743  2.5697 -0.3169
 2369SOL     OW18565   2.155   3.186   2.423  0.4175 -0.7494  0.0032
 2369SOL    HW118566   2.225   3.179   2.488  0.7031  0.8997 -0.1190
 2369SOL    HW218567   2.185   3.116   2.364  0.0756 -0.1808 -0.8438
 2370SOL     OW18568   1.931   3.795   0.363  0.2903 -0.7281  0.0501
 2370SOL    HW118569   1.914   3.798   0.268  0.7448  0.1588  0.0004
 2370SOL    HW218570   2.021   3.826   0.371  0.2098 -0.5509  0.2508
 2371SOL     OW18571   2.706   3.003   8.845  0.0515 -0.4253  0.2944
 2371SOL    HW118572   2.635   3.058   8.878  0.1692 -0.2966  0.3337
 2371SOL    HW218573   2.775   3.065   8.822 -0.9039 -0.2505 -2.1175
 2372SOL     OW18574   4.298   0.407   6.160  0.1572  0.6522 -0.2361
 2372SOL    HW118575   4.257   0.393   6.074 -0.6742  0.8288  0.1333
 2372SOL    HW218576   4.291   0.502   6.169  1.8069  0.7619 -0.1193
 2373SOL     OW18577   0.975   0.955   1.503 -0.0974  0.2014 -0.2038
 2373SOL    HW118578   0.926   1.038   1.506  1.4873  1.1246 -0.0241
 2373SOL    HW218579   0.930   0.908   1.432  1.6770 -0.4706 -0.8611
 2374SOL     OW18580   1.943   3.169   5.028  0.3342 -0.4368  0.4969
 2374SOL    HW118581   1.884   3.096   5.007  0.5334 -0.6621  0.7233
 2374SOL    HW218582   1.917   3.196   5.117 -1.9153 -0.0325 -0.2716
 2375SOL     OW18583   2.298   3.920   2.485 -0.4818 -0.1170 -0.0778
 2375SOL    HW118584   2.346   3.986   2.434 -2.4082  1.2764 -0.0964
 2375SOL    HW218585   2.213   3.934   2.442 -0.9802 -0.1676  0.8891
 2376SOL     OW18586   1.885   3.792   4.719  0.6003 -0.1786 -0.3866
 2376SOL    HW118587   1.861   3.708   4.758 -1.2660  1.0755  1.1416
 2376SOL    HW218588   1.980   3.780   4.716  0.5426 -0.1409 -2.1959
 2377SOL     OW18589   1.799   2.327   9.730 -0.3757 -0.1843  0.0467
 2377SOL    HW118590   1.850   2.287   9.660 -0.7124 -0.1080 -0.2392
 2377SOL    HW218591   1.751   2.248   9.754 -1.4579  0.7415  0.9165
 2378SOL     OW18592   2.567   3.363   8.747 -0.3113 -0.0009  0.7606
 2378SOL    HW118593   2.608   3.434   8.797 -1.1758 -1.0400  2.9511
 2378SOL    HW218594   2.579   3.295   8.814 -1.5014  0.3263  1.2998
 2379SOL     OW18595   3.135   0.688   8.603 -0.4742  0.5518 -0.2949
 2379SOL    HW118596   3.173   0.724   8.683 -0.8273  0.8943 -0.2776
 2379SOL    HW218597   3.082   0.760   8.568 -1.6923  0.5280  1.4551
 2380SOL     OW18598   1.528   1.280  16.302  0.9563  0.4425  0.4013
 2380SOL    HW118599   1.551   1.345  16.369 -0.0520  2.9730 -1.6640
 2380SOL    HW218600   1.477   1.344  16.251  0.0894 -0.0220  0.6909
 2381SOL     OW18601   1.112   2.376   7.991  0.1133 -0.2728  0.0923
 2381SOL    HW118602   1.112   2.433   7.914 -1.2782  1.1893  1.1898
 2381SOL    HW218603   1.204   2.372   8.017  0.3314 -1.1778 -0.8403
 2382SOL     OW18604   4.405   1.525   7.247 -0.3500  0.7986 -0.2592
 2382SOL    HW118605   4.404   1.429   7.245  2.2698  0.7282  1.0589
 2382SOL    HW218606   4.455   1.525   7.329 -0.8822  2.6358  0.0594
 2383SOL     OW18607   3.522   3.374   5.750 -0.0144 -0.3006 -0.1631
 2383SOL    HW118608   3.600   3.387   5.804 -1.8619  1.2900  2.1078
 2383SOL    HW218609   3.529   3.444   5.685 -1.6426 -1.6880 -1.8020
 2384SOL     OW18610   3.148   2.849   8.116 -0.1421  0.4738 -0.2655
 2384SOL    HW118611   3.195   2.928   8.142  0.1530 -0.1164  0.9686
 2384SOL    HW218612   3.082   2.843   8.184 -1.7834 -0.3828 -1.9310
 2385SOL     OW18613   2.418   0.645   5.052 -0.6067  0.1314 -0.2569
 2385SOL    HW118614   2.438   0.552   5.055  1.6857  0.6330  0.6826
 2385SOL    HW218615   2.351   0.654   4.984  0.7630  0.8914 -1.5109
 2386SOL     OW18616   0.165   1.428   5.299 -0.0460  0.0859 -0.1485
 2386SOL    HW118617   0.098   1.367   5.268  0.5422 -0.5424 -0.1923
 2386SOL    HW218618   0.157   1.498   5.235 -1.6392 -0.4113 -0.4856
 2387SOL     OW18619   2.153   1.922   1.158 -0.0617 -0.4353  0.5119
 2387SOL    HW118620   2.204   1.872   1.094 -1.4708  0.1181 -1.0329
 2387SOL    HW218621   2.063   1.912   1.129 -0.1007  0.4880  0.3077
 2388SOL     OW18622   4.090   4.630   8.090 -0.6206 -0.4350  0.2135
 2388SOL    HW118623   4.163   4.577   8.058 -0.4918 -0.1535  0.0472
 2388SOL    HW218624   4.077   4.700   8.027  0.4160 -0.3741  0.0693
 2389SOL     OW18625   0.805   0.894  10.023  0.4369 -0.4016  0.2942
 2389SOL    HW118626   0.710   0.887  10.027  0.4257 -0.3550  0.1053
 2389SOL    HW218627   0.816   0.857   9.936 -0.4058 -1.2683  0.5550
 2390SOL     OW18628   3.953   2.491   5.102  0.6894  0.7597  0.2385
 2390SOL    HW118629   3.917   2.544   5.174  3.4141 -1.0307  2.9424
 2390SOL    HW218630   4.003   2.561   5.062  0.1773  0.9128 -0.1416
 2391SOL     OW18631   3.955   3.799   9.568  0.9540  0.8281  0.0771
 2391SOL    HW118632   3.979   3.753   9.648 -1.1381 -2.2126 -1.0565
 2391SOL    HW218633   3.897   3.734   9.528  1.6186  1.4995 -2.0078
 2392SOL     OW18634   1.086   0.215  13.923 -0.1617  0.3034 -0.2136
 2392SOL    HW118635   1.021   0.233  13.855  1.7746  0.6710 -1.9626
 2392SOL    HW218636   1.165   0.202  13.870  0.7674  1.6167  0.8278
 2393SOL     OW18637   3.433   2.378   7.268 -0.1954  0.2961 -0.5135
 2393SOL    HW118638   3.402   2.436   7.337 -1.9820 -1.3083  0.0402
 2393SOL    HW218639   3.526   2.366   7.289 -0.3279  0.1473 -0.0172
 2394SOL     OW18640   0.820   2.793  16.329  0.0180 -0.5260 -0.2841
 2394SOL    HW118641   0.823   2.821  16.420  1.2459 -0.0397 -0.4825
 2394SOL    HW218642   0.909   2.818  16.303 -0.7113 -0.2630 -2.5726
 2395SOL     OW18643   0.685   3.780   4.981 -0.1835 -0.9676 -0.3402
 2395SOL    HW118644   0.603   3.783   5.030 -1.2888 -2.0332 -2.1185
 2395SOL    HW218645   0.652   3.748   4.897  0.2224 -2.0394 -0.0945
 2396SOL     OW18646   2.992   3.674   7.783  0.4082  0.5069  0.2521
 2396SOL    HW118647   3.014   3.591   7.826  1.8227  0.7871  0.0729
 2396SOL    HW218648   3.067   3.732   7.799  1.5649 -0.4298 -1.8221
 2397SOL     OW18649   3.213   4.530   5.931  0.1253  0.1252 -0.3348
 2397SOL    HW118650   3.133   4.574   5.960  0.7726  0.8257  0.4081
 2397SOL    HW218651   3.275   4.601   5.913 -2.1741  2.4776  1.0538
 2398SOL     OW18652   3.527   2.207   4.413 -0.3517 -0.0843 -0.2367
 2398SOL    HW118653   3.442   2.197   4.455 -0.9078 -2.0787 -1.8415
 2398SOL    HW218654   3.540   2.120   4.377  0.4393  0.3592 -1.0169
 2399SOL     OW18655   3.970   3.070   6.757  0.1723  0.0424 -0.1427
 2399SOL    HW118656   3.973   3.127   6.680  1.7582 -3.1136 -2.4254
 2399SOL    HW218657   4.058   3.091   6.788  0.2013  1.9960 -1.5289
 2400SOL     OW18658   2.321   3.443  14.645  0.3234 -0.0563 -0.2974
 2400SOL    HW118659   2.252   3.509  14.655  1.6624  1.9792 -4.8764
 2400SOL    HW218660   2.293   3.394  14.568 -0.0935 -2.6462  1.4753
 2401SOL     OW18661   3.765   4.348  17.162  0.0079 -0.0939  0.0362
 2401SOL    HW118662   3.744   4.421  17.104  0.4078  0.0238  0.0405
 2401SOL    HW218663   3.676   4.325  17.189 -0.4202  1.6832  0.1077
 2402SOL     OW18664   4.356   4.380   2.594  0.1751 -0.4883  0.0545
 2402SOL    HW118665   4.445   4.390   2.627  0.4357 -0.9433 -0.5182
 2402SOL    HW218666   4.303   4.439   2.647 -2.3981 -0.1337 -2.8900
 2403SOL     OW18667   0.576   4.488  11.891 -0.6714 -0.5209  0.4977
 2403SOL    HW118668   0.635   4.436  11.945  0.3234  1.0695  0.9727
 2403SOL    HW218669   0.540   4.545  11.959 -1.1114 -0.9443  0.6178
 2404SOL     OW18670   2.089   3.169   1.804  0.8001 -0.6759  0.0402
 2404SOL    HW118671   2.118   3.156   1.894 -0.3469  1.8539  0.7895
 2404SOL    HW218672   2.042   3.086   1.797  1.0814 -0.7642 -0.8548
 2405SOL     OW18673   0.819   3.465  17.551  0.0273 -0.3555  0.6978
 2405SOL    HW118674   0.854   3.465  17.462  0.2767 -0.4582  0.7964
 2405SOL    HW218675   0.899   3.483  17.600 -0.0032  2.0937 -0.1139
 2406SOL     OW18676   3.390   2.894   5.368  0.1714 -0.4475  0.2115
 2406SOL    HW118677   3.302   2.856   5.376 -0.5067  1.1395  0.4186
 2406SOL    HW218678   3.391   2.976   5.418  0.1373  1.2536 -2.5510
 2407SOL     OW18679   0.021   1.204  12.233  0.0974 -0.3167 -0.3329
 2407SOL    HW118680   4.677   1.176  12.169  0.2787 -1.6547  0.0461
 2407SOL    HW218681   0.023   1.299  12.223 -0.7782 -0.3881 -1.1882
 2408SOL     OW18682   2.432   4.054   8.675 -0.9051 -0.5240  0.2962
 2408SOL    HW118683   2.398   3.983   8.621  0.1254  0.5311 -1.7288
 2408SOL    HW218684   2.395   4.020   8.756 -0.4451  1.4398  1.3482
 2409SOL     OW18685   0.784   0.576   7.516  0.5654  0.0429  0.4037
 2409SOL    HW118686   0.862   0.574   7.461  0.8310  1.0664  0.7355
 2409SOL    HW218687   0.753   0.486   7.518 -1.9566  0.8783 -0.1927
 2410SOL     OW18688   3.730   4.431   2.843 -0.0945  0.7548  0.1413
 2410SOL    HW118689   3.737   4.340   2.813 -1.1601  0.6036  0.3183
 2410SOL    HW218690   3.641   4.448   2.812 -0.6891 -1.5787  0.5140
 2411SOL     OW18691   0.053   3.104  17.025  0.2953 -0.2296 -0.0503
 2411SOL    HW118692   0.087   3.141  17.106  0.3601  0.2546 -0.3019
 2411SOL    HW218693   4.705   3.051  17.067  1.3214 -1.1226  0.4891
 2412SOL     OW18694   1.934   2.411   4.705  0.1338 -0.0963  0.4491
 2412SOL    HW118695   1.930   2.480   4.638 -2.9176 -0.2367  0.5047
 2412SOL    HW218696   2.021   2.420   4.744  0.1681  1.5851 -0.0205
 2413SOL     OW18697   4.444   2.654   4.889 -0.5434 -0.4308  0.8974
 2413SOL    HW118698   4.493   2.702   4.956 -1.0377 -1.3023  1.8824
 2413SOL    HW218699   4.403   2.581   4.935 -0.2313 -1.0494  0.2001
 2414SOL     OW18700   1.543   1.260   9.446  0.7311 -0.1115 -0.0180
 2414SOL    HW118701   1.466   1.297   9.489  0.3622 -0.8099 -0.0622
 2414SOL    HW218702   1.495   1.225   9.370  0.2785  0.7790 -0.1431
 2415SOL     OW18703   4.272   2.551   6.561 -0.2920  0.7213  0.1503
 2415SOL    HW118704   4.327   2.493   6.508  0.4062 -0.7666  2.5263
 2415SOL    HW218705   4.212   2.485   6.594  0.6447 -0.5135 -0.6299
 2416SOL     OW18706   0.546   0.028   5.149  0.4320 -0.6321  0.0263
 2416SOL    HW118707   0.512   0.061   5.231 -2.5372  2.2295 -2.3682
 2416SOL    HW218708   0.624   4.705   5.183  0.3790  0.1145  1.1015
 2417SOL     OW18709   1.232   4.260  17.584  0.1453 -0.9503  0.2162
 2417SOL    HW118710   1.203   4.262  17.675  0.1639  2.2710  0.1746
 2417SOL    HW218711   1.205   4.176  17.549 -0.3140 -1.1528  1.0637
 2418SOL     OW18712   4.447   3.972  14.882  0.0922  0.2237 -0.5578
 2418SOL    HW118713   4.373   4.026  14.909  0.6360 -0.2432  1.9119
 2418SOL    HW218714   4.409   3.884  14.887 -0.1880  0.4622  1.6420
 2419SOL     OW18715   3.502   2.405   8.792  0.3010 -0.0087  0.1745
 2419SOL    HW118716   3.477   2.326   8.743  0.3189  0.1261 -0.0554
 2419SOL    HW218717   3.463   2.462   8.726  1.4823  0.1986 -0.3464
 2420SOL     OW18718   4.130   1.032   7.130  0.3196  0.1495 -0.1550
 2420SOL    HW118719   4.064   0.991   7.186 -0.7613  2.3486  0.1677
 2420SOL    HW218720   4.208   0.990   7.166 -0.7052 -1.6394 -0.0084
 2421SOL     OW18721   1.159   4.195   7.941  0.7879 -0.4912 -0.1720
 2421SOL    HW118722   1.143   4.158   7.854 -0.3525 -1.2251  0.3504
 2421SOL    HW218723   1.169   4.289   7.923  1.8747 -1.0565 -2.5765
 2422SOL     OW18724   1.602   1.649  13.182 -0.4565  0.0814 -0.1573
 2422SOL    HW118725   1.508   1.667  13.192 -0.2179  1.1003  0.2193
 2422SOL    HW218726   1.594   1.561  13.147  2.1524  0.4561 -1.6791
 2423SOL     OW18727   2.185   4.148   1.410 -0.5852 -0.1192  0.3946
 2423SOL    HW118728   2.100   4.162   1.368 -0.7218  0.8205  0.9853
 2423SOL    HW218729   2.232   4.116   1.332  1.3863  2.3459  0.5654
 2424SOL     OW18730   1.791   0.249  12.122 -0.1102 -0.1985  0.0078
 2424SOL    HW118731   1.856   0.319  12.124 -1.1547  0.8064 -1.4937
 2424SOL    HW218732   1.847   0.175  12.146 -1.0441 -1.1096 -0.6340
 2425SOL     OW18733   2.739   0.160   6.784  0.1185  0.1988 -0.2677
 2425SOL    HW118734   2.752   0.111   6.866 -1.3792 -2.2284 -1.5023
 2425SOL    HW218735   2.691   0.235   6.821  0.1791  0.5148 -0.8357
 2426SOL     OW18736   3.582   3.164  14.913  0.7962 -0.1636  0.0040
 2426SOL    HW118737   3.612   3.251  14.940 -0.2661 -0.3965  1.9303
 2426SOL    HW218738   3.662   3.113  14.928  1.4151  0.0784 -2.4714
 2427SOL     OW18739   0.009   4.177   5.097  0.3335 -0.0439  0.5919
 2427SOL    HW118740   4.703   4.129   5.018 -1.2313  3.2064 -0.8659
 2427SOL    HW218741   4.693   4.131   5.171 -1.5221  0.8515  0.2312
 2428SOL     OW18742   3.025   4.238   5.472 -0.0086  0.1746  0.1592
 2428SOL    HW118743   3.052   4.300   5.405 -0.1200 -0.5325 -0.5278
 2428SOL    HW218744   2.964   4.185   5.421  1.0614 -1.2602  0.3819
 2429SOL     OW18745   1.309   0.463   8.543 -0.0512 -0.2353  0.1118
 2429SOL    HW118746   1.361   0.532   8.583 -3.6014  1.4084  1.9173
 2429SOL    HW218747   1.287   0.408   8.618  1.7287 -0.5493  0.4040
 2430SOL     OW18748   0.611   4.127   7.211 -0.4566  0.3179 -0.0611
 2430SOL    HW118749   0.568   4.161   7.290 -2.1959  2.7240 -2.0404
 2430SOL    HW218750   0.568   4.042   7.202  0.1131 -0.0899  1.1904
 2431SOL     OW18751   0.274   1.722  15.866  0.3213  0.2542  0.2999
 2431SOL    HW118752   0.285   1.790  15.799 -2.0314 -0.0834 -0.4530
 2431SOL    HW218753   0.349   1.674  15.832  0.8588 -0.2162  2.2094
 2432SOL     OW18754   1.698   1.589   7.487  0.3370  0.2553  0.1993
 2432SOL    HW118755   1.765   1.578   7.555 -1.0521  3.0036  1.9903
 2432SOL    HW218756   1.749   1.564   7.410 -1.2113  1.0168 -1.0750
 2433SOL     OW18757   3.318   2.628  17.389 -0.4258 -0.5233 -0.3014
 2433SOL    HW118758   3.320   2.649  17.483  0.4665  0.7443 -0.5911
 2433SOL    HW218759   3.254   2.692  17.358 -0.3026 -0.4439 -0.3921
 2434SOL     OW18760   4.055   1.361   8.950 -0.1772 -0.3300 -0.4458
 2434SOL    HW118761   4.088   1.338   8.863  1.2752  1.9319 -0.4996
 2434SOL    HW218762   3.964   1.388   8.936 -0.4965 -0.2901  1.7701
 2435SOL     OW18763   3.851   3.829   4.458  0.0532  0.2250  0.3726
 2435SOL    HW118764   3.933   3.878   4.448  0.5840 -1.2769 -2.6025
 2435SOL    HW218765   3.881   3.750   4.503  1.3130  2.5495  3.6575
 2436SOL     OW18766   3.119   4.019  15.811 -0.3635 -0.0981 -0.1049
 2436SOL    HW118767   3.026   4.016  15.832 -0.5378  1.7394 -0.6269
 2436SOL    HW218768   3.131   4.082  15.740 -0.8922  0.1441  0.0240
 2437SOL     OW18769   0.617   1.069   5.455 -0.0459  0.8498  0.1457
 2437SOL    HW118770   0.624   0.974   5.459  1.8210  1.0079  0.9524
 2437SOL    HW218771   0.676   1.076   5.380  2.3283 -0.1332  1.8886
 2438SOL     OW18772   0.786   3.345   4.351  0.1680  0.0041  0.3032
 2438SOL    HW118773   0.786   3.404   4.426  0.5934  1.0678 -0.5456
 2438SOL    HW218774   0.857   3.290   4.384  0.1487  0.0885  0.4850
 2439SOL     OW18775   0.760   3.397   9.793 -0.1373 -0.1889  0.0375
 2439SOL    HW118776   0.691   3.457   9.822  1.0451  0.3322  1.7741
 2439SOL    HW218777   0.834   3.440   9.838 -2.4272  2.8692  0.8671
 2440SOL     OW18778   3.486   0.529   6.465  0.0920 -0.2954  0.2813
 2440SOL    HW118779   3.556   0.484   6.511 -0.8949 -1.6508  0.4478
 2440SOL    HW218780   3.504   0.621   6.484 -0.1235 -0.4790  1.3415
 2441SOL     OW18781   1.411   2.476   0.368 -0.0442  0.3177 -0.4121
 2441SOL    HW118782   1.404   2.387   0.401 -0.7010 -0.3153 -2.2675
 2441SOL    HW218783   1.503   2.496   0.388 -0.3982 -0.6596  2.1822
 2442SOL     OW18784   1.315   4.246   0.296 -0.2898 -0.4661 -0.0920
 2442SOL    HW118785   1.222   4.228   0.286 -0.0996 -1.7370  0.4118
 2442SOL    HW218786   1.307   4.251   0.392 -0.3838  2.5136 -0.2617
 2443SOL     OW18787   2.257   4.088   3.691  0.2858  0.0817  0.3284
 2443SOL    HW118788   2.287   4.133   3.612  1.2186  2.9344  2.3002
 2443SOL    HW218789   2.162   4.099   3.685  0.4466  1.0820 -0.3672
 2444SOL     OW18790   2.653   2.627  15.507 -0.1727  0.0087  0.1418
 2444SOL    HW118791   2.703   2.686  15.451 -0.4104  0.7437  0.7103
 2444SOL    HW218792   2.585   2.689  15.531  0.6178  1.0839 -0.3887
 2445SOL     OW18793   3.438   3.889  17.643  0.2513  0.1019 -0.4554
 2445SOL    HW118794   3.531   3.896  17.623  0.1505  1.9123 -0.2807
 2445SOL    HW218795   3.443   3.850   0.046 -0.0538  0.8960 -0.0900
 2446SOL     OW18796   0.881   1.479   6.399 -0.3874  0.2491 -0.0723
 2446SOL    HW118797   0.826   1.432   6.461  0.7666 -0.4677  0.4040
 2446SOL    HW218798   0.847   1.435   6.321  1.1056  1.1514 -1.2409
 2447SOL     OW18799   0.074   4.137  10.521 -0.1250  0.8266 -0.1442
 2447SOL    HW118800   0.059   4.057  10.571  1.8079  0.0766 -0.7856
 2447SOL    HW218801   4.707   4.175  10.515 -0.4391  0.8357  4.6320
 2448SOL     OW18802   2.767   3.321   9.130  0.0778 -0.0448 -0.3242
 2448SOL    HW118803   2.814   3.401   9.105 -0.4699  0.7345  1.1456
 2448SOL    HW218804   2.729   3.349   9.213 -1.6564  1.1318 -1.5232
 2449SOL     OW18805   3.048   3.025  16.028 -0.3228 -0.1105  0.2024
 2449SOL    HW118806   3.037   3.103  16.083 -2.2514 -0.9834  1.0515
 2449SOL    HW218807   3.018   3.052  15.941  0.2226 -1.5306 -0.4198
 2450SOL     OW18808   2.279   3.452   8.790 -0.0971  0.0729  0.5842
 2450SOL    HW118809   2.259   3.536   8.830 -0.3547  0.3538 -0.1278
 2450SOL    HW218810   2.367   3.424   8.812 -0.5057  2.0401  4.6794
 2451SOL     OW18811   2.083   0.246   9.338  0.2801 -0.3249  0.1851
 2451SOL    HW118812   2.170   0.271   9.305  0.6782 -0.9320  0.7878
 2451SOL    HW218813   2.038   0.236   9.254  0.9705  1.4086 -0.4046
 2452SOL     OW18814   2.807   2.539   9.974  0.5500 -0.1770 -0.3946
 2452SOL    HW118815   2.743   2.485   9.928 -1.5413  0.9952  1.0905
 2452SOL    HW218816   2.754   2.564  10.050 -1.9093 -0.2803 -2.0827
 2453SOL     OW18817   1.632   1.238  14.404 -0.5219  0.1328 -0.1068
 2453SOL    HW118818   1.645   1.321  14.358 -1.0284  0.6497  0.6829
 2453SOL    HW218819   1.538   1.222  14.393 -0.7443  1.4068 -0.0226
 2454SOL     OW18820   4.146   2.254   2.717 -0.1121 -0.2364 -0.1031
 2454SOL    HW118821   4.224   2.257   2.773  0.9064 -0.4451 -1.4886
 2454SOL    HW218822   4.121   2.345   2.733 -1.2413 -0.3627 -1.1548
 2455SOL     OW18823   0.840   3.558   3.933 -0.3313  0.2618 -0.0783
 2455SOL    HW118824   0.863   3.650   3.938 -0.0495  0.3791 -3.4370
 2455SOL    HW218825   0.920   3.513   3.906 -0.4978 -0.3508  0.4462
 2456SOL     OW18826   0.964   2.263   4.322 -0.0769 -0.1401 -0.0287
 2456SOL    HW118827   1.024   2.223   4.259  0.9749 -2.2178  2.3416
 2456SOL    HW218828   0.914   2.327   4.271  2.3971  1.6057 -0.2624
 2457SOL     OW18829   4.329   0.471   7.908 -0.4113 -0.3108 -0.4313
 2457SOL    HW118830   4.395   0.510   7.965 -0.5486  0.1023 -0.5526
 2457SOL    HW218831   4.361   0.381   7.904  1.7168  0.4276  0.4363
 2458SOL     OW18832   4.073   0.062   3.888 -0.1990  0.2540  0.8672
 2458SOL    HW118833   4.066   0.052   3.793 -0.5756  1.9624  0.7231
 2458SOL    HW218834   4.122   4.703   3.906 -2.2917 -1.2914 -0.2541
 2459SOL     OW18835   2.908   2.992   7.812 -0.1080 -0.4433  0.6269
 2459SOL    HW118836   2.888   3.009   7.720  0.2539 -1.8023  0.2994
 2459SOL    HW218837   2.988   3.042   7.826  0.4272 -1.1197 -0.0311
 2460SOL     OW18838   3.512   1.980  11.887  0.0204 -0.3248 -0.4992
 2460SOL    HW118839   3.440   2.030  11.926  0.0192  0.1563 -1.1207
 2460SOL    HW218840   3.589   1.998  11.940 -1.1075  0.0984  1.0029
 2461SOL     OW18841   0.766   2.967   6.771 -0.2335  0.4487  0.2661
 2461SOL    HW118842   0.831   2.897   6.780 -1.0965 -0.6789 -2.1900
 2461SOL    HW218843   0.739   2.966   6.679 -1.4294 -1.4887  0.6415
 2462SOL     OW18844   2.675   3.562   4.392  0.3376  0.0704 -0.7125
 2462SOL    HW118845   2.766   3.582   4.415 -0.0131 -0.0853  0.8042
 2462SOL    HW218846   2.699   3.481   4.348  1.2204 -0.5124  0.8583
 2463SOL     OW18847   3.079   0.652   4.844 -0.6603 -0.2763 -0.2687
 2463SOL    HW118848   3.015   0.657   4.916 -0.0970  0.2836  0.1952
 2463SOL    HW218849   3.158   0.666   4.896 -0.6030 -0.1372 -0.3941
 2464SOL     OW18850   0.927   1.015  12.395  0.0204 -0.0551  0.1671
 2464SOL    HW118851   0.855   1.057  12.348  1.5784  1.3012 -1.0047
 2464SOL    HW218852   0.912   0.920  12.391 -1.7530  0.1547  2.6469
 2465SOL     OW18853   1.389   4.339   5.214  0.0923  0.1339 -0.4784
 2465SOL    HW118854   1.305   4.295   5.225  0.8890 -1.0622  0.7966
 2465SOL    HW218855   1.407   4.387   5.295  2.0850  0.1670 -0.9437
 2466SOL     OW18856   1.311   0.243   3.202 -0.9606 -0.4682  0.3272
 2466SOL    HW118857   1.279   0.326   3.167 -1.0431 -0.1541  1.1482
 2466SOL    HW218858   1.256   0.184   3.150 -1.1452 -0.5984  0.6743
 2467SOL     OW18859   0.006   4.234  17.387 -0.5195 -0.0542 -0.0609
 2467SOL    HW118860   4.654   4.173  17.382  0.6383 -1.4677  0.5395
 2467SOL    HW218861   4.710   4.268  17.476  0.2954  0.0198  0.0635
 2468SOL     OW18862   1.333   2.780   1.471  0.0069  0.5624  0.4764
 2468SOL    HW118863   1.245   2.757   1.441 -0.5107  1.2053  1.4975
 2468SOL    HW218864   1.330   2.754   1.563  0.0009  2.2010  0.9413
 2469SOL     OW18865   1.381   0.148   5.552 -0.8908  0.5145 -0.2120
 2469SOL    HW118866   1.469   0.156   5.515 -0.6353  0.2933  0.3462
 2469SOL    HW218867   1.390   0.204   5.629  0.4955  3.1233 -2.3038
 2470SOL     OW18868   0.966   1.453   9.365 -0.0064 -0.7330 -0.2905
 2470SOL    HW118869   0.922   1.473   9.283 -1.5114 -0.2986  0.6096
 2470SOL    HW218870   0.944   1.361   9.379 -1.6864 -0.1893  0.7347
 2471SOL     OW18871   1.706   3.750   9.009  0.0509  0.1503 -0.1568
 2471SOL    HW118872   1.738   3.663   9.033  2.8274  1.3772  0.5494
 2471SOL    HW218873   1.637   3.749   9.075 -0.2750  2.0161 -0.4604
 2472SOL     OW18874   2.387   2.430  10.924  0.2141 -0.8335  0.1323
 2472SOL    HW118875   2.434   2.512  10.934 -0.0153 -0.6032 -0.6638
 2472SOL    HW218876   2.437   2.381  10.860 -0.6295 -0.1227 -1.0814
 2473SOL     OW18877   1.079   2.513   6.535  0.0340 -0.2562  0.4199
 2473SOL    HW118878   1.160   2.521   6.586  1.2321 -2.9693 -1.0497
 2473SOL    HW218879   1.056   2.423   6.559  0.0623 -0.3434  0.1159
 2474SOL     OW18880   1.517   3.281  10.486  0.2463 -0.2002  0.3969
 2474SOL    HW118881   1.588   3.241  10.435 -0.3179  1.3868 -1.6337
 2474SOL    HW218882   1.443   3.222  10.471  1.5952 -1.6204 -0.7423
 2475SOL     OW18883   0.917   0.313   7.242  0.5420 -0.0733  0.0281
 2475SOL    HW118884   0.898   0.305   7.335 -2.7037  1.7972 -0.4582
 2475SOL    HW218885   0.997   0.363   7.230 -0.6085  2.0696  1.3431
 2476SOL     OW18886   0.270   1.498   5.922 -0.4179 -0.4803 -0.0285
 2476SOL    HW118887   0.253   1.514   5.829 -0.3238 -1.8466 -0.2678
 2476SOL    HW218888   0.365   1.510   5.914 -0.7856 -0.4744 -4.5172
 2477SOL     OW18889   0.525   3.896   2.132  0.5066 -0.3602 -0.0900
 2477SOL    HW118890   0.505   3.812   2.171  1.5160 -1.4282 -1.8597
 2477SOL    HW218891   0.435   3.930   2.130  0.8681  0.6030 -0.4614
 2478SOL     OW18892   0.826   4.307  11.195 -0.4654  0.1971  0.2224
 2478SOL    HW118893   0.845   4.376  11.258 -3.1312 -0.1428  1.4224
 2478SOL    HW218894   0.744   4.271  11.229 -0.7887  1.0558  0.3384
 2479SOL     OW18895   3.240   3.936  15.117 -0.7457 -0.3074  0.3013
 2479SOL    HW118896   3.323   3.944  15.070 -1.9772  0.2539 -1.7656
 2479SOL    HW218897   3.252   4.000  15.187 -0.4419  2.0400 -1.9233
 2480SOL     OW18898   1.803   3.240   5.264  0.1773 -0.7071 -0.1910
 2480SOL    HW118899   1.738   3.297   5.224  1.6799  0.6678 -0.6781
 2480SOL    HW218900   1.821   3.275   5.351  2.1807 -3.8656  0.6707
 2481SOL     OW18901   3.478   1.057   5.428  0.7455 -0.1094 -0.3042
 2481SOL    HW118902   3.557   1.033   5.379 -0.7775 -2.2566 -1.7302
 2481SOL    HW218903   3.502   1.011   5.508  0.5493 -1.4353 -0.9981
 2482SOL     OW18904   0.547   4.625   3.164 -0.3246  0.5633 -0.1552
 2482SOL    HW118905   0.533   4.636   3.070  0.7425 -3.0700 -0.7363
 2482SOL    HW218906   0.642   4.611   3.163 -0.5249 -1.0169  1.9839
 2483SOL     OW18907   1.334   0.877   5.375  0.1124 -0.1687 -0.2315
 2483SOL    HW118908   1.240   0.896   5.385  0.6228  1.7199  0.9846
 2483SOL    HW218909   1.369   0.965   5.386 -0.5669  0.1711 -0.7656
 2484SOL     OW18910   4.287   3.566   2.280  0.0699  0.3400 -0.2282
 2484SOL    HW118911   4.241   3.549   2.362 -0.4597 -0.0094 -0.5952
 2484SOL    HW218912   4.227   3.556   2.205 -0.5090  1.8952  0.0366
 2485SOL     OW18913   1.560   0.072   0.927  0.3493  0.4752 -0.4614
 2485SOL    HW118914   1.617   0.127   0.874 -1.3261  1.9581 -0.7208
 2485SOL    HW218915   1.522   0.145   0.976 -1.7755 -0.1219 -1.2030
 2486SOL     OW18916   3.630   2.189  14.268 -0.1351 -0.3351  0.2112
 2486SOL    HW118917   3.649   2.137  14.347  2.3442 -0.5200 -0.5216
 2486SOL    HW218918   3.539   2.215  14.282 -0.2377  0.0715 -1.3208
 2487SOL     OW18919   2.754   1.570  11.628  0.7234 -0.0353  1.0098
 2487SOL    HW118920   2.667   1.531  11.634  1.0281 -0.7069  1.1377
 2487SOL    HW218921   2.760   1.582  11.533 -2.9662  1.7120  0.9977
 2488SOL     OW18922   4.328   3.724   9.583 -0.4088  0.2751  0.4798
 2488SOL    HW118923   4.267   3.699   9.652 -1.2662  0.2178 -0.2961
 2488SOL    HW218924   4.409   3.691   9.622 -1.0626 -1.2584  0.5323
 2489SOL     OW18925   2.190   1.881   6.351 -0.5663 -0.1997 -0.2699
 2489SOL    HW118926   2.252   1.890   6.278  1.0670 -1.2700  0.9876
 2489SOL    HW218927   2.243   1.830   6.413 -0.0526  1.5594  0.7463
 2490SOL     OW18928   1.524   2.922   6.473  0.2246  0.4526 -0.1955
 2490SOL    HW118929   1.601   2.920   6.418 -1.3907  2.1465 -2.5004
 2490SOL    HW218930   1.505   3.015   6.486  1.1031  0.3783  1.7212
 2491SOL     OW18931   2.318   0.048  12.185  0.7588 -0.9765 -0.7068
 2491SOL    HW118932   2.309   4.676  12.209 -0.2574 -0.4687  0.8720
 2491SOL    HW218933   2.289   0.088  12.267 -1.6980 -2.6448 -0.7415
 2492SOL     OW18934   3.419   4.701   1.943  0.5785  0.6667 -0.8935
 2492SOL    HW118935   3.470   4.620   1.946 -0.2871  0.2112  1.4887
 2492SOL    HW218936   3.343   4.678   1.996 -1.4100  0.2304 -3.9090
 2493SOL     OW18937   4.557   1.408   4.054 -0.0347 -0.2470  0.1967
 2493SOL    HW118938   4.532   1.488   4.099 -0.6819 -0.3004 -0.0692
 2493SOL    HW218939   4.510   1.354   4.118  1.1692  0.4850  1.6746
 2494SOL     OW18940   2.164   2.163   1.282  0.2349 -0.3389  0.2298
 2494SOL    HW118941   2.190   2.075   1.256 -2.5789 -0.7258 -1.3306
 2494SOL    HW218942   2.070   2.147   1.274  0.4191 -0.5830 -1.4475
 2495SOL     OW18943   3.552   3.683  15.954 -0.0056  0.0465  0.2721
 2495SOL    HW118944   3.507   3.764  15.931  0.9296  0.4905  0.0299
 2495SOL    HW218945   3.484   3.630  15.995 -0.5849  0.0014 -0.7419
 2496SOL     OW18946   2.053   0.669   2.805 -0.1866 -0.2397 -0.0041
 2496SOL    HW118947   2.114   0.689   2.735  0.0286  1.8374  0.7751
 2496SOL    HW218948   2.097   0.587   2.829  1.2415  0.2034 -1.1607
 2497SOL     OW18949   1.540   2.408   8.961 -0.1211 -0.4229 -0.9061
 2497SOL    HW118950   1.560   2.330   9.013  0.1746  0.1514 -0.1533
 2497SOL    HW218951   1.615   2.464   8.983 -1.1142  0.9785 -1.0437
 2498SOL     OW18952   0.066   2.402   7.461 -0.5285  0.1501  0.2268
 2498SOL    HW118953   0.052   2.456   7.383  2.4281  0.4066 -0.0981
 2498SOL    HW218954   0.091   2.315   7.431 -1.2573 -0.4668  1.3650
 2499SOL     OW18955   0.736   3.759   6.379  0.1285 -0.0567  0.8689
 2499SOL    HW118956   0.786   3.685   6.344  0.7187  0.6746  0.1695
 2499SOL    HW218957   0.655   3.712   6.399 -0.4713  0.7533  0.3027
 2500SOL     OW18958   2.829   2.066   1.529  0.2157 -0.4305  0.0622
 2500SOL    HW118959   2.793   1.979   1.511 -1.3678  0.2915 -0.2687
 2500SOL    HW218960   2.776   2.114   1.466 -2.5671 -1.8313  1.3249
 2501SOL     OW18961   1.375   0.170   4.519  0.0040  0.3808  0.5392
 2501SOL    HW118962   1.419   0.131   4.595  0.8128  2.8587  1.3398
 2501SOL    HW218963   1.454   0.182   4.465  1.3388  1.0525  2.6312
 2502SOL     OW18964   4.416   1.564   1.986 -0.0575  0.0786 -0.2966
 2502SOL    HW118965   4.431   1.656   1.963 -1.0600  0.5123  0.8117
 2502SOL    HW218966   4.370   1.566   2.070 -1.2098 -1.5248 -0.8775
 2503SOL     OW18967   3.698   4.629   3.399 -0.6261  0.0607  0.1409
 2503SOL    HW118968   3.746   4.637   3.482  0.7222 -0.0168 -0.6230
 2503SOL    HW218969   3.768   4.662   3.342 -1.5976 -0.6566 -1.4663
 2504SOL     OW18970   0.238   0.021   6.649 -0.3358 -0.1122 -0.1168
 2504SOL    HW118971   0.172   0.016   6.580  0.1375  2.9885 -0.7769
 2504SOL    HW218972   0.282   4.657   6.641 -2.5471 -1.3285  0.6285
 2505SOL     OW18973   0.396   0.368   7.407 -0.2873 -0.4893 -0.8782
 2505SOL    HW118974   0.420   0.276   7.416 -1.0299 -0.4449  1.4974
 2505SOL    HW218975   0.302   0.359   7.398 -0.6599  2.4237 -0.1478
 2506SOL     OW18976   0.563   1.475   6.876 -0.0504 -0.0547 -0.4068
 2506SOL    HW118977   0.509   1.450   6.950  2.4979  0.1631  1.5363
 2506SOL    HW218978   0.509   1.516   6.809 -0.2714  0.7049  0.2391
 2507SOL     OW18979   0.756   2.346   8.186  0.1507  0.3191 -0.4579
 2507SOL    HW118980   0.830   2.330   8.128  0.2777 -0.6970 -0.0038
 2507SOL    HW218981   0.786   2.305   8.267 -1.6958 -0.3672 -0.1259
 2508SOL     OW18982   0.967   3.015   5.760  0.2327 -0.1179 -0.2061
 2508SOL    HW118983   1.060   3.007   5.784  0.1319 -1.1903 -0.1583
 2508SOL    HW218984   0.935   3.030   5.850  0.3096 -0.8586 -0.0566
 2509SOL     OW18985   0.873   2.690   4.143  0.0336 -0.8525  0.8588
 2509SOL    HW118986   0.899   2.600   4.129  0.5647 -0.4030 -0.9579
 2509SOL    HW218987   0.952   2.722   4.188  0.1095  1.3747 -0.8563
 2510SOL     OW18988   3.514   4.201  16.451  0.2798 -0.4147  0.2673
 2510SOL    HW118989   3.557   4.122  16.420  1.9812  0.4146  0.5301
 2510SOL    HW218990   3.464   4.215  16.370 -0.8142 -0.3344  0.9492
 2511SOL     OW18991   1.986   2.848   5.157  0.0473  0.2772  0.0036
 2511SOL    HW118992   1.895   2.871   5.177 -0.2460 -1.6807  0.8539
 2511SOL    HW218993   1.972   2.764   5.113 -1.6041  1.1348 -1.1306
 2512SOL     OW18994   4.020   1.086   6.542 -0.3483  0.3384 -0.2060
 2512SOL    HW118995   4.002   1.176   6.514  0.8076  0.9418  0.9796
 2512SOL    HW218996   4.104   1.104   6.586 -0.6288  3.1912 -0.8091
 2513SOL     OW18997   2.539   4.588  16.482  0.1968 -0.0619 -0.3313
 2513SOL    HW118998   2.572   4.530  16.413 -0.3264  0.5531 -1.1041
 2513SOL    HW218999   2.615   4.646  16.492  1.7893 -2.2526  0.2994
 2514SOL     OW19000   2.610   0.334   6.304 -0.4610  0.6455  0.1360
 2514SOL    HW119001   2.574   0.423   6.313  0.9208  1.0062  2.1034
 2514SOL    HW219002   2.694   0.337   6.350 -1.1793  0.2482  1.4842
 2515SOL     OW19003   3.487   3.186   8.637  0.3057  0.1097  0.2110
 2515SOL    HW119004   3.393   3.202   8.629 -0.2401 -2.8264  0.8530
 2515SOL    HW219005   3.509   3.274   8.605 -1.8454  1.2247  1.7677
 2516SOL     OW19006   0.953   0.199   8.539  0.4744 -0.2794 -0.1482
 2516SOL    HW119007   0.870   0.208   8.493  0.3964 -0.2184  0.0067
 2516SOL    HW219008   0.991   0.280   8.507  1.5832 -0.2099  1.3781
 2517SOL     OW19009   1.548   2.987   8.650 -0.5037 -0.2688  0.0393
 2517SOL    HW119010   1.544   3.001   8.745 -0.2385 -2.0496  0.3193
 2517SOL    HW219011   1.527   2.893   8.645 -0.5787 -0.1931 -1.0031
 2518SOL     OW19012   1.477   1.754   5.426 -0.4066  0.3538 -0.5482
 2518SOL    HW119013   1.411   1.693   5.394  0.6977 -1.8590  1.3655
 2518SOL    HW219014   1.494   1.812   5.352 -0.5581  1.3087  0.1638
 2519SOL     OW19015   2.206   2.261  15.218  0.5292 -0.1247  0.1387
 2519SOL    HW119016   2.142   2.324  15.185 -0.7895 -1.0696  0.8954
 2519SOL    HW219017   2.280   2.315  15.246 -1.0285  1.4300  1.2596
 2520SOL     OW19018   1.634   3.446  11.884 -0.0873 -0.4519 -0.5855
 2520SOL    HW119019   1.606   3.354  11.888 -0.1903 -0.5039 -2.2306
 2520SOL    HW219020   1.702   3.428  11.819  0.6870 -0.5395  0.2522
 2521SOL     OW19021   3.643   3.977  12.175  0.2442 -0.9684  0.8795
 2521SOL    HW119022   3.716   4.027  12.138  0.5581 -1.5448  0.7029
 2521SOL    HW219023   3.691   3.921  12.237  0.0089  0.9892  2.7997
 2522SOL     OW19024   1.085   3.652   5.903 -0.1235 -1.0339 -0.5317
 2522SOL    HW119025   1.103   3.641   5.996 -0.3345 -2.8761 -0.7178
 2522SOL    HW219026   1.099   3.747   5.893 -0.4031 -0.8304  1.0366
 2523SOL     OW19027   2.006   1.392   8.165 -0.4160  0.1162 -0.2536
 2523SOL    HW119028   2.096   1.422   8.180 -0.9497  1.8394 -0.5860
 2523SOL    HW219029   2.017   1.314   8.111  0.3566 -0.3159  0.5174
 2524SOL     OW19030   2.360   3.465   9.437 -0.1571  0.6441  0.0903
 2524SOL    HW119031   2.429   3.531   9.440 -0.6061  1.1184  0.1845
 2524SOL    HW219032   2.277   3.508   9.460 -1.4818 -1.8199 -0.1225
 2525SOL     OW19033   3.805   1.460  13.406 -0.1249  0.2066  0.0759
 2525SOL    HW119034   3.884   1.432  13.453 -0.2454 -1.1204 -0.5226
 2525SOL    HW219035   3.832   1.550  13.388  0.6988 -0.0154  0.2024
 2526SOL     OW19036   2.004   2.981   8.214  0.4922  0.5121 -0.4216
 2526SOL    HW119037   1.980   3.000   8.123  0.2157 -0.0949 -0.4777
 2526SOL    HW219038   1.924   2.940   8.248 -1.4897  2.6871 -2.4875
 2527SOL     OW19039   4.283   0.670   0.796 -0.5600  0.1147 -0.3828
 2527SOL    HW119040   4.221   0.656   0.868  1.2343  2.4544  1.6370
 2527SOL    HW219041   4.238   0.653   0.713 -0.2120  0.0451 -0.5575
 2528SOL     OW19042   0.995   3.980  12.549  0.3103  0.1089  0.3947
 2528SOL    HW119043   0.961   3.970  12.638  0.6514  3.6935  0.9428
 2528SOL    HW219044   1.029   3.892  12.536 -0.2059  0.2692 -2.0493
 2529SOL     OW19045   0.329   3.201   2.840 -0.6255  0.0265 -0.3044
 2529SOL    HW119046   0.329   3.146   2.762 -0.3969 -1.1706  0.5429
 2529SOL    HW219047   0.235   3.217   2.850 -0.4175  1.1997 -0.2187
 2530SOL     OW19048   1.182   0.956   6.366  0.5155  0.3884 -0.6694
 2530SOL    HW119049   1.232   1.023   6.319  1.2513 -0.7265 -1.4574
 2530SOL    HW219050   1.105   0.950   6.310 -0.2274 -1.4144  0.5492
 2531SOL     OW19051   4.536   3.062   7.457  0.1059 -0.3057 -0.1599
 2531SOL    HW119052   4.534   2.971   7.429 -1.7702 -0.1876 -0.3986
 2531SOL    HW219053   4.543   3.055   7.552  1.4934 -1.1504 -0.3168
 2532SOL     OW19054   1.443   0.047   2.307  0.1456 -0.0735  0.7517
 2532SOL    HW119055   1.464   0.101   2.383  1.8992  1.2297 -0.6782
 2532SOL    HW219056   1.443   4.681   2.348 -0.2418  1.2428  3.5792
 2533SOL     OW19057   0.799   2.606   2.907  0.5914 -0.4609 -0.0138
 2533SOL    HW119058   0.858   2.672   2.870  2.3083 -1.3417  1.1747
 2533SOL    HW219059   0.776   2.555   2.830  0.2908  0.7925 -0.7601
 2534SOL     OW19060   4.608   3.593   6.389 -0.3957  0.5570  0.8174
 2534SOL    HW119061   4.566   3.512   6.360 -0.3117  0.2773  1.4794
 2534SOL    HW219062   4.538   3.619   6.450 -0.4028  0.8776  0.6721
 2535SOL     OW19063   0.444   3.582   7.851 -0.5995 -0.1126  0.0574
 2535SOL    HW119064   0.403   3.547   7.930 -1.5762  1.4317  0.2254
 2535SOL    HW219065   0.388   3.544   7.783 -0.0301 -2.9480  1.1521
 2536SOL     OW19066   4.493   1.124   8.118  0.1175  0.1893  0.1001
 2536SOL    HW119067   4.527   1.173   8.193  0.6797  0.6815 -0.4798
 2536SOL    HW219068   4.414   1.174   8.097 -0.7084 -2.0334 -2.2175
 2537SOL     OW19069   2.527   3.180   8.580  0.6007 -0.1303  0.1186
 2537SOL    HW119070   2.548   3.252   8.639  1.4666 -2.2341  2.3718
 2537SOL    HW219071   2.468   3.223   8.518  1.4429 -0.0945 -0.6619
 2538SOL     OW19072   2.507   1.614  13.340 -0.7747  0.3070 -0.5456
 2538SOL    HW119073   2.564   1.690  13.354 -1.2865  0.5376  0.2917
 2538SOL    HW219074   2.540   1.586  13.255  3.7801  2.0089  0.6236
 2539SOL     OW19075   0.155   3.424   3.657  0.5722 -0.3359  0.2776
 2539SOL    HW119076   0.111   3.472   3.587  1.7243  1.0709  0.5324
 2539SOL    HW219077   0.202   3.359   3.605 -1.8408 -2.0215  0.2053
 2540SOL     OW19078   1.852   3.100   9.365  0.0513  0.0444 -0.3659
 2540SOL    HW119079   1.869   3.010   9.390 -2.7977 -0.5779 -0.5787
 2540SOL    HW219080   1.889   3.104   9.277  0.2022 -1.6395 -0.3805
 2541SOL     OW19081   2.536   0.578   6.640 -0.0840  0.2195 -0.3626
 2541SOL    HW119082   2.627   0.587   6.668  0.2635  0.0357 -1.4389
 2541SOL    HW219083   2.559   0.563   6.548 -0.4158  1.8987 -0.7320
 2542SOL     OW19084   4.704   0.614  16.606  0.4626  0.7484 -0.0524
 2542SOL    HW119085   0.023   0.690  16.563  0.2552  0.4827 -0.7081
 2542SOL    HW219086   4.618   0.646  16.632  0.7671 -0.2282  2.1436
 2543SOL     OW19087   3.754   1.130   4.545  0.0469  0.2764 -0.1662
 2543SOL    HW119088   3.672   1.142   4.593 -1.8271 -0.9470 -3.0236
 2543SOL    HW219089   3.726   1.081   4.467 -1.5343  4.1025 -2.0122
 2544SOL     OW19090   2.313   3.455   5.398 -0.4324  0.0241  0.2005
 2544SOL    HW119091   2.250   3.523   5.420 -0.4505 -1.1178  3.7657
 2544SOL    HW219092   2.253   3.390   5.361  0.7385 -1.1157  0.2728
 2545SOL     OW19093   0.196   4.393  10.587  0.2400 -0.2107 -0.4806
 2545SOL    HW119094   0.149   4.408  10.505 -1.5048 -1.7810  0.2233
 2545SOL    HW219095   0.180   4.298  10.588  3.5789 -0.7702  0.5574
 2546SOL     OW19096   2.293   2.030   9.882 -0.0010 -0.4079 -0.2109
 2546SOL    HW119097   2.353   1.962   9.851  0.2432 -0.4705  0.3920
 2546SOL    HW219098   2.283   1.983   9.965 -1.0846 -0.4255 -0.3578
 2547SOL     OW19099   4.251   1.430  17.447  0.0816 -0.2321  0.5195
 2547SOL    HW119100   4.276   1.517  17.418 -2.0517  0.3462  0.3914
 2547SOL    HW219101   4.230   1.464  17.535 -1.1868 -1.3975  0.6604
 2548SOL     OW19102   3.069   4.612  17.367  0.1525  0.0509  0.1305
 2548SOL    HW119103   3.086   4.605  17.461  3.1028  0.4639 -0.3720
 2548SOL    HW219104   3.150   4.653  17.336 -1.6499 -1.0734 -6.0439
 2549SOL     OW19105   3.603   4.589   5.531  0.6444 -1.1112  0.5771
 2549SOL    HW119106   3.669   4.587   5.461  0.2834  1.9277  0.1577
 2549SOL    HW219107   3.609   4.499   5.563  0.5956 -0.7731  1.5403
 2550SOL     OW19108   0.347   0.356   5.193 -0.0695 -0.0160 -0.0726
 2550SOL    HW119109   0.255   0.378   5.181 -0.2915  0.0390  1.7414
 2550SOL    HW219110   0.340   0.267   5.228 -0.0703  0.6211  1.5816
 2551SOL     OW19111   0.242   1.347   3.713  0.7247  0.0049  0.4300
 2551SOL    HW119112   0.263   1.436   3.739 -0.4524  0.1062  1.0086
 2551SOL    HW219113   0.148   1.347   3.727  0.3812 -1.4810 -1.8250
 2552SOL     OW19114   3.158   3.435   5.751  0.0859 -0.5776 -0.2887
 2552SOL    HW119115   3.110   3.508   5.712 -3.5157 -2.3797  0.7924
 2552SOL    HW219116   3.217   3.484   5.808  1.0514  0.2515 -1.9902
 2553SOL     OW19117   3.042   1.619   7.898 -0.0189 -0.6804 -0.0583
 2553SOL    HW119118   3.128   1.582   7.918  0.3546  0.4636  0.4837
 2553SOL    HW219119   3.028   1.679   7.971  0.1544  0.3873 -0.9048
 2554SOL     OW19120   3.485   3.949   2.653 -0.4894 -0.2542  0.3643
 2554SOL    HW119121   3.434   3.904   2.720 -1.9001  0.1384 -0.4675
 2554SOL    HW219122   3.422   3.972   2.585 -0.5706  0.8499  0.8131
 2555SOL     OW19123   4.381   1.080   2.985 -0.3085  0.2003  0.3086
 2555SOL    HW119124   4.329   1.094   3.064  1.5050  1.6839  1.2239
 2555SOL    HW219125   4.403   0.987   2.990 -4.8491 -0.9828 -1.6510
 2556SOL     OW19126   1.150   4.320   1.978 -0.3770 -0.1057 -0.6021
 2556SOL    HW119127   1.140   4.264   2.054 -1.7521  1.6463  0.5189
 2556SOL    HW219128   1.217   4.376   2.017  0.7179 -1.8356 -0.0230
 2557SOL     OW19129   1.922   3.814   4.422 -0.2499  0.0074  0.4279
 2557SOL    HW119130   1.909   3.814   4.517 -0.9403 -4.5798  0.3252
 2557SOL    HW219131   2.017   3.814   4.431 -0.3013 -0.9399  0.9710
 2558SOL     OW19132   4.294   0.457   3.131 -0.1094  0.2122  0.1220
 2558SOL    HW119133   4.206   0.470   3.165  0.2338 -0.8196  1.3855
 2558SOL    HW219134   4.354   0.491   3.197  0.1317  2.0802 -1.0522
 2559SOL     OW19135   0.161   0.293   7.354 -0.0211  0.1469 -0.0243
 2559SOL    HW119136   0.100   0.232   7.313  1.4239  0.4502 -2.6260
 2559SOL    HW219137   0.130   0.372   7.309 -1.6306 -0.5304 -0.0597
 2560SOL     OW19138   3.276   3.730  17.434  0.3377  0.0798  0.1267
 2560SOL    HW119139   3.318   3.794  17.492 -0.1839  2.0386 -1.6555
 2560SOL    HW219140   3.268   3.658  17.496 -2.2187  0.4486  0.2198
 2561SOL     OW19141   0.973   1.259   4.592  0.5657  0.0725 -0.1006
 2561SOL    HW119142   0.927   1.244   4.509  0.2440 -3.5670  0.7476
 2561SOL    HW219143   0.972   1.355   4.593  0.3898  0.0165  2.5130
 2562SOL     OW19144   4.270   4.248   5.649  0.2553 -0.4781 -0.2389
 2562SOL    HW119145   4.214   4.183   5.606  1.3804 -0.5548 -1.5877
 2562SOL    HW219146   4.212   4.324   5.657 -0.4848 -0.9443 -1.1293
 2563SOL     OW19147   0.514   2.880   7.581 -0.7665  0.4988 -0.0751
 2563SOL    HW119148   0.493   2.902   7.491 -0.5334  1.9055  0.2166
 2563SOL    HW219149   0.590   2.821   7.581 -1.7898 -0.8268  1.5034
 2564SOL     OW19150   0.769   0.434   5.913  0.6138 -0.3984 -0.2904
 2564SOL    HW119151   0.797   0.344   5.927 -1.9494 -1.0442  0.6669
 2564SOL    HW219152   0.854   0.467   5.881 -0.2904  0.9869 -1.3276
 2565SOL     OW19153   1.012   2.422   1.077 -0.5171  0.1911  0.4870
 2565SOL    HW119154   1.038   2.511   1.100  0.2509  0.1337 -0.1339
 2565SOL    HW219155   0.941   2.437   1.016 -0.2893  0.1844  0.2217
 2566SOL     OW19156   0.503   2.457   8.729  0.1246  0.2964  0.2702
 2566SOL    HW119157   0.579   2.422   8.684 -1.4307  0.2092 -2.3488
 2566SOL    HW219158   0.527   2.439   8.819  0.9594 -0.1073 -0.0341
 2567SOL     OW19159   4.416   1.553   0.913  0.6415  0.0241  0.7990
 2567SOL    HW119160   4.449   1.623   0.856 -0.1924  0.6177  1.0412
 2567SOL    HW219161   4.365   1.507   0.846  2.2487  1.0257 -1.1290
 2568SOL     OW19162   4.043   3.631  16.054  0.1306  0.4476  0.0707
 2568SOL    HW119163   3.989   3.589  15.988  1.0529 -0.4585 -0.1163
 2568SOL    HW219164   3.977   3.688  16.093 -0.3633 -0.8375  1.1511
 2569SOL     OW19165   2.394   2.014   1.408  0.4585 -0.1854  0.0008
 2569SOL    HW119166   2.401   2.077   1.479 -0.1831 -1.1990  0.9792
 2569SOL    HW219167   2.305   1.980   1.423  1.1285 -0.7494  2.6379
 2570SOL     OW19168   4.587   0.685   5.488  0.4057 -0.8952  0.2282
 2570SOL    HW119169   4.681   0.667   5.486  0.5221 -0.3379  0.6149
 2570SOL    HW219170   4.581   0.757   5.550  0.8106 -0.6157 -0.0577
 2571SOL     OW19171   0.808   0.930   3.272  0.1183  0.5017 -0.1121
 2571SOL    HW119172   0.719   0.894   3.278 -0.7127  2.5506 -0.1042
 2571SOL    HW219173   0.849   0.858   3.319 -0.9505  0.3901  0.6607
 2572SOL     OW19174   2.336   2.135   7.147  0.4462  0.2031 -0.6958
 2572SOL    HW119175   2.428   2.123   7.172 -0.0748  2.0279  2.0101
 2572SOL    HW219176   2.306   2.218   7.182 -3.5439 -0.6137 -2.1872
 2573SOL     OW19177   3.388   0.898  10.165 -0.4213 -0.5184 -0.5040
 2573SOL    HW119178   3.315   0.956  10.145 -0.0157  0.0324 -0.3751
 2573SOL    HW219179   3.361   0.881  10.255 -0.0447  1.4929 -0.0267
 2574SOL     OW19180   1.968   3.842   5.854 -0.0954  0.3849 -0.5916
 2574SOL    HW119181   1.953   3.841   5.759  1.4080  3.2633 -0.8614
 2574SOL    HW219182   1.966   3.749   5.877 -1.3434  0.5731  0.0911
 2575SOL     OW19183   1.724   3.916   4.913  0.0846  0.3369 -0.2569
 2575SOL    HW119184   1.809   3.904   4.872  1.6224  2.5128  2.2488
 2575SOL    HW219185   1.730   3.852   4.985  0.2964  0.7958  0.1371
 2576SOL     OW19186   0.200   2.589  11.866  0.0065  0.0040 -0.0220
 2576SOL    HW119187   0.152   2.507  11.877  2.4350 -1.3478  0.4296
 2576SOL    HW219188   0.274   2.566  11.810  0.3675  2.3352 -0.5005
 2577SOL     OW19189   4.386   4.452  15.082 -0.6278  0.6348  0.4200
 2577SOL    HW119190   4.374   4.481  14.992 -0.6174  0.2257  0.2853
 2577SOL    HW219191   4.482   4.451  15.082 -0.6524  0.9281 -4.1614
 2578SOL     OW19192   3.770   1.752  12.627  0.1230  0.1359  0.3274
 2578SOL    HW119193   3.697   1.807  12.598  1.9306  2.3415  0.0403
 2578SOL    HW219194   3.778   1.686  12.558 -0.9898 -1.1060  1.3815
 2579SOL     OW19195   1.520   4.187  12.828 -0.2582 -0.1517 -0.1078
 2579SOL    HW119196   1.531   4.253  12.760  1.0754 -0.1574  0.1026
 2579SOL    HW219197   1.613   4.183  12.850 -0.6898  3.0192  2.1770
 2580SOL     OW19198   2.700   2.487   2.839 -0.0671 -0.0889  0.5620
 2580SOL    HW119199   2.668   2.461   2.926  3.4243  1.2222  2.2332
 2580SOL    HW219200   2.790   2.512   2.856 -0.4258  0.4752  1.6655
 2581SOL     OW19201   2.862   4.474  11.144  0.0096  0.0293  0.1367
 2581SOL    HW119202   2.843   4.561  11.180 -1.0328 -0.5090  0.8775
 2581SOL    HW219203   2.861   4.494  11.050  1.7064 -1.9219 -0.2977
 2582SOL     OW19204   3.975   4.656   1.641 -0.6749  0.6536  0.0723
 2582SOL    HW119205   3.914   0.008   1.631 -2.3530 -0.9179 -0.9444
 2582SOL    HW219206   4.057   4.695   1.612 -0.2022 -0.4111 -0.0438
 2583SOL     OW19207   3.937   2.375   5.562 -0.1311 -0.7951  0.4344
 2583SOL    HW119208   3.867   2.406   5.504  0.0425 -1.1855  0.0128
 2583SOL    HW219209   3.996   2.451   5.560  1.2446 -1.8923 -0.6061
 2584SOL     OW19210   0.646   0.168   6.110 -0.4938 -0.5136  0.4620
 2584SOL    HW119211   0.658   0.193   6.018  1.7475 -0.3236  0.8088
 2584SOL    HW219212   0.563   0.122   6.098  0.2835 -2.0849  1.0749
 2585SOL     OW19213   2.503   0.519   2.669  0.4550  0.2891 -0.6733
 2585SOL    HW119214   2.527   0.612   2.664 -1.4526  0.7568 -1.1675
 2585SOL    HW219215   2.503   0.512   2.765  0.5077 -0.2759 -0.7165
 2586SOL     OW19216   3.519   2.149   9.360  0.9951  0.1394  0.1419
 2586SOL    HW119217   3.609   2.141   9.328  0.5555 -3.1717 -0.2698
 2586SOL    HW219218   3.468   2.142   9.279 -0.1227  1.5554  0.7191
 2587SOL     OW19219   4.342   1.678  17.411  0.0240 -0.0555  0.1655
 2587SOL    HW119220   4.402   1.738  17.367 -0.6693  1.5222  1.3547
 2587SOL    HW219221   4.283   1.747  17.443  0.4223 -0.2664  1.3697
 2588SOL     OW19222   1.017   4.082   3.699 -0.3420 -0.1227  0.2325
 2588SOL    HW119223   1.096   4.044   3.738 -1.2851 -1.0856  1.2257
 2588SOL    HW219224   0.965   4.095   3.779 -0.8506  2.5005 -0.5444
 2589SOL     OW19225   2.594   2.404  16.125  0.3175 -0.1754 -0.1144
 2589SOL    HW119226   2.571   2.327  16.072  0.3529  1.2348 -2.2014
 2589SOL    HW219227   2.561   2.391  16.214  0.8589  0.3535  0.1577
 2590SOL     OW19228   4.001   0.721   8.219 -0.3581  0.6261 -0.4050
 2590SOL    HW119229   4.078   0.715   8.275 -2.6727 -2.7515  2.3506
 2590SOL    HW219230   4.024   0.664   8.145  0.8578  2.1969 -1.2724
 2591SOL     OW19231   3.112   4.671   7.885  0.5171  0.0807 -0.3948
 2591SOL    HW119232   3.205   4.651   7.888  0.3794 -0.0788  2.5073
 2591SOL    HW219233   3.113   0.025   7.945  0.4958 -0.4096  0.2093
 2592SOL     OW19234   0.589   4.707   2.908  0.1594  0.4251  0.0485
 2592SOL    HW119235   0.645   4.669   2.839  0.8539  2.1193 -0.3271
 2592SOL    HW219236   0.581   0.076   2.876  1.1594  1.0888  1.7129
 2593SOL     OW19237   2.813   3.231   6.421  0.7484 -0.3250  0.2067
 2593SOL    HW119238   2.798   3.325   6.413  1.7931 -0.2161 -0.3934
 2593SOL    HW219239   2.894   3.232   6.473 -0.4394 -0.9773  2.0857
 2594SOL     OW19240   2.175   0.377  15.348 -0.3677  0.1798  0.1041
 2594SOL    HW119241   2.097   0.388  15.294 -0.5613  1.7874  0.6956
 2594SOL    HW219242   2.158   0.403  15.439  0.5954 -2.5154  1.0718
 2595SOL     OW19243   1.705   3.230  15.599  0.6987  0.3329  0.5374
 2595SOL    HW119244   1.750   3.298  15.549  0.0593  0.4180  0.0653
 2595SOL    HW219245   1.633   3.218  15.536 -0.2543 -3.1597  2.3078
 2596SOL     OW19246   2.281   2.467  11.325 -0.0901  0.2387  0.3007
 2596SOL    HW119247   2.320   2.424  11.249  0.8523 -1.1860  1.5943
 2596SOL    HW219248   2.362   2.493  11.369  0.9868 -0.0415 -1.5350
 2597SOL     OW19249   3.095   2.917   3.429 -0.5650  0.3019  0.0205
 2597SOL    HW119250   3.101   2.834   3.477 -0.6868 -0.9847 -2.1689
 2597SOL    HW219251   3.007   2.909   3.393 -0.2779 -1.8723 -0.1891
 2598SOL     OW19252   2.843   0.961   4.381  0.0997 -0.4366 -0.2745
 2598SOL    HW119253   2.764   0.993   4.424 -0.6099  1.0652 -2.7261
 2598SOL    HW219254   2.812   0.871   4.376  0.9027 -0.7976  1.2210
 2599SOL     OW19255   3.243   4.206   1.757  0.3273  0.5507  0.2702
 2599SOL    HW119256   3.164   4.235   1.710  0.6581 -1.6856 -1.6419
 2599SOL    HW219257   3.309   4.223   1.690 -0.9363  0.1107 -1.0980
 2600SOL     OW19258   2.947   0.825   1.226 -0.1653 -1.1611 -0.1360
 2600SOL    HW119259   2.912   0.861   1.308  2.4955 -0.3627  0.6369
 2600SOL    HW219260   2.897   0.876   1.161 -1.6672 -0.0894  1.8354
 2601SOL     OW19261   2.632   3.869   1.540  0.1184  0.5225 -0.0865
 2601SOL    HW119262   2.644   3.856   1.634  1.4141  0.4541 -0.2586
 2601SOL    HW219263   2.537   3.860   1.536  0.0594  1.6158 -1.1326
 2602SOL     OW19264   3.756   0.080   0.278  0.2930  0.2927 -0.4644
 2602SOL    HW119265   3.674   0.055   0.235  0.3984  0.1563 -0.5878
 2602SOL    HW219266   3.817   0.107   0.209  1.9628 -0.4730  0.7024
 2603SOL     OW19267   0.881   1.213  13.255  0.3948 -0.5600 -0.4245
 2603SOL    HW119268   0.869   1.305  13.282 -1.3819 -0.8395 -0.2994
 2603SOL    HW219269   0.871   1.211  13.160  1.8963  2.0975 -0.6519
 2604SOL     OW19270   1.781   4.656  14.221  0.5726  0.8394 -0.1310
 2604SOL    HW119271   1.806   4.629  14.133 -0.7233 -0.5811 -0.0704
 2604SOL    HW219272   1.860   4.699  14.254  0.3433  1.2575 -0.1316
 2605SOL     OW19273   2.073   0.130   6.506  0.2883  0.3294 -0.1667
 2605SOL    HW119274   2.141   0.064   6.491 -1.0693 -1.2210  0.5159
 2605SOL    HW219275   2.110   0.179   6.579 -0.0742  1.8249 -0.9988
 2606SOL     OW19276   1.112   0.953   4.781  0.9048 -0.0431 -0.8190
 2606SOL    HW119277   1.198   0.963   4.821  0.9942  0.0498 -1.0383
 2606SOL    HW219278   1.076   1.042   4.780  2.5371  0.6596  2.1842
 2607SOL     OW19279   2.667   3.853  13.028  0.3455  0.1791  0.9943
 2607SOL    HW119280   2.692   3.832  12.938 -2.1135 -1.5752  0.7263
 2607SOL    HW219281   2.724   3.929  13.041 -0.7492  1.4947 -1.9829
 2608SOL     OW19282   3.635   4.421   1.898 -0.2316 -0.4580  0.3806
 2608SOL    HW119283   3.682   4.402   1.817  0.1311  0.4339  0.3920
 2608SOL    HW219284   3.588   4.340   1.920 -3.4150  1.0366 -0.8253
 2609SOL     OW19285   2.092   2.252   2.840  0.2292 -0.4076 -0.0869
 2609SOL    HW119286   2.186   2.265   2.846  0.1853 -0.6560  1.0079
 2609SOL    HW219287   2.061   2.255   2.930  3.2074  1.0140  0.8861
 2610SOL     OW19288   0.026   0.274  12.332 -0.4659  0.1212  0.4701
 2610SOL    HW119289   0.067   0.315  12.256  1.1139 -0.7946  0.8432
 2610SOL    HW219290   0.088   0.302  12.399  0.0729  2.7809 -1.1472
 2611SOL     OW19291   1.959   4.386   7.764 -0.1183  0.0304  0.1218
 2611SOL    HW119292   1.979   4.310   7.819  1.1391  0.3984  0.1593
 2611SOL    HW219293   1.940   4.343   7.680 -1.0698  1.7861 -0.5507
 2612SOL     OW19294   3.449   2.995  10.957  0.3374 -0.4491 -0.2161
 2612SOL    HW119295   3.417   3.060  10.894  0.7295  1.3111  1.3912
 2612SOL    HW219296   3.519   3.043  11.001 -1.5378  2.4187 -0.3278
 2613SOL     OW19297   0.970   3.985  15.213  0.1356  0.3154 -0.3685
 2613SOL    HW119298   0.947   4.075  15.188 -2.1530 -0.3841 -0.7361
 2613SOL    HW219299   1.053   3.967  15.169 -0.4384 -1.5727 -0.6834
 2614SOL     OW19300   1.388   1.535   7.663  0.5998  0.1698  0.1553
 2614SOL    HW119301   1.421   1.567   7.579 -1.7270 -2.4559 -1.7563
 2614SOL    HW219302   1.345   1.616   7.689 -1.1469 -0.2989 -1.2568
 2615SOL     OW19303   4.022   0.368   5.234  0.3752 -0.5127 -0.0029
 2615SOL    HW119304   4.005   0.445   5.288 -0.5053 -0.3689 -0.4979
 2615SOL    HW219305   4.016   0.301   5.302  1.7675  0.7116  1.3284
 2616SOL     OW19306   3.305   0.890  10.420  0.1934 -0.0688  0.7466
 2616SOL    HW119307   3.217   0.905  10.454 -1.2738 -1.1819 -2.5855
 2616SOL    HW219308   3.352   0.912  10.501  3.2776 -0.0640 -1.0372
 2617SOL     OW19309   4.162   0.910  13.215  0.1671  0.2637 -0.0360
 2617SOL    HW119310   4.184   1.002  13.206  3.4647 -0.5499 -0.5431
 2617SOL    HW219311   4.118   0.903  13.130  2.1481  0.5825 -1.0958
 2618SOL     OW19312   1.631   1.915  11.869  0.4917 -0.1306  0.1175
 2618SOL    HW119313   1.660   1.939  11.781 -1.2831 -0.4842 -0.5787
 2618SOL    HW219314   1.695   1.848  11.892  0.8416  0.5113  1.0007
 2619SOL     OW19315   0.120   4.429   7.875 -0.2309 -0.9084  0.0234
 2619SOL    HW119316   0.133   4.336   7.896  1.5296 -0.9501 -1.2467
 2619SOL    HW219317   0.084   4.463   7.957 -2.4371 -2.5542 -0.2671
 2620SOL     OW19318   1.051   2.482   6.271  0.1749 -0.1646 -0.3238
 2620SOL    HW119319   1.062   2.497   6.364 -1.2895  0.5938 -0.2798
 2620SOL    HW219320   1.125   2.532   6.237 -0.6093  1.5636  0.5198
 2621SOL     OW19321   0.923   0.993  17.268  0.5036  0.1035 -0.0925
 2621SOL    HW119322   0.857   1.002  17.199  0.5910 -0.1542 -0.2120
 2621SOL    HW219323   0.903   1.066  17.326  0.1950  1.8991 -2.4489
 2622SOL     OW19324   0.016   4.662   4.375 -0.3544  0.4939 -0.2031
 2622SOL    HW119325   4.662   4.620   4.332  2.1153 -1.5081 -2.4455
 2622SOL    HW219326   0.029   4.599   4.447  0.6919 -0.8147 -1.5551
 2623SOL     OW19327   2.287   1.396   6.679 -0.2433  0.2717  0.5126
 2623SOL    HW119328   2.316   1.442   6.758  0.5161  2.7424 -1.1912
 2623SOL    HW219329   2.229   1.334   6.722 -1.2546  0.4393 -0.6210
 2624SOL     OW19330   0.221   0.434   6.749  0.0814  0.0021 -0.3099
 2624SOL    HW119331   0.272   0.510   6.720 -0.9934  0.7561 -0.1967
 2624SOL    HW219332   0.270   0.362   6.709 -1.7081 -0.0854 -2.3348
 2625SOL     OW19333   0.322   2.314   0.598 -0.0471  0.1718 -0.4772
 2625SOL    HW119334   0.301   2.402   0.629 -0.3757 -0.6973  1.7630
 2625SOL    HW219335   0.241   2.263   0.593 -0.3393  0.6209 -0.2723
 2626SOL     OW19336   0.914   0.705  15.056  0.4991 -0.2601  0.4624
 2626SOL    HW119337   0.825   0.706  15.020  0.4159 -0.5409  0.6655
 2626SOL    HW219338   0.957   0.715  14.971 -0.4433  0.2288  0.0424
 2627SOL     OW19339   1.508   0.880   4.288 -0.3683 -0.0138 -0.0162
 2627SOL    HW119340   1.456   0.856   4.212 -2.3071  0.7319  1.0589
 2627SOL    HW219341   1.466   0.836   4.362  2.7501 -0.8685  1.2419
 2628SOL     OW19342   3.590   0.050   7.946 -0.2236  0.2654  0.2871
 2628SOL    HW119343   3.596   0.138   7.982 -0.7143  0.6946 -0.6853
 2628SOL    HW219344   3.632   4.718   8.014 -1.4148 -2.3085 -0.9293
 2629SOL     OW19345   1.383   0.483  13.919  0.5363  0.1182  0.1728
 2629SOL    HW119346   1.464   0.438  13.941  0.7206  1.9921  3.2586
 2629SOL    HW219347   1.317   0.430  13.964 -0.3656  0.9731 -0.1198
 2630SOL     OW19348   0.742   0.229   4.239 -0.4054  0.8360 -0.4226
 2630SOL    HW119349   0.806   0.289   4.277  1.5032  0.0906 -2.4663
 2630SOL    HW219350   0.660   0.243   4.286 -1.3362 -0.5070 -1.6405
 2631SOL     OW19351   3.293   2.148   7.198  0.5545  0.5798 -0.7118
 2631SOL    HW119352   3.363   2.100   7.153  1.4198 -0.3005  1.5738
 2631SOL    HW219353   3.341   2.231   7.202  0.2734  0.6635  1.0171
 2632SOL     OW19354   2.618   1.727  17.267 -0.3762 -0.0506 -0.0792
 2632SOL    HW119355   2.659   1.783  17.333  0.4023 -2.8198  1.7717
 2632SOL    HW219356   2.543   1.702  17.320 -2.0491 -1.3350 -3.0280
 2633SOL     OW19357   4.064   1.666   4.084  0.0610  0.3424  0.3809
 2633SOL    HW119358   4.120   1.592   4.061  1.4977  1.1617  1.2088
 2633SOL    HW219359   4.089   1.735   4.023  0.6760 -0.9923 -0.8790
 2634SOL     OW19360   4.315   1.892  11.900 -0.4047  0.1488  0.4852
 2634SOL    HW119361   4.366   1.814  11.877  0.0225  0.2566  1.0773
 2634SOL    HW219362   4.291   1.913  11.809 -0.3499  0.4060  0.5303
 2635SOL     OW19363   1.827   1.377   7.308 -0.0851  0.3250 -0.1122
 2635SOL    HW119364   1.800   1.296   7.351 -0.8400  1.0954  0.8473
 2635SOL    HW219365   1.907   1.399   7.357  2.2291 -1.9006 -2.9419
 2636SOL     OW19366   1.861   0.674   6.169  0.2484  0.4757 -0.3176
 2636SOL    HW119367   1.953   0.651   6.161  0.3147  1.3056 -1.8564
 2636SOL    HW219368   1.845   0.735   6.097 -0.9663 -0.3348 -0.7308
 2637SOL     OW19369   2.758   2.915   5.162 -0.2996 -0.0003  0.3769
 2637SOL    HW119370   2.667   2.886   5.156 -0.0806 -0.6266  0.0355
 2637SOL    HW219371   2.749   3.002   5.123 -1.3028 -0.1312  0.3180
 2638SOL     OW19372   1.372   2.102   0.702  0.4060 -0.0500  0.1696
 2638SOL    HW119373   1.300   2.046   0.730 -0.3905  0.3748 -0.9913
 2638SOL    HW219374   1.442   2.070   0.759  0.3859  1.3454  0.9848
 2639SOL     OW19375   1.362   2.465  10.759  0.4524  0.1516 -0.6733
 2639SOL    HW119376   1.417   2.387  10.751  1.0822  0.7496 -2.1780
 2639SOL    HW219377   1.432   2.529  10.771 -0.0963  0.6099  0.0630
 2640SOL     OW19378   4.061   2.229   1.926 -0.2115  0.0009  0.0746
 2640SOL    HW119379   4.037   2.215   1.834 -2.2458  0.7838  0.4884
 2640SOL    HW219380   4.133   2.167   1.932  0.8861  0.8372 -4.1916
 2641SOL     OW19381   2.267   2.956   1.932 -0.4022 -0.2312 -0.1815
 2641SOL    HW119382   2.351   2.967   1.888 -0.6818  0.3370 -0.5622
 2641SOL    HW219383   2.281   2.863   1.950 -0.7164  0.1715  2.1905
 2642SOL     OW19384   4.021   2.052   4.278 -0.4880 -0.4002 -0.3448
 2642SOL    HW119385   4.024   2.098   4.362  0.1199 -0.8159 -0.1372
 2642SOL    HW219386   3.989   2.110   4.209  1.3383  0.6937 -0.2797
 2643SOL     OW19387   2.562   1.302   8.660 -0.2932 -0.1035 -0.2461
 2643SOL    HW119388   2.466   1.295   8.657 -0.3892  2.1595 -1.9988
 2643SOL    HW219389   2.568   1.265   8.748 -1.8270  1.0587  0.3607
 2644SOL     OW19390   2.461   2.216   5.249 -0.1362 -0.3463 -0.1438
 2644SOL    HW119391   2.393   2.183   5.308 -1.2719  0.9132 -0.7441
 2644SOL    HW219392   2.483   2.132   5.209 -0.6188  0.8431 -2.9459
 2645SOL     OW19393   1.835   2.354   6.267  0.0227 -0.4185  0.4742
 2645SOL    HW119394   1.812   2.351   6.360  1.5349  0.6743  0.8918
 2645SOL    HW219395   1.918   2.308   6.258  0.6830  0.8195  0.1654
 2646SOL     OW19396   2.486   3.478  12.336  0.0695  0.4664 -0.2725
 2646SOL    HW119397   2.576   3.445  12.330  0.4773  1.5244  0.0772
 2646SOL    HW219398   2.456   3.475  12.245 -0.7723 -0.5743  0.0461
 2647SOL     OW19399   1.620   1.638   4.323  0.6486 -0.6594 -0.4957
 2647SOL    HW119400   1.709   1.672   4.311  0.4048 -0.3731 -1.4818
 2647SOL    HW219401   1.643   1.557   4.370  1.6479 -0.6620 -0.9726
 2648SOL     OW19402   2.198   2.523   9.899  0.0074 -0.4910  0.1358
 2648SOL    HW119403   2.218   2.444   9.849  0.5845 -1.6425  2.1496
 2648SOL    HW219404   2.184   2.488   9.988  1.4297 -0.1373  0.5116
 2649SOL     OW19405   1.218   4.361   7.475 -0.0931  0.1944  0.0881
 2649SOL    HW119406   1.133   4.318   7.477  0.6758 -1.4154 -1.4461
 2649SOL    HW219407   1.251   4.341   7.562  2.8615  0.2628 -1.0152
 2650SOL     OW19408   1.097   1.087   1.917 -0.0913 -0.0719 -0.0025
 2650SOL    HW119409   1.053   1.041   1.989 -2.1274  1.4134 -0.2997
 2650SOL    HW219410   1.069   1.176   1.939 -0.5622 -0.3829  0.6641
 2651SOL     OW19411   0.425   1.349   2.625  0.0536  0.1013 -0.1528
 2651SOL    HW119412   0.409   1.254   2.621  1.1127 -0.1208  0.7567
 2651SOL    HW219413   0.352   1.367   2.683 -0.6021 -3.8712  0.2725
 2652SOL     OW19414   2.178   3.700   3.716 -0.0146 -0.0878 -1.0810
 2652SOL    HW119415   2.181   3.702   3.620  0.3405  1.0016 -1.0393
 2652SOL    HW219416   2.257   3.747   3.741  0.7479 -1.1522 -1.4865
 2653SOL     OW19417   4.313   0.262   6.390  0.1589  0.6949 -0.3263
 2653SOL    HW119418   4.288   0.329   6.327  0.2486  0.8118 -0.2384
 2653SOL    HW219419   4.226   0.247   6.427  0.2657  0.0951 -0.3242
 2654SOL     OW19420   2.075   2.595   3.438  0.0717 -0.2790  0.0123
 2654SOL    HW119421   2.035   2.682   3.442 -1.6790 -1.0005 -1.8229
 2654SOL    HW219422   2.091   2.584   3.345 -0.0901  1.9817 -0.2759
 2655SOL     OW19423   2.154   2.995   4.413 -0.1668  0.5642  0.1403
 2655SOL    HW119424   2.149   3.049   4.335  0.7125  2.2440  1.2470
 2655SOL    HW219425   2.248   3.007   4.429 -0.2886 -0.4033  1.6486
 2656SOL     OW19426   4.272   2.788   7.210 -0.3418 -0.4908 -0.0555
 2656SOL    HW119427   4.246   2.870   7.252 -0.4027 -0.2110 -0.6440
 2656SOL    HW219428   4.247   2.805   7.119  1.3640 -0.5143 -0.5351
 2657SOL     OW19429   0.134   0.821  16.504  0.6608 -0.0775  0.4449
 2657SOL    HW119430   0.211   0.800  16.557  0.8925 -0.5398 -0.0788
 2657SOL    HW219431   0.128   0.912  16.531  0.4798 -0.0804  0.4142
 2658SOL     OW19432   1.689   4.269   5.395  0.0645  0.1510  0.2137
 2658SOL    HW119433   1.745   4.216   5.452  2.1718  0.4238 -1.6049
 2658SOL    HW219434   1.660   4.331   5.462 -0.1858  0.3882 -0.1142
 2659SOL     OW19435   3.945   4.011   3.226  0.6024 -0.4635  0.1685
 2659SOL    HW119436   3.903   3.996   3.142  0.4492  1.1319 -0.0351
 2659SOL    HW219437   4.012   3.944   3.212 -0.0968 -1.1350  0.0568
 2660SOL     OW19438   0.367   3.000   2.657  0.5527 -0.2728 -0.4305
 2660SOL    HW119439   0.443   2.976   2.605 -0.4229 -0.7796 -1.6314
 2660SOL    HW219440   0.300   3.002   2.588 -0.3720  0.6179  0.4971
 2661SOL     OW19441   4.707   1.775   7.944 -1.0192 -0.2949 -0.4012
 2661SOL    HW119442   0.050   1.846   7.950 -0.7702 -0.3567 -2.1737
 2661SOL    HW219443   4.679   1.768   8.035  1.6987  1.6355  0.5612
 2662SOL     OW19444   1.547   1.775   2.976  0.0247 -0.6115 -1.0082
 2662SOL    HW119445   1.474   1.835   2.990  1.2980  0.0405  2.7104
 2662SOL    HW219446   1.539   1.708   3.044  2.2221  0.7389  0.5552
 2663SOL     OW19447   2.588   1.613   5.978  0.2257 -0.2857 -0.1473
 2663SOL    HW119448   2.550   1.624   5.890  0.0208  5.2300  0.6089
 2663SOL    HW219449   2.534   1.537   6.002 -1.9691  0.9766 -1.0195
 2664SOL     OW19450   3.945   1.931   5.596  0.1779 -0.2020  0.2945
 2664SOL    HW119451   3.999   1.867   5.550  0.7175  0.7094 -0.3340
 2664SOL    HW219452   3.952   1.887   5.681 -0.4570 -1.5440 -0.3455
 2665SOL     OW19453   1.912   0.050   4.421  0.0766 -0.4976 -0.6287
 2665SOL    HW119454   1.970   0.124   4.435 -0.5917  0.1997 -1.5782
 2665SOL    HW219455   1.851   0.087   4.358  0.1970 -1.2602 -1.1945
 2666SOL     OW19456   1.920   1.179   7.061 -1.0604 -0.1165  0.0470
 2666SOL    HW119457   1.830   1.202   7.086 -1.2857 -2.0677  0.9762
 2666SOL    HW219458   1.919   1.091   7.098  1.0517 -0.7238 -1.3126
 2667SOL     OW19459   2.159   3.712   9.545 -0.4641 -0.4938 -0.5054
 2667SOL    HW119460   2.206   3.719   9.629 -0.7955 -0.1744 -0.3474
 2667SOL    HW219461   2.094   3.779   9.568  0.0427  0.0805 -0.7586
 2668SOL     OW19462   4.003   2.197   3.999  0.4565  0.0478  0.0505
 2668SOL    HW119463   4.041   2.278   4.032 -0.5956  1.5495 -2.4588
 2668SOL    HW219464   3.941   2.224   3.931 -1.4849 -3.6612  0.3385
 2669SOL     OW19465   4.396   2.281   7.869 -0.5287 -0.3233 -0.7921
 2669SOL    HW119466   4.308   2.303   7.839 -1.2689 -0.7348  1.1262
 2669SOL    HW219467   4.371   2.272   7.961  1.1507  1.1186 -0.1772
 2670SOL     OW19468   2.272   0.509   7.915 -0.1916 -0.1400  0.0540
 2670SOL    HW119469   2.327   0.576   7.957  1.1922 -1.2368 -0.0334
 2670SOL    HW219470   2.192   0.500   7.967  0.5913 -0.3007  1.2445
 2671SOL     OW19471   3.786   0.417   2.752  0.3326  0.5862 -0.2049
 2671SOL    HW119472   3.873   0.440   2.718  0.1031  1.1649 -0.3961
 2671SOL    HW219473   3.759   0.366   2.675  0.7714  0.9518 -0.6060
 2672SOL     OW19474   0.937   2.166   5.694 -0.5336 -0.0187  0.3938
 2672SOL    HW119475   1.028   2.141   5.707 -0.6711 -1.9664 -2.2943
 2672SOL    HW219476   0.904   2.164   5.784  0.1845  0.8429  0.6743
 2673SOL     OW19477   4.303   3.660   7.891 -0.5850  0.2187  0.1105
 2673SOL    HW119478   4.215   3.644   7.926 -0.8501  0.7276 -0.3283
 2673SOL    HW219479   4.285   3.718   7.817  1.0857  0.8149  0.1740
 2674SOL     OW19480   2.071   2.887   6.410 -0.2702 -0.4319  0.4258
 2674SOL    HW119481   2.071   2.834   6.489 -0.3757 -0.6490  0.2780
 2674SOL    HW219482   2.164   2.891   6.386 -0.7306  1.4852 -1.0257
 2675SOL     OW19483   2.642   4.158   9.039  0.5160 -0.4454  0.1280
 2675SOL    HW119484   2.645   4.066   9.010  0.5919 -0.4524  0.1576
 2675SOL    HW219485   2.704   4.189   8.973  0.5670  0.5002  0.6300
 2676SOL     OW19486   2.806   0.491   4.529  0.4560 -0.0071 -0.9163
 2676SOL    HW119487   2.893   0.532   4.529  0.1277  0.6887  0.0475
 2676SOL    HW219488   2.836   0.402   4.550  0.1883 -0.4050 -2.2701
 2677SOL     OW19489   0.023   2.735   1.981 -0.5283 -0.4686  0.7587
 2677SOL    HW119490   0.068   2.652   1.965  0.3176  0.5030 -1.9462
 2677SOL    HW219491   4.664   2.715   2.030 -0.4040 -0.4341  0.9769
 2678SOL     OW19492   1.401   2.238   4.825  0.2111  0.1925 -0.0897
 2678SOL    HW119493   1.462   2.164   4.831 -2.1966 -1.5974  2.2839
 2678SOL    HW219494   1.366   2.227   4.737  0.3045 -2.7501  0.2466
 2679SOL     OW19495   2.675   0.393   8.782 -0.4637 -0.0322 -0.3830
 2679SOL    HW119496   2.667   0.357   8.693 -0.2122  3.5101 -1.8410
 2679SOL    HW219497   2.599   0.452   8.775  2.4903  3.7424 -0.6202
 2680SOL     OW19498   3.316   3.678   5.810  0.1066 -0.7299 -0.1024
 2680SOL    HW119499   3.286   3.769   5.808 -0.6401 -0.9943 -0.7257
 2680SOL    HW219500   3.404   3.669   5.773 -0.6128  0.3094 -2.0582
 2681SOL     OW19501   4.168   4.107   2.594  0.1354  0.0893  0.4963
 2681SOL    HW119502   4.095   4.115   2.532  0.9157  2.8245 -0.0791
 2681SOL    HW219503   4.142   4.171   2.660 -0.4135  1.1836 -0.7653
 2682SOL     OW19504   0.460   2.627   5.638 -0.7171  0.3629 -0.0643
 2682SOL    HW119505   0.504   2.658   5.717 -0.6989 -0.2405  0.1617
 2682SOL    HW219506   0.536   2.618   5.581  0.9044  1.4420  1.9523
 2683SOL     OW19507   1.800   4.138   4.449 -0.2324  0.0499 -0.5280
 2683SOL    HW119508   1.895   4.147   4.461 -0.1406 -0.5112 -0.8215
 2683SOL    HW219509   1.766   4.109   4.534  0.1154 -1.4689 -0.8998
 2684SOL     OW19510   0.406   3.583   2.127  0.2893 -0.5221 -0.0983
 2684SOL    HW119511   0.330   3.525   2.128  0.9516 -1.3944 -0.7081
 2684SOL    HW219512   0.445   3.563   2.212  2.1066 -3.5549 -1.6181
 2685SOL     OW19513   4.158   1.864   6.789  0.3470 -0.0707  0.3334
 2685SOL    HW119514   4.198   1.925   6.727 -1.1241  0.4573 -0.1137
 2685SOL    HW219515   4.206   1.889   6.867 -0.0921  3.0612 -0.4064
 2686SOL     OW19516   3.351   4.175   3.671 -0.2957  0.4687  0.0246
 2686SOL    HW119517   3.438   4.144   3.645  0.2743  0.2219  2.2197
 2686SOL    HW219518   3.317   4.115   3.738  1.6065  1.0466  1.4962
 2687SOL     OW19519   3.861   0.192   1.503  0.3012  0.0157  0.0092
 2687SOL    HW119520   3.943   0.210   1.457 -0.2248 -0.7423 -1.2028
 2687SOL    HW219521   3.877   0.229   1.590 -0.7639 -0.6207  0.4857
 2688SOL     OW19522   2.936   0.351  17.668  0.6129 -0.2477  0.1553
 2688SOL    HW119523   2.956   0.270  17.621  0.1801 -0.0486 -0.3695
 2688SOL    HW219524   2.923   0.322   0.074 -0.1451 -0.4598 -0.0224
 2689SOL     OW19525   1.851   4.228   6.004  0.0141  0.4070  0.0375
 2689SOL    HW119526   1.792   4.264   6.070  2.0280  1.3612  1.3109
 2689SOL    HW219527   1.808   4.268   5.929  1.3737  0.6330 -0.6312
 2690SOL     OW19528   4.598   2.729   9.771  0.1507  0.0819 -0.0470
 2690SOL    HW119529   4.679   2.752   9.726 -0.7316  2.5055 -0.4228
 2690SOL    HW219530   4.544   2.687   9.704  1.5460  1.6432 -2.1405
 2691SOL     OW19531   0.749   2.779   9.108 -0.1962  0.0430 -0.1090
 2691SOL    HW119532   0.715   2.751   9.194 -0.6297  0.8409 -0.0255
 2691SOL    HW219533   0.828   2.725   9.095  0.5854  0.7336  1.7552
 2692SOL     OW19534   3.165   0.823  13.673 -0.6143  0.6230  0.3215
 2692SOL    HW119535   3.241   0.791  13.722 -0.7379  2.2073  1.5622
 2692SOL    HW219536   3.128   0.740  13.643 -2.6504  1.9613 -0.8868
 2693SOL     OW19537   3.658   1.344   2.623 -0.4575 -0.7023 -0.3008
 2693SOL    HW119538   3.677   1.343   2.530 -0.2927  1.3243 -0.2973
 2693SOL    HW219539   3.697   1.428   2.648  0.3931 -1.2884  0.3248
 2694SOL     OW19540   2.029   0.320   5.235 -0.0858  0.1471  0.3555
 2694SOL    HW119541   2.068   0.243   5.276 -0.5208  0.5162  1.4716
 2694SOL    HW219542   2.052   0.298   5.145  2.3571  2.2030  0.4877
 2695SOL     OW19543   4.104   0.901   3.568 -0.2113  0.0041 -0.1778
 2695SOL    HW119544   4.111   0.995   3.586 -0.3612  0.4468 -2.4633
 2695SOL    HW219545   4.046   0.910   3.493 -0.7419 -0.7673  0.1381
 2696SOL     OW19546   3.851   1.135   1.390  0.4611  0.9706 -0.2281
 2696SOL    HW119547   3.911   1.198   1.348  1.0477  0.6149  0.0809
 2696SOL    HW219548   3.877   1.055   1.345  1.2032  2.5569 -2.6770
 2697SOL     OW19549   4.213   0.543   3.559 -0.1966  0.2925  0.4702
 2697SOL    HW119550   4.182   0.453   3.549 -1.3625  0.9277 -1.6291
 2697SOL    HW219551   4.307   0.545   3.581  0.0519 -0.4732 -0.5245
 2698SOL     OW19552   4.303   1.688   2.204  0.3233  0.2533  0.3670
 2698SOL    HW119553   4.327   1.631   2.277 -0.1124  0.2971  0.5507
 2698SOL    HW219554   4.311   1.775   2.244  0.8275 -0.4078  1.6858
 2699SOL     OW19555   4.640   0.166  12.548 -0.1301  0.2336  0.3802
 2699SOL    HW119556   4.657   0.213  12.466  1.0107 -0.2400  0.3456
 2699SOL    HW219557   4.657   0.231  12.616 -1.4616  0.9191  0.0622
 2700SOL     OW19558   2.368   4.450   6.583  0.6541 -0.3360  1.0663
 2700SOL    HW119559   2.304   4.442   6.512 -0.9276  0.5886  2.3760
 2700SOL    HW219560   2.320   4.495   6.653  1.6848 -0.3444  1.7684
 2701SOL     OW19561   3.766   1.035  10.380  0.1141 -0.1616 -0.4112
 2701SOL    HW119562   3.853   0.995  10.383  0.3623  0.5459  1.5902
 2701SOL    HW219563   3.755   1.069  10.291  2.0568  0.7037 -0.3253
 2702SOL     OW19564   0.336   0.973   7.784 -0.2090 -0.5723 -0.0931
 2702SOL    HW119565   0.401   1.023   7.734  1.6697 -1.2745  1.6902
 2702SOL    HW219566   0.389   0.912   7.835 -0.7699 -0.6189  0.4233
 2703SOL     OW19567   3.183   2.413   0.090 -0.0862 -0.0235 -0.1163
 2703SOL    HW119568   3.276   2.435   0.085  0.2247 -1.5810 -1.1340
 2703SOL    HW219569   3.168   2.453   0.176 -0.0059  1.3680 -0.7500
 2704SOL     OW19570   1.459   1.546   6.545 -0.3982 -0.0786  0.5299
 2704SOL    HW119571   1.472   1.639   6.524  1.2327 -0.1552  1.2020
 2704SOL    HW219572   1.509   1.525   6.624 -0.9306 -1.6221  0.4447
 2705SOL     OW19573   3.086   0.382   1.066 -0.3549 -0.7955 -0.1003
 2705SOL    HW119574   3.084   0.477   1.050 -1.2011 -1.0739 -1.6036
 2705SOL    HW219575   3.150   0.371   1.137  3.0182  0.2268 -2.9259
 2706SOL     OW19576   0.954   0.166   5.436  0.3269  0.1816  0.2184
 2706SOL    HW119577   0.936   0.120   5.354  0.2095 -0.7586  0.7708
 2706SOL    HW219578   1.030   0.220   5.415  0.3829  0.6507  1.6143
 2707SOL     OW19579   3.876   0.526   1.830 -0.2505  0.1747 -0.4479
 2707SOL    HW119580   3.917   0.509   1.914  2.0777 -0.1058 -1.6598
 2707SOL    HW219581   3.906   0.617   1.821  0.8605 -0.1841 -0.2984
 2708SOL     OW19582   0.529   1.173   8.366  0.1700 -0.0069 -0.1306
 2708SOL    HW119583   0.586   1.241   8.331  0.9459  0.3974  1.9056
 2708SOL    HW219584   0.463   1.164   8.298 -0.8895  0.8955  0.7807
 2709SOL     OW19585   3.742   4.277  16.141  0.0319 -0.7146  0.1141
 2709SOL    HW119586   3.728   4.366  16.173  0.2389 -1.5819  2.5531
 2709SOL    HW219587   3.828   4.260  16.179  0.2685  0.3894  0.0929
 2710SOL     OW19588   1.356   1.207  14.344  0.4720 -0.6637  0.0321
 2710SOL    HW119589   1.293   1.140  14.368  1.1088 -1.0520  0.6291
 2710SOL    HW219590   1.322   1.286  14.386 -1.1828 -2.1369  1.4037
 2711SOL     OW19591   0.086   3.981   3.470 -0.3978 -0.2034  0.1705
 2711SOL    HW119592   0.057   3.924   3.398 -2.6982 -0.5643  1.4169
 2711SOL    HW219593   0.107   3.917   3.538 -2.2161  0.4727  1.3313
 2712SOL     OW19594   2.612   1.934   9.357 -0.1871  0.0148 -0.1843
 2712SOL    HW119595   2.673   1.894   9.295  1.3010  0.3499  1.0864
 2712SOL    HW219596   2.677   1.944   9.426  0.9113  1.3026 -1.4086
 2713SOL     OW19597   1.273   2.236   3.568 -0.2522  0.5271 -0.1070
 2713SOL    HW119598   1.342   2.241   3.635 -2.5553  0.6597  2.2357
 2713SOL    HW219599   1.306   2.161   3.520 -0.9434 -0.9031  1.6566
 2714SOL     OW19600   1.850   4.143  14.076  0.0093  0.2999 -0.0419
 2714SOL    HW119601   1.755   4.136  14.082  0.4794 -3.2066  3.2695
 2714SOL    HW219602   1.871   4.229  14.113  1.2442  1.7162 -4.0552
 2715SOL     OW19603   3.801   2.463   8.446  0.0005  0.4886 -0.0611
 2715SOL    HW119604   3.856   2.495   8.518  0.4342 -0.8548  0.1995
 2715SOL    HW219605   3.753   2.541   8.418 -0.7624  0.7498  1.9977
 2716SOL     OW19606   3.670   0.951   7.190  0.0009  0.7877 -0.0025
 2716SOL    HW119607   3.753   0.959   7.237  0.4417 -2.0375 -0.3058
 2716SOL    HW219608   3.692   0.941   7.098  1.3767  1.3662  0.2669
 2717SOL     OW19609   3.922   1.830   8.278  0.0893  0.5893 -0.1038
 2717SOL    HW119610   3.939   1.855   8.369 -0.5027  0.2974  0.0853
 2717SOL    HW219611   3.829   1.809   8.279  0.6070 -1.5734  1.5619
 2718SOL     OW19612   4.521   2.583   2.413 -0.6188  0.2593  0.6854
 2718SOL    HW119613   4.615   2.594   2.427 -0.4017  0.2557 -0.7886
 2718SOL    HW219614   4.508   2.670   2.376 -1.4767  0.2522  0.9530
 2719SOL     OW19615   1.738   4.538   3.700 -0.5591 -0.1931  0.4542
 2719SOL    HW119616   1.710   4.629   3.693  0.8671  0.2448  0.4474
 2719SOL    HW219617   1.832   4.550   3.691 -0.7505  1.7097  1.0317
 2720SOL     OW19618   1.977   4.130   4.113  0.6734 -0.8192  0.1035
 2720SOL    HW119619   1.910   4.106   4.177  2.4685  3.1542  3.4257
 2720SOL    HW219620   1.944   4.215   4.084  1.4956 -0.8695 -0.9553
 2721SOL     OW19621   1.197   1.021  12.675 -0.5978 -0.0061 -0.2717
 2721SOL    HW119622   1.282   1.056  12.700  0.2572 -2.8085  0.7667
 2721SOL    HW219623   1.219   0.954  12.611 -2.2862  1.0398 -1.9584
 2722SOL     OW19624   0.032   4.713  15.046 -0.1708  0.3139  0.1941
 2722SOL    HW119625   4.713   4.626  15.039  0.3725 -0.1211  2.3713
 2722SOL    HW219626   0.045   4.706  15.141 -0.3570  1.8430  0.3409
 2723SOL     OW19627   4.224   1.224   7.625  0.0355 -0.7806  0.1277
 2723SOL    HW119628   4.298   1.169   7.600  1.0186  0.2593  0.7085
 2723SOL    HW219629   4.265   1.299   7.670 -1.3105  0.3262 -0.4957
 2724SOL     OW19630   1.940   1.370   0.952 -0.4758 -0.0035  0.5666
 2724SOL    HW119631   1.858   1.329   0.979 -0.8466  0.5224  0.2198
 2724SOL    HW219632   1.946   1.448   1.008 -1.5731  0.4891 -0.0164
 2725SOL     OW19633   2.407   1.400  14.579 -0.3530 -0.4459 -0.3050
 2725SOL    HW119634   2.501   1.412  14.590 -0.5030  1.3598 -0.9203
 2725SOL    HW219635   2.395   1.431  14.489 -1.3933 -1.9904 -0.6966
 2726SOL     OW19636   3.605   4.544   4.452  0.1719  0.2816 -0.0762
 2726SOL    HW119637   3.659   4.464   4.454 -1.1143 -0.5835  0.1008
 2726SOL    HW219638   3.573   4.553   4.542 -0.1597  2.6232 -0.4495
 2727SOL     OW19639   4.080   4.364   8.264  0.3236 -0.0189 -0.2827
 2727SOL    HW119640   4.162   4.408   8.245  0.7975 -0.9326 -0.3702
 2727SOL    HW219641   4.098   4.274   8.236 -3.0009 -0.4048 -1.1913
 2728SOL     OW19642   1.192   2.817  11.615 -0.3040 -0.3193  0.0472
 2728SOL    HW119643   1.219   2.907  11.634 -2.6649  0.0570  1.5687
 2728SOL    HW219644   1.259   2.762  11.655 -0.0018  0.1235  0.1529
 2729SOL     OW19645   3.091   3.625   3.901 -0.8859 -0.4420 -0.0166
 2729SOL    HW119646   3.099   3.700   3.843  2.8140 -0.8045  0.0226
 2729SOL    HW219647   3.094   3.669   3.986 -0.6581  1.9630 -1.2673
 2730SOL     OW19648   2.012   0.256   4.095  0.2031 -0.3334 -0.2267
 2730SOL    HW119649   2.047   0.180   4.049 -0.8122 -1.2307  0.4825
 2730SOL    HW219650   2.090   0.307   4.119  0.0029 -0.2007  0.1417
 2731SOL     OW19651   1.138   2.126   6.529  0.3797  0.8144  0.2035
 2731SOL    HW119652   1.178   2.112   6.614 -0.3900 -0.0258  0.4348
 2731SOL    HW219653   1.058   2.169   6.560 -1.0499 -0.9499 -1.0203
 2732SOL     OW19654   0.660   3.877  15.872  0.0988  0.4097 -0.1479
 2732SOL    HW119655   0.605   3.824  15.930  2.0593 -0.6973  0.7415
 2732SOL    HW219656   0.709   3.808  15.828 -1.0048 -1.7857  2.0202
 2733SOL     OW19657   2.280   4.321  10.964  0.0427 -0.0250 -0.0408
 2733SOL    HW119658   2.294   4.405  11.007 -1.0522  0.7654 -1.2296
 2733SOL    HW219659   2.209   4.295  11.022  0.4033 -2.5374 -0.7051
 2734SOL     OW19660   4.522   1.368   6.527  0.1326  0.0986  0.0773
 2734SOL    HW119661   4.569   1.312   6.590  1.6298  0.6492 -0.5358
 2734SOL    HW219662   4.596   1.376   6.467 -1.5915  1.1703 -1.8607
 2735SOL     OW19663   1.768   3.336   6.272 -0.5214  0.2876 -1.1950
 2735SOL    HW119664   1.814   3.274   6.329 -0.1541 -0.1540 -1.9683
 2735SOL    HW219665   1.695   3.286   6.236 -1.6080  1.2882 -0.3586
 2736SOL     OW19666   4.044   3.437   4.729  0.1777  0.0847  0.5409
 2736SOL    HW119667   3.959   3.407   4.697  0.1674  0.4039  0.2697
 2736SOL    HW219668   4.107   3.375   4.693 -1.3449 -0.4004 -1.2924
 2737SOL     OW19669   0.696   2.294   1.025  0.5231  0.2542 -0.0768
 2737SOL    HW119670   0.691   2.225   0.959 -1.4430 -0.2452  0.5968
 2737SOL    HW219671   0.763   2.351   0.986  2.9623 -1.3779  1.7323
 2738SOL     OW19672   2.941   1.958   0.868  0.2910 -0.5051 -0.3467
 2738SOL    HW119673   2.857   2.002   0.852  0.4600 -0.3598 -0.8258
 2738SOL    HW219674   2.933   1.885   0.807  0.4028 -0.0398 -0.9085
 2739SOL     OW19675   1.577   0.249  16.726  0.3201 -0.1035 -0.6384
 2739SOL    HW119676   1.582   0.279  16.817  0.5283  1.7182 -1.2507
 2739SOL    HW219677   1.521   0.318  16.690 -0.3402  0.0127  0.5979
 2740SOL     OW19678   4.204   0.485   3.903  0.2177  0.1702 -1.1473
 2740SOL    HW119679   4.176   0.571   3.871 -0.0235  0.6712  0.4192
 2740SOL    HW219680   4.278   0.525   3.949 -0.6752  0.5959 -0.0942
 2741SOL     OW19681   3.754   1.264   5.268 -0.0105 -0.3578 -0.3055
 2741SOL    HW119682   3.727   1.354   5.248  0.0308 -0.6657 -1.7278
 2741SOL    HW219683   3.850   1.259   5.270  0.2045  3.5823 -0.0848
 2742SOL     OW19684   1.489   1.944   4.746  0.1280 -0.8680 -0.6656
 2742SOL    HW119685   1.488   1.851   4.722 -0.9435 -0.6718 -1.3587
 2742SOL    HW219686   1.404   1.954   4.787  1.1277  0.8030  0.9872
 2743SOL     OW19687   2.189   3.026   6.198 -0.5033  0.0582  0.1208
 2743SOL    HW119688   2.192   3.109   6.149  1.3144 -0.9029 -1.3904
 2743SOL    HW219689   2.147   3.065   6.275 -1.0069 -1.9587  0.8579
 2744SOL     OW19690   4.429   1.649  17.676 -0.0383  0.0529  0.0117
 2744SOL    HW119691   4.363   1.596   0.037 -0.8876  1.7389  0.7356
 2744SOL    HW219692   4.384   1.685  17.600 -0.3391  1.5391  0.9019
 2745SOL     OW19693   3.786   0.310   0.838 -0.1482 -0.1160  0.2113
 2745SOL    HW119694   3.746   0.397   0.840 -1.4014 -0.6866  0.2170
 2745SOL    HW219695   3.812   0.292   0.929  2.5495 -0.2430 -0.5831
 2746SOL     OW19696   3.095   4.584   2.454  0.0236  0.6546  0.4121
 2746SOL    HW119697   3.155   4.561   2.384  2.0598 -2.3956  3.1585
 2746SOL    HW219698   3.062   4.501   2.487 -1.0488  0.5116 -1.0214
 2747SOL     OW19699   3.857   0.039  12.586  0.3253  0.3660 -0.1825
 2747SOL    HW119700   3.828   0.127  12.564 -0.5380  0.0936 -0.1552
 2747SOL    HW219701   3.947   0.055  12.614  0.7334 -0.4580 -1.0043
 2748SOL     OW19702   4.075   0.157   7.102 -0.3212  0.0418  0.0177
 2748SOL    HW119703   4.048   0.219   7.170 -0.3590  0.4216 -0.3469
 2748SOL    HW219704   4.170   0.149   7.113  0.0761  2.4763 -1.6419
 2749SOL     OW19705   4.477   1.333   5.713  0.3263  0.4368 -0.2977
 2749SOL    HW119706   4.532   1.388   5.656  1.6615 -2.7901 -2.1033
 2749SOL    HW219707   4.531   1.322   5.791  0.9157 -1.4481 -0.9818
 2750SOL     OW19708   0.936   3.554   6.448 -0.1315 -0.9005 -0.8528
 2750SOL    HW119709   1.025   3.562   6.483  0.0068  1.8621 -1.8231
 2750SOL    HW219710   0.898   3.511   6.525  0.0234  2.3039  1.0395
 2751SOL     OW19711   1.782   1.365  15.599  0.7019 -0.2772 -1.0559
 2751SOL    HW119712   1.780   1.275  15.633 -0.2224  0.7013  1.4910
 2751SOL    HW219713   1.836   1.353  15.521  0.9965  0.7131 -0.9967
 2752SOL     OW19714   3.909   3.798   4.173  0.3742 -0.4158  0.4643
 2752SOL    HW119715   3.897   3.834   4.262 -0.7562  1.8946 -0.6161
 2752SOL    HW219716   3.821   3.819   4.143  1.4399  1.0016 -1.6502
 2753SOL     OW19717   1.291   0.210   8.702  0.2537 -0.8457 -0.0679
 2753SOL    HW119718   1.196   0.197   8.705 -0.0931  1.3457 -1.9966
 2753SOL    HW219719   1.311   0.239   8.791  0.9049 -0.9374 -0.1828
 2754SOL     OW19720   2.202   4.198  16.993  0.5306  0.1121 -0.0597
 2754SOL    HW119721   2.150   4.261  17.044 -0.5979  0.2583 -1.3826
 2754SOL    HW219722   2.285   4.237  16.966  0.0174  0.2776 -1.4147
 2755SOL     OW19723   1.945   2.735   2.812  0.5090  0.0060  0.3687
 2755SOL    HW119724   1.939   2.750   2.906  1.1048  1.5429  0.1623
 2755SOL    HW219725   1.859   2.698   2.790  1.3675 -0.3839 -2.3108
 2756SOL     OW19726   1.592   1.900   9.189  0.5227  0.5216  0.2972
 2756SOL    HW119727   1.631   1.896   9.276 -0.8690  0.4592  0.9180
 2756SOL    HW219728   1.497   1.907   9.203  0.6619 -1.5558  2.2492
 2757SOL     OW19729   2.093   3.082   4.672  0.0061 -0.6741 -0.4418
 2757SOL    HW119730   2.047   3.005   4.704 -2.5768  0.7443 -0.7314
 2757SOL    HW219731   2.159   3.048   4.611  0.6878 -0.9457  0.4560
 2758SOL     OW19732   1.012   0.035   4.505 -0.2901  0.2785  0.5714
 2758SOL    HW119733   1.035   0.101   4.571  0.9518  1.4571 -1.0357
 2758SOL    HW219734   1.085   0.051   4.445  0.5728 -1.4475  1.1724
 2759SOL     OW19735   1.476   2.927   6.035 -0.1060  0.0491 -0.2032
 2759SOL    HW119736   1.525   2.847   6.051 -1.0702 -0.6638 -0.8679
 2759SOL    HW219737   1.494   2.950   5.944 -1.6804  0.5988 -0.3654
 2760SOL     OW19738   0.900   1.325   7.063 -0.0166  0.0677  0.0388
 2760SOL    HW119739   0.892   1.346   6.970  0.4096  2.5911  0.5762
 2760SOL    HW219740   0.933   1.409   7.095  0.3945  0.2048 -0.7460
 2761SOL     OW19741   4.441   4.604   8.491  0.3283 -0.4806  0.0491
 2761SOL    HW119742   4.417   4.694   8.471 -1.5979 -1.6982 -3.0128
 2761SOL    HW219743   4.452   4.604   8.587  4.7588  0.1440 -0.4694
 2762SOL     OW19744   2.539   0.203   7.173  0.3381  0.2485 -0.1507
 2762SOL    HW119745   2.622   0.169   7.140  0.5796 -1.0770  1.8531
 2762SOL    HW219746   2.555   0.169   7.261  0.7843  2.4045  0.6235
 2763SOL     OW19747   1.463   4.145   7.845 -0.2661 -0.1452 -0.0911
 2763SOL    HW119748   1.523   4.083   7.887  1.5127 -0.2031 -2.7702
 2763SOL    HW219749   1.386   4.089   7.857  0.6316 -1.9356 -2.7873
 2764SOL     OW19750   4.125   3.909  16.287 -0.1802 -0.7552  0.0104
 2764SOL    HW119751   4.037   3.886  16.316 -0.3502 -1.5075 -1.0942
 2764SOL    HW219752   4.168   3.942  16.366 -1.4043  1.8557 -0.4035
 2765SOL     OW19753   4.430   1.438   9.092 -0.4144 -0.2371  0.3041
 2765SOL    HW119754   4.444   1.355   9.045 -2.8143 -0.4517 -0.0650
 2765SOL    HW219755   4.405   1.501   9.024  2.6886  1.9340  1.2014
 2766SOL     OW19756   0.953   1.136   8.467 -0.7862 -0.2356 -0.4365
 2766SOL    HW119757   0.998   1.132   8.551 -3.1176  0.4645  0.8670
 2766SOL    HW219758   0.864   1.166   8.486 -1.6476 -2.6692 -0.5527
 2767SOL     OW19759   1.611   1.785  11.305 -0.0734  0.0057  0.3473
 2767SOL    HW119760   1.584   1.877  11.295 -1.0449 -0.2162  0.9023
 2767SOL    HW219761   1.545   1.747  11.363 -0.0317  1.3515  1.2808
 2768SOL     OW19762   2.753   2.952  13.885  0.5534  0.0753  0.0123
 2768SOL    HW119763   2.735   2.931  13.976 -0.3903 -2.3055 -0.7268
 2768SOL    HW219764   2.673   2.992  13.851  0.9053 -0.1294 -1.0672
 2769SOL     OW19765   4.172   3.859   3.228  0.1465  0.1842  0.2695
 2769SOL    HW119766   4.247   3.916   3.206 -0.6229  2.6364  3.9625
 2769SOL    HW219767   4.164   3.869   3.323  1.9200  0.3767  0.4111
 2770SOL     OW19768   0.247   0.611   5.972  0.6675 -0.0943 -0.3594
 2770SOL    HW119769   0.230   0.532   6.023  1.2063  0.1837  0.2694
 2770SOL    HW219770   0.168   0.664   5.982  1.3314  0.3721  2.6385
 2771SOL     OW19771   0.593   3.625   8.690  0.0346 -0.4678 -0.4022
 2771SOL    HW119772   0.599   3.537   8.727 -0.2752 -0.6180 -0.7095
 2771SOL    HW219773   0.529   3.618   8.619 -0.1246 -0.6706 -0.2411
 2772SOL     OW19774   0.585   4.509   8.273  0.1687 -0.0517 -0.2144
 2772SOL    HW119775   0.582   4.527   8.366  0.7796 -4.1530  0.6015
 2772SOL    HW219776   0.614   4.585   8.222 -2.7802  0.1977 -1.5580
 2773SOL     OW19777   2.841   3.418  15.810 -0.5736  0.2382  0.0686
 2773SOL    HW119778   2.903   3.347  15.796  0.8963  1.4596  0.3825
 2773SOL    HW219779   2.872   3.495  15.762 -0.8623 -1.0535 -2.1769
 2774SOL     OW19780   0.297   3.378  12.448  0.0887  0.3763  0.0888
 2774SOL    HW119781   0.293   3.343  12.359 -1.0653  0.4587  0.1119
 2774SOL    HW219782   0.296   3.469  12.417  3.6761  0.0355 -1.0402
 2775SOL     OW19783   3.989   0.514  11.548  0.1869 -0.2597  0.3237
 2775SOL    HW119784   4.075   0.491  11.513  0.1118 -0.3376  0.1885
 2775SOL    HW219785   3.931   0.466  11.490  0.0165  0.2210  0.0965
 2776SOL     OW19786   2.508   0.880   4.160 -0.1595 -0.0150 -0.2361
 2776SOL    HW119787   2.430   0.866   4.214  0.6218  2.4078  1.4959
 2776SOL    HW219788   2.526   0.972   4.179  1.9453 -0.1652 -1.5747
 2777SOL     OW19789   3.634   0.931  11.668  0.3091  0.2034 -0.8256
 2777SOL    HW119790   3.584   0.936  11.587  0.5360  2.8244 -0.7947
 2777SOL    HW219791   3.578   0.866  11.711  0.8315 -0.0358 -0.4999
 2778SOL     OW19792   0.689   4.185  17.061 -0.3238  0.1025  0.4718
 2778SOL    HW119793   0.644   4.238  17.127 -1.4201  2.3431 -2.0641
 2778SOL    HW219794   0.692   4.241  16.983 -1.5859 -0.5206 -0.0291
 2779SOL     OW19795   4.066   3.590  14.044 -0.2608  0.3034  0.6411
 2779SOL    HW119796   3.978   3.552  14.044  0.5467 -1.5847 -2.7576
 2779SOL    HW219797   4.112   3.518  14.086 -1.3886  0.4631  2.1656
 2780SOL     OW19798   1.866   0.704  10.521 -0.4243 -0.2408 -0.2944
 2780SOL    HW119799   1.825   0.738  10.441 -0.0378 -1.4106 -0.9860
 2780SOL    HW219800   1.952   0.690  10.481 -0.5893  0.1742 -0.7921
 2781SOL     OW19801   1.920   0.688   8.058 -0.2640 -0.2959 -0.6349
 2781SOL    HW119802   1.850   0.638   8.016 -1.7092  0.1612  1.2276
 2781SOL    HW219803   1.969   0.714   7.980  1.5148  0.7795  0.8414
 2782SOL     OW19804   3.832   1.983   5.854  0.4815 -0.2073  0.4996
 2782SOL    HW119805   3.848   2.075   5.832 -1.2689 -0.2271 -0.9359
 2782SOL    HW219806   3.745   1.995   5.892  0.3428 -0.2439  0.1940
 2783SOL     OW19807   0.704   1.191   7.199 -0.0672 -0.0520  0.1432
 2783SOL    HW119808   0.738   1.107   7.169  0.2376  0.1155  0.0238
 2783SOL    HW219809   0.768   1.243   7.150 -0.1275 -0.4776 -0.3936
 2784SOL     OW19810   2.818   2.592   5.873 -0.4459  0.4878 -0.4296
 2784SOL    HW119811   2.864   2.657   5.818  0.2338 -0.5599 -1.1038
 2784SOL    HW219812   2.791   2.657   5.938  2.1831  1.8217 -0.6327
 2785SOL     OW19813   2.371   0.447   9.731  0.3138 -0.0122 -0.4067
 2785SOL    HW119814   2.459   0.443   9.769  1.0494  1.8679 -1.8951
 2785SOL    HW219815   2.377   0.382   9.661  0.8620 -0.4787  0.0727
 2786SOL     OW19816   1.059   2.959   0.250  0.2200 -0.1006 -0.2472
 2786SOL    HW119817   0.986   2.937   0.192  0.9067  0.8890 -1.4830
 2786SOL    HW219818   1.060   2.884   0.309 -0.2463 -1.2348 -1.6838
 2787SOL     OW19819   3.705   3.701   1.915  0.4915  0.0973 -0.8584
 2787SOL    HW119820   3.683   3.713   2.007  0.4190  1.3355 -1.0395
 2787SOL    HW219821   3.718   3.606   1.913  0.8576  0.1419 -0.4382
 2788SOL     OW19822   0.028   0.794   7.511  0.3685  0.0699 -0.4843
 2788SOL    HW119823   0.031   0.873   7.565  2.3206  2.1813 -3.6799
 2788SOL    HW219824   0.067   0.724   7.563 -2.2046 -0.6720  0.4366
 2789SOL     OW19825   2.140   1.127  13.721 -0.7714  0.0147  0.0199
 2789SOL    HW119826   2.169   1.211  13.686 -1.4718  0.7929  1.3285
 2789SOL    HW219827   2.050   1.140  13.751 -1.8006 -1.4906 -2.3371
 2790SOL     OW19828   1.781   2.810  12.762  0.6186 -0.1320  0.2600
 2790SOL    HW119829   1.862   2.852  12.793  1.4391 -2.9678  1.9639
 2790SOL    HW219830   1.825   2.745  12.708  1.0177 -0.4776  0.9965
 2791SOL     OW19831   3.244   2.983  13.448 -0.1926 -0.1033  0.0571
 2791SOL    HW119832   3.303   2.972  13.374  0.0563  1.7045 -0.0263
 2791SOL    HW219833   3.254   2.899  13.493 -0.0967 -0.6361 -0.9645
 2792SOL     OW19834   0.058   3.081   3.261 -0.0346  0.0971  0.3989
 2792SOL    HW119835   0.032   3.001   3.215  1.2244  0.7765 -1.4888
 2792SOL    HW219836   4.693   3.120   3.283 -0.0864 -0.4915  1.2530
 2793SOL     OW19837   0.246   0.459   7.028  0.3246 -0.0030 -0.5119
 2793SOL    HW119838   0.336   0.488   7.011  0.7331  0.4641  2.3449
 2793SOL    HW219839   0.197   0.474   6.947 -0.5906 -0.7558 -0.0937
 2794SOL     OW19840   3.467   3.798   7.392  0.2176  0.3275  0.0453
 2794SOL    HW119841   3.532   3.727   7.386  0.2615  0.5669 -2.3204
 2794SOL    HW219842   3.526   3.868   7.418  0.3301 -0.1165  1.0187
 2795SOL     OW19843   4.472   2.665   5.651  0.3661  0.1467 -0.3483
 2795SOL    HW119844   4.549   2.712   5.618  1.8021 -3.0947 -1.6740
 2795SOL    HW219845   4.469   2.584   5.599  2.7814 -0.7330  0.8756
 2796SOL     OW19846   3.856   2.145   2.944 -0.0129  0.1907 -0.4716
 2796SOL    HW119847   3.908   2.225   2.949 -1.1414  0.8420  0.6519
 2796SOL    HW219848   3.922   2.078   2.924 -0.4200 -0.5092  0.5323
 2797SOL     OW19849   2.816   1.121   9.009  0.2907 -0.1806  0.2533
 2797SOL    HW119850   2.784   1.034   8.983 -1.6957 -0.1315  2.4898
 2797SOL    HW219851   2.884   1.101   9.073 -0.3227 -1.0342  0.6385
 2798SOL     OW19852   1.269   4.549   7.994 -0.3210  0.3444  0.2569
 2798SOL    HW119853   1.231   4.603   7.926 -0.6275  0.2759  0.3731
 2798SOL    HW219854   1.199   4.530   8.057  0.5195  0.0288  1.1077
 2799SOL     OW19855   4.688   1.776   7.187  0.2724  0.4414 -0.2910
 2799SOL    HW119856   4.605   1.774   7.140 -0.8442 -1.1213  1.7535
 2799SOL    HW219857   4.683   1.858   7.237  0.9806 -0.0833  0.6471
 2800SOL     OW19858   4.320   0.361  16.179 -0.3912 -0.9356 -0.2761
 2800SOL    HW119859   4.413   0.352  16.201 -0.2916  1.2563  0.2134
 2800SOL    HW219860   4.316   0.429  16.112 -0.4767 -1.7781 -1.1354
 2801SOL     OW19861   1.004   4.636  13.463 -0.3238 -0.2873 -0.1229
 2801SOL    HW119862   0.978   4.646  13.372 -1.8564 -1.5707  0.1767
 2801SOL    HW219863   0.946   4.566  13.492  0.0617 -0.9081 -0.8810
 2802SOL     OW19864   3.676   3.509  13.124  0.2291  0.1084 -0.5221
 2802SOL    HW119865   3.730   3.560  13.064  0.8586 -1.4162 -1.2470
 2802SOL    HW219866   3.612   3.473  13.063  0.7413 -1.1616 -0.3230
 2803SOL     OW19867   2.222   2.629  12.941  0.0203  0.2911  0.6382
 2803SOL    HW119868   2.243   2.651  12.851  2.2022  0.3122  1.1504
 2803SOL    HW219869   2.284   2.681  12.991  0.2304 -0.1112  0.7974
 2804SOL     OW19870   2.020   1.995   9.385 -0.0285  0.1463 -0.5859
 2804SOL    HW119871   2.022   1.930   9.455  0.3972 -0.5286 -1.2331
 2804SOL    HW219872   2.112   2.022   9.378  0.3547 -0.6549  1.4769
 2805SOL     OW19873   3.068   4.242   9.414  0.5200 -0.0929  0.4601
 2805SOL    HW119874   3.097   4.169   9.360  5.4880  2.5647 -0.5257
 2805SOL    HW219875   3.020   4.297   9.351  0.9224  1.0357  1.1337
 2806SOL     OW19876   3.281   2.035   5.695 -0.4176 -0.1131  0.7032
 2806SOL    HW119877   3.307   1.952   5.735 -0.8168 -0.0981  0.9982
 2806SOL    HW219878   3.224   2.069   5.764  0.8214 -1.3575  2.3553
 2807SOL     OW19879   2.692   3.371  11.306  0.2675 -0.1824 -0.5793
 2807SOL    HW119880   2.769   3.315  11.291  0.8548  1.4050 -3.5495
 2807SOL    HW219881   2.658   3.409  11.226 -0.0647  1.6136  0.4217
 2808SOL     OW19882   0.081   3.870   4.384  0.1772 -0.4695 -0.1913
 2808SOL    HW119883   0.107   3.842   4.472  0.5047 -1.3393 -0.5687
 2808SOL    HW219884   0.136   3.816   4.327  0.8577 -0.6487  0.6289
 2809SOL     OW19885   0.317   2.825   9.143 -0.2041  0.0602 -0.0090
 2809SOL    HW119886   0.391   2.802   9.199  0.4983  0.2797 -0.8376
 2809SOL    HW219887   0.316   2.749   9.086  1.3899  0.3661 -0.4605
 2810SOL     OW19888   3.940   0.513  12.162  0.4324  0.2192 -0.8120
 2810SOL    HW119889   4.016   0.519  12.219  0.4432 -1.2544 -0.6852
 2810SOL    HW219890   3.931   0.607  12.144  0.1506 -0.0146 -1.8752
 2811SOL     OW19891   0.572   2.425   0.506  0.2242 -0.5863  0.3651
 2811SOL    HW119892   0.628   2.455   0.577 -0.7317  0.2129  0.7850
 2811SOL    HW219893   0.494   2.411   0.560  0.0442 -2.1202 -0.2927
 2812SOL     OW19894   3.873   2.266   5.808 -0.6537 -0.1895  0.0660
 2812SOL    HW119895   3.867   2.297   5.717 -0.8381  1.1150  0.5159
 2812SOL    HW219896   3.909   2.338   5.860  0.5577 -0.7719  0.0482
 2813SOL     OW19897   3.234   2.468   3.696 -1.2198 -0.1338 -0.4847
 2813SOL    HW119898   3.152   2.437   3.735  0.2503 -0.6084  2.2042
 2813SOL    HW219899   3.271   2.512   3.772 -0.9672 -0.8438 -0.2031
 2814SOL     OW19900   4.656   4.047   5.951  0.0496  0.1050 -0.4500
 2814SOL    HW119901   4.573   4.007   5.923  1.7040 -2.7473 -1.3164
 2814SOL    HW219902   4.707   3.967   5.964  0.5614  0.4631 -0.2780
 2815SOL     OW19903   4.459   3.874  15.899  0.0674  0.2125  0.3148
 2815SOL    HW119904   4.419   3.801  15.944  1.0662 -1.3023 -1.2596
 2815SOL    HW219905   4.378   3.898  15.854 -0.3164  0.0763  0.9505
 2816SOL     OW19906   3.427   4.230   7.146 -0.2708 -0.6841  0.0187
 2816SOL    HW119907   3.448   4.251   7.237  0.0909  0.4330 -0.3220
 2816SOL    HW219908   3.510   4.257   7.104  1.4648 -1.2538  3.1052
 2817SOL     OW19909   3.140   0.340   4.656 -0.2997 -0.5645  0.1434
 2817SOL    HW119910   3.198   0.415   4.661 -1.6464  0.5844 -1.4916
 2817SOL    HW219911   3.057   0.378   4.687  1.0224  2.4203 -0.0148
 2818SOL     OW19912   1.780   1.168   4.874  0.2554  0.5145 -0.1292
 2818SOL    HW119913   1.757   1.260   4.881 -2.0648 -0.1595  0.9750
 2818SOL    HW219914   1.757   1.152   4.783  2.8204 -1.0958 -0.5271
 2819SOL     OW19915   4.076   4.490   6.454  0.4720 -0.1544  0.4708
 2819SOL    HW119916   4.074   4.578   6.416 -1.8890  0.1168  1.2149
 2819SOL    HW219917   4.003   4.446   6.410  0.7768 -0.3143  0.1190
 2820SOL     OW19918   2.630   3.193   1.169  0.2066  0.2017 -0.6559
 2820SOL    HW119919   2.651   3.287   1.170 -0.0763  0.2570  0.8970
 2820SOL    HW219920   2.684   3.165   1.096  0.4562  0.4108 -0.5543
 2821SOL     OW19921   2.669   1.094  17.472 -0.1376 -0.1291  0.4227
 2821SOL    HW119922   2.662   1.002  17.497 -1.8057 -0.2001 -0.2588
 2821SOL    HW219923   2.609   1.138  17.533 -1.4033 -1.9343  0.4879
 2822SOL     OW19924   1.320   0.981   1.829  0.1242 -0.2785  0.5209
 2822SOL    HW119925   1.233   1.019   1.839  0.4527  1.1413 -1.8664
 2822SOL    HW219926   1.308   0.887   1.837 -1.1354 -0.2440 -1.1427
 2823SOL     OW19927   4.298   3.013   4.412 -0.5062  0.2924  0.4884
 2823SOL    HW119928   4.282   3.107   4.408 -0.6126  0.3126  1.3853
 2823SOL    HW219929   4.220   2.965   4.387  0.6631 -2.0728  1.4016
 2824SOL     OW19930   2.446   3.116  12.316  0.1824  0.4652  0.0835
 2824SOL    HW119931   2.520   3.077  12.270 -0.5209 -1.3343  0.4753
 2824SOL    HW219932   2.396   3.168  12.253 -0.0809  0.7297  0.5122
 2825SOL     OW19933   0.255   2.113   8.660  0.2317 -0.1027  0.1127
 2825SOL    HW119934   0.244   2.147   8.571  1.4083  0.7274  0.2741
 2825SOL    HW219935   0.166   2.093   8.688  1.5543 -1.7491  3.0551
 2826SOL     OW19936   3.681   3.247  17.248  0.0181 -0.2671  0.2158
 2826SOL    HW119937   3.661   3.268  17.339  0.0163 -0.0751  0.1711
 2826SOL    HW219938   3.719   3.331  17.222 -0.6697  0.5498  1.8905
 2827SOL     OW19939   1.558   3.035   4.103  0.2195  0.1120  0.4710
 2827SOL    HW119940   1.612   3.113   4.116 -3.2933  2.4193  1.1398
 2827SOL    HW219941   1.468   3.063   4.120  0.5246  0.8384  0.8893
 2828SOL     OW19942   3.441   3.576  17.044  0.1272  0.2262 -0.2381
 2828SOL    HW119943   3.432   3.522  17.123 -1.3259  0.3023 -0.3454
 2828SOL    HW219944   3.388   3.648  17.080  0.3828  1.3112 -2.0280
 2829SOL     OW19945   0.097   4.622   8.384 -0.0361 -0.1124  0.7429
 2829SOL    HW119946   0.192   4.623   8.386  0.0042 -1.9761 -0.1146
 2829SOL    HW219947   0.073   4.586   8.470  0.0226 -0.1096  0.7599
 2830SOL     OW19948   1.285   4.659   9.847  0.5456 -0.1741 -0.1139
 2830SOL    HW119949   1.321   4.570   9.840 -2.1142 -1.1182 -1.7632
 2830SOL    HW219950   1.211   4.666   9.787 -0.3182  0.7476  1.0864
 2831SOL     OW19951   3.623   3.855   8.581 -0.0935  0.5745  0.0854
 2831SOL    HW119952   3.561   3.825   8.648 -0.5407  2.7101  0.6120
 2831SOL    HW219953   3.663   3.931   8.623  1.9979  0.1678 -1.1937
 2832SOL     OW19954   2.975   2.210   2.712 -0.9074  0.1842 -0.8298
 2832SOL    HW119955   2.959   2.295   2.754  2.1383 -0.5087  1.7116
 2832SOL    HW219956   3.011   2.236   2.627  0.0268  0.8049 -0.2334
 2833SOL     OW19957   4.401   0.261   7.126  0.4891  0.8915 -0.5496
 2833SOL    HW119958   4.358   0.343   7.150  1.6885  1.7112 -1.1591
 2833SOL    HW219959   4.419   0.277   7.033  1.5044 -0.4321 -0.5842
 2834SOL     OW19960   1.019   2.138  15.315  0.7592 -0.6964 -0.2677
 2834SOL    HW119961   0.944   2.090  15.280 -0.8820  0.3532  1.7933
 2834SOL    HW219962   1.082   2.069  15.338  2.3864  0.2138 -2.0552
 2835SOL     OW19963   1.872   4.161   2.113  0.5890 -0.7299  0.1258
 2835SOL    HW119964   1.779   4.149   2.091  1.3222 -3.3118 -1.5588
 2835SOL    HW219965   1.891   4.077   2.155  1.9505  0.7788  2.5361
 2836SOL     OW19966   0.095   0.065   6.421  0.0041  0.0704 -0.3909
 2836SOL    HW119967   0.150   0.074   6.342  0.0366  0.8648 -0.2756
 2836SOL    HW219968   0.010   0.099   6.393  0.4580 -0.3380 -2.2917
 2837SOL     OW19969   4.228   3.316   6.333 -0.2277 -0.2902  0.4023
 2837SOL    HW119970   4.191   3.386   6.279  0.5405  0.8644  1.3700
 2837SOL    HW219971   4.312   3.347   6.369 -0.1834 -0.4576  0.4411
 2838SOL     OW19972   2.393   2.034   6.859 -0.1220 -0.6996  0.5747
 2838SOL    HW119973   2.488   2.025   6.864  0.0296 -0.4505 -1.7986
 2838SOL    HW219974   2.384   2.089   6.937 -0.9999 -0.5841  0.3943
 2839SOL     OW19975   2.603   3.513   2.627  0.0443 -0.4422  0.2298
 2839SOL    HW119976   2.522   3.506   2.678  0.0975  2.4160  0.6628
 2839SOL    HW219977   2.604   3.420   2.602  0.6329 -0.7307  1.3180
 2840SOL     OW19978   2.224   4.173  17.312 -0.2871 -0.2309 -0.1432
 2840SOL    HW119979   2.231   4.123  17.231  0.8960 -1.2861  0.6182
 2840SOL    HW219980   2.237   4.097  17.368  1.1896  0.2214  0.1388
 2841SOL     OW19981   3.956   3.615  11.755 -0.3833  0.1764  0.3017
 2841SOL    HW119982   3.960   3.523  11.780 -1.5424  0.2675  0.8487
 2841SOL    HW219983   3.880   3.657  11.796  0.2318  0.2862  1.3000
 2842SOL     OW19984   2.072   4.157   6.132 -0.5823 -0.1375  0.0706
 2842SOL    HW119985   2.046   4.226   6.192  1.3061 -0.7419  1.5737
 2842SOL    HW219986   2.002   4.174   6.069 -0.5867 -0.7223 -0.0858
 2843SOL     OW19987   2.341   3.359   1.455 -0.7703  0.3664 -0.4024
 2843SOL    HW119988   2.338   3.331   1.546 -0.2708 -1.0558 -0.8207
 2843SOL    HW219989   2.336   3.454   1.443  1.3596  0.5204 -0.0501
 2844SOL     OW19990   0.797   3.920   5.524  0.1187 -0.3744 -0.0559
 2844SOL    HW119991   0.723   3.965   5.566 -0.6848 -3.1400  1.5406
 2844SOL    HW219992   0.864   3.988   5.521 -1.1646  0.8504 -0.8556
 2845SOL     OW19993   3.347   4.373   7.873 -0.7598  0.1574 -0.8610
 2845SOL    HW119994   3.311   4.360   7.785 -0.0427 -2.0225 -0.8356
 2845SOL    HW219995   3.378   4.463   7.862  1.8507 -0.4945  1.1557
 2846SOL     OW19996   0.831   3.299   4.060  0.6839  0.0578  0.2178
 2846SOL    HW119997   0.802   3.327   4.147 -1.0061 -0.1426 -0.2912
 2846SOL    HW219998   0.857   3.387   4.034  0.7874  0.9853  3.4358
 2847SOL     OW19999   0.461   3.638  15.858  0.0966  0.0789 -0.4052
 2847SOL    HW120000   0.428   3.603  15.941  2.9580  0.3881  0.8723
 2847SOL    HW220001   0.553   3.611  15.858  0.3054  0.7136  1.9355
 2848SOL     OW20002   0.682   2.914   3.536  0.1775 -0.4875  0.0820
 2848SOL    HW120003   0.698   2.901   3.443 -2.2977  0.0005 -0.3985
 2848SOL    HW220004   0.757   2.865   3.570  0.9534  0.3168 -0.4944
 2849SOL     OW20005   1.861   2.446   5.120 -0.5966 -0.4598  0.1901
 2849SOL    HW120006   1.949   2.414   5.136 -0.0765  0.2448 -1.2892
 2849SOL    HW220007   1.882   2.515   5.058  0.4669 -1.3216 -0.3999
 2850SOL     OW20008   1.998   3.494   2.597 -0.0607  0.4233 -0.0862
 2850SOL    HW120009   2.013   3.470   2.506  0.2606  0.5751 -0.0741
 2850SOL    HW220010   2.063   3.564   2.606 -0.6321  0.6111  2.8770
 2851SOL     OW20011   4.425   2.573   4.260  0.1875 -0.4160  0.0328
 2851SOL    HW120012   4.433   2.490   4.212 -0.2681 -0.0094 -0.7590
 2851SOL    HW220013   4.493   2.624   4.217 -2.1148  1.9711 -0.8174
 2852SOL     OW20014   1.720   0.266   0.785 -0.1039  0.3323 -0.2416
 2852SOL    HW120015   1.798   0.236   0.831 -0.5026 -1.9751 -1.0645
 2852SOL    HW220016   1.735   0.360   0.781  2.1208  0.0845  3.0947
 2853SOL     OW20017   3.098   0.404  15.138 -0.3964  0.4098  0.0178
 2853SOL    HW120018   3.179   0.354  15.153 -0.6814 -0.6137 -1.8016
 2853SOL    HW220019   3.129   0.489  15.108 -1.5950  0.3862 -1.3048
 2854SOL     OW20020   1.592   3.438   6.492 -0.2129 -0.5631 -0.1822
 2854SOL    HW120021   1.628   3.516   6.449 -0.3241 -1.5377 -2.0141
 2854SOL    HW220022   1.530   3.486   6.547 -1.8231 -1.0068 -1.5949
 2855SOL     OW20023   2.824   3.520   8.147 -0.4362  0.3324 -0.1089
 2855SOL    HW120024   2.730   3.529   8.166 -0.2979  0.9845  0.2846
 2855SOL    HW220025   2.847   3.461   8.218 -1.2233  1.9654  1.5151
 2856SOL     OW20026   2.476   1.188   4.925 -0.3424  0.1447  0.3834
 2856SOL    HW120027   2.507   1.278   4.915  1.1206 -0.3937 -0.0753
 2856SOL    HW220028   2.556   1.150   4.887 -0.2921 -0.1011  0.7277
 2857SOL     OW20029   1.597   4.684   6.272  0.7105  0.0723 -0.4258
 2857SOL    HW120030   1.527   0.013   6.229  1.7587  2.4816  0.6533
 2857SOL    HW220031   1.652   0.038   6.295  2.1318 -0.8362 -0.8720
 2858SOL     OW20032   3.790   4.702   8.122 -0.0397  0.4982  0.3438
 2858SOL    HW120033   3.857   0.050   8.121 -0.1889  0.6336 -0.3301
 2858SOL    HW220034   3.840   4.621   8.115 -1.6418 -0.1858 -3.2096
 2859SOL     OW20035   2.516   2.684   9.702 -0.4483 -0.0529 -0.6164
 2859SOL    HW120036   2.545   2.601   9.741 -1.2218 -1.1241 -2.3544
 2859SOL    HW220037   2.573   2.745   9.749 -2.3264  0.8838  0.4593
 2860SOL     OW20038   4.431   3.278   8.620 -0.5809  0.5243  0.2388
 2860SOL    HW120039   4.385   3.210   8.571 -0.3846  1.5280 -1.3573
 2860SOL    HW220040   4.518   3.280   8.579 -0.4177 -1.4653  0.5179
 2861SOL     OW20041   0.688   0.616   8.433 -0.7410  0.0409 -0.0565
 2861SOL    HW120042   0.593   0.615   8.425 -0.6339 -1.7223 -1.1741
 2861SOL    HW220043   0.701   0.614   8.527 -2.0830  1.6301  0.1533
 2862SOL     OW20044   2.391   4.116  15.471 -0.4159  0.3478  0.1674
 2862SOL    HW120045   2.391   4.210  15.452  2.4019  0.4462  0.7444
 2862SOL    HW220046   2.386   4.110  15.566 -0.8905  0.2513  0.1361
 2863SOL     OW20047   0.889   4.066   3.008  0.7225 -0.0115 -0.0872
 2863SOL    HW120048   0.952   3.994   3.014 -3.0042 -3.3828 -1.5812
 2863SOL    HW220049   0.829   4.032   3.074  0.9826 -0.9023 -0.3142
 2864SOL     OW20050   1.591   4.643   3.977  0.3798  0.1454 -0.2406
 2864SOL    HW120051   1.529   4.616   4.044  0.0909  1.0061 -0.1610
 2864SOL    HW220052   1.547   4.633   3.893  1.2960 -2.3320 -0.4285
 2865SOL     OW20053   3.068   0.084  11.362  0.1215  0.2461 -0.3173
 2865SOL    HW120054   3.053   0.111  11.453 -1.4747 -0.1680 -0.4535
 2865SOL    HW220055   3.163   0.096  11.367  0.2432 -0.3946 -1.0714
 2866SOL     OW20056   0.339   4.099  10.809  0.0032  0.3352 -0.0379
 2866SOL    HW120057   0.412   4.059  10.857  1.8728  1.4555 -1.9477
 2866SOL    HW220058   0.313   4.032  10.745  2.5233 -1.7747  1.1492
 2867SOL     OW20059   1.369   0.009  14.064 -0.3262  0.3219  0.6975
 2867SOL    HW120060   1.331   4.692  13.985 -0.7778  2.2411  0.0004
 2867SOL    HW220061   1.317   0.089  14.055 -1.2632 -0.5861 -1.8413
 2868SOL     OW20062   0.438   2.207   8.930  0.6271  0.3294  0.2930
 2868SOL    HW120063   0.397   2.188   8.846  1.8724 -0.3184 -0.1677
 2868SOL    HW220064   0.363   2.257   8.963  0.4911 -1.1879  2.2499
 2869SOL     OW20065   2.836   1.459   7.790  0.5209 -0.6069 -0.4549
 2869SOL    HW120066   2.919   1.506   7.802  0.8619 -0.9921 -1.2731
 2869SOL    HW220067   2.846   1.401   7.865 -2.1427 -0.6556 -0.1595
 2870SOL     OW20068   2.292   0.998   3.535  0.1370 -0.2759  0.5830
 2870SOL    HW120069   2.383   1.000   3.566 -0.1675 -0.6449  1.5062
 2870SOL    HW220070   2.246   0.979   3.617 -0.8229 -0.2500  0.0465
 2871SOL     OW20071   1.774   1.777  15.259  0.4841  0.2875  0.4451
 2871SOL    HW120072   1.820   1.738  15.333  1.0644  2.2198  1.0993
 2871SOL    HW220073   1.837   1.818  15.199  2.2733 -0.1956  1.9970
 2872SOL     OW20074   2.181   0.729   7.253 -0.0418  0.5062 -0.0058
 2872SOL    HW120075   2.091   0.720   7.285 -0.3133 -0.2927 -0.9712
 2872SOL    HW220076   2.234   0.692   7.323 -1.2260  2.1161  1.7177
 2873SOL     OW20077   1.203   4.286  15.779 -0.1588 -0.4866  0.0202
 2873SOL    HW120078   1.287   4.289  15.825 -0.2295 -0.2171  0.1268
 2873SOL    HW220079   1.217   4.235  15.699 -1.1738  1.6216 -1.4853
 2874SOL     OW20080   1.489   0.675  12.171  0.0746  0.5033 -0.0708
 2874SOL    HW120081   1.574   0.649  12.207  0.4839  2.0393  0.0913
 2874SOL    HW220082   1.432   0.610  12.213  2.8806 -0.9932  1.4567
 2875SOL     OW20083   0.258   1.827   3.113 -0.0127  0.0169 -0.1086
 2875SOL    HW120084   0.263   1.906   3.167  1.7851  0.6165 -1.1474
 2875SOL    HW220085   0.340   1.781   3.134 -1.0643 -1.3553  0.9901
 2876SOL     OW20086   1.404   1.181  17.627 -0.2001  0.4984  0.1532
 2876SOL    HW120087   1.490   1.140  17.630 -0.6193 -0.7089 -3.4484
 2876SOL    HW220088   1.355   1.163   0.022 -1.2591 -1.6548 -0.9909
 2877SOL     OW20089   0.224   2.893  13.221  0.2821 -0.9534  0.3699
 2877SOL    HW120090   0.167   2.967  13.202  0.3502 -1.2706 -1.0415
 2877SOL    HW220091   0.159   2.843  13.271 -1.1774  0.9851  0.3997
 2878SOL     OW20092   0.277   3.871  11.088 -0.5952 -0.0249 -0.0181
 2878SOL    HW120093   0.263   3.876  10.994  4.2511  1.6725 -0.6590
 2878SOL    HW220094   0.209   3.806  11.107  1.5216 -2.1797  0.2253
 2879SOL     OW20095   2.788   0.684   5.009 -0.2203 -0.4305 -0.4724
 2879SOL    HW120096   2.835   0.764   4.989 -1.6589  0.5133 -0.0615
 2879SOL    HW220097   2.803   0.683   5.103  0.4063  0.5431 -0.5742
 2880SOL     OW20098   0.630   2.625   6.333  0.1084 -0.1992 -0.1046
 2880SOL    HW120099   0.670   2.612   6.247  1.0701 -1.4279  0.5244
 2880SOL    HW220100   0.544   2.650   6.300 -0.0697 -1.3363 -0.5159
 2881SOL     OW20101   3.703   1.036   0.796 -0.8570 -0.6771  0.5652
 2881SOL    HW120102   3.616   1.004   0.774 -1.6802  1.7187  0.3532
 2881SOL    HW220103   3.672   1.094   0.865 -3.1500  1.9820 -2.7113
 2882SOL     OW20104   0.072   3.520  16.035  0.2366 -0.2474 -0.2431
 2882SOL    HW120105   0.083   3.451  16.101  1.9152 -0.4772 -0.7660
 2882SOL    HW220106   0.161   3.513  15.999  0.1677 -0.4857 -0.3699
 2883SOL     OW20107   3.266   1.045   7.407  0.3726  0.1941  0.3357
 2883SOL    HW120108   3.314   1.070   7.328  0.6368  2.2294  1.1416
 2883SOL    HW220109   3.320   1.094   7.469 -0.1960  0.7672  0.3681
 2884SOL     OW20110   1.373   2.231   8.579  0.0292  0.2407  0.3465
 2884SOL    HW120111   1.291   2.273   8.554 -0.7301 -1.4008  0.0869
 2884SOL    HW220112   1.354   2.137   8.576 -1.2083  0.5369 -1.3865
 2885SOL     OW20113   3.721   0.363   6.056 -0.1686 -0.1120 -0.0926
 2885SOL    HW120114   3.787   0.432   6.067 -0.1291  0.2310 -2.3807
 2885SOL    HW220115   3.645   0.404   6.097  1.0763 -0.4413  2.5540
 2886SOL     OW20116   3.788   3.890   3.706  0.0594 -0.6241  0.1805
 2886SOL    HW120117   3.814   3.935   3.625  4.2726 -2.8008  0.3278
 2886SOL    HW220118   3.777   3.805   3.664  0.7573  0.6253 -2.5194
 2887SOL     OW20119   1.866   3.475  12.718  0.0407  0.0685  0.3954
 2887SOL    HW120120   1.849   3.472  12.812 -0.5471 -1.6825  0.2333
 2887SOL    HW220121   1.947   3.525  12.732  0.6778 -0.8986  0.1207
 2888SOL     OW20122   2.501   2.064  10.105 -0.6451 -0.4133 -0.3763
 2888SOL    HW120123   2.424   2.010  10.088  0.2471 -1.8209  0.0350
 2888SOL    HW220124   2.535   2.025  10.186  0.3795 -0.8963 -1.0433
 2889SOL     OW20125   4.084   1.562   4.522  0.1044 -0.3175 -0.5527
 2889SOL    HW120126   4.060   1.615   4.446 -1.4319 -1.3042 -0.7562
 2889SOL    HW220127   4.000   1.551   4.565  0.3656  1.8065  0.4905
 2890SOL     OW20128   2.742   2.780   6.043 -0.2534  0.2049  0.4576
 2890SOL    HW120129   2.790   2.852   6.003  1.7938 -1.4275 -0.0369
 2890SOL    HW220130   2.663   2.835   6.046  0.6340  1.3737  2.3059
 2891SOL     OW20131   2.167   0.283   8.981 -0.4102  0.3065 -0.4793
 2891SOL    HW120132   2.082   0.313   9.011  0.5888  1.2818  1.3776
 2891SOL    HW220133   2.167   0.196   9.020  4.1361  0.9214  0.9072
 2892SOL     OW20134   3.427   0.865   7.608  0.1937 -0.5144  0.2476
 2892SOL    HW120135   3.426   0.821   7.523  1.8812  0.4307 -0.2616
 2892SOL    HW220136   3.434   0.958   7.584 -0.4305 -0.2517  1.0549
 2893SOL     OW20137   2.912   2.987   1.909  0.4140  0.1196  0.4407
 2893SOL    HW120138   2.998   2.969   1.946  0.4165  0.9477  0.8548
 2893SOL    HW220139   2.884   2.899   1.885 -0.7514  0.7618 -0.5903
 2894SOL     OW20140   4.686   3.316   8.514 -0.0200 -0.0432  0.0454
 2894SOL    HW120141   0.047   3.364   8.526  0.4618 -0.9271  0.3271
 2894SOL    HW220142   4.702   3.267   8.433  0.1764  1.9749 -1.1251
 2895SOL     OW20143   2.813   4.489  17.402  1.0283 -0.0753  0.1157
 2895SOL    HW120144   2.854   4.433  17.468 -0.5094 -0.9669  0.3196
 2895SOL    HW220145   2.888   4.529  17.358  0.5633  0.5153 -0.1363
 2896SOL     OW20146   4.215   3.004   3.847 -0.0334  0.1005 -0.0859
 2896SOL    HW120147   4.179   3.047   3.769 -1.5991  0.7614  1.0033
 2896SOL    HW220148   4.310   2.996   3.838 -0.1545 -1.9650  0.3858
 2897SOL     OW20149   4.359   0.581   2.824 -0.1778  0.6627 -0.4357
 2897SOL    HW120150   4.419   0.509   2.840  0.4669  0.3617 -4.2222
 2897SOL    HW220151   4.303   0.567   2.901 -0.0809  2.5435 -0.0174
 2898SOL     OW20152   1.524   0.293  12.213 -0.5874 -0.6005 -0.1502
 2898SOL    HW120153   1.470   0.218  12.186  0.1832 -0.6978 -1.4149
 2898SOL    HW220154   1.609   0.260  12.187 -0.8540 -0.3380 -1.3326
 2899SOL     OW20155   0.664   2.683   1.878 -0.0286  0.0803  0.8608
 2899SOL    HW120156   0.705   2.700   1.793  1.0788  2.6125  1.8714
 2899SOL    HW220157   0.645   2.771   1.911 -2.4166 -0.2603  0.3870
 2900SOL     OW20158   3.422   2.547   7.652  0.0156  0.3761  0.3724
 2900SOL    HW120159   3.454   2.474   7.599 -0.1530 -0.3282  1.2337
 2900SOL    HW220160   3.506   2.574   7.689  0.9674 -0.2481 -1.3312
 2901SOL     OW20161   2.850   3.522   7.521  0.1385 -0.3370 -0.5404
 2901SOL    HW120162   2.817   3.610   7.540  3.7476  0.6215  1.4316
 2901SOL    HW220163   2.903   3.543   7.444  0.9039 -0.1396  0.0368
 2902SOL     OW20164   2.407   1.421  16.552  0.0486 -0.1618  0.0402
 2902SOL    HW120165   2.466   1.393  16.622 -0.1200 -0.6539 -0.0072
 2902SOL    HW220166   2.465   1.485  16.512 -1.2637  0.9782 -0.0345
 2903SOL     OW20167   4.427   2.534   6.778  0.4524  0.9050 -0.0860
 2903SOL    HW120168   4.449   2.454   6.729 -0.9556  0.7962 -0.5446
 2903SOL    HW220169   4.345   2.549   6.731 -0.9935 -0.2368  2.0858
 2904SOL     OW20170   1.800   3.268  11.685  0.5054 -0.2171  0.1031
 2904SOL    HW120171   1.820   3.251  11.593  1.8932  2.9984 -0.1968
 2904SOL    HW220172   1.872   3.327  11.708 -0.1637 -0.0398  1.6791
 2905SOL     OW20173   1.313   2.124   7.179  0.3758 -0.4120 -0.2276
 2905SOL    HW120174   1.330   2.042   7.131  0.6376 -0.0455 -0.7671
 2905SOL    HW220175   1.314   2.189   7.109 -0.5896  0.0053  0.1543
 2906SOL     OW20176   3.078   3.614  11.467 -0.1171  0.3120  0.2156
 2906SOL    HW120177   3.009   3.659  11.515  1.5669  1.0177  1.9606
 2906SOL    HW220178   3.146   3.638  11.530 -0.3667  0.2956  0.4946
 2907SOL     OW20179   0.024   2.000   5.191  0.4228 -0.3224  0.2612
 2907SOL    HW120180   0.010   1.912   5.227 -2.8378  0.1508  0.0975
 2907SOL    HW220181   4.663   1.999   5.142  1.3023  0.2804 -1.2190
 2908SOL     OW20182   3.218   1.064   0.511  0.1464  0.6275 -0.2852
 2908SOL    HW120183   3.144   1.125   0.509 -1.1420 -0.9379 -0.3004
 2908SOL    HW220184   3.195   0.979   0.475 -1.4166  0.0061  2.1802
 2909SOL     OW20185   1.937   2.193   9.548  0.2805 -0.0227  0.5149
 2909SOL    HW120186   1.954   2.263   9.485  0.5220 -0.9711 -0.4663
 2909SOL    HW220187   1.958   2.116   9.494 -0.7123  0.6911 -0.8978
 2910SOL     OW20188   2.348   1.176   9.095 -0.2409  0.0894 -0.2389
 2910SOL    HW120189   2.354   1.270   9.111 -0.4740  0.2121 -0.8562
 2910SOL    HW220190   2.415   1.156   9.029  0.9026  0.0328  0.9422
 2911SOL     OW20191   4.343   3.669   0.567  0.7131  0.6586 -0.3605
 2911SOL    HW120192   4.391   3.712   0.638 -0.6120  0.4808  0.6326
 2911SOL    HW220193   4.337   3.578   0.599 -1.6298  0.9665  0.0504
 2912SOL     OW20194   0.131   2.890   6.067 -0.1007  0.3668  0.0469
 2912SOL    HW120195   0.196   2.941   6.018  0.1479 -3.0369 -3.2422
 2912SOL    HW220196   0.146   2.798   6.043 -0.8743  0.2977 -0.1676
 2913SOL     OW20197   2.414   0.620   5.558  0.5584 -0.5242  0.8719
 2913SOL    HW120198   2.401   0.536   5.516 -0.8284  1.3827 -2.5302
 2913SOL    HW220199   2.334   0.670   5.540  1.7713  1.3325  0.6704
 2914SOL     OW20200   0.293   4.255  11.721  0.3952  0.5014 -0.5140
 2914SOL    HW120201   0.306   4.233  11.628  0.1337 -2.0266  0.0325
 2914SOL    HW220202   0.293   4.350  11.724  1.7230  0.4326  1.2833
 2915SOL     OW20203   0.611   4.379   9.848 -0.2784  0.1269 -0.0549
 2915SOL    HW120204   0.702   4.348   9.848  0.1036  1.2583  0.3858
 2915SOL    HW220205   0.585   4.365   9.939  1.9015  2.6885  0.9707
 2916SOL     OW20206   1.277   0.046  10.625  0.6024  0.4208  0.6625
 2916SOL    HW120207   1.358   0.097  10.619  0.6052 -0.0975 -3.3641
 2916SOL    HW220208   1.308   4.677  10.607  0.9509  0.7713 -0.4693
 2917SOL     OW20209   0.924   1.076  14.375  0.2248 -0.8786  0.0670
 2917SOL    HW120210   0.870   1.009  14.333 -0.0541 -0.9613  0.5654
 2917SOL    HW220211   0.997   1.026  14.411  0.2637 -1.3718 -0.6887
 2918SOL     OW20212   2.422   3.952   9.202  0.2053  0.2762  0.0163
 2918SOL    HW120213   2.472   4.021   9.244 -0.0549 -0.5522  1.7058
 2918SOL    HW220214   2.388   3.909   9.280  2.3950 -1.0555  0.2356
 2919SOL     OW20215   4.453   3.428   7.657  0.0106 -0.1556  0.1909
 2919SOL    HW120216   4.380   3.377   7.693 -0.2177 -0.9481 -1.3967
 2919SOL    HW220217   4.505   3.443   7.736  0.0296 -0.3099  0.2071
 2920SOL     OW20218   2.629   1.835   1.513  0.1363  0.2783  0.1359
 2920SOL    HW120219   2.618   1.777   1.438 -0.8250 -1.3851  1.5746
 2920SOL    HW220220   2.549   1.886   1.521  0.9293  1.3493  1.2999
 2921SOL     OW20221   0.708   2.385   9.531  0.3438 -0.3187  0.2419
 2921SOL    HW120222   0.718   2.477   9.507 -0.2195  0.3201  2.4611
 2921SOL    HW220223   0.794   2.349   9.510  0.3079 -0.3635  0.1705
 2922SOL     OW20224   4.256   4.077   8.438 -0.2489  0.5313  0.4354
 2922SOL    HW120225   4.232   4.040   8.523  1.5514 -0.4308  0.5229
 2922SOL    HW220226   4.173   4.074   8.391  0.3867 -0.2066 -0.6308
 2923SOL     OW20227   1.263   1.792   2.065 -0.2201 -0.5645  0.3155
 2923SOL    HW120228   1.200   1.765   1.998 -1.6889  1.3031  0.9476
 2923SOL    HW220229   1.347   1.800   2.019 -1.1608 -0.4512 -1.4130
 2924SOL     OW20230   1.724   0.602   2.239  0.8893 -0.1407 -0.0786
 2924SOL    HW120231   1.789   0.532   2.233  0.8158 -0.0847 -1.5553
 2924SOL    HW220232   1.755   0.639   2.321 -1.2475 -0.6438  0.9523
 2925SOL     OW20233   4.224   3.399  12.181 -0.5881 -0.6337  0.3128
 2925SOL    HW120234   4.310   3.380  12.220 -0.4697 -0.4797  0.1244
 2925SOL    HW220235   4.244   3.460  12.110 -2.4755  0.2857  0.5837
 2926SOL     OW20236   1.357   1.465   8.599 -0.2965  0.0966 -0.2751
 2926SOL    HW120237   1.418   1.420   8.541  0.7922  0.8995  0.2481
 2926SOL    HW220238   1.340   1.408   8.674  0.9817  2.1822  1.6138
 2927SOL     OW20239   3.117   3.219  12.764  0.2404 -0.3453 -0.1231
 2927SOL    HW120240   3.187   3.222  12.698 -0.1598 -2.2981 -0.6449
 2927SOL    HW220241   3.146   3.294  12.816  0.8844 -1.3886  1.0237
 2928SOL     OW20242   0.162   2.633  12.128  0.0432 -0.0795  0.4646
 2928SOL    HW120243   0.178   2.640  12.033 -1.2135  0.3438  0.2826
 2928SOL    HW220244   0.164   2.538  12.138 -0.4802  0.0249  1.5429
 2929SOL     OW20245   4.697   0.430   9.480 -0.3618 -0.1693  0.1703
 2929SOL    HW120246   4.702   0.347   9.526 -0.8991  0.2476  0.9766
 2929SOL    HW220247   0.060   0.475   9.498 -0.8983  0.4651  1.0833
 2930SOL     OW20248   4.365   0.509  12.007 -0.0716 -0.2127 -0.4064
 2930SOL    HW120249   4.306   0.440  12.037  0.5192 -1.8428 -3.0626
 2930SOL    HW220250   4.415   0.533  12.085 -0.1391  0.1866 -0.4843
 2931SOL     OW20251   4.240   1.125   6.672  0.0539  0.5028 -0.5633
 2931SOL    HW120252   4.300   1.051   6.674 -1.2551 -0.4822  1.4728
 2931SOL    HW220253   4.273   1.180   6.743 -1.5204 -0.0110  0.5670
 2932SOL     OW20254   2.563   1.721   2.028  0.4150  0.3569 -0.2441
 2932SOL    HW120255   2.604   1.710   1.942  2.1326 -2.1932  0.9015
 2932SOL    HW220256   2.572   1.816   2.031 -0.5652  0.5592 -3.2691
 2933SOL     OW20257   3.171   2.250  13.224 -0.0642  0.1143  0.5547
 2933SOL    HW120258   3.175   2.276  13.316 -1.6140  0.5417  0.4921
 2933SOL    HW220259   3.212   2.163  13.225  2.7971  1.4348 -2.2919
 2934SOL     OW20260   2.614   0.821  12.360 -0.4622  0.4511  0.3752
 2934SOL    HW120261   2.643   0.732  12.380 -0.6509  0.2387 -0.3050
 2934SOL    HW220262   2.530   0.798  12.321  0.2684 -1.8604  0.1630
 2935SOL     OW20263   1.829   2.047   1.660  0.5397 -0.2104  0.1787
 2935SOL    HW120264   1.897   2.002   1.711  0.5293 -1.0040 -0.5104
 2935SOL    HW220265   1.793   2.120   1.710 -1.6074  0.0957 -1.8539
 2936SOL     OW20266   3.695   2.745   4.048 -0.0352  0.1134 -0.2375
 2936SOL    HW120267   3.746   2.825   4.064 -1.0401  0.5030  1.0138
 2936SOL    HW220268   3.747   2.678   4.093 -0.6057 -0.9928 -1.2201
 2937SOL     OW20269   0.094   3.016  13.807 -0.3218 -0.2506  0.3494
 2937SOL    HW120270   0.025   3.019  13.872 -0.9124 -0.1650 -0.2819
 2937SOL    HW220271   0.174   3.033  13.857 -0.4225 -0.3265  0.5328
 2938SOL     OW20272   3.701   0.243  14.872  0.1854 -0.3868  0.2685
 2938SOL    HW120273   3.650   0.323  14.884 -1.3997 -1.4074  0.3935
 2938SOL    HW220274   3.678   0.214  14.784  1.8748 -1.2306  0.1075
 2939SOL     OW20275   3.612   0.216   6.502 -0.2867 -0.1701 -0.2064
 2939SOL    HW120276   3.586   0.197   6.412  1.2947 -0.7458 -0.5518
 2939SOL    HW220277   3.654   0.301   6.488 -1.0325 -0.0978 -1.9915
 2940SOL     OW20278   0.981   4.191   2.776  0.0044 -0.1765 -0.3794
 2940SOL    HW120279   0.935   4.150   2.704 -2.1561  1.6829 -0.0451
 2940SOL    HW220280   0.946   4.147   2.853 -0.3556  0.4587 -0.1787
 2941SOL     OW20281   3.642   3.219   6.239  0.1584 -0.1165 -0.1022
 2941SOL    HW120282   3.646   3.169   6.157 -1.0918  1.3401 -1.0549
 2941SOL    HW220283   3.695   3.295   6.215 -0.8843 -0.0112 -2.0683
 2942SOL     OW20284   1.221   1.040   8.027  0.3356 -0.1416  0.2184
 2942SOL    HW120285   1.181   0.955   8.047 -0.2033  0.2044  0.6099
 2942SOL    HW220286   1.313   1.014   8.023 -0.0113 -1.3956  0.2635
 2943SOL     OW20287   4.337   4.569   6.108 -0.2712 -0.0049 -0.2362
 2943SOL    HW120288   4.426   4.551   6.139 -0.9918 -1.5178  0.9803
 2943SOL    HW220289   4.325   4.516   6.030  1.4816  0.5483 -0.8847
 2944SOL     OW20290   2.209   4.227   8.948 -0.5966  0.2437  0.6903
 2944SOL    HW120291   2.182   4.319   8.948 -1.1371  0.0846  0.0688
 2944SOL    HW220292   2.145   4.191   8.887 -0.4201  1.3717 -0.1558
 2945SOL     OW20293   0.359   3.590   9.492 -0.0123 -0.4317  0.3080
 2945SOL    HW120294   0.340   3.497   9.497 -3.0341  0.0887 -1.7611
 2945SOL    HW220295   0.447   3.590   9.453  0.6437 -1.1197  1.8145
 2946SOL     OW20296   0.014   2.904   8.188  0.6473  0.5108 -0.3739
 2946SOL    HW120297   0.101   2.893   8.149  0.3828 -0.7531 -0.6219
 2946SOL    HW220298   0.014   2.809   8.205  0.1759  0.2466 -1.8355
 2947SOL     OW20299   0.052   3.087  13.314 -0.1028  0.1012  0.2042
 2947SOL    HW120300   0.082   3.171  13.350  0.5070  0.8463 -2.0431
 2947SOL    HW220301   4.712   3.051  13.379 -0.9843 -0.5624 -1.0044
 2948SOL     OW20302   0.960   4.111   7.261 -0.2634 -0.0771 -0.4373
 2948SOL    HW120303   0.960   4.162   7.181 -0.6088 -1.6251 -1.4316
 2948SOL    HW220304   1.045   4.066   7.258 -0.0284  0.3415 -0.0715
 2949SOL     OW20305   4.072   4.558  10.605  1.0016 -0.5622 -0.7614
 2949SOL    HW120306   4.132   4.489  10.634 -0.0459 -1.7930 -1.5190
 2949SOL    HW220307   4.084   4.629  10.667  4.9065 -0.5698 -1.5201
 2950SOL     OW20308   0.793   4.637  16.278  0.5603  0.2864 -0.3061
 2950SOL    HW120309   0.873   4.684  16.302  0.0632  1.6375 -1.2894
 2950SOL    HW220310   0.817   4.606  16.191 -1.0971  1.9255 -1.3455
 2951SOL     OW20311   1.247   2.233  14.828  0.0790 -0.0014 -0.0549
 2951SOL    HW120312   1.223   2.228  14.736  1.1180 -1.6718 -0.2353
 2951SOL    HW220313   1.321   2.174  14.819 -0.7521 -1.0981  0.2133
 2952SOL     OW20314   3.184   1.086  15.235  0.2973  0.3760  0.3379
 2952SOL    HW120315   3.201   1.113  15.144  0.5896 -0.4318  0.1579
 2952SOL    HW220316   3.263   1.111  15.283 -0.7469  2.4543  0.9631
 2953SOL     OW20317   3.245   2.680  17.643 -0.1240 -0.6316  0.0564
 2953SOL    HW120318   3.165   2.638  17.676 -1.2746  2.5710  1.2618
 2953SOL    HW220319   3.286   2.712   0.039 -3.9367  2.3078  0.7757
 2954SOL     OW20320   2.345   1.458  11.021  0.2854 -0.0919  0.1585
 2954SOL    HW120321   2.400   1.400  10.967  0.2851  0.2065 -0.1657
 2954SOL    HW220322   2.376   1.542  10.987  1.9604 -1.0469 -0.7027
 2955SOL     OW20323   3.570   4.603   9.776  0.3276 -0.1920  0.3515
 2955SOL    HW120324   3.596   4.561   9.858 -0.6381 -1.1583  0.1629
 2955SOL    HW220325   3.507   4.534   9.755 -0.5663  1.1634 -1.4952
 2956SOL     OW20326   3.515   4.039   0.292 -0.4463  0.6521 -0.3243
 2956SOL    HW120327   3.553   3.953   0.273 -0.6639  1.1493 -2.9754
 2956SOL    HW220328   3.576   4.061   0.362 -1.7636 -0.4228  1.1677
 2957SOL     OW20329   1.736   4.037   8.810  0.3569  1.2398 -0.3769
 2957SOL    HW120330   1.675   3.966   8.793 -0.7584  2.2486 -0.5436
 2957SOL    HW220331   1.683   4.103   8.766 -0.9545 -1.6721 -3.1871
 2958SOL     OW20332   0.691   4.393  15.362 -0.3083 -0.1256 -0.3137
 2958SOL    HW120333   0.692   4.479  15.319 -0.4593  0.7285  1.3607
 2958SOL    HW220334   0.607   4.404  15.406 -1.1742 -0.5312 -1.8996
 2959SOL     OW20335   3.388   0.376   7.147  0.2501 -0.4503 -0.2789
 2959SOL    HW120336   3.300   0.380   7.109  0.5175 -3.2158 -1.1508
 2959SOL    HW220337   3.441   0.329   7.082  1.0026 -0.6188  0.4591
 2960SOL     OW20338   2.610   0.212   6.060 -0.4157  0.2358  0.1665
 2960SOL    HW120339   2.604   0.244   6.150 -1.4751 -0.0758  0.2063
 2960SOL    HW220340   2.598   0.300   6.024 -0.4677 -0.1013 -0.6449
 2961SOL     OW20341   2.696   0.599   9.255 -0.1311 -0.3671 -0.4697
 2961SOL    HW120342   2.652   0.549   9.324 -2.1684 -0.7762 -2.0659
 2961SOL    HW220343   2.643   0.588   9.177 -1.5089 -0.0125  0.4129
 2962SOL     OW20344   2.252   2.619   2.845 -0.1018 -0.3901 -0.0019
 2962SOL    HW120345   2.298   2.538   2.824 -2.7852 -1.8184 -0.3886
 2962SOL    HW220346   2.161   2.590   2.845 -0.6390  1.2717  1.0697
 2963SOL     OW20347   1.011   3.706   8.840  0.1814  0.5089 -0.1655
 2963SOL    HW120348   1.017   3.730   8.933 -3.7993  1.6213 -0.1748
 2963SOL    HW220349   1.101   3.710   8.807  0.0984  3.6110 -0.0373
 2964SOL     OW20350   4.047   1.786   4.331  0.0056 -0.0435  0.0726
 2964SOL    HW120351   4.072   1.738   4.252  2.5937  0.4590  0.5972
 2964SOL    HW220352   4.031   1.876   4.302 -0.6845 -0.2988 -0.3476
 2965SOL     OW20353   0.460   1.226  17.320  0.2638 -0.2451 -0.1193
 2965SOL    HW120354   0.424   1.208  17.407  1.2567  2.3562  0.8513
 2965SOL    HW220355   0.546   1.249  17.356  1.3520 -0.3619 -2.6512
 2966SOL     OW20356   3.850   0.105   2.412 -0.0017 -0.0515  0.1207
 2966SOL    HW120357   3.901   0.158   2.351 -0.2100  0.4038  0.3454
 2966SOL    HW220358   3.822   0.039   2.348  0.7542 -2.1387  1.9582
 2967SOL     OW20359   3.039   1.408   1.081  0.1016 -0.5953  0.0218
 2967SOL    HW120360   3.125   1.376   1.111  0.6269  0.6589 -0.1333
 2967SOL    HW220361   2.985   1.338   1.117 -1.8226  1.9438  2.0375
 2968SOL     OW20362   1.765   4.652   3.142 -0.1492 -0.2213 -0.2376
 2968SOL    HW120363   1.777   4.634   3.049 -3.9559 -0.4788 -0.6714
 2968SOL    HW220364   1.674   4.680   3.135 -0.1515 -0.7570 -2.2755
 2969SOL     OW20365   0.586   1.296   5.853  0.6495 -0.1921 -0.5879
 2969SOL    HW120366   0.571   1.385   5.885  2.5627 -0.5894  1.4039
 2969SOL    HW220367   0.561   1.248   5.932  1.8140 -1.4701 -0.9985
 2970SOL     OW20368   4.307   0.082   8.376 -0.4048  0.5554 -0.5781
 2970SOL    HW120369   4.213   0.068   8.372 -0.3414 -0.5532  1.7265
 2970SOL    HW220370   4.313   0.129   8.459 -1.8994  1.3497 -0.9190
 2971SOL     OW20371   3.422   2.054   7.813 -0.1856 -0.2702 -0.1619
 2971SOL    HW120372   3.338   2.096   7.795 -0.0303 -0.9028 -2.3904
 2971SOL    HW220373   3.427   2.007   7.730 -0.5621 -0.2911 -0.1726
 2972SOL     OW20374   4.499   3.684   7.568 -0.0407 -0.2693 -0.2586
 2972SOL    HW120375   4.591   3.660   7.569  0.0006 -0.0690  0.5453
 2972SOL    HW220376   4.464   3.609   7.615  0.4006  1.2220  2.4346
 2973SOL     OW20377   4.081   1.366  14.625  0.4653  0.7712  0.0637
 2973SOL    HW120378   4.160   1.319  14.599  0.2851 -0.3907  1.6184
 2973SOL    HW220379   4.042   1.298  14.679 -0.8066  1.8648  0.5150
 2974SOL     OW20380   3.585   0.592  17.386  0.4276  0.2149 -0.5437
 2974SOL    HW120381   3.679   0.600  17.406  0.4481  0.4501 -0.7376
 2974SOL    HW220382   3.577   0.517  17.327  2.4923 -0.6534  0.2787
 2975SOL     OW20383   1.431   2.398  12.819  0.3127  0.5197  0.5550
 2975SOL    HW120384   1.525   2.409  12.807  0.9596 -3.4286  2.0613
 2975SOL    HW220385   1.412   2.487  12.848 -2.0063  0.5741 -1.1203
 2976SOL     OW20386   2.257   1.751  15.944  0.0471 -0.3339 -0.2614
 2976SOL    HW120387   2.341   1.779  15.980  0.9134 -4.2633  0.6675
 2976SOL    HW220388   2.208   1.831  15.923  1.8654  1.2914  1.6977
 2977SOL     OW20389   0.104   1.282   3.240  0.3991  0.6149 -0.6439
 2977SOL    HW120390   0.196   1.294   3.215  1.2189 -1.6962  1.2082
 2977SOL    HW220391   0.117   1.215   3.308  1.8156  3.4872  1.8834
 2978SOL     OW20392   2.693   4.479   4.328  0.6761 -0.2662  0.0839
 2978SOL    HW120393   2.732   4.473   4.240 -0.5506  1.2653 -0.5573
 2978SOL    HW220394   2.670   4.571   4.319  2.3685  0.0859 -0.6354
 2979SOL     OW20395   1.095   2.330  12.203 -0.1918  0.4879 -0.1142
 2979SOL    HW120396   1.041   2.325  12.123  3.2055  2.0233 -2.4893
 2979SOL    HW220397   1.059   2.400  12.258  3.0225  1.1070  1.1493
 2980SOL     OW20398   0.848   2.318  16.080 -0.4483 -0.1730 -0.5674
 2980SOL    HW120399   0.826   2.411  16.080 -0.9588 -0.2982 -0.7504
 2980SOL    HW220400   0.794   2.285  16.152  1.3373  1.5736  1.5953
 2981SOL     OW20401   4.650   1.489   5.117  0.3407 -0.6246  0.0563
 2981SOL    HW120402   4.585   1.505   5.048  1.6252  2.0221 -0.5435
 2981SOL    HW220403   4.636   1.579   5.149  3.7333 -0.0394 -0.1156
 2982SOL     OW20404   0.421   1.552   4.997  0.0111 -0.2360  0.2455
 2982SOL    HW120405   0.347   1.525   4.942 -0.5735  0.0038  0.9118
 2982SOL    HW220406   0.469   1.609   4.937 -0.5694 -0.4848 -0.4564
 2983SOL     OW20407   2.938   4.126  13.272  0.4821  0.3035 -0.5692
 2983SOL    HW120408   2.963   4.217  13.260  0.0773  0.7157  1.8331
 2983SOL    HW220409   2.874   4.108  13.203 -1.7755  1.6096  1.1963
 2984SOL     OW20410   3.483   4.248   8.348  0.6566 -0.4626 -0.6750
 2984SOL    HW120411   3.562   4.235   8.400  0.4996  0.0833 -0.2958
 2984SOL    HW220412   3.511   4.316   8.286  0.5556 -1.6394 -2.0137
 2985SOL     OW20413   2.391   2.800   5.506 -0.5565 -0.2362 -0.0557
 2985SOL    HW120414   2.421   2.822   5.594  0.3411  1.4960 -0.8032
 2985SOL    HW220415   2.329   2.870   5.483  1.8110  2.1791  0.9016
 2986SOL     OW20416   1.492   1.685  11.827 -0.2130 -0.3964 -0.7106
 2986SOL    HW120417   1.517   1.777  11.840 -0.4219 -0.3445 -0.6765
 2986SOL    HW220418   1.397   1.684  11.815 -0.2745 -1.8255 -0.0436
 2987SOL     OW20419   4.597   4.595   2.432  0.3370 -0.0485  0.4478
 2987SOL    HW120420   4.626   4.582   2.522 -0.4081 -1.0054  0.5597
 2987SOL    HW220421   4.599   4.505   2.399  1.6228  0.2797 -0.3214
 2988SOL     OW20422   4.498   0.827  11.849  0.7576  0.4639 -0.5179
 2988SOL    HW120423   4.406   0.808  11.830  0.1489  2.2952  0.5543
 2988SOL    HW220424   4.541   0.742  11.843  1.7523  0.9557 -0.4288
 2989SOL     OW20425   2.366   4.081   4.507 -0.2217  0.4956 -0.2863
 2989SOL    HW120426   2.399   4.075   4.597 -0.6079  1.8955 -0.0383
 2989SOL    HW220427   2.446   4.096   4.457  0.8145 -0.0521  1.2116
 2990SOL     OW20428   3.316   2.167   8.266 -0.6022 -0.5218  0.6143
 2990SOL    HW120429   3.408   2.145   8.251 -0.7719 -0.5707 -0.3371
 2990SOL    HW220430   3.318   2.262   8.262  0.9514 -0.5379  1.0434
 2991SOL     OW20431   3.042   2.453   7.325 -0.3600  0.1997 -0.2965
 2991SOL    HW120432   3.104   2.521   7.352 -0.6093  0.0655  0.6399
 2991SOL    HW220433   2.965   2.496   7.363 -0.8997 -0.1744 -0.9705
 2992SOL     OW20434   2.761   2.112   1.798  0.2309  0.3503 -0.0204
 2992SOL    HW120435   2.768   2.060   1.717 -0.9282  0.8375 -0.4290
 2992SOL    HW220436   2.809   2.060   1.863  1.7455  0.6949 -0.8465
 2993SOL     OW20437   4.038   3.174   7.242 -0.3529  0.0451  0.3639
 2993SOL    HW120438   3.986   3.196   7.319 -0.2987  1.2904  0.0402
 2993SOL    HW220439   4.124   3.193   7.279 -0.7682  1.5180  0.5640
 2994SOL     OW20440   3.062   1.659  10.983  0.3496  0.3950 -0.0057
 2994SOL    HW120441   3.093   1.585  11.036  0.1577  0.9532  0.8797
 2994SOL    HW220442   3.045   1.724  11.052 -0.2272 -0.4067  0.6098
 2995SOL     OW20443   1.799   0.368   2.002  0.2820  0.2229 -0.1178
 2995SOL    HW120444   1.876   0.362   1.946  1.2372 -0.4232  1.2532
 2995SOL    HW220445   1.836   0.349   2.088  2.5062 -1.1488 -1.3815
 2996SOL     OW20446   3.362   3.514  14.548 -0.6841  0.7785  0.0550
 2996SOL    HW120447   3.433   3.577  14.566  0.0205 -0.3558  1.2166
 2996SOL    HW220448   3.391   3.438  14.599 -2.0172 -0.6092 -1.2714
 2997SOL     OW20449   3.588   0.982   1.722  0.1076 -0.1089 -0.4004
 2997SOL    HW120450   3.628   0.987   1.809  0.2806 -3.1939 -0.2935
 2997SOL    HW220451   3.662   0.943   1.676  0.6150 -1.3950  1.5137
 2998SOL     OW20452   1.767   4.693   8.408  0.0029  0.0102 -0.0723
 2998SOL    HW120453   1.786   4.657   8.322 -1.7218 -2.5300  0.6279
 2998SOL    HW220454   1.684   4.650   8.427  1.1418 -2.0385  0.2353
 2999SOL     OW20455   0.993   0.333   8.100  0.6204 -0.1362  0.3934
 2999SOL    HW120456   0.926   0.401   8.092  0.7536  0.2006  2.0694
 2999SOL    HW220457   1.041   0.358   8.179 -0.4003  0.2170  0.9026
 3000SOL     OW20458   2.561   1.494   8.246 -0.3284  0.0870  0.1043
 3000SOL    HW120459   2.642   1.494   8.194  0.6296 -1.3710  1.5951
 3000SOL    HW220460   2.601   1.486   8.332  1.1631  3.7582 -0.2442
 3001SOL     OW20461   3.507   0.272   6.925 -0.3435  0.2978  0.2569
 3001SOL    HW120462   3.480   0.282   6.834  1.5096 -0.9854 -0.4430
 3001SOL    HW220463   3.533   0.180   6.919 -0.4533  0.3479 -0.9358
 3002SOL     OW20464   3.702   4.147   0.804 -0.5498 -0.3850 -0.0975
 3002SOL    HW120465   3.609   4.151   0.825  0.0423  4.9195  1.4362
 3002SOL    HW220466   3.714   4.227   0.752  0.0176 -0.3562  0.0689
 3003SOL     OW20467   4.329   1.786   5.154 -0.0094 -0.1271  0.1572
 3003SOL    HW120468   4.282   1.815   5.232 -2.0116  0.8737 -1.4259
 3003SOL    HW220469   4.298   1.697   5.168  0.1827 -0.6003 -2.3437
 3004SOL     OW20470   1.452   4.577   3.731 -0.1115 -0.0876 -0.2350
 3004SOL    HW120471   1.493   4.579   3.644  0.5772  1.3769  0.1352
 3004SOL    HW220472   1.383   4.512   3.718 -0.4006  0.3757 -1.0328
 3005SOL     OW20473   2.537   3.745   3.973 -0.2857 -0.3081  0.2973
 3005SOL    HW120474   2.619   3.704   4.003 -0.4577  0.1703  1.4330
 3005SOL    HW220475   2.520   3.685   3.901 -0.2779 -1.3484  1.1554
 3006SOL     OW20476   1.026   1.761   4.114  0.6053 -0.5711  0.2210
 3006SOL    HW120477   1.118   1.751   4.090  0.7019 -0.6496  0.6279
 3006SOL    HW220478   1.022   1.716   4.198 -0.7613  0.3217  0.6464
 3007SOL     OW20479   4.421   2.792   2.712  0.1800  0.4381 -0.4858
 3007SOL    HW120480   4.439   2.699   2.701 -0.7064  0.4275 -1.7908
 3007SOL    HW220481   4.365   2.808   2.636 -1.1653 -0.3083  0.3379
 3008SOL     OW20482   0.563   0.456  17.679  0.6001 -0.3014 -0.1235
 3008SOL    HW120483   0.527   0.367  17.678 -1.3932  0.4869  0.2100
 3008SOL    HW220484   0.630   0.451  17.611 -0.0888  1.5307 -0.9202
 3009SOL     OW20485   1.552   0.949   3.949  0.1452 -0.3348 -0.1841
 3009SOL    HW120486   1.463   0.983   3.947  0.6442  0.9238 -1.1527
 3009SOL    HW220487   1.601   1.013   3.897  0.2623  0.2337  0.6250
 3010SOL     OW20488   1.719   3.064   4.583  0.2141  0.3886 -0.0844
 3010SOL    HW120489   1.645   3.102   4.631  1.2622  1.1799  0.9081
 3010SOL    HW220490   1.724   2.973   4.613  0.2078  0.3534 -0.1906
 3011SOL     OW20491   0.229   1.144   5.628 -0.1749  0.5549 -0.0050
 3011SOL    HW120492   0.311   1.186   5.654  0.9923 -0.9306 -1.3168
 3011SOL    HW220493   0.240   1.157   5.533  1.1764 -0.1553  0.0527
 3012SOL     OW20494   4.445   4.192   5.115  0.4993 -0.2302 -0.1044
 3012SOL    HW120495   4.481   4.119   5.166  1.0845  0.2431  0.1633
 3012SOL    HW220496   4.533   4.222   5.090  1.3698 -1.2860  1.6830
 3013SOL     OW20497   4.042   0.424   1.197  0.3373  0.3812 -0.0799
 3013SOL    HW120498   4.067   0.512   1.168 -3.7013  0.7827 -2.4421
 3013SOL    HW220499   4.087   0.370   1.132  0.9724  0.3459  0.4022
 3014SOL     OW20500   3.676   4.305   8.517  0.1074 -0.5850  0.1261
 3014SOL    HW120501   3.627   4.326   8.596  0.8118  0.9646  0.1563
 3014SOL    HW220502   3.710   4.216   8.529  1.4557 -0.0828  0.0682
 3015SOL     OW20503   1.416   3.852   2.429 -0.2532  0.3513  0.0332
 3015SOL    HW120504   1.462   3.907   2.494  0.8628 -1.2846  0.6258
 3015SOL    HW220505   1.412   3.914   2.356  1.9146  1.4204  0.8182
 3016SOL     OW20506   3.433   2.292  12.357 -0.3096 -0.3585  0.3367
 3016SOL    HW120507   3.504   2.247  12.311 -1.0759 -0.1271 -1.0534
 3016SOL    HW220508   3.448   2.386  12.356  0.3591 -0.4691 -0.1999
 3017SOL     OW20509   3.131   4.691   5.164  0.5974 -0.2809 -0.0498
 3017SOL    HW120510   3.108   4.689   5.071 -1.1428 -0.4113  0.3791
 3017SOL    HW220511   3.127   0.060   5.197 -1.2627 -0.6350  0.6967
 3018SOL     OW20512   1.687   3.348   9.290 -1.0370  0.0754  0.8844
 3018SOL    HW120513   1.603   3.305   9.274 -0.5708 -0.3048 -0.5509
 3018SOL    HW220514   1.750   3.276   9.297  3.2425  3.6252 -1.0693
 3019SOL     OW20515   1.596   2.443  15.553  0.4276  0.5458  0.1499
 3019SOL    HW120516   1.686   2.460  15.526  1.0530 -0.6298  1.5089
 3019SOL    HW220517   1.582   2.363  15.501 -0.2560  1.6469 -1.3652
 3020SOL     OW20518   2.499   1.848   9.711 -0.3150 -0.1203  0.1238
 3020SOL    HW120519   2.566   1.790   9.674  0.4819  0.6275  0.3968
 3020SOL    HW220520   2.424   1.827   9.655  0.4247  1.2133 -1.3822
 3021SOL     OW20521   1.287   2.329  16.617  1.1842 -0.2977 -0.0490
 3021SOL    HW120522   1.330   2.401  16.663 -0.9732 -0.8614  2.8196
 3021SOL    HW220523   1.271   2.360  16.528 -1.1071 -0.8098  0.1702
 3022SOL     OW20524   2.809   2.096   5.379  0.1970  0.2621 -0.3883
 3022SOL    HW120525   2.807   2.111   5.284 -0.5228  0.7996 -0.2883
 3022SOL    HW220526   2.837   2.182   5.413  0.4721 -0.3209  0.8634
 3023SOL     OW20527   4.467   3.416   8.317  0.0021  0.2139 -0.0731
 3023SOL    HW120528   4.376   3.416   8.345 -0.0752 -2.2004 -0.2727
 3023SOL    HW220529   4.505   3.362   8.387  0.9348  2.1717  0.9422
 3024SOL     OW20530   2.846   0.407  15.092 -0.0027  0.5619  0.0169
 3024SOL    HW120531   2.940   0.402  15.109  0.2835  0.4253 -1.6635
 3024SOL    HW220532   2.818   0.498  15.088  0.0869  0.6308  0.9394
 3025SOL     OW20533   3.751   4.706   7.715  0.2755  0.2639 -0.3089
 3025SOL    HW120534   3.794   0.069   7.693 -0.4676  0.4570 -1.0149
 3025SOL    HW220535   3.723   0.003   7.805 -0.7600  1.1917 -0.8129
 3026SOL     OW20536   0.576   0.780   8.164 -0.5091 -0.1748 -0.0097
 3026SOL    HW120537   0.642   0.845   8.187  1.7255 -2.1591 -0.8915
 3026SOL    HW220538   0.539   0.751   8.248 -1.4180 -1.2497 -0.7758
 3027SOL     OW20539   3.525   0.404   3.050 -0.2483 -0.2944  0.2212
 3027SOL    HW120540   3.516   0.310   3.066  1.1747 -0.4204  0.2164
 3027SOL    HW220541   3.577   0.430   3.126  0.9415 -2.2015  0.0576
 3028SOL     OW20542   0.748   1.830   3.524  0.0954  0.0823  0.2408
 3028SOL    HW120543   0.791   1.835   3.439 -1.7789  0.4909 -0.6816
 3028SOL    HW220544   0.814   1.812   3.591  1.9302 -0.9022 -1.8514
 3029SOL     OW20545   0.112   2.334  11.904 -0.6076  0.8841  0.2400
 3029SOL    HW120546   0.141   2.338  11.995  0.9995  0.2880 -0.2429
 3029SOL    HW220547   0.171   2.266  11.872 -1.1495  0.0464  1.0335
 3030SOL     OW20548   0.898   3.510   9.995 -0.1591  0.0273 -0.2082
 3030SOL    HW120549   0.881   3.600   9.965  1.8720  0.0310 -1.3553
 3030SOL    HW220550   0.940   3.543  10.075 -1.4328  1.0739  0.0316
 3031SOL     OW20551   0.237   0.566   4.857 -0.2852  0.1357 -0.3248
 3031SOL    HW120552   0.150   0.587   4.889  0.0332 -0.2610  0.8085
 3031SOL    HW220553   0.224   0.471   4.854  0.1484  0.0209  1.5362
 3032SOL     OW20554   4.200   1.777   1.331 -0.2088  0.3588 -0.4971
 3032SOL    HW120555   4.108   1.751   1.334 -0.7002  1.9707 -1.2409
 3032SOL    HW220556   4.238   1.700   1.290 -0.8030  0.5634 -1.4410
 3033SOL     OW20557   1.920   1.586   6.163  0.2931 -0.2078  0.1441
 3033SOL    HW120558   1.868   1.622   6.235 -1.0456  0.1810 -1.0229
 3033SOL    HW220559   1.989   1.544   6.214  0.4285 -0.4600 -0.2496
 3034SOL     OW20560   4.590   2.973   2.545 -0.3101  0.1275 -0.1142
 3034SOL    HW120561   4.605   2.906   2.478 -1.1404  0.4289 -0.5974
 3034SOL    HW220562   4.514   2.937   2.591 -0.0263 -0.9356 -0.4762
 3035SOL     OW20563   4.102   0.759  10.677  0.1364  0.3204 -0.4040
 3035SOL    HW120564   4.065   0.844  10.697 -1.2356  0.0707 -1.8636
 3035SOL    HW220565   4.186   0.776  10.635 -0.8639  1.8737 -1.7501
 3036SOL     OW20566   2.227   3.090  11.956  0.0925  0.2853  0.3693
 3036SOL    HW120567   2.255   3.165  12.009 -0.7019  0.0272  1.1480
 3036SOL    HW220568   2.277   3.025  12.006  0.0425 -0.2159 -0.2248
 3037SOL     OW20569   4.061   4.527  11.636  0.6627  0.5522  0.0142
 3037SOL    HW120570   4.040   4.620  11.634  0.7570  0.6038  1.4169
 3037SOL    HW220571   4.105   4.534  11.721 -0.7949  0.1503  0.8067
 3038SOL     OW20572   1.044   3.601   7.873 -0.0182  0.0545  0.0252
 3038SOL    HW120573   1.041   3.508   7.851 -1.1183 -0.0247  0.5128
 3038SOL    HW220574   1.015   3.605   7.964 -1.2626 -1.1332 -0.3157
 3039SOL     OW20575   2.123   2.760   7.919 -0.3352  0.4321  0.2854
 3039SOL    HW120576   2.093   2.690   7.977  1.6866 -0.2563  0.5113
 3039SOL    HW220577   2.213   2.782   7.942  0.2754 -0.8276 -0.9454
 3040SOL     OW20578   0.546   3.597   3.378 -0.2222  0.7590 -0.1934
 3040SOL    HW120579   0.524   3.530   3.313 -0.6480 -0.3054  1.0723
 3040SOL    HW220580   0.546   3.538   3.453 -0.0926  2.3250  1.0311
 3041SOL     OW20581   4.319   0.087   2.758  0.0389 -0.0958  0.3689
 3041SOL    HW120582   4.299   0.160   2.816 -0.8614  0.9093 -1.2186
 3041SOL    HW220583   4.406   0.063   2.790 -0.4567 -1.6812  0.5413
 3042SOL     OW20584   0.718   1.950   2.589 -0.0209 -0.4757  0.0247
 3042SOL    HW120585   0.751   1.863   2.567  0.6807 -0.3173  0.4460
 3042SOL    HW220586   0.627   1.944   2.559  0.0751  0.4381 -0.4362
 3043SOL     OW20587   1.307   0.529   9.893 -0.4094  0.1738 -0.1967
 3043SOL    HW120588   1.398   0.518   9.922 -1.5181  0.7813  3.4275
 3043SOL    HW220589   1.269   0.462   9.949  2.6579 -0.7182  0.8388
 3044SOL     OW20590   0.830   3.981   4.833  0.2271  0.0008 -0.4711
 3044SOL    HW120591   0.766   3.962   4.901  2.2321  0.2030  1.4715
 3044SOL    HW220592   0.873   4.059   4.869  0.2258 -0.8571  1.3564
 3045SOL     OW20593   0.151   1.673   3.624  0.0587  0.0539  0.0067
 3045SOL    HW120594   0.078   1.682   3.686 -1.6141  1.6782 -2.2531
 3045SOL    HW220595   0.222   1.692   3.685  0.3820 -1.8106  0.2356
 3046SOL     OW20596   0.853   1.239  14.594 -0.8084 -0.0755 -1.0356
 3046SOL    HW120597   0.883   1.167  14.539 -0.7449  0.0373 -1.1454
 3046SOL    HW220598   0.913   1.230  14.668 -1.7860  1.1291 -0.1035
 3047SOL     OW20599   0.455   2.607  12.146  0.4445 -0.8465  0.0828
 3047SOL    HW120600   0.360   2.597  12.139  0.3285 -0.0523  0.6209
 3047SOL    HW220601   0.478   2.561  12.065 -0.3914  0.4744 -0.8978
 3048SOL     OW20602   2.254   2.531   9.414 -0.3590  0.6063 -0.1751
 3048SOL    HW120603   2.214   2.618   9.423  1.0533  1.4662 -2.2326
 3048SOL    HW220604   2.315   2.550   9.343  0.7180 -0.9370  0.3377
 3049SOL     OW20605   1.600   4.556   7.084 -0.5023 -0.5565 -0.0571
 3049SOL    HW120606   1.528   4.619   7.079 -0.3750 -0.4533 -0.5706
 3049SOL    HW220607   1.654   4.565   7.006 -0.3317  3.2319  0.5122
 3050SOL     OW20608   3.638   3.416   4.169 -0.0483  0.5565 -0.3794
 3050SOL    HW120609   3.676   3.398   4.083 -2.0483  0.2936 -1.2102
 3050SOL    HW220610   3.545   3.394   4.164 -0.2838  1.4204  0.1659
 3051SOL     OW20611   2.923   4.506  15.990 -0.0223 -0.7864  0.5571
 3051SOL    HW120612   2.880   4.566  16.051  0.8914 -1.6828  2.0728
 3051SOL    HW220613   2.943   4.560  15.913  0.4670 -1.1109  0.4569
 3052SOL     OW20614   3.822   4.079   1.990 -0.1793 -0.5122  0.0497
 3052SOL    HW120615   3.857   4.046   2.072 -0.3740 -0.0222  0.3323
 3052SOL    HW220616   3.765   4.152   2.015 -0.9816 -0.3499 -2.2079
 3053SOL     OW20617   0.682   3.694  17.499  0.4682  0.4637  1.0158
 3053SOL    HW120618   0.745   3.755  17.462 -0.0277 -0.1977 -0.9369
 3053SOL    HW220619   0.738   3.621  17.528  0.6264 -0.0574 -0.5974
 3054SOL     OW20620   3.915   3.228   9.089 -0.2890 -0.1577  0.2651
 3054SOL    HW120621   3.838   3.282   9.104 -0.9444 -0.8829 -0.4989
 3054SOL    HW220622   3.882   3.139   9.101  1.0246 -0.9949 -2.3330
 3055SOL     OW20623   0.917   2.769   6.872 -0.2904 -0.3044 -0.3852
 3055SOL    HW120624   1.012   2.779   6.878 -0.4471  1.1548 -0.2879
 3055SOL    HW220625   0.886   2.836   6.933  1.2035 -0.1568  0.2076
 3056SOL     OW20626   3.988   4.576   5.256 -0.3018 -0.2404  0.4272
 3056SOL    HW120627   3.900   4.572   5.218 -0.6693  1.8181  1.0711
 3056SOL    HW220628   4.040   4.536   5.186  1.5673 -0.5318  1.9983
 3057SOL     OW20629   3.065   2.388   1.929  0.1576 -0.0096 -0.4806
 3057SOL    HW120630   3.070   2.294   1.910 -1.4843  0.8972 -5.3549
 3057SOL    HW220631   3.118   2.419   1.856 -0.3322  0.0636 -0.8031
 3058SOL     OW20632   2.153   1.280   7.782  0.0297  0.0376  0.0631
 3058SOL    HW120633   2.164   1.370   7.812  2.7348 -0.2720 -0.0427
 3058SOL    HW220634   2.173   1.230   7.861 -1.5002 -0.2573  0.2768
 3059SOL     OW20635   3.479   0.903   2.358 -0.6291  0.0647 -0.0675
 3059SOL    HW120636   3.472   0.997   2.337 -0.7153 -0.0770 -0.6797
 3059SOL    HW220637   3.575   0.904   2.364 -0.6040  1.9973 -0.5102
 3060SOL     OW20638   2.894   1.892   8.991 -0.3730  0.1649 -0.2423
 3060SOL    HW120639   2.900   1.842   8.910 -1.0507 -2.3487  1.2596
 3060SOL    HW220640   2.855   1.825   9.048 -2.2706  0.7924 -0.7839
 3061SOL     OW20641   2.920   3.379   5.098 -0.2097 -0.5498  0.3523
 3061SOL    HW120642   2.860   3.389   5.024 -0.2483 -2.1625  0.1802
 3061SOL    HW220643   2.920   3.285   5.115 -0.1296 -0.5874  0.1523
 3062SOL     OW20644   2.002   1.638  11.669 -0.0470  0.0596 -0.2803
 3062SOL    HW120645   2.014   1.674  11.581 -0.3002 -0.2238 -0.4301
 3062SOL    HW220646   1.938   1.571  11.647 -0.6709  0.4541  0.3436
 3063SOL     OW20647   1.675   3.320   8.911  0.2176 -0.1145  0.1680
 3063SOL    HW120648   1.583   3.298   8.925  0.3271 -1.1378 -0.7333
 3063SOL    HW220649   1.661   3.393   8.851  0.7687 -0.8403 -0.8478
 3064SOL     OW20650   0.780   3.567   4.521  0.1567 -0.0015 -0.6180
 3064SOL    HW120651   0.830   3.614   4.454 -0.2708 -0.7292 -1.4618
 3064SOL    HW220652   0.755   3.641   4.576 -0.7266 -1.0616  0.4142
 3065SOL     OW20653   1.523   1.724   7.042  0.0847  0.6554 -0.5262
 3065SOL    HW120654   1.465   1.725   7.119 -2.0692 -2.8261 -2.0958
 3065SOL    HW220655   1.583   1.650   7.047 -1.7369 -0.8629 -1.3470
 3066SOL     OW20656   2.542   1.188  17.211  0.3231  0.1121 -0.0417
 3066SOL    HW120657   2.570   1.102  17.241 -0.2619 -0.3168 -0.7147
 3066SOL    HW220658   2.452   1.187  17.244  0.6972 -0.3921  0.9613
 3067SOL     OW20659   2.175   4.378   4.532 -0.2140 -0.2195 -0.4564
 3067SOL    HW120660   2.101   4.427   4.569 -0.7882  0.0075 -1.9049
 3067SOL    HW220661   2.225   4.445   4.486  0.3174 -1.5905 -1.8694
 3068SOL     OW20662   3.026   2.249   8.375  0.2341  0.2715 -0.2596
 3068SOL    HW120663   2.987   2.319   8.426 -0.0890 -0.6869  0.8184
 3068SOL    HW220664   2.982   2.175   8.417  1.7984 -1.8297 -2.2810
 3069SOL     OW20665   1.569   2.580   7.252  0.0932 -0.0709 -0.0297
 3069SOL    HW120666   1.610   2.535   7.178 -0.6833 -2.3401  0.8900
 3069SOL    HW220667   1.623   2.657   7.267  1.3027 -0.9960  0.3992
 3070SOL     OW20668   2.153   2.441   8.325 -0.7231 -0.2937  0.5824
 3070SOL    HW120669   2.173   2.349   8.306  1.1100  0.4309 -1.0405
 3070SOL    HW220670   2.098   2.474   8.254 -0.3068 -0.0307  0.3750
 3071SOL     OW20671   3.775   3.477   6.242 -0.0330 -0.5191 -0.0814
 3071SOL    HW120672   3.826   3.487   6.322  0.2487 -0.5613 -0.2534
 3071SOL    HW220673   3.837   3.525   6.187 -0.2515 -0.3870 -0.2151
 3072SOL     OW20674   0.596   1.535  10.475  0.1642 -0.1193  0.4347
 3072SOL    HW120675   0.582   1.601  10.407 -0.0815  0.1533  0.7499
 3072SOL    HW220676   0.599   1.593  10.551 -0.4238  0.1688  0.2355
 3073SOL     OW20677   1.500   2.044  11.304 -0.3111  0.3510 -0.1250
 3073SOL    HW120678   1.449   2.029  11.383  1.6798 -0.1957  1.0623
 3073SOL    HW220679   1.441   2.100  11.254  0.7249  0.0739 -1.6790
 3074SOL     OW20680   4.652   4.180   3.232  0.4654  0.3339  0.4602
 3074SOL    HW120681   4.671   4.228   3.313 -1.1096  0.2580  0.8664
 3074SOL    HW220682   4.719   4.214   3.172 -0.4036  1.6108  0.1917
 3075SOL     OW20683   3.511   4.565   4.701 -0.1531  0.7004 -0.1959
 3075SOL    HW120684   3.433   4.618   4.717  0.2956  0.6446  2.1694
 3075SOL    HW220685   3.491   4.496   4.764 -1.3565 -0.6678 -2.0996
 3076SOL     OW20686   1.284   2.090   5.362 -0.1402  0.3893  0.7880
 3076SOL    HW120687   1.367   2.065   5.320 -1.2367  0.4507 -1.4295
 3076SOL    HW220688   1.219   2.080   5.293  0.7219 -0.2140  0.0567
 3077SOL     OW20689   2.262   3.985   7.411  0.4996  0.1706 -0.3749
 3077SOL    HW120690   2.189   3.982   7.349 -0.3870 -0.4972  0.7017
 3077SOL    HW220691   2.289   3.893   7.406 -1.7947 -0.5057 -0.5525
 3078SOL     OW20692   1.231   4.590   7.269  0.2513 -0.3877 -0.1347
 3078SOL    HW120693   1.163   4.626   7.327 -1.3112 -1.1546 -1.4926
 3078SOL    HW220694   1.301   4.569   7.331  0.0598 -0.9554 -0.1041
 3079SOL     OW20695   0.785   0.740  17.089  0.1466  0.4395  0.4513
 3079SOL    HW120696   0.840   0.776  17.019 -1.6582  1.3598 -0.5087
 3079SOL    HW220697   0.726   0.816  17.095 -0.4553 -0.1717  2.3731
 3080SOL     OW20698   3.910   2.641   3.726 -0.3601  0.2930  0.1290
 3080SOL    HW120699   3.897   2.686   3.643  2.6079 -0.9387 -0.9978
 3080SOL    HW220700   3.996   2.676   3.747 -1.6636  3.1095  0.7805
 3081SOL     OW20701   0.888   3.890   6.559 -0.0566 -0.2025  0.0706
 3081SOL    HW120702   0.841   3.840   6.626 -0.3217  0.7927  0.6293
 3081SOL    HW220703   0.866   3.832   6.485 -0.7656 -2.5644  2.1509
 3082SOL     OW20704   0.485   1.987  15.431  0.4713  0.0455  0.6153
 3082SOL    HW120705   0.412   2.046  15.413  0.8567  0.8047  1.4922
 3082SOL    HW220706   0.555   2.049  15.451  0.8950  0.4716 -2.2149
 3083SOL     OW20707   2.665   2.053  13.766 -0.2408  0.2591  0.7347
 3083SOL    HW120708   2.608   2.006  13.706  0.6851  0.9665 -0.7106
 3083SOL    HW220709   2.700   1.989  13.828  0.3715  2.3970  2.5991
 3084SOL     OW20710   4.673   4.009  15.806 -0.3563 -0.0464 -0.2960
 3084SOL    HW120711   4.697   3.929  15.761 -3.6142 -0.8202 -0.6740
 3084SOL    HW220712   4.601   3.963  15.848  0.6345  0.2945  1.7710
 3085SOL     OW20713   3.270   3.562   4.766 -0.1231 -0.3608  0.2471
 3085SOL    HW120714   3.284   3.467   4.769 -0.1985 -0.3195  2.0033
 3085SOL    HW220715   3.359   3.594   4.783 -0.6629  2.3574 -2.0297
 3086SOL     OW20716   0.125   2.040  17.527  0.3364 -0.3557  0.0045
 3086SOL    HW120717   0.100   2.093  17.603  2.9733  0.7704  0.1118
 3086SOL    HW220718   0.220   2.052  17.532 -0.0399  2.5590  0.2524
 3087SOL     OW20719   4.703   4.693   3.076  0.0451 -0.4959  0.0440
 3087SOL    HW120720   0.054   4.656   3.025  2.4063  1.1059  2.2116
 3087SOL    HW220721   4.659   4.618   3.117 -0.5876  0.5779  1.3476
 3088SOL     OW20722   0.510   0.546   5.358  0.2703 -0.0616 -0.5043
 3088SOL    HW120723   0.600   0.516   5.373  0.1978 -0.2783 -0.5113
 3088SOL    HW220724   0.463   0.464   5.345  0.1254  0.3750 -2.7420
 3089SOL     OW20725   0.738   4.115   4.284  0.2265  0.1139 -0.2026
 3089SOL    HW120726   0.664   4.171   4.309  0.1960 -0.0233  0.0128
 3089SOL    HW220727   0.805   4.145   4.345  0.4164 -0.5624 -0.0792
 3090SOL     OW20728   0.651   0.408  16.389 -0.1071  0.1989 -0.3845
 3090SOL    HW120729   0.620   0.361  16.466  2.4357  0.6488  0.8992
 3090SOL    HW220730   0.662   0.337  16.325 -0.8786 -0.3626  0.1132
 3091SOL     OW20731   2.620   3.798  13.283 -0.2102 -0.0266  0.0473
 3091SOL    HW120732   2.669   3.802  13.201 -1.2040  1.2556 -0.4831
 3091SOL    HW220733   2.550   3.860  13.263  0.6461  0.7897 -0.3767
 3092SOL     OW20734   2.552   2.152  11.474  0.3986 -0.2245 -0.6775
 3092SOL    HW120735   2.492   2.077  11.474 -0.8285  0.7776  0.6672
 3092SOL    HW220736   2.499   2.212  11.525  0.7623 -0.1737 -0.3635
 3093SOL     OW20737   3.967   0.710   2.892  0.0958 -0.3614  0.0433
 3093SOL    HW120738   4.000   0.781   2.948  1.9979 -0.6388 -0.7157
 3093SOL    HW220739   3.961   0.644   2.960 -1.0332  1.3150  1.5815
 3094SOL     OW20740   3.435   0.324   5.567  0.3184  0.1711 -0.3997
 3094SOL    HW120741   3.470   0.311   5.655 -2.4599  1.1708  0.8587
 3094SOL    HW220742   3.497   0.275   5.513 -1.0391  0.3753 -2.1209
 3095SOL     OW20743   3.274   4.084   2.011  0.0688 -0.3407 -0.3252
 3095SOL    HW120744   3.217   4.119   2.080  0.5860 -2.3459  1.1179
 3095SOL    HW220745   3.251   4.147   1.943  1.0142  0.5612  0.1759
 3096SOL     OW20746   3.092   3.040   2.925  0.1648  0.0735  0.5564
 3096SOL    HW120747   3.142   3.028   2.844 -0.7153 -0.0267  0.0200
 3096SOL    HW220748   3.158   3.017   2.990  2.0381 -0.4319 -1.5169
 3097SOL     OW20749   0.610   0.950   4.024  0.2217  0.4970 -0.5462
 3097SOL    HW120750   0.647   0.870   3.986 -1.8162 -0.9529  0.4554
 3097SOL    HW220751   0.518   0.928   4.008  0.0326  1.2327 -0.4782
 3098SOL     OW20752   0.842   1.630   6.882  0.6097 -0.1746  0.1757
 3098SOL    HW120753   0.764   1.575   6.889 -0.7985  2.1258  3.0117
 3098SOL    HW220754   0.903   1.569   6.842 -1.5389 -0.6952 -2.3273
 3099SOL     OW20755   2.547   2.405   9.829  0.6131  0.4049  0.0311
 3099SOL    HW120756   2.478   2.393   9.894  0.2526  0.8727 -0.2557
 3099SOL    HW220757   2.563   2.314   9.805 -1.1317  0.0226  0.3178
 3100SOL     OW20758   0.932   0.724   8.369 -0.6078  0.0327  0.8490
 3100SOL    HW120759   0.839   0.702   8.368 -0.5869 -0.1450  2.6465
 3100SOL    HW220760   0.942   0.675   8.451 -0.2038 -0.8479  0.2749
 3101SOL     OW20761   1.155   4.271   6.305 -1.0757 -0.5271  0.5698
 3101SOL    HW120762   1.103   4.201   6.266 -3.3803  0.5863  1.6496
 3101SOL    HW220763   1.111   4.351   6.277 -1.3476 -1.0214 -0.4171
 3102SOL     OW20764   4.275   1.596   1.164  0.3662 -0.2949  0.2487
 3102SOL    HW120765   4.336   1.539   1.117 -0.2038  0.7607 -1.7590
 3102SOL    HW220766   4.267   1.673   1.108 -1.4978  0.5123  1.5905
 3103SOL     OW20767   3.898   0.706  12.503 -0.0050 -0.0126  0.2932
 3103SOL    HW120768   3.803   0.693  12.496  0.1344  0.4384 -2.4877
 3103SOL    HW220769   3.908   0.797  12.473 -0.6747  0.0389  0.2148
 3104SOL     OW20770   2.342   3.606  13.175 -0.0789 -0.4660 -0.0872
 3104SOL    HW120771   2.339   3.683  13.118 -1.7072 -2.1888 -2.3805
 3104SOL    HW220772   2.252   3.583  13.150 -0.4446  1.8238 -0.8724
 3105SOL     OW20773   4.494   0.025  16.531  0.8319 -0.1915 -0.2128
 3105SOL    HW120774   4.478   4.706  16.446 -0.7040 -1.5811  0.7046
 3105SOL    HW220775   4.418   4.712  16.580 -0.3535  1.5744 -0.8298
 3106SOL     OW20776   2.566   4.617   3.152 -0.5584  0.3314 -0.4013
 3106SOL    HW120777   2.592   4.708   3.169  3.7934 -1.4164  2.1924
 3106SOL    HW220778   2.642   4.564   3.175 -1.6714 -0.5918  1.2011
 3107SOL     OW20779   4.145   3.676   3.045 -0.2018  0.0557  0.3947
 3107SOL    HW120780   4.142   3.731   2.967 -0.2943 -0.2765  0.1657
 3107SOL    HW220781   4.157   3.736   3.119  4.4394 -1.2970  0.7679
 3108SOL     OW20782   3.110   2.709   3.589  0.2991  0.0056 -0.3202
 3108SOL    HW120783   3.129   2.743   3.677  0.8429  0.8522 -0.7721
 3108SOL    HW220784   3.161   2.628   3.595  0.5541  0.2627  1.1275
 3109SOL     OW20785   1.637   0.005  11.256 -0.0447  0.6723 -0.4441
 3109SOL    HW120786   1.601   4.636  11.254  1.9474 -0.1619  1.0216
 3109SOL    HW220787   1.562   0.064  11.249 -0.8806 -0.3509 -0.1155
 3110SOL     OW20788   1.225   2.416   1.831  0.4983  0.1976  0.4288
 3110SOL    HW120789   1.171   2.426   1.910  1.7280 -2.8019  1.6580
 3110SOL    HW220790   1.162   2.372   1.775  0.6722 -0.6422  0.8995
 3111SOL     OW20791   2.628   0.862   6.532  0.2635 -0.5642  0.5085
 3111SOL    HW120792   2.576   0.867   6.612 -0.4436 -1.2994  0.0885
 3111SOL    HW220793   2.559   0.858   6.465  1.6904  1.0081 -1.0724
 3112SOL     OW20794   1.059   2.888  16.244  0.2496  0.3846 -0.0061
 3112SOL    HW120795   1.084   2.829  16.172 -0.3044  0.2318 -0.0802
 3112SOL    HW220796   1.141   2.888  16.292  0.2177 -0.5414  0.0546
 3113SOL     OW20797   3.651   1.924  15.842 -0.0893 -0.6137  0.0416
 3113SOL    HW120798   3.679   1.842  15.801 -1.0824 -0.7444 -0.3795
 3113SOL    HW220799   3.709   1.987  15.801 -1.1703  1.2142  1.3294
 3114SOL     OW20800   2.342   0.601   3.389 -0.2905  0.2414  0.1767
 3114SOL    HW120801   2.416   0.572   3.443 -0.3276 -2.5060 -1.2327
 3114SOL    HW220802   2.344   0.535   3.320  1.8261  0.1081  0.3461
 3115SOL     OW20803   0.998   1.436   5.930  0.2796  0.5445  0.8539
 3115SOL    HW120804   1.062   1.404   5.994  0.1139 -1.2523  0.1194
 3115SOL    HW220805   1.016   1.530   5.933 -1.7565  0.9726 -0.5461
 3116SOL     OW20806   2.741   2.331   3.330 -0.1456  0.0697 -0.0151
 3116SOL    HW120807   2.821   2.288   3.300 -1.1248 -0.5735 -1.7143
 3116SOL    HW220808   2.781   2.393   3.391 -3.9452  2.7791 -0.2952
 3117SOL     OW20809   2.991   4.601   1.402  0.3259 -0.6027 -0.7680
 3117SOL    HW120810   2.900   4.620   1.379  0.6738  2.7460  0.6177
 3117SOL    HW220811   3.023   4.684   1.366 -2.1798  0.5610 -0.3885
 3118SOL     OW20812   2.862   1.974   7.768  0.3019 -0.1769 -0.0829
 3118SOL    HW120813   2.824   1.886   7.768  1.2004 -0.5711 -2.8807
 3118SOL    HW220814   2.846   2.009   7.856  2.5589  0.0109  0.2561
 3119SOL     OW20815   3.624   4.674   7.469 -0.7477  0.1560  0.0944
 3119SOL    HW120816   3.677   4.693   7.546  2.6351 -0.7758 -1.9974
 3119SOL    HW220817   3.676   4.697   7.392  1.5245  1.9045  2.1457
 3120SOL     OW20818   1.428   4.547   6.067 -0.0181  0.2369 -0.1878
 3120SOL    HW120819   1.411   4.611   5.998 -1.9447  0.2380  0.2743
 3120SOL    HW220820   1.474   4.599   6.133 -0.5103 -1.1639  1.2542
 3121SOL     OW20821   1.081   1.370   3.253 -0.7029  0.3252 -0.4855
 3121SOL    HW120822   1.098   1.421   3.174  0.2078 -2.6588 -2.2019
 3121SOL    HW220823   1.143   1.300   3.237  0.3764  0.9973  0.7289
 3122SOL     OW20824   4.627   4.152   3.556  0.3120  0.1324  0.1144
 3122SOL    HW120825   4.625   4.232   3.503  0.8790  0.8888  1.2132
 3122SOL    HW220826   4.692   4.099   3.512 -1.0978 -1.2442 -0.2994
 3123SOL     OW20827   3.376   1.617   6.224 -0.2555 -0.0116 -0.1803
 3123SOL    HW120828   3.349   1.689   6.281 -0.7488 -0.9490  0.7792
 3123SOL    HW220829   3.288   1.600   6.192 -0.4995  3.0782 -1.1091
 3124SOL     OW20830   2.099   1.626   3.953 -0.1401 -0.4394 -0.4124
 3124SOL    HW120831   2.059   1.624   3.867 -0.7853  0.2236 -0.1267
 3124SOL    HW220832   2.064   1.554   4.005  1.6931 -1.0578 -0.0544
 3125SOL     OW20833   1.725   2.255  13.316  0.3948  0.1720 -0.1162
 3125SOL    HW120834   1.818   2.233  13.316  0.7315  1.5594 -1.4779
 3125SOL    HW220835   1.705   2.302  13.397 -0.6466  1.5343 -1.1569
 3126SOL     OW20836   0.037   1.922   2.370 -0.8629  0.2806 -0.3450
 3126SOL    HW120837   0.047   2.017   2.379 -0.9269  0.0454  2.2054
 3126SOL    HW220838   0.109   1.893   2.426 -1.4827 -2.4481 -0.9846
 3127SOL     OW20839   2.811   4.409   8.252  0.0103 -0.3018  0.4598
 3127SOL    HW120840   2.869   4.460   8.308  0.5823 -0.7909  0.3118
 3127SOL    HW220841   2.814   4.452   8.167  0.6184 -0.4930  0.3847
 3128SOL     OW20842   3.013   2.271  15.713  0.5543  0.3461 -0.5868
 3128SOL    HW120843   2.984   2.182  15.732  1.5626  0.2516  0.5472
 3128SOL    HW220844   2.928   2.315  15.703  1.4116  2.1810  0.1282
 3129SOL     OW20845   1.486   0.452   6.973 -0.6370  0.1299 -0.3172
 3129SOL    HW120846   1.395   0.424   6.962 -1.1023  0.0639  3.6318
 3129SOL    HW220847   1.514   0.471   6.884 -1.3805  0.4464 -0.4831
 3130SOL     OW20848   1.586   3.280   5.728 -0.8428 -0.0021 -0.2180
 3130SOL    HW120849   1.591   3.356   5.670  1.5365 -0.6992 -0.9289
 3130SOL    HW220850   1.557   3.320   5.810  0.8814 -0.6644  0.7063
 3131SOL     OW20851   3.335   4.237  10.916  0.5493  0.3820  0.0694
 3131SOL    HW120852   3.364   4.313  10.965 -1.5771  1.9285 -1.0666
 3131SOL    HW220853   3.414   4.190  10.890  1.0291  1.1594  0.1572
 3132SOL     OW20854   4.242   1.913  10.028  0.1820 -0.3612 -0.4423
 3132SOL    HW120855   4.233   1.868  10.112  0.1084  3.4707  1.5972
 3132SOL    HW220856   4.166   1.971  10.026 -0.6616 -1.4596  0.0494
 3133SOL     OW20857   3.038   1.795  13.707  0.4878 -0.1816  0.0153
 3133SOL    HW120858   3.030   1.877  13.658 -0.4353  0.1902  0.7896
 3133SOL    HW220859   3.089   1.816  13.786  0.4505 -1.8676  0.4812
 3134SOL     OW20860   2.109   2.585   5.424 -0.5394  0.3293  0.0514
 3134SOL    HW120861   2.086   2.494   5.441  0.4633 -0.0200 -0.4355
 3134SOL    HW220862   2.024   2.620   5.396  1.2061  3.3717 -1.5210
 3135SOL     OW20863   3.679   2.816   9.348 -0.0206  0.3155 -0.0726
 3135SOL    HW120864   3.657   2.833   9.256 -0.5164  0.4285  0.0662
 3135SOL    HW220865   3.625   2.743   9.378  0.4574  0.5678  1.3759
 3136SOL     OW20866   2.332   1.932   7.437 -0.2027 -0.4662  0.1462
 3136SOL    HW120867   2.267   1.868   7.409  1.1569 -0.6228 -2.6424
 3136SOL    HW220868   2.403   1.908   7.377 -0.7034  1.8811 -1.3857
 3137SOL     OW20869   0.177   4.047  17.277  0.1771 -0.1676 -0.7740
 3137SOL    HW120870   0.234   4.101  17.222  0.2882  0.5787  0.0611
 3137SOL    HW220871   0.106   4.105  17.302 -0.3011 -1.3007  0.5119
 3138SOL     OW20872   1.150   3.284   7.207  0.4744 -0.1519 -0.6591
 3138SOL    HW120873   1.175   3.237   7.127 -1.7821  1.1316 -2.1300
 3138SOL    HW220874   1.093   3.347   7.164  1.4271 -0.1906 -1.9667
 3139SOL     OW20875   2.105   2.898  14.005 -0.2465 -0.7123  0.1850
 3139SOL    HW120876   2.188   2.877  14.048 -0.0300  0.3040  0.2540
 3139SOL    HW220877   2.071   2.816  13.968 -1.3723  0.5681 -1.5765
 3140SOL     OW20878   3.215   4.417   6.983  0.0378 -0.0490 -0.2635
 3140SOL    HW120879   3.252   4.330   6.998 -1.3620 -0.3225  1.5177
 3140SOL    HW220880   3.293   4.473   6.994  0.8881 -1.2132 -0.3447
 3141SOL     OW20881   3.652   2.192   0.341 -0.4425  0.8522  0.0361
 3141SOL    HW120882   3.712   2.130   0.299  0.6432  1.9589 -0.0570
 3141SOL    HW220883   3.714   2.264   0.352  0.5216  0.1282 -0.7255
 3142SOL     OW20884   3.081   1.320  12.011  0.1433 -0.0279 -0.2358
 3142SOL    HW120885   3.059   1.376  11.937 -1.5291  0.9816  1.0397
 3142SOL    HW220886   3.025   1.245  11.988 -0.0876  0.0749 -0.0054
 3143SOL     OW20887   2.491   4.531   3.566  0.1190  0.1300  0.6473
 3143SOL    HW120888   2.427   4.545   3.636  1.7142 -1.6401  2.4482
 3143SOL    HW220889   2.437   4.532   3.487 -0.1663  1.0336  0.8583
 3144SOL     OW20890   0.729   0.992   5.814  0.8243 -0.1000  0.5535
 3144SOL    HW120891   0.667   1.065   5.806  2.0136  0.9493  0.8339
 3144SOL    HW220892   0.713   0.953   5.900  0.2701 -0.5828  0.2282
 3145SOL     OW20893   3.783   1.846   4.709 -0.9877 -0.4188  0.8030
 3145SOL    HW120894   3.811   1.840   4.800  1.3072 -0.0406  0.1226
 3145SOL    HW220895   3.818   1.929   4.676 -0.2366 -1.1961 -0.3416
 3146SOL     OW20896   3.875   3.627   8.972 -0.0451  0.0382 -0.7216
 3146SOL    HW120897   3.940   3.559   8.956  0.4793 -0.2500  2.6126
 3146SOL    HW220898   3.878   3.635   9.067 -1.4918 -1.4169 -0.5569
 3147SOL     OW20899   0.353   2.313  11.064 -0.4087  0.1079  0.4129
 3147SOL    HW120900   0.408   2.370  11.010  2.3858 -1.4571  1.5814
 3147SOL    HW220901   0.274   2.314  11.011  2.1315 -2.6617 -3.4202
 3148SOL     OW20902   3.031   4.295   5.125 -0.7131 -0.2743  0.5614
 3148SOL    HW120903   3.122   4.271   5.106 -0.4875  0.1895  1.0363
 3148SOL    HW220904   3.036   4.388   5.101  0.5947 -0.4640  0.1268
 3149SOL     OW20905   3.766   3.381   7.284 -0.1530 -0.0829 -0.0195
 3149SOL    HW120906   3.702   3.312   7.271  1.0380 -0.8957 -1.5478
 3149SOL    HW220907   3.803   3.359   7.370  0.9684  0.0601 -0.4584
 3150SOL     OW20908   1.993   0.388   5.953  0.2261 -0.1214  0.2951
 3150SOL    HW120909   2.041   0.410   5.872 -0.3114 -0.3147 -0.0757
 3150SOL    HW220910   2.045   0.427   6.023 -0.7204 -0.9272  1.4302
 3151SOL     OW20911   2.378   1.356   6.419 -0.0967 -0.0213  0.7016
 3151SOL    HW120912   2.346   1.265   6.419 -0.6740  0.1828  0.2252
 3151SOL    HW220913   2.353   1.379   6.509 -0.3477  0.7744  0.4213
 3152SOL     OW20914   3.294   3.671   8.614  0.3608  0.6394 -0.2655
 3152SOL    HW120915   3.352   3.621   8.672 -1.4942 -0.5465  0.5559
 3152SOL    HW220916   3.322   3.762   8.612 -0.2446  0.7720 -2.7245
 3153SOL     OW20917   0.281   1.367   7.610 -0.0900 -0.1669  0.0996
 3153SOL    HW120918   0.309   1.421   7.536  1.0788 -0.5010  0.3022
 3153SOL    HW220919   0.238   1.437   7.659 -0.2777 -0.7012  0.7004
 3154SOL     OW20920   3.544   4.196   4.543 -0.0051  0.1110 -0.2792
 3154SOL    HW120921   3.622   4.246   4.518  0.7926 -1.6206 -1.2615
 3154SOL    HW220922   3.567   4.120   4.490  0.2199  0.8584 -1.2724
 3155SOL     OW20923   0.837   2.574   8.461 -0.7135  0.4437 -0.2689
 3155SOL    HW120924   0.828   2.574   8.366 -0.1870  2.2037 -0.3219
 3155SOL    HW220925   0.878   2.660   8.471 -1.5714  1.1438 -2.8110
 3156SOL     OW20926   0.431   0.399   8.192 -0.1168 -0.6063 -0.1832
 3156SOL    HW120927   0.359   0.337   8.202 -0.4414 -0.0651  0.8232
 3156SOL    HW220928   0.498   0.332   8.182  0.0593 -0.6469  1.2768
 3157SOL     OW20929   4.373   0.245  12.311 -0.1794 -0.4436  0.2731
 3157SOL    HW120930   4.466   0.237  12.329  0.0504  1.3459 -0.1788
 3157SOL    HW220931   4.372   0.212  12.221 -1.0277 -1.4484  0.6406
 3158SOL     OW20932   0.968   1.772   0.807  0.0571 -0.1691  0.0991
 3158SOL    HW120933   0.910   1.816   0.869 -1.2504 -1.4729 -0.1853
 3158SOL    HW220934   0.905   1.735   0.745  0.0432  2.5331 -1.5374
 3159SOL     OW20935   1.817   4.580  10.306  0.5473  0.2710 -0.1971
 3159SOL    HW120936   1.857   4.495  10.323 -1.8790 -0.9956 -0.8692
 3159SOL    HW220937   1.760   4.560  10.231 -0.0570 -0.9621  0.5947
 3160SOL     OW20938   1.039   0.233  11.577 -0.0346 -0.2989  0.3709
 3160SOL    HW120939   0.990   0.283  11.642 -4.6294 -3.7676 -0.4579
 3160SOL    HW220940   1.123   0.279  11.568 -0.6474  0.4898 -1.3460
 3161SOL     OW20941   2.755   0.654  10.915  0.0514  0.1316  0.1653
 3161SOL    HW120942   2.770   0.700  10.998 -0.8065  1.2339 -0.2897
 3161SOL    HW220943   2.713   0.572  10.942  0.3327  0.4554  1.5993
 3162SOL     OW20944   1.553   3.242  14.427  0.0666  0.3164 -0.5439
 3162SOL    HW120945   1.525   3.327  14.462 -1.0777 -0.8548  1.3785
 3162SOL    HW220946   1.495   3.186  14.479 -0.9355  0.5831 -1.3658
 3163SOL     OW20947   0.771   2.441   9.187  0.0344 -0.1676  0.3636
 3163SOL    HW120948   0.760   2.363   9.132  0.0362 -0.7268  1.1526
 3163SOL    HW220949   0.842   2.491   9.147 -0.3545 -1.1754 -1.6007
 3164SOL     OW20950   4.625   2.720  17.554  0.1324  0.3523  0.4180
 3164SOL    HW120951   4.559   2.756  17.495  1.6190  4.0842  1.0819
 3164SOL    HW220952   4.584   2.637  17.579  1.1901 -1.0368 -2.3618
 3165SOL     OW20953   1.809   3.520  12.092  0.1029  0.0776  0.3149
 3165SOL    HW120954   1.827   3.606  12.054 -2.9547  1.4484  1.9483
 3165SOL    HW220955   1.743   3.489  12.030  1.5414  0.3286 -1.3318
 3166SOL     OW20956   3.904   1.439  16.953  0.7838  0.4849 -0.0314
 3166SOL    HW120957   3.870   1.356  16.921  0.5340 -0.3788  2.4832
 3166SOL    HW220958   3.912   1.420  17.047  0.0682 -0.2394 -0.1191
 3167SOL     OW20959   0.998   3.947   1.955  0.4559 -0.5470 -0.1459
 3167SOL    HW120960   0.972   4.017   2.014  3.3620  0.7717 -0.4513
 3167SOL    HW220961   1.081   3.920   1.995  0.8245 -0.3695 -0.7839
 3168SOL     OW20962   4.497   2.684  15.296 -0.4352 -0.5569  0.3448
 3168SOL    HW120963   4.445   2.764  15.299  0.6989  0.1430  1.2566
 3168SOL    HW220964   4.581   2.714  15.331  0.9943 -0.5426 -3.0601
 3169SOL     OW20965   1.322   1.025   8.346  0.3151 -0.2928 -0.5452
 3169SOL    HW120966   1.308   1.046   8.438 -0.7540 -1.9989 -0.3231
 3169SOL    HW220967   1.241   0.982   8.319  0.0347  0.7443 -1.3797
 3170SOL     OW20968   0.348   4.158   7.841  0.5975  0.0062 -0.4147
 3170SOL    HW120969   0.335   4.144   7.747  0.0439  1.7572 -0.5898
 3170SOL    HW220970   0.264   4.193   7.870 -0.5026 -2.1017 -1.0474
 3171SOL     OW20971   3.162   3.860  10.133 -0.0977  0.0672  0.5546
 3171SOL    HW120972   3.100   3.801  10.090  0.6784 -0.1482 -0.2858
 3171SOL    HW220973   3.232   3.799  10.156 -0.0492  0.8342  2.3742
 3172SOL     OW20974   3.038   3.925   4.298 -0.1018 -0.1339 -0.1353
 3172SOL    HW120975   3.071   4.013   4.318  0.9458 -0.2235 -1.5155
 3172SOL    HW220976   2.954   3.948   4.258  1.2552 -0.1147 -2.9266
 3173SOL     OW20977   1.973   1.710   4.931  0.3496  0.1335  0.3629
 3173SOL    HW120978   2.005   1.671   4.850  1.2331 -1.5830  1.5511
 3173SOL    HW220979   1.928   1.782   4.887  1.8960  2.5543  2.7084
 3174SOL     OW20980   4.566   4.261   9.510  0.4760  0.3137 -0.2882
 3174SOL    HW120981   4.608   4.219   9.585 -1.0221 -0.1838  0.2818
 3174SOL    HW220982   4.474   4.255   9.537 -0.0363 -0.5856 -2.2512
 3175SOL     OW20983   0.217   3.321   4.244  0.0234  0.0243  0.2094
 3175SOL    HW120984   0.300   3.365   4.266 -0.8044  1.6591  0.0550
 3175SOL    HW220985   0.246   3.272   4.167 -1.5222  0.2263 -0.4927
 3176SOL     OW20986   2.187   3.775   5.456 -0.1316 -0.2964  0.2058
 3176SOL    HW120987   2.191   3.741   5.367  0.6380  0.8327 -0.1844
 3176SOL    HW220988   2.273   3.814   5.468 -0.1686 -0.1329 -0.0568
 3177SOL     OW20989   3.275   0.481   4.417  0.3703 -0.2063 -0.6864
 3177SOL    HW120990   3.299   0.573   4.428 -2.1004  0.3878 -0.2925
 3177SOL    HW220991   3.341   0.438   4.471  1.4581  0.6674 -1.3145
 3178SOL     OW20992   1.762   2.321   8.368  0.1427  0.3442 -0.9929
 3178SOL    HW120993   1.778   2.385   8.438 -2.3993 -0.9790  0.7835
 3178SOL    HW220994   1.744   2.367   8.286 -0.9688  4.3790  1.5080
 3179SOL     OW20995   3.843   4.652  15.020  0.1859 -0.2090  0.4064
 3179SOL    HW120996   3.810   0.008  15.066  0.7876 -0.0122  0.5084
 3179SOL    HW220997   3.923   4.629  15.069 -1.2215 -1.9999  1.8741
 3180SOL     OW20998   3.722   1.165   5.978  0.3313  0.8073 -0.3607
 3180SOL    HW120999   3.780   1.114   6.034 -1.4931  0.3021  1.0653
 3180SOL    HW221000   3.785   1.189   5.910  1.1698  0.7334  0.3809
 3181SOL     OW21001   4.244   1.146   3.573 -0.0592 -0.1299 -0.1443
 3181SOL    HW121002   4.247   1.233   3.614 -1.9959  0.3245 -0.9532
 3181SOL    HW221003   4.338   1.140   3.555  0.1818  1.9051  0.3760
 3182SOL     OW21004   0.021   0.002   3.694 -0.1739  0.0488  0.7754
 3182SOL    HW121005   0.103   4.706   3.741 -0.2547  1.4105  1.3980
 3182SOL    HW221006   0.041   4.677   3.612 -2.7807 -0.5919  0.5159
 3183SOL     OW21007   1.548   4.485   8.337 -0.0339  0.4704 -0.4234
 3183SOL    HW121008   1.576   4.468   8.247 -0.9924 -0.0423 -0.6191
 3183SOL    HW221009   1.499   4.404   8.344  1.7288 -0.5928 -0.2102
 3184SOL     OW21010   2.904   3.869  10.678 -0.3258  0.6100 -0.2012
 3184SOL    HW121011   2.925   3.788  10.724 -3.4696 -0.3945 -0.5786
 3184SOL    HW221012   2.993   3.905  10.677 -0.9194  2.0539 -1.6551
 3185SOL     OW21013   4.446   0.567  16.392 -0.0547 -0.0344 -0.2156
 3185SOL    HW121014   4.492   0.497  16.345  0.9126 -1.0914  2.2858
 3185SOL    HW221015   4.451   0.527  16.479 -1.0861 -0.3601 -0.3003
 3186SOL     OW21016   1.593   1.768  12.929  0.3480  0.1425  0.4429
 3186SOL    HW121017   1.598   1.767  13.025  0.6224  0.4616  0.4337
 3186SOL    HW221018   1.628   1.683  12.902  1.2473  0.0190  1.9749
 3187SOL     OW21019   3.231   4.029  17.571  0.1608  0.2377  0.3223
 3187SOL    HW121020   3.273   4.114  17.586  1.2683 -0.1672 -0.4951
 3187SOL    HW221021   3.298   3.972  17.607 -0.6050 -1.1362 -0.4438
 3188SOL     OW21022   1.587   1.871   8.276  0.5282  0.0545 -0.5504
 3188SOL    HW121023   1.636   1.933   8.330 -1.0081  0.8070 -0.0204
 3188SOL    HW221024   1.640   1.792   8.278  0.9350  0.3901  1.6941
 3189SOL     OW21025   3.428   0.265   1.803 -0.3998 -0.3834 -0.1346
 3189SOL    HW121026   3.347   0.316   1.812  2.0324  3.3563  0.2348
 3189SOL    HW221027   3.489   0.313   1.858 -0.3950  0.6948 -1.0883
 3190SOL     OW21028   0.553   3.226   4.345  0.1308  0.4049  0.7693
 3190SOL    HW121029   0.542   3.175   4.264  1.1709 -0.3521  1.0969
 3190SOL    HW221030   0.640   3.265   4.337 -0.2593  0.4642 -3.1665
 3191SOL     OW21031   1.680   4.090  12.609  0.1245  0.2482 -0.3134
 3191SOL    HW121032   1.591   4.095  12.573  0.0329  0.3968 -0.0652
 3191SOL    HW221033   1.714   4.014  12.561  0.2056  1.6218 -2.4378
 3192SOL     OW21034   0.481   0.085   0.756  0.0897  0.3404  0.0925
 3192SOL    HW121035   0.448   0.061   0.843  1.0278  0.3702  0.4546
 3192SOL    HW221036   0.508   0.175   0.776 -1.5356  1.3240 -2.1186
 3193SOL     OW21037   2.806   0.254   2.992 -0.2535  0.2034 -0.3168
 3193SOL    HW121038   2.801   0.342   2.956 -0.4623  0.0909 -0.5628
 3193SOL    HW221039   2.901   0.242   2.993 -0.2889 -0.3268 -2.5860
 3194SOL     OW21040   1.210   3.625  14.519 -0.3382 -0.0476  0.1506
 3194SOL    HW121041   1.173   3.666  14.441 -0.6703  3.1623  1.9946
 3194SOL    HW221042   1.139   3.642  14.581 -4.1185 -3.9215 -3.1267
 3195SOL     OW21043   0.289   2.546  13.210  0.9820 -0.2344  0.2843
 3195SOL    HW121044   0.353   2.600  13.163  0.0749  1.2823  0.8024
 3195SOL    HW221045   0.208   2.582  13.173  0.4667  0.2464  1.8706
 3196SOL     OW21046   1.685   1.906   6.197 -0.1813  0.0420 -0.0238
 3196SOL    HW121047   1.725   1.919   6.111  1.0311  0.0681  0.5535
 3196SOL    HW221048   1.749   1.852   6.242 -0.3609  0.8449  1.2009
 3197SOL     OW21049   0.576   4.375   2.391 -0.4426 -0.0336 -0.0731
 3197SOL    HW121050   0.520   4.316   2.443 -1.0014 -0.3113 -0.9953
 3197SOL    HW221051   0.605   4.328   2.313 -0.8560  1.0170 -0.8558
 3198SOL     OW21052   0.340   4.252   3.106  0.1260 -0.6778  0.0992
 3198SOL    HW121053   0.328   4.182   3.042  0.2298  0.4402 -1.1456
 3198SOL    HW221054   0.336   4.207   3.190 -1.1251 -0.8665 -0.0571
 3199SOL     OW21055   4.358   1.424   7.742 -0.4742 -0.0218  0.3354
 3199SOL    HW121056   4.345   1.440   7.836 -1.2883  4.1241 -0.4745
 3199SOL    HW221057   4.428   1.487   7.725 -1.3962  0.6321 -1.0037
 3200SOL     OW21058   0.919   1.857  11.922  0.4440 -0.0329  0.1967
 3200SOL    HW121059   0.896   1.876  12.013 -0.9087 -0.5763 -0.0313
 3200SOL    HW221060   0.908   1.936  11.868  0.0735  0.4670  0.9975
 3201SOL     OW21061   0.025   3.015  16.176  0.3739  0.1209 -0.1535
 3201SOL    HW121062   0.089   2.948  16.197  0.6052  0.3723 -0.0632
 3201SOL    HW221063   4.706   3.044  16.258  2.0057  2.2336 -0.1187
 3202SOL     OW21064   3.759   2.935   6.052  0.3294 -0.7693 -0.3966
 3202SOL    HW121065   3.666   2.955   6.061  0.8438  2.0164 -1.2823
 3202SOL    HW221066   3.798   3.012   6.092 -2.0426 -0.3367  1.0725
 3203SOL     OW21067   3.057   4.071  10.924 -0.3728 -0.0855 -0.1740
 3203SOL    HW121068   2.974   4.116  10.913 -0.0836  0.7755  1.1503
 3203SOL    HW221069   3.024   3.989  10.961  0.8535 -0.0305  1.0387
 3204SOL     OW21070   0.499   0.228   5.635 -0.8366 -0.9767 -0.2987
 3204SOL    HW121071   0.527   0.316   5.664  1.2103 -2.7065  3.0193
 3204SOL    HW221072   0.558   0.213   5.561  1.5971 -0.6014  1.5378
 3205SOL     OW21073   0.369   1.344   6.647 -0.6924  0.4714  0.9011
 3205SOL    HW121074   0.378   1.439   6.645 -2.1158  0.5856 -0.3634
 3205SOL    HW221075   0.406   1.330   6.560 -0.0426 -2.6191  1.6760
 3206SOL     OW21076   2.863   0.075   9.634  0.2249  0.1286 -0.0234
 3206SOL    HW121077   2.927   0.068   9.705  0.9862 -2.2515 -0.9387
 3206SOL    HW221078   2.910   0.050   9.555  1.0973 -0.6096  0.7287
 3207SOL     OW21079   0.945   3.959   3.478 -0.4986 -0.3076  0.3505
 3207SOL    HW121080   0.862   3.917   3.500 -1.1247  1.2973  1.1138
 3207SOL    HW221081   0.958   4.007   3.560  1.8214  0.6928 -0.5973
 3208SOL     OW21082   2.093   2.327   5.466  0.5327 -0.6890 -0.1606
 3208SOL    HW121083   2.038   2.282   5.530  1.0940 -0.5160  0.4397
 3208SOL    HW221084   2.138   2.252   5.426 -0.1349 -1.1175 -0.1098
 3209SOL     OW21085   3.044   3.245  16.502 -0.0769  0.4919  0.6635
 3209SOL    HW121086   3.020   3.229  16.593 -2.6528  0.5272 -0.0108
 3209SOL    HW221087   3.061   3.339  16.509  2.4906  0.0037  1.0805
 3210SOL     OW21088   4.196   0.783   4.398  0.4578 -0.2035  0.0635
 3210SOL    HW121089   4.141   0.759   4.324 -0.7409  1.5457  0.3967
 3210SOL    HW221090   4.243   0.701   4.416  0.2678 -0.4417 -0.5354
 3211SOL     OW21091   1.017   3.121   5.118  0.0355  0.4274 -0.3694
 3211SOL    HW121092   0.992   3.029   5.123  1.0719  0.1689 -0.1483
 3211SOL    HW221093   1.063   3.130   5.201 -1.7489  1.3943  0.5133
 3212SOL     OW21094   2.404   2.816   7.950  0.2463 -0.1526  0.8967
 3212SOL    HW121095   2.433   2.821   8.041  0.0371  1.4950  0.8676
 3212SOL    HW221096   2.458   2.883   7.910  1.0724 -1.1085  0.4108
 3213SOL     OW21097   3.094   1.371   5.644 -0.5362  0.1709 -0.2479
 3213SOL    HW121098   3.124   1.460   5.625 -0.6216  0.3614  0.4924
 3213SOL    HW221099   3.108   1.365   5.738 -1.3891  1.5020 -0.0382
 3214SOL     OW21100   0.645   4.621   4.693 -0.1208  0.1432  0.0814
 3214SOL    HW121101   0.581   4.636   4.762 -0.9858 -0.6606 -0.5644
 3214SOL    HW221102   0.725   4.622   4.747  0.7305 -1.0682 -1.1550
 3215SOL     OW21103   4.546   2.893   5.284  0.2271  0.5202 -0.0395
 3215SOL    HW121104   4.627   2.848   5.309 -0.5469 -0.7146  0.3078
 3215SOL    HW221105   4.563   2.986   5.298  1.5084  0.2286  0.3453
 3216SOL     OW21106   0.815   2.970   5.292 -0.2632  0.1156 -0.4728
 3216SOL    HW121107   0.830   3.057   5.329 -1.0675  0.2292 -0.4076
 3216SOL    HW221108   0.734   2.983   5.242  1.1649  0.9621 -2.5385
 3217SOL     OW21109   4.701   4.380  17.625  0.4760 -0.3254 -0.1293
 3217SOL    HW121110   0.020   4.433   0.010 -0.6649 -1.2719  1.2433
 3217SOL    HW221111   4.634   4.331  17.672  0.5180 -1.0508 -0.8263
 3218SOL     OW21112   3.593   2.157  12.184  0.7363 -0.2804  0.4228
 3218SOL    HW121113   3.638   2.141  12.267 -0.4327  0.8745  1.2787
 3218SOL    HW221114   3.654   2.112  12.125  0.6075  1.0293 -0.6976
 3219SOL     OW21115   0.620   2.368   4.036  0.3714  1.0124  0.4980
 3219SOL    HW121116   0.622   2.376   4.131 -1.3364  1.3124  0.5199
 3219SOL    HW221117   0.613   2.272   4.030 -0.9735  1.4108 -4.4108
 3220SOL     OW21118   2.796   3.854   4.794 -0.0331  0.5071 -0.0542
 3220SOL    HW121119   2.770   3.884   4.707 -0.1245 -1.0939 -0.5704
 3220SOL    HW221120   2.888   3.833   4.778  0.1509  0.6536  0.8140
 3221SOL     OW21121   4.004   2.803  16.801  0.6303  0.4587 -0.3890
 3221SOL    HW121122   3.990   2.881  16.748 -2.8763  1.4628  1.9280
 3221SOL    HW221123   3.945   2.739  16.760  2.5553 -1.1812 -0.5768
 3222SOL     OW21124   3.968   3.410   7.774  0.1116 -0.3046 -0.2184
 3222SOL    HW121125   4.053   3.394   7.733  0.1014 -3.0034  0.7874
 3222SOL    HW221126   3.968   3.360   7.856 -1.0546 -2.0313 -1.2741
 3223SOL     OW21127   2.440   0.255   6.879 -0.3581  0.1886  0.4337
 3223SOL    HW121128   2.475   0.274   6.966  0.2022  2.0222 -0.1990
 3223SOL    HW221129   2.411   0.166   6.900  1.1818 -0.8685 -1.8722
 3224SOL     OW21130   2.338   1.106  10.019 -0.3306 -0.0227  0.7701
 3224SOL    HW121131   2.297   1.141  10.098  1.4270  1.0670  1.1819
 3224SOL    HW221132   2.318   1.012  10.021 -0.9007  0.1797  3.5168
 3225SOL     OW21133   0.956   0.078   5.695 -0.0016 -0.2539 -0.1519
 3225SOL    HW121134   0.953   0.088   5.600  0.5987  0.1632 -0.1226
 3225SOL    HW221135   1.024   0.144   5.704 -0.5099  0.1649  0.6180
 3226SOL     OW21136   0.301   2.626   8.659 -0.3866  0.3437  0.2548
 3226SOL    HW121137   0.377   2.568   8.673  0.2473  0.9076 -0.7819
 3226SOL    HW221138   0.292   2.612   8.564  2.3140  0.1633  0.0108
 3227SOL     OW21139   4.143   2.821   8.950  0.2752  0.0540 -0.0217
 3227SOL    HW121140   4.115   2.876   9.023 -2.1181 -0.8866 -0.2323
 3227SOL    HW221141   4.094   2.741   8.967 -0.6972  1.1278  2.1240
 3228SOL     OW21142   3.162   1.123   8.969  0.3542 -0.7041  0.1868
 3228SOL    HW121143   3.108   1.091   8.896 -0.9682  0.8789  0.4732
 3228SOL    HW221144   3.231   1.169   8.922 -1.1907  1.1223 -0.3070
 3229SOL     OW21145   2.996   0.321   4.074 -0.0088  0.3578 -0.3666
 3229SOL    HW121146   2.942   0.296   4.149  0.2310  1.1612  0.0886
 3229SOL    HW221147   2.983   0.416   4.068 -0.6123  0.3261  0.4255
 3230SOL     OW21148   3.390   3.284   9.194  0.4797 -0.1524  0.1684
 3230SOL    HW121149   3.303   3.270   9.157  0.9197 -2.4202  0.0209
 3230SOL    HW221150   3.392   3.215   9.260  1.8018 -0.7220 -0.4813
 3231SOL     OW21151   2.294   2.817  16.785  0.6096  0.3633  0.4915
 3231SOL    HW121152   2.325   2.873  16.857 -1.6149  3.4148 -0.9093
 3231SOL    HW221153   2.204   2.847  16.774  0.3211 -0.7247 -0.0448
 3232SOL     OW21154   0.667   4.420   5.119 -0.1464  0.5880 -0.0007
 3232SOL    HW121155   0.666   4.325   5.130  1.3149  0.5469 -0.1521
 3232SOL    HW221156   0.583   4.445   5.080 -0.7110 -0.4357  0.5683
 3233SOL     OW21157   3.523   2.438   9.061  0.0032  0.2226  0.6267
 3233SOL    HW121158   3.518   2.436   8.965  0.4484 -2.4720  0.6491
 3233SOL    HW221159   3.452   2.374   9.070  1.1052 -0.7393  2.4407
 3234SOL     OW21160   0.077   4.389  10.865  0.6990  0.0306  0.2274
 3234SOL    HW121161   0.119   4.459  10.915  1.2230  2.3374 -3.4299
 3234SOL    HW221162   0.124   4.400  10.782 -0.4794  1.7597 -0.2206
 3235SOL     OW21163   0.102   2.526   4.421  0.2749  0.1946  0.2518
 3235SOL    HW121164   0.187   2.483   4.417  0.1484 -0.1023  0.7596
 3235SOL    HW221165   0.122   2.618   4.403 -0.7686  0.8370  2.4312
 3236SOL     OW21166   4.308   4.558   7.876 -0.2913 -0.0949 -0.4503
 3236SOL    HW121167   4.300   4.649   7.848 -0.1413  0.0527  0.0007
 3236SOL    HW221168   4.404   4.556   7.882 -0.3358 -3.2880 -0.5651
 3237SOL     OW21169   1.132   4.440   8.252 -0.3778  0.0733  0.9834
 3237SOL    HW121170   1.224   4.426   8.276 -0.0737 -0.3351 -0.3838
 3237SOL    HW221171   1.093   4.353   8.244 -1.2766  0.8412 -3.2054
 3238SOL     OW21172   0.279   2.685   4.163 -0.5304 -0.0314  0.0910
 3238SOL    HW121173   0.261   2.758   4.103 -0.9899 -0.6835 -0.5581
 3238SOL    HW221174   0.218   2.616   4.137  1.5767 -3.0425  3.0640
 3239SOL     OW21175   3.423   4.259   0.140  0.1158  0.3849 -0.2946
 3239SOL    HW121176   3.472   4.176   0.142  2.4302  1.7811  1.8187
 3239SOL    HW221177   3.371   4.239   0.218  0.6664  0.0882 -0.0026
 3240SOL     OW21178   1.758   4.178   6.978  0.3947 -0.2608  0.5037
 3240SOL    HW121179   1.665   4.186   6.958  0.7070  0.9181 -0.5074
 3240SOL    HW221180   1.783   4.239   6.909 -1.4370  0.3472  0.3867
 3241SOL     OW21181   1.412   0.540   3.507 -0.2248 -0.1378 -0.5042
 3241SOL    HW121182   1.436   0.448   3.497 -1.8512 -0.9539  3.0157
 3241SOL    HW221183   1.446   0.572   3.423  2.8980  1.8948  1.5299
 3242SOL     OW21184   2.101   3.885  16.381 -0.0194 -0.3945 -0.2769
 3242SOL    HW121185   2.076   3.895  16.289 -1.4587  0.0025  0.1688
 3242SOL    HW221186   2.196   3.875  16.375  0.0653  0.8340 -0.9711
 3243SOL     OW21187   2.853   0.806  16.968 -0.0269  0.1198  0.1547
 3243SOL    HW121188   2.792   0.765  17.029 -0.1612 -0.7125 -0.5406
 3243SOL    HW221189   2.886   0.886  17.009 -1.6551  0.5833  0.5709
 3244SOL     OW21190   2.283   2.374   5.054 -0.5998  0.6772  0.1721
 3244SOL    HW121191   2.215   2.315   5.023  0.3769  0.8583 -2.3170
 3244SOL    HW221192   2.336   2.329   5.119  2.3582  1.9158 -1.3986
 3245SOL     OW21193   2.841   4.145  11.188  0.5958 -0.2035 -0.3331
 3245SOL    HW121194   2.894   4.210  11.141  0.2472 -0.0634 -0.5308
 3245SOL    HW221195   2.818   4.084  11.118 -3.1421  1.9071 -0.9355
 3246SOL     OW21196   3.303   2.045   3.837 -0.6599  0.3501  0.3496
 3246SOL    HW121197   3.209   2.029   3.838 -0.5702 -0.2576 -0.3756
 3246SOL    HW221198   3.314   2.112   3.904 -1.1610  1.5867 -0.8119
 3247SOL     OW21199   0.804   2.034   5.419  0.2332  0.1088 -0.6382
 3247SOL    HW121200   0.843   2.083   5.490 -0.2003  1.4777 -1.3541
 3247SOL    HW221201   0.842   2.085   5.348  1.8102 -0.0228  0.1195
 3248SOL     OW21202   3.408   0.651   5.620 -0.2216  0.8361 -0.4197
 3248SOL    HW121203   3.440   0.741   5.622  1.8844  0.0563  0.7833
 3248SOL    HW221204   3.425   0.628   5.529 -0.6927 -1.0725 -0.0302
 3249SOL     OW21205   2.759   4.608   8.046 -0.0456  0.0584 -0.0050
 3249SOL    HW121206   2.793   4.594   7.957 -0.0216 -0.6788  0.1149
 3249SOL    HW221207   2.668   4.633   8.032 -0.6513 -1.7665  0.7141
 3250SOL     OW21208   4.506   3.150  10.584  0.1771 -0.8789 -0.3356
 3250SOL    HW121209   4.498   3.100  10.665  3.0557  0.2333  0.6280
 3250SOL    HW221210   4.593   3.191  10.582 -0.2115  0.0560  1.8127
 3251SOL     OW21211   0.829   0.884   2.600  0.4300 -0.2695  0.2790
 3251SOL    HW121212   0.915   0.900   2.561 -1.1744  0.2291 -3.0327
 3251SOL    HW221213   0.845   0.820   2.670  2.3815  1.0488  1.0493
 3252SOL     OW21214   0.073   3.858   2.266 -0.3726  0.5454 -0.0566
 3252SOL    HW121215   4.712   3.906   2.247 -0.0228  1.5344  0.9233
 3252SOL    HW221216   0.144   3.894   2.213 -1.3772 -0.9109 -2.3835
 3253SOL     OW21217   2.763   3.581   4.032 -0.4128  0.3881  0.2018
 3253SOL    HW121218   2.852   3.565   4.000  0.5713  3.0180  1.6631
 3253SOL    HW221219   2.782   3.615   4.119  1.2525 -0.1018  0.0255
 3254SOL     OW21220   1.811   3.138  11.924 -0.1532 -0.2163 -0.1619
 3254SOL    HW121221   1.874   3.070  11.901 -0.6134 -0.9625  0.7612
 3254SOL    HW221222   1.818   3.202  11.853  1.2135 -0.0656  0.1107
 3255SOL     OW21223   3.454   0.753   7.334 -1.0599  0.2986  0.1983
 3255SOL    HW121224   3.399   0.771   7.258 -1.4668  1.8615  0.8634
 3255SOL    HW221225   3.538   0.722   7.300 -0.8228 -0.4981  1.4939
 3256SOL     OW21226   4.121   1.077   6.258 -0.3793  0.3510  0.0680
 3256SOL    HW121227   4.202   1.088   6.308  0.6032 -1.7644 -1.0344
 3256SOL    HW221228   4.067   1.018   6.310  0.3609  0.7699  1.3127
 3257SOL     OW21229   3.208   1.481   9.217  0.0410 -0.1509 -0.2710
 3257SOL    HW121230   3.184   1.515   9.131 -1.4918 -1.7443 -0.4579
 3257SOL    HW221231   3.126   1.463   9.263  0.0591  0.0511 -0.1596
 3258SOL     OW21232   1.625   1.050  16.445 -0.0924  0.2440 -0.3003
 3258SOL    HW121233   1.604   1.142  16.430 -1.2225  0.0049 -0.1669
 3258SOL    HW221234   1.558   1.028  16.510 -1.1519  0.1550 -1.4249
 3259SOL     OW21235   3.326   3.513   6.394 -0.3711  0.3341  0.1994
 3259SOL    HW121236   3.310   3.600   6.428 -3.8408 -0.4836  0.7259
 3259SOL    HW221237   3.363   3.468   6.470  0.7757 -1.3123 -1.3226
 3260SOL     OW21238   3.989   0.498   4.337 -0.5000 -0.1118 -0.8695
 3260SOL    HW121239   3.942   0.427   4.381  2.7669  0.0361  2.9262
 3260SOL    HW221240   4.077   0.503   4.375 -1.0304 -1.4418  0.5709
 3261SOL     OW21241   2.111   2.856   5.552  0.0507  0.3796 -0.3688
 3261SOL    HW121242   2.167   2.786   5.521 -1.1248 -0.9800  0.5781
 3261SOL    HW221243   2.070   2.888   5.471 -0.2431 -3.5486 -1.7576
 3262SOL     OW21244   0.042   4.344  11.503  0.5446  0.2833 -0.2069
 3262SOL    HW121245   0.032   4.362  11.410  2.4236  0.5063 -0.3763
 3262SOL    HW221246   0.137   4.353  11.509  0.6625 -0.2473 -1.3087
 3263SOL     OW21247   0.641   2.766  12.712  0.4506  0.3706  0.6044
 3263SOL    HW121248   0.586   2.841  12.691  0.8177  0.6230  0.5572
 3263SOL    HW221249   0.707   2.816  12.760 -2.0696  2.0724  2.2752
 3264SOL     OW21250   3.216   3.109  17.123  0.9558  0.2007 -0.0870
 3264SOL    HW121251   3.202   3.189  17.174  0.3539 -0.0968  0.2137
 3264SOL    HW221252   3.267   3.061  17.188  0.2713 -1.3725 -0.7267
 3265SOL     OW21253   4.500   3.603   8.930 -0.3086  0.5384 -0.2381
 3265SOL    HW121254   4.589   3.597   8.964 -0.3608  0.1023 -0.1772
 3265SOL    HW221255   4.522   3.641   8.845  2.7088  0.7460  0.6601
 3266SOL     OW21256   4.077   4.571   0.391  0.0484 -0.3847 -0.2877
 3266SOL    HW121257   4.133   4.636   0.433  1.0816  0.3118 -2.7676
 3266SOL    HW221258   4.070   4.610   0.304 -0.8069 -2.6444 -1.2330
 3267SOL     OW21259   2.295   4.232   9.992  0.3689 -0.0569  0.5743
 3267SOL    HW121260   2.342   4.151  10.011 -0.8228  0.0247  3.8887
 3267SOL    HW221261   2.262   4.252  10.080 -1.6355  0.4382 -0.2932
 3268SOL     OW21262   4.311   1.135   0.682 -0.0194 -0.1667  0.2424
 3268SOL    HW121263   4.377   1.176   0.626 -0.7737 -0.1239 -0.6158
 3268SOL    HW221264   4.345   1.046   0.693 -0.1460 -0.1849  0.4716
 3269SOL     OW21265   0.248   3.136   4.047  0.3321 -0.2437 -0.2724
 3269SOL    HW121266   0.216   3.160   3.960  1.9405 -1.4512 -1.2091
 3269SOL    HW221267   0.174   3.078   4.065  0.3652  0.2278  1.4012
 3270SOL     OW21268   1.712   2.703   1.165 -0.2759  0.5129  0.0363
 3270SOL    HW121269   1.806   2.715   1.180 -0.3267 -1.5004  1.9790
 3270SOL    HW221270   1.712   2.728   1.073 -1.0988  2.0156  0.4525
 3271SOL     OW21271   4.482   1.883   3.341 -0.6824 -0.0860  0.0447
 3271SOL    HW121272   4.497   1.835   3.259 -2.1499 -2.2067  1.0195
 3271SOL    HW221273   4.545   1.841   3.399 -1.7004 -0.4242  0.8909
 3272SOL     OW21274   0.362   2.816  16.535 -0.3564  0.3019  0.2343
 3272SOL    HW121275   0.439   2.760  16.523  1.1532  1.9176  2.4980
 3272SOL    HW221276   0.403   2.902  16.533  1.1818 -0.4186  0.4721
 3273SOL     OW21277   1.920   0.962   2.575 -0.3539 -0.2758  0.0084
 3273SOL    HW121278   1.946   0.893   2.635 -1.6025 -1.5295 -0.8902
 3273SOL    HW221279   1.980   1.036   2.587  0.4369 -0.8776 -0.2226
 3274SOL     OW21280   3.123   1.538   0.520  0.0937 -0.2280 -0.1450
 3274SOL    HW121281   3.145   1.587   0.441  0.2333  1.4007  0.9019
 3274SOL    HW221282   3.097   1.613   0.573 -0.0470  0.2125 -0.8369
 3275SOL     OW21283   2.073   3.638  12.819  0.2659 -0.5345 -0.2614
 3275SOL    HW121284   2.103   3.634  12.910  1.5357 -0.9079 -0.7019
 3275SOL    HW221285   2.015   3.713  12.831 -0.6556 -1.1084 -1.1081
 3276SOL     OW21286   0.406   1.521   5.495  0.3938 -0.7330 -0.5800
 3276SOL    HW121287   0.437   1.455   5.557  1.2832 -0.0088 -0.2403
 3276SOL    HW221288   0.489   1.555   5.460  1.0732 -3.2457 -1.4362
 3277SOL     OW21289   0.763   3.723  14.321 -0.0810  0.3642 -0.1598
 3277SOL    HW121290   0.834   3.777  14.356  0.8643  0.7105 -2.6305
 3277SOL    HW221291   0.809   3.668  14.257  0.3973 -1.0511  1.3877
 3278SOL     OW21292   4.189   2.058   6.605 -0.0375 -0.0630 -0.4812
 3278SOL    HW121293   4.211   2.151   6.613 -0.2098 -0.0891  0.3421
 3278SOL    HW221294   4.097   2.063   6.579 -0.1840  3.7660  0.6813
 3279SOL     OW21295   3.287   0.041  17.452 -0.2501 -0.0220 -0.7683
 3279SOL    HW121296   3.265   0.007  17.540  2.2653  0.7433  0.1425
 3279SOL    HW221297   3.381   0.046  17.468  0.0757 -1.5541 -2.1959
 3280SOL     OW21298   2.664   3.316  12.163  0.7185 -0.7746  0.2620
 3280SOL    HW121299   2.625   3.271  12.088  0.4780  0.1230 -0.1467
 3280SOL    HW221300   2.708   3.384  12.113 -2.6828  1.2173  0.0245
 3281SOL     OW21301   1.391   3.409   7.798 -0.1129  0.0729  0.2735
 3281SOL    HW121302   1.472   3.460   7.793  1.0087 -1.4911  2.0503
 3281SOL    HW221303   1.407   3.362   7.881 -1.9907  1.3193  1.3272
 3282SOL     OW21304   1.815   0.611   5.533 -0.2834 -0.7336 -0.2115
 3282SOL    HW121305   1.731   0.588   5.572 -1.1996  0.0386 -1.7357
 3282SOL    HW221306   1.818   0.701   5.565  2.5736 -0.6900 -0.6228
 3283SOL     OW21307   1.558   3.625   2.521  0.2933 -0.2544 -0.4215
 3283SOL    HW121308   1.534   3.683   2.449  0.8325 -0.9667 -1.1859
 3283SOL    HW221309   1.535   3.542   2.478  0.7243 -0.1662 -0.8248
 3284SOL     OW21310   0.788   0.074   2.299 -0.1179  0.2935 -0.0601
 3284SOL    HW121311   0.723   0.094   2.366  0.6827 -0.2290  0.8612
 3284SOL    HW221312   0.761   4.708   2.267  0.5921  0.0412  0.0223
 3285SOL     OW21313   4.716   2.417   1.624 -0.2447 -0.1326  0.2712
 3285SOL    HW121314   4.675   2.496   1.662 -1.0297  0.9241 -2.7698
 3285SOL    HW221315   0.036   2.380   1.702 -0.0473 -0.9537 -0.2281
 3286SOL     OW21316   2.875   1.440   6.775 -0.1244  0.4564  0.5960
 3286SOL    HW121317   2.841   1.506   6.836  1.8350  1.1149  0.9757
 3286SOL    HW221318   2.876   1.364   6.832  1.6864  0.8142  1.0250
 3287SOL     OW21319   4.419   0.803  16.244  0.7881 -0.2671  0.0351
 3287SOL    HW121320   4.466   0.865  16.300 -2.1283  1.7584  0.2479
 3287SOL    HW221321   4.407   0.725  16.298 -0.1746  0.1273  0.3827
 3288SOL     OW21322   4.148   2.275   7.714  0.0909 -0.1926  0.1807
 3288SOL    HW121323   4.113   2.188   7.695  0.9675 -0.4410 -0.3352
 3288SOL    HW221324   4.121   2.324   7.636 -1.2635 -1.5294 -0.1994
 3289SOL     OW21325   3.489   4.689   0.693  0.1957  0.4056  0.3137
 3289SOL    HW121326   3.497   4.679   0.598 -1.6409  1.4385  0.0440
 3289SOL    HW221327   3.394   4.701   0.704  0.1521  0.4315 -0.0684
 3290SOL     OW21328   0.751   4.367   2.623  0.1068 -0.3002 -0.2084
 3290SOL    HW121329   0.774   4.440   2.681 -0.4306  0.7520 -1.3218
 3290SOL    HW221330   0.730   4.411   2.541  0.7237 -0.5224 -0.4874
 3291SOL     OW21331   0.076   2.749   1.128 -0.3179  0.6333 -0.6175
 3291SOL    HW121332   4.712   2.779   1.094 -1.3242  1.9267  2.9754
 3291SOL    HW221333   0.136   2.823   1.119 -0.7798  0.9334 -1.2376
 3292SOL     OW21334   1.617   3.917   6.388 -0.0044  0.1098  0.0524
 3292SOL    HW121335   1.682   3.984   6.370  1.1436 -0.3822  2.3215
 3292SOL    HW221336   1.543   3.953   6.338 -1.2970 -0.4953  1.5065
 3293SOL     OW21337   1.639   1.374  14.637 -0.4996  0.2968  0.0089
 3293SOL    HW121338   1.731   1.392  14.618  0.1831 -1.5694  1.5544
 3293SOL    HW221339   1.619   1.316  14.564  2.8680 -0.7755 -0.0442
 3294SOL     OW21340   4.140   2.596   4.770 -0.2592  0.3399  0.1227
 3294SOL    HW121341   4.109   2.680   4.736 -1.4358 -0.7571 -1.4996
 3294SOL    HW221342   4.158   2.639   4.854 -1.8692  0.3263  0.4600
 3295SOL     OW21343   2.177   0.210   4.511 -0.0531  0.3256  0.1363
 3295SOL    HW121344   2.203   0.169   4.594  1.0011 -0.7268 -0.7012
 3295SOL    HW221345   2.168   0.301   4.539  1.7258  0.7765 -0.6823
 3296SOL     OW21346   1.867   2.658   4.961  0.2377  0.6545  0.6023
 3296SOL    HW121347   1.782   2.698   4.940 -0.0448  1.2323  2.7852
 3296SOL    HW221348   1.925   2.691   4.893  0.0000 -0.6127 -0.2163
 3297SOL     OW21349   4.040   2.450   3.421  0.0925  0.3486  1.0283
 3297SOL    HW121350   4.128   2.457   3.458  0.5994  0.8339 -0.2998
 3297SOL    HW221351   3.991   2.523   3.457 -1.4541  0.0392 -0.4773
 3298SOL     OW21352   3.985   1.402  12.391 -0.4054 -0.3004 -0.7324
 3298SOL    HW121353   3.916   1.467  12.406 -1.3321 -1.0212 -1.9413
 3298SOL    HW221354   4.029   1.429  12.472  0.0585 -1.3936 -0.6208
 3299SOL     OW21355   2.596   1.665  12.832  0.2242  0.2661 -0.2873
 3299SOL    HW121356   2.507   1.639  12.808  0.1559 -0.9511  1.2238
 3299SOL    HW221357   2.644   1.585  12.856  1.0870  1.2351  1.2708
 3300SOL     OW21358   3.604   1.223   1.379  1.0772  0.1489  0.4262
 3300SOL    HW121359   3.605   1.290   1.447 -0.1390 -0.0754  0.6752
 3300SOL    HW221360   3.679   1.165   1.395  1.2054  0.3017  0.3696
 3301SOL     OW21361   2.226   0.683   2.594  0.2683 -0.0882 -0.4879
 3301SOL    HW121362   2.247   0.600   2.550 -0.7807  0.2956 -1.7140
 3301SOL    HW221363   2.313   0.724   2.593  0.1085  0.2466 -1.4283
 3302SOL     OW21364   4.194   0.376  12.547 -0.7402 -0.1974  0.3761
 3302SOL    HW121365   4.214   0.312  12.480  1.2497  1.2443 -0.4197
 3302SOL    HW221366   4.283   0.407  12.566 -0.7128  0.3701 -0.6857
 3303SOL     OW21367   3.301   3.686   5.417  0.2869  0.1579  0.4111
 3303SOL    HW121368   3.304   3.590   5.416  1.0701  0.1821  0.3332
 3303SOL    HW221369   3.261   3.703   5.502  3.8589  2.7183  1.5467
 3304SOL     OW21370   3.050   1.948   9.973  0.5517  0.0411  0.7120
 3304SOL    HW121371   3.120   2.009   9.952 -0.1329  0.1218 -1.3313
 3304SOL    HW221372   3.085   1.929  10.060 -2.3931 -3.3665  1.1594
 3305SOL     OW21373   4.700   0.411   6.633  0.2882  0.5751 -0.4914
 3305SOL    HW121374   4.657   0.485   6.675 -2.9033 -1.2143 -0.5416
 3305SOL    HW221375   0.068   0.435   6.658 -0.1113  1.1364  0.3674
 3306SOL     OW21376   3.032   2.164  13.821 -0.2511 -0.2062  0.0800
 3306SOL    HW121377   2.971   2.112  13.873  1.0121 -1.5699  0.2132
 3306SOL    HW221378   2.974   2.188  13.749 -0.3016 -1.8535 -0.4493
 3307SOL     OW21379   3.756   0.820   1.582  0.2847 -0.1436 -0.3363
 3307SOL    HW121380   3.847   0.791   1.585  0.2524 -0.3524 -1.5577
 3307SOL    HW221381   3.751   0.826   1.487  0.8967  1.0984 -0.2971
 3308SOL     OW21382   0.699   1.819   5.553  0.1578  0.0413 -0.1979
 3308SOL    HW121383   0.748   1.876   5.494  0.6354 -1.3318 -1.1086
 3308SOL    HW221384   0.607   1.828   5.526  0.2931  0.1479 -0.6228
 3309SOL     OW21385   1.486   3.488  14.281  0.1029  1.0488 -0.0477
 3309SOL    HW121386   1.529   3.546  14.344 -1.0209  1.8208  0.0156
 3309SOL    HW221387   1.418   3.541  14.240 -1.2057 -0.0646  0.6628
 3310SOL     OW21388   0.191   4.435   5.764 -0.1172  0.3147  0.5126
 3310SOL    HW121389   0.174   4.360   5.822  0.3599  0.5675  0.9830
 3310SOL    HW221390   0.272   4.405   5.723  0.5689 -1.7770  3.3702
 3311SOL     OW21391   0.392   3.024   3.609  0.7947  0.0120 -0.1465
 3311SOL    HW121392   0.486   3.041   3.605  0.5855  1.5946  1.9806
 3311SOL    HW221393   0.384   2.946   3.554 -1.8412 -0.7236  1.2596
 3312SOL     OW21394   2.824   1.751   7.332  0.1405  0.0015  0.0075
 3312SOL    HW121395   2.847   1.668   7.374 -0.7845  0.7358  1.9581
 3312SOL    HW221396   2.882   1.807   7.384  0.6338 -1.6447  1.2413
 3313SOL     OW21397   0.144   0.409   2.904  0.1739 -0.0575 -0.2592
 3313SOL    HW121398   0.170   0.422   2.995 -2.5855 -1.4901  0.7542
 3313SOL    HW221399   0.207   0.349   2.864  1.1608 -0.0547  1.3016
 3314SOL     OW21400   4.132   4.042   5.440  0.6750  0.5041 -0.0906
 3314SOL    HW121401   4.061   3.981   5.461  0.3807  0.5371 -0.9904
 3314SOL    HW221402   4.083   4.104   5.386  2.5360  1.9662 -0.1014
 3315SOL     OW21403   1.135   0.446   4.963 -0.3976 -0.3697  0.7654
 3315SOL    HW121404   1.059   0.451   4.906 -0.7476  0.2648  1.2818
 3315SOL    HW221405   1.104   0.457   5.053 -1.2693 -2.9886  0.7596
 3316SOL     OW21406   0.250   3.990  11.320  0.0245 -0.1842  0.1929
 3316SOL    HW121407   0.266   3.943  11.238  1.4699  0.2892  0.1996
 3316SOL    HW221408   0.339   3.991  11.356 -0.5564  3.0787  1.5308
 3317SOL     OW21409   3.269   0.816   1.523 -0.3593 -0.2247  0.2011
 3317SOL    HW121410   3.331   0.744   1.538  1.6933  1.3240 -0.8419
 3317SOL    HW221411   3.205   0.792   1.589 -1.3932  0.3751 -0.5859
 3318SOL     OW21412   1.229   0.339  13.206  0.5949 -0.4760  0.0679
 3318SOL    HW121413   1.181   0.328  13.288 -0.6500 -0.7586 -0.6936
 3318SOL    HW221414   1.222   0.251  13.169  1.4108 -0.6463  0.3272
 3319SOL     OW21415   2.054   3.405   2.998  0.6403  0.6452 -0.3150
 3319SOL    HW121416   2.124   3.342   3.015 -0.8543 -0.9403  0.0789
 3319SOL    HW221417   2.094   3.488   2.973  1.1642  0.8641  1.2982
 3320SOL     OW21418   4.047   2.358  12.330 -1.0582 -0.1664 -0.5102
 3320SOL    HW121419   3.979   2.382  12.267 -1.7777 -3.1950 -0.8797
 3320SOL    HW221420   4.057   2.440  12.377 -1.8191 -1.4143  1.8161
 3321SOL     OW21421   3.923   0.622   6.597  0.1255  0.2878  0.4089
 3321SOL    HW121422   3.951   0.565   6.669 -0.9994 -1.0894 -0.2600
 3321SOL    HW221423   3.944   0.711   6.624 -0.7834  0.2831  1.1404
 3322SOL     OW21424   3.198   1.057   5.054 -0.0878 -0.0358  0.3401
 3322SOL    HW121425   3.277   1.020   5.013 -1.5847 -1.6097 -1.1062
 3322SOL    HW221426   3.223   1.069   5.146 -0.5909  1.7539  0.2466
 3323SOL     OW21427   1.153   3.058   8.870  0.5706 -0.2226  0.6087
 3323SOL    HW121428   1.182   3.142   8.905  3.8864 -0.7972 -0.7725
 3323SOL    HW221429   1.199   2.998   8.929  0.6501  0.7343  1.5318
 3324SOL     OW21430   3.302   1.793   5.839 -0.2518 -0.6536 -0.0856
 3324SOL    HW121431   3.318   1.834   5.923  0.6038  0.6432 -0.8915
 3324SOL    HW221432   3.220   1.747   5.859 -0.1260 -1.4924 -1.4356
 3325SOL     OW21433   4.076   0.286  12.043  0.0149 -0.2585 -0.0154
 3325SOL    HW121434   4.022   0.259  11.968 -0.7382  1.0816  0.0473
 3325SOL    HW221435   4.041   0.371  12.069 -1.2471 -0.6928 -0.3110
 3326SOL     OW21436   3.282   3.872  16.001  0.0972  0.1160 -0.4481
 3326SOL    HW121437   3.242   3.790  15.974  2.0907 -0.2635 -2.2955
 3326SOL    HW221438   3.237   3.924  15.934  0.1854 -0.6785 -1.1343
 3327SOL     OW21439   2.083   4.337   2.157  0.0385  0.1738 -0.4163
 3327SOL    HW121440   2.035   4.353   2.239  0.8336  0.1480  0.0494
 3327SOL    HW221441   2.020   4.275   2.121 -0.3527  0.7577 -0.7359
 3328SOL     OW21442   4.328   4.517   0.853  0.4841 -0.0395  0.0358
 3328SOL    HW121443   4.337   4.602   0.896  0.3054 -0.2986  0.5901
 3328SOL    HW221444   4.401   4.520   0.792  0.2326 -2.4168 -0.3892
 3329SOL     OW21445   2.766   2.359   5.429  0.5212 -0.2377 -0.0485
 3329SOL    HW121446   2.674   2.351   5.453  0.4441 -1.4233 -0.7545
 3329SOL    HW221447   2.770   2.454   5.419  2.2041 -0.1949  1.1579
 3330SOL     OW21448   2.528   0.963   3.216 -0.1068 -0.5813  0.2113
 3330SOL    HW121449   2.456   1.018   3.186  0.0235 -1.1895 -1.2298
 3330SOL    HW221450   2.559   1.012   3.292  0.1805  0.8135 -0.8194
 3331SOL     OW21451   2.860   0.447   2.284 -0.4636 -0.1155 -0.3470
 3331SOL    HW121452   2.910   0.469   2.206 -0.7828 -2.9250 -1.3378
 3331SOL    HW221453   2.908   0.501   2.347 -2.1709 -0.5608  1.3254
 3332SOL     OW21454   3.777   2.476   9.191  0.2314  0.6486 -0.2085
 3332SOL    HW121455   3.692   2.465   9.149 -0.3507 -1.2625  1.4753
 3332SOL    HW221456   3.757   2.469   9.284 -0.3439  1.4690 -0.2711
 3333SOL     OW21457   4.213   4.091   5.031 -0.6041  0.2989 -0.5722
 3333SOL    HW121458   4.220   3.996   5.032  1.3545  0.4493 -0.4797
 3333SOL    HW221459   4.289   4.121   5.081 -0.0689 -1.4089 -0.3886
 3334SOL     OW21460   0.837   3.879  13.123 -0.0950 -0.0385  0.0514
 3334SOL    HW121461   0.897   3.935  13.172 -0.4180 -1.4459  2.0541
 3334SOL    HW221462   0.772   3.854  13.189 -0.8959  0.2987 -0.6049
 3335SOL     OW21463   2.548   0.731   7.770 -0.6471  0.4397 -0.7443
 3335SOL    HW121464   2.456   0.725   7.794 -0.5924 -0.2976 -0.7169
 3335SOL    HW221465   2.561   0.823   7.744  0.7387  0.5954  0.4938
 3336SOL     OW21466   0.167   1.939   5.904  0.5283 -0.2730 -0.2864
 3336SOL    HW121467   0.099   1.874   5.917 -0.0240  0.5014  0.6877
 3336SOL    HW221468   0.119   2.017   5.933 -0.4770 -0.9561 -0.1432
 3337SOL     OW21469   0.155   4.309   7.211  0.1858  0.2907 -0.1095
 3337SOL    HW121470   0.243   4.317   7.249 -0.1471 -0.1614  0.7526
 3337SOL    HW221471   0.119   4.389   7.249 -0.7762 -0.8958  1.4346
 3338SOL     OW21472   2.386   2.697   2.156  0.2379 -0.9168 -0.7808
 3338SOL    HW121473   2.475   2.725   2.174 -0.2063 -0.4019  0.6362
 3338SOL    HW221474   2.370   2.719   2.065 -1.2189  0.6635 -0.1398
 3339SOL     OW21475   2.954   3.968   1.693  0.0948  0.9696  0.1780
 3339SOL    HW121476   2.971   3.874   1.686 -0.0056  1.0434 -1.1084
 3339SOL    HW221477   2.885   3.960   1.759 -0.3033  2.3997 -0.0641
 3340SOL     OW21478   2.273   0.922   4.320  0.3354  0.1605  0.7450
 3340SOL    HW121479   2.295   0.845   4.372  1.2502 -0.2698 -0.2804
 3340SOL    HW221480   2.299   0.992   4.381  2.4017 -0.3639  0.4532
 3341SOL     OW21481   3.123   2.958   5.830 -0.2240  0.5305 -0.4794
 3341SOL    HW121482   3.198   2.983   5.775  1.0377  0.6463  1.2852
 3341SOL    HW221483   3.152   2.988   5.916  0.9023 -0.5387 -0.4772
 3342SOL     OW21484   3.343   3.219   6.484 -0.3536  0.0126  0.4358
 3342SOL    HW121485   3.314   3.242   6.572 -0.0023 -1.5271  0.9456
 3342SOL    HW221486   3.290   3.144   6.460  0.8620 -0.4001 -0.9736
 3343SOL     OW21487   4.658   0.282   2.677 -0.3844 -0.2769  0.4029
 3343SOL    HW121488   4.647   0.267   2.583 -1.6776  0.7943  0.3820
 3343SOL    HW221489   4.640   0.194   2.710  0.1333 -1.0429 -1.3779
 3344SOL     OW21490   4.227   1.389   3.702  0.0049 -0.2912  0.4947
 3344SOL    HW121491   4.211   1.407   3.795  0.5595 -1.2946  0.7947
 3344SOL    HW221492   4.258   1.478   3.686  1.6719 -0.4930  2.4913
 3345SOL     OW21493   2.983   0.487   8.675  0.6544  0.4516  0.6084
 3345SOL    HW121494   2.926   0.482   8.598  0.8596 -2.2082  0.6175
 3345SOL    HW221495   3.039   0.562   8.657  1.7084 -0.5470 -0.2626
 3346SOL     OW21496   2.637   1.211   1.425  0.0404  0.1533  0.0403
 3346SOL    HW121497   2.706   1.269   1.457  0.3187  0.8871 -1.8749
 3346SOL    HW221498   2.595   1.183   1.506  0.3629 -0.6244 -0.0571
 3347SOL     OW21499   0.198   2.800  16.313  0.5289 -0.0862  0.1157
 3347SOL    HW121500   0.256   2.817  16.387  0.6562 -2.2073  0.5195
 3347SOL    HW221501   0.181   2.707  16.328 -0.5347 -0.1643 -1.5969
 3348SOL     OW21502   0.963   3.838  17.012 -0.1476  0.0682 -0.4404
 3348SOL    HW121503   0.967   3.933  17.018  3.0370 -0.1477  0.5376
 3348SOL    HW221504   1.035   3.822  16.951  1.1709  2.7920  0.4323
 3349SOL     OW21505   3.139   4.463  11.560 -0.2753  0.0498 -0.1661
 3349SOL    HW121506   3.070   4.476  11.495 -0.1985 -0.4587 -0.3499
 3349SOL    HW221507   3.199   4.403  11.514  0.3455 -1.2396  2.3559
 3350SOL     OW21508   1.535   3.520   2.779  0.0665 -0.5998  0.1932
 3350SOL    HW121509   1.443   3.508   2.755 -0.5929  4.1375  0.4159
 3350SOL    HW221510   1.561   3.575   2.705  2.0040  0.1691  1.4778
 3351SOL     OW21511   1.099   0.873   2.479  0.4140 -0.1810  0.0660
 3351SOL    HW121512   1.178   0.927   2.472 -0.8388  1.5091 -1.1438
 3351SOL    HW221513   1.115   0.801   2.419 -1.4140  0.4068 -1.1020
 3352SOL     OW21514   4.590   3.815   6.253 -0.4020  0.5362  0.1485
 3352SOL    HW121515   4.597   3.741   6.312 -0.8706  0.1152 -0.3199
 3352SOL    HW221516   4.649   3.876   6.297  0.9967 -2.3700  2.2918
 3353SOL     OW21517   4.712   3.778   3.324 -0.1977  0.2837 -0.0907
 3353SOL    HW121518   0.055   3.708   3.339  0.4409  1.0484  0.7634
 3353SOL    HW221519   4.689   3.763   3.233  0.8972 -3.1980  0.2005
 3354SOL     OW21520   4.371   2.894  15.915  0.2786  0.1419 -0.1658
 3354SOL    HW121521   4.450   2.938  15.947  1.1556 -0.7443 -1.1040
 3354SOL    HW221522   4.307   2.934  15.974  1.2220  0.6747  0.5080
 3355SOL     OW21523   3.583   2.147   5.288  0.9351 -0.3688 -0.0979
 3355SOL    HW121524   3.642   2.118   5.358 -0.4295  0.3770  1.3537
 3355SOL    HW221525   3.649   2.185   5.231 -0.4404 -0.1769 -1.5688
 3356SOL     OW21526   3.174   0.454  11.289  0.1997  0.3602 -0.1597
 3356SOL    HW121527   3.240   0.429  11.353  0.9170  1.4131 -0.4879
 3356SOL    HW221528   3.223   0.438  11.208  0.7336  1.7586 -0.1010
 3357SOL     OW21529   1.938   0.006   5.564  0.0905 -0.0352 -0.4179
 3357SOL    HW121530   1.860   0.062   5.569  0.2155 -0.0385  1.5719
 3357SOL    HW221531   1.959   0.008   5.471 -1.1091 -1.5260 -0.7154
 3358SOL     OW21532   2.902   1.564   3.455 -0.0400  0.0061  0.4970
 3358SOL    HW121533   2.928   1.652   3.428 -0.9439 -0.5367 -2.0926
 3358SOL    HW221534   2.934   1.570   3.545 -0.8786  1.3285  0.7101
 3359SOL     OW21535   2.768   4.439   4.048  0.2093 -0.0533 -0.0623
 3359SOL    HW121536   2.737   4.367   3.992  0.3906  0.7143 -1.1634
 3359SOL    HW221537   2.850   4.467   4.007  0.5920  0.2947  0.9579
 3360SOL     OW21538   2.651   1.108  12.535 -0.5713  0.3007  0.2285
 3360SOL    HW121539   2.682   1.019  12.519 -0.7822 -0.1998  2.5620
 3360SOL    HW221540   2.678   1.162  12.461 -0.0646  1.6058  1.3577
 3361SOL     OW21541   2.501   3.498   6.964  0.2890 -0.2034 -0.3107
 3361SOL    HW121542   2.453   3.578   6.982  0.9888 -0.2282  1.6533
 3361SOL    HW221543   2.425   3.448   6.933 -1.3905  1.5869  0.9570
 3362SOL     OW21544   4.521   2.383   8.664  0.0944 -0.1413 -0.1936
 3362SOL    HW121545   4.585   2.315   8.686 -0.8600 -0.7724  0.6217
 3362SOL    HW221546   4.530   2.447   8.735  1.9785  1.7412 -2.1375
 3363SOL     OW21547   3.190   2.733   1.876 -0.0438 -0.7502 -0.2928
 3363SOL    HW121548   3.230   2.815   1.848  0.6812 -0.7169  0.8492
 3363SOL    HW221549   3.261   2.693   1.927 -0.5020 -1.1123  0.0561
 3364SOL     OW21550   2.415   3.729   3.305  0.1168  0.0051 -0.1313
 3364SOL    HW121551   2.347   3.782   3.347 -0.4434 -0.5124 -0.3810
 3364SOL    HW221552   2.401   3.646   3.351  2.4808 -0.4612 -0.2538
 3365SOL     OW21553   3.494   2.679   1.786 -0.4685  0.1377 -0.6578
 3365SOL    HW121554   3.574   2.727   1.807  1.1048 -1.4835 -2.8453
 3365SOL    HW221555   3.502   2.662   1.692 -1.7482  0.2289 -0.7882
 3366SOL     OW21556   3.473   2.839   2.371  0.4011 -0.0751 -0.0736
 3366SOL    HW121557   3.453   2.871   2.284  0.1390 -2.3944 -0.8500
 3366SOL    HW221558   3.562   2.807   2.355 -0.0273 -2.0371  1.3418
 3367SOL     OW21559   4.501   1.818   3.687 -0.0327  0.0420 -0.0308
 3367SOL    HW121560   4.560   1.755   3.730  0.8778  2.2202  1.9164
 3367SOL    HW221561   4.553   1.894   3.662  1.3798 -1.2972 -1.1579
 3368SOL     OW21562   0.941   3.720  15.140  0.1397 -0.6156  0.2879
 3368SOL    HW121563   0.929   3.810  15.169 -1.2624 -0.8443  0.4410
 3368SOL    HW221564   0.964   3.678  15.223 -1.4688 -0.0322  1.0278
 3369SOL     OW21565   4.200   2.084   7.046  0.4785  0.0519  0.2508
 3369SOL    HW121566   4.182   2.155   6.983 -0.2140 -1.9841 -1.8691
 3369SOL    HW221567   4.275   2.052   6.996  0.7206  0.6685  0.2256
 3370SOL     OW21568   0.173   0.643   3.715  0.1889 -0.3454  0.3496
 3370SOL    HW121569   0.146   0.593   3.638 -1.1562  2.5636 -1.0513
 3370SOL    HW221570   0.221   0.717   3.678 -0.2860  0.3986  1.2376
 3371SOL     OW21571   3.701   2.311   6.483 -0.3465  0.2348 -0.1427
 3371SOL    HW121572   3.697   2.397   6.526 -2.0517  0.0916 -0.0019
 3371SOL    HW221573   3.612   2.317   6.447 -0.9569 -1.2605  1.1163
 3372SOL     OW21574   2.675   3.951   3.581  0.3167  0.4673 -0.1118
 3372SOL    HW121575   2.640   4.034   3.550 -0.2387 -0.0013 -0.7421
 3372SOL    HW221576   2.727   3.915   3.509 -0.4603  0.2014 -0.5502
 3373SOL     OW21577   2.750   1.978   5.804  0.2205  0.3822 -0.4745
 3373SOL    HW121578   2.799   1.967   5.722  1.8654  1.0451  0.4202
 3373SOL    HW221579   2.789   2.060   5.834  0.9857 -0.1879  0.0757
 3374SOL     OW21580   3.478   0.448   3.477 -0.4004  0.0953  0.3241
 3374SOL    HW121581   3.466   0.525   3.532  1.2808  0.8055 -0.3079
 3374SOL    HW221582   3.521   0.386   3.537 -0.8409 -1.4993 -0.9820
 3375SOL     OW21583   4.455   3.324   8.879 -0.2672 -0.4029 -0.0074
 3375SOL    HW121584   4.472   3.416   8.898 -0.7377 -0.2026 -0.5674
 3375SOL    HW221585   4.453   3.325   8.784 -1.5765  1.1055  0.0399
 3376SOL     OW21586   0.969   0.609   7.333 -0.4148  0.2629  0.0780
 3376SOL    HW121587   0.992   0.701   7.344 -0.1886  0.5105 -2.5099
 3376SOL    HW221588   0.911   0.615   7.257 -0.0495 -0.2435 -0.2454
 3377SOL     OW21589   1.258   0.349  14.126  0.0792 -0.0799  0.7635
 3377SOL    HW121590   1.208   0.389  14.197  1.8304  2.5576  0.5081
 3377SOL    HW221591   1.191   0.304  14.074  0.3017  2.5995 -1.8332
 3378SOL     OW21592   0.680   0.742   6.604 -0.2127  0.1101  0.3490
 3378SOL    HW121593   0.744   0.770   6.539 -0.2630 -2.6399 -0.8943
 3378SOL    HW221594   0.717   0.654   6.607 -1.0939 -0.3585 -2.8166
 3379SOL     OW21595   2.770   0.015  16.529 -0.6596 -0.0633 -0.3892
 3379SOL    HW121596   2.765   0.068  16.449 -1.3439 -1.6382 -1.3862
 3379SOL    HW221597   2.737   0.083  16.588 -0.4304  0.9209 -1.3942
 3380SOL     OW21598   0.155   1.181   1.400 -0.3814 -0.3299 -0.2536
 3380SOL    HW121599   0.103   1.226   1.333 -0.1093  1.2087  0.5721
 3380SOL    HW221600   0.083   1.138   1.446 -0.2223  0.5286  0.7979
 3381SOL     OW21601   3.444   3.282   1.022  0.1573 -0.2909 -0.0174
 3381SOL    HW121602   3.439   3.355   0.959  1.6548  0.5432  0.8159
 3381SOL    HW221603   3.522   3.307   1.072  0.7813 -1.4808 -0.3906
 3382SOL     OW21604   2.424   0.704  13.500  0.3719  0.6220  0.4202
 3382SOL    HW121605   2.466   0.659  13.573  1.1831  2.6705  1.2114
 3382SOL    HW221606   2.391   0.786  13.537 -0.9765 -0.1174  0.8696
 3383SOL     OW21607   4.364   3.738  15.012  0.6492 -0.1269  0.0431
 3383SOL    HW121608   4.378   3.757  15.105 -1.9759 -0.9600  0.6191
 3383SOL    HW221609   4.446   3.691  15.001 -0.5131 -2.1043 -0.1889
 3384SOL     OW21610   0.555   0.825   3.252  0.4122  0.1063 -0.3358
 3384SOL    HW121611   0.467   0.855   3.229  0.0269  0.2309  1.3255
 3384SOL    HW221612   0.530   0.765   3.322  0.3901  1.8390  1.1408
 3385SOL     OW21613   1.318   0.302   2.731 -0.0718 -0.0354 -0.2029
 3385SOL    HW121614   1.411   0.325   2.731  0.2576 -1.3185  1.4470
 3385SOL    HW221615   1.278   0.376   2.685 -0.0566  0.1474  0.0772
 3386SOL     OW21616   1.357   2.675   1.714  0.6445 -0.3133  0.3433
 3386SOL    HW121617   1.327   2.598   1.762  2.6033 -0.8476  0.7138
 3386SOL    HW221618   1.433   2.709   1.761  0.1584 -0.9043  1.5603
 3387SOL     OW21619   1.396   4.126   6.888  0.0204 -0.3468 -0.0413
 3387SOL    HW121620   1.473   4.089   6.846  1.5023  1.2412  1.2461
 3387SOL    HW221621   1.416   4.219   6.878  3.6896 -1.3429 -1.9486
 3388SOL     OW21622   3.091   0.451  14.507 -0.3760 -0.2096 -0.0039
 3388SOL    HW121623   3.011   0.400  14.502 -0.3595 -0.6021  3.7808
 3388SOL    HW221624   3.150   0.405  14.447 -0.8120  0.8822 -1.2932
 3389SOL     OW21625   4.060   4.113   4.819 -0.8799 -0.1384 -0.2250
 3389SOL    HW121626   3.970   4.136   4.846 -1.3771 -2.5501  0.1489
 3389SOL    HW221627   4.110   4.102   4.899 -0.6490  0.1629 -0.3255
 3390SOL     OW21628   0.152   1.088   5.965 -0.3527  0.4295 -0.0760
 3390SOL    HW121629   0.187   1.119   5.882 -0.1773  0.4807  0.0161
 3390SOL    HW221630   0.226   1.080   6.026  0.4000  1.9253 -0.7860
 3391SOL     OW21631   3.380   3.727   6.090  0.3835 -0.5805 -0.7085
 3391SOL    HW121632   3.362   3.703   5.999  0.5713  0.7061 -1.0839
 3391SOL    HW221633   3.307   3.785   6.110  1.0873  0.1551 -0.2799
 3392SOL     OW21634   0.560   4.713   8.014  0.2763 -0.0998  0.3955
 3392SOL    HW121635   0.520   4.658   7.947  0.0107  1.3955 -0.6711
 3392SOL    HW221636   0.653   4.694   8.004 -0.3841 -2.1800 -1.6810
 3393SOL     OW21637   3.714   2.523   4.685  0.0420  0.6492  0.1025
 3393SOL    HW121638   3.752   2.436   4.687  0.9608  0.9587 -4.8035
 3393SOL    HW221639   3.775   2.555   4.619 -1.7174 -0.3688 -2.0071
 3394SOL     OW21640   1.092   1.414   4.274  0.3739  0.0515  0.2513
 3394SOL    HW121641   1.080   1.498   4.317  0.0926 -0.1477  0.5544
 3394SOL    HW221642   1.059   1.414   4.184 -1.0016  0.3554  0.7612
 3395SOL     OW21643   3.536   2.443   0.809  0.2037  0.5872  0.1227
 3395SOL    HW121644   3.515   2.423   0.718 -2.2205 -2.0418  1.2556
 3395SOL    HW221645   3.461   2.404   0.854 -0.7050  1.8341 -0.3116
 3396SOL     OW21646   4.196   3.899  15.781 -0.2190 -0.5435  0.1994
 3396SOL    HW121647   4.148   3.916  15.862  0.8999  1.0302  0.5279
 3396SOL    HW221648   4.124   3.891  15.718 -0.3841  1.0762  0.1831
 3397SOL     OW21649   0.926   4.055  13.979 -0.1242  0.9236 -0.4536
 3397SOL    HW121650   0.907   4.086  13.891  2.4519 -0.7340 -1.6021
 3397SOL    HW221651   0.845   4.040  14.028  0.1511 -1.1814 -0.6265
 3398SOL     OW21652   4.641   0.118  14.243 -0.1481  0.3721  0.5690
 3398SOL    HW121653   4.695   0.192  14.272  1.9013 -0.5230 -0.9740
 3398SOL    HW221654   4.666   0.116  14.151 -0.0875 -0.6315  0.6095
 3399SOL     OW21655   2.489   4.559   9.781  0.2366  0.6581  0.7695
 3399SOL    HW121656   2.556   4.628   9.780  0.1555  0.7295  0.0297
 3399SOL    HW221657   2.542   4.479   9.771 -1.4228 -0.5031  1.2320
 3400SOL     OW21658   1.598   3.594  13.540 -0.8817 -0.0070 -0.1288
 3400SOL    HW121659   1.574   3.640  13.620 -1.0783 -0.6851  0.1914
 3400SOL    HW221660   1.678   3.643  13.516 -1.0862 -1.1088 -3.1206
 3401SOL     OW21661   3.341   0.409   2.099  0.2343 -0.2599  0.1116
 3401SOL    HW121662   3.382   0.490   2.131 -0.6433 -0.6527  2.2522
 3401SOL    HW221663   3.323   0.377   2.187 -1.3117 -0.9057 -0.4331
 3402SOL     OW21664   3.174   2.074   4.176 -0.0922  0.2527  0.2910
 3402SOL    HW121665   3.207   2.033   4.096  0.1778  2.1592 -0.5777
 3402SOL    HW221666   3.116   2.008   4.214 -0.4974 -1.8853 -4.1312
 3403SOL     OW21667   1.584   3.762  17.623  0.0974  0.2186  0.7270
 3403SOL    HW121668   1.600   3.856  17.623  1.2640  0.0176 -0.5209
 3403SOL    HW221669   1.673   3.729  17.612 -0.5491 -2.0718  2.2166
 3404SOL     OW21670   3.707   3.209   0.219  0.0453  0.6532  0.0514
 3404SOL    HW121671   3.799   3.182   0.218  0.5012  2.1717 -0.8431
 3404SOL    HW221672   3.721   3.304   0.225  1.9073  0.4041 -0.4043
 3405SOL     OW21673   3.483   3.014   1.173 -0.0288  0.3750 -0.0281
 3405SOL    HW121674   3.427   3.067   1.229 -2.1596  0.9455 -2.6923
 3405SOL    HW221675   3.561   2.994   1.224 -0.5957 -1.5944  0.0875
 3406SOL     OW21676   2.323   3.706   9.793  0.4947  0.6487  0.0323
 3406SOL    HW121677   2.371   3.786   9.815  0.8332  0.7650 -1.1723
 3406SOL    HW221678   2.389   3.638   9.803  0.7268  0.8802  0.0668
 3407SOL     OW21679   1.673   3.292   4.425 -0.6177  0.1471 -0.0273
 3407SOL    HW121680   1.701   3.212   4.469  1.6955  0.8036 -0.3111
 3407SOL    HW221681   1.704   3.268   4.338 -0.9225  1.6456 -0.5471
 3408SOL     OW21682   1.120   1.934   1.030  0.5380 -0.3626 -0.0581
 3408SOL    HW121683   1.077   1.988   1.096  1.6363 -0.8443  1.0457
 3408SOL    HW221684   1.138   1.852   1.076  0.5715 -0.1803  0.2570
 3409SOL     OW21685   1.051   3.802   9.092 -0.5169 -0.4128 -0.2305
 3409SOL    HW121686   1.018   3.784   9.180  0.1311 -0.6287 -0.0292
 3409SOL    HW221687   1.068   3.895   9.108 -1.7237  0.1405 -2.1505
 3410SOL     OW21688   1.767   1.965   7.919  0.4799 -0.0131 -0.3880
 3410SOL    HW121689   1.806   1.962   8.007  1.3389  0.8189 -0.7505
 3410SOL    HW221690   1.838   1.999   7.864  1.5792 -3.1086 -0.8735
 3411SOL     OW21691   2.724   1.298   2.173 -0.1968 -0.1040 -0.0378
 3411SOL    HW121692   2.729   1.260   2.261 -0.4270 -1.0129 -0.4098
 3411SOL    HW221693   2.736   1.393   2.178 -1.5972  0.0431  0.5267
 3412SOL     OW21694   1.707   4.557   2.557  0.5703  0.7750  0.0045
 3412SOL    HW121695   1.695   4.651   2.568  2.3580  0.8449  1.4594
 3412SOL    HW221696   1.799   4.555   2.583  1.1256  1.9875 -1.8385
 3413SOL     OW21697   2.848   4.714  11.247  0.3734  0.1752 -0.0668
 3413SOL    HW121698   2.820   0.077  11.286 -2.0055 -0.8955  0.4822
 3413SOL    HW221699   2.932   4.719  11.292  0.3224  1.6125 -0.1437
 3414SOL     OW21700   2.803   4.171   6.925  0.4500  0.0108 -0.1117
 3414SOL    HW121701   2.897   4.153   6.916  0.4543 -0.6820  1.3212
 3414SOL    HW221702   2.805   4.254   6.879  1.3500  0.2064  0.2742
 3415SOL     OW21703   0.549   3.497   3.863  0.4374 -0.0135 -0.0240
 3415SOL    HW121704   0.510   3.414   3.891  1.0049 -0.1499  0.3594
 3415SOL    HW221705   0.641   3.489   3.886  0.4999 -0.5635 -0.4615
 3416SOL     OW21706   0.538   1.452   9.851  0.3618  0.3717 -0.1137
 3416SOL    HW121707   0.444   1.469   9.862 -0.1079 -3.0850  1.2285
 3416SOL    HW221708   0.554   1.509   9.776  1.7555 -1.1096 -0.9411
 3417SOL     OW21709   2.518   4.133  13.334 -0.1774 -0.5848  0.7228
 3417SOL    HW121710   2.586   4.116  13.398  1.2987 -3.0068 -1.5036
 3417SOL    HW221711   2.565   4.163  13.256  0.7160  0.3138  1.6160
 3418SOL     OW21712   4.459   2.777   4.471  0.2704  0.3084  0.3174
 3418SOL    HW121713   4.394   2.845   4.451  0.1198  0.4932  1.4285
 3418SOL    HW221714   4.439   2.716   4.400  2.0382 -0.0841  0.1619
 3419SOL     OW21715   3.233   0.321   2.329 -0.5098  1.0285  0.0320
 3419SOL    HW121716   3.157   0.359   2.373  0.5410  2.0287  0.9965
 3419SOL    HW221717   3.195   0.245   2.286 -0.3710 -0.5822  2.7750
 3420SOL     OW21718   0.526   3.177  14.054 -0.4609 -0.2596  0.1002
 3420SOL    HW121719   0.566   3.252  14.010 -0.6292 -0.1958  0.0600
 3420SOL    HW221720   0.606   3.129  14.075 -0.2434  0.6934  1.4673
 3421SOL     OW21721   0.003   0.075   0.214 -0.2841 -0.3087  0.4517
 3421SOL    HW121722   4.641   0.100   0.173 -0.8242  1.8740  2.8394
 3421SOL    HW221723   0.068   0.092   0.145  1.7568  0.7518  2.6085
 3422SOL     OW21724   3.945   1.898  15.639 -0.1696 -0.1039  0.4319
 3422SOL    HW121725   3.890   1.828  15.675 -0.3994 -1.2133 -2.1276
 3422SOL    HW221726   3.885   1.913  15.566 -2.0276 -0.7742  1.7951
 3423SOL     OW21727   1.808   0.459   7.919  0.5062 -0.0533  0.1387
 3423SOL    HW121728   1.723   0.444   7.961  0.2441 -0.5131 -0.5565
 3423SOL    HW221729   1.791   0.493   7.831  1.0196 -1.2864 -0.4303
 3424SOL     OW21730   0.387   0.178  12.470  0.4017 -0.3227  0.0767
 3424SOL    HW121731   0.383   0.117  12.543  2.6321  0.7187  1.0770
 3424SOL    HW221732   0.475   0.216  12.475 -0.7512  2.6018 -1.4991
 3425SOL     OW21733   3.180   1.491  13.752 -0.5949  0.1832  0.3045
 3425SOL    HW121734   3.259   1.545  13.760  0.4488 -1.3840  0.4985
 3425SOL    HW221735   3.214   1.412  13.793 -1.9825 -0.3270  0.4619
 3426SOL     OW21736   2.835   1.994   9.530 -0.1219 -0.0154 -0.4346
 3426SOL    HW121737   2.915   2.035   9.499 -0.0347 -1.6016 -2.3216
 3426SOL    HW221738   2.806   2.062   9.591  2.1932  1.2507 -0.7598
 3427SOL     OW21739   3.428   4.658   2.801  0.2777  0.2521  0.0590
 3427SOL    HW121740   3.365   0.007   2.819  0.8760  1.4753 -2.5465
 3427SOL    HW221741   3.498   4.706   2.756 -1.4873  2.3770 -0.4102
 3428SOL     OW21742   1.180   1.681   5.339 -0.0637 -0.5217 -0.7716
 3428SOL    HW121743   1.242   1.608   5.342  2.8528  1.9102 -2.1065
 3428SOL    HW221744   1.138   1.682   5.253  0.8303  1.5157 -1.1645
 3429SOL     OW21745   1.924   1.227   6.286  0.2045  0.3485  0.0921
 3429SOL    HW121746   1.993   1.182   6.237 -1.8312 -0.1950 -2.2770
 3429SOL    HW221747   1.955   1.217   6.376  0.0360  1.7113  0.3026
 3430SOL     OW21748   1.608   2.726   6.928  0.0650 -0.6651 -0.7556
 3430SOL    HW121749   1.635   2.814   6.900  1.7428 -0.8473  0.2982
 3430SOL    HW221750   1.549   2.744   7.000  2.1037  1.1596  0.4688
 3431SOL     OW21751   2.063   2.486   7.565 -0.3270 -0.4387 -0.0168
 3431SOL    HW121752   2.120   2.429   7.616  0.3895 -0.4543 -0.8357
 3431SOL    HW221753   2.001   2.500   7.637 -1.8295  0.8080 -1.5475
 3432SOL     OW21754   1.056   0.678   3.787  0.5922  0.8025  0.2464
 3432SOL    HW121755   1.052   0.621   3.710  0.5358 -0.6718  1.3480
 3432SOL    HW221756   1.150   0.670   3.803  0.7548 -0.2356 -1.1961
 3433SOL     OW21757   3.726   0.194   5.549  0.4911 -0.0313  0.0120
 3433SOL    HW121758   3.727   0.274   5.600 -0.2332 -1.6239  2.5384
 3433SOL    HW221759   3.761   0.139   5.619 -0.4993  1.6692  1.8440
 3434SOL     OW21760   4.135   1.254   0.480  0.3339 -0.3589  0.0085
 3434SOL    HW121761   4.188   1.229   0.555 -0.4658 -1.0207  0.3531
 3434SOL    HW221762   4.089   1.174   0.454  0.0622 -0.5289  1.0247
 3435SOL     OW21763   3.681   3.981   6.401 -0.1618  0.2799 -0.2731
 3435SOL    HW121764   3.618   3.922   6.359 -0.7686  0.7347  0.0059
 3435SOL    HW221765   3.746   3.918   6.431  1.2905  0.7181 -2.4771
 3436SOL     OW21766   2.629   3.366   7.358  0.6964 -0.1606 -0.4535
 3436SOL    HW121767   2.563   3.418   7.403  1.3814  0.0349  0.3155
 3436SOL    HW221768   2.683   3.322   7.424  0.3103 -1.3889 -0.9447
 3437SOL     OW21769   3.371   4.340  10.188  0.0273 -0.4020  0.1300
 3437SOL    HW121770   3.280   4.356  10.162 -0.4346  1.2059  2.6614
 3437SOL    HW221771   3.383   4.251  10.156 -2.5045 -0.2895 -1.1573
 3438SOL     OW21772   0.848   4.530  11.351  0.1219 -0.5079  0.0796
 3438SOL    HW121773   0.818   4.621  11.360 -1.6310 -0.9240 -1.7466
 3438SOL    HW221774   0.867   4.508  11.442  2.8050 -0.6902 -0.5226
 3439SOL     OW21775   4.651   4.230   6.186  0.4613  0.1942  0.1221
 3439SOL    HW121776   4.652   4.192   6.098  4.1223 -0.4605  0.4404
 3439SOL    HW221777   0.016   4.273   6.190  0.9513 -0.8075  0.5360
 3440SOL     OW21778   1.435   1.832   6.278 -0.1745  0.2174  0.0847
 3440SOL    HW121779   1.523   1.869   6.287  0.5367 -1.5644  0.3331
 3440SOL    HW221780   1.410   1.855   6.189 -0.3108 -0.7122 -0.1160
 3441SOL     OW21781   0.689   3.173  14.848 -0.5429  0.2769 -0.2934
 3441SOL    HW121782   0.605   3.189  14.890 -1.0443  0.3420 -1.3162
 3441SOL    HW221783   0.666   3.121  14.772 -1.4549  0.8751 -0.4263
 3442SOL     OW21784   3.220   0.020   0.063 -0.3335  0.6361 -0.3303
 3442SOL    HW121785   3.130   4.709   0.065  0.6692 -2.2015 -0.0228
 3442SOL    HW221786   3.214   0.111   0.093 -0.0916  0.0571  1.5139
 3443SOL     OW21787   4.031   2.063   7.612 -0.1024  0.3356 -0.1269
 3443SOL    HW121788   3.973   2.042   7.539 -1.4446  0.8360  0.7922
 3443SOL    HW221789   4.116   2.024   7.593 -0.1672  0.0727  0.1207
 3444SOL     OW21790   0.488   1.091   6.458 -0.1982 -0.0770 -0.1076
 3444SOL    HW121791   0.477   1.010   6.410 -1.8170 -0.4475  0.9054
 3444SOL    HW221792   0.579   1.069   6.480  0.4631  0.4354 -2.3079
 3445SOL     OW21793   3.762   0.816   2.720  0.0902 -0.2854  0.4226
 3445SOL    HW121794   3.815   0.779   2.791  0.0439 -0.4374  0.3783
 3445SOL    HW221795   3.730   0.743   2.666 -1.1751  0.2783  0.4131
 3446SOL     OW21796   0.723   4.536  17.056 -0.2847  0.0171  0.3997
 3446SOL    HW121797   0.677   4.618  17.039  0.1804 -0.1509 -1.6734
 3446SOL    HW221798   0.812   4.569  17.069  0.4100 -1.8123  0.2697
 3447SOL     OW21799   0.037   2.194   2.227 -0.4104  0.4260 -0.0179
 3447SOL    HW121800   0.104   2.262   2.234 -0.9448  0.7613  1.7948
 3447SOL    HW221801   4.696   2.227   2.292 -0.2348  0.2845  0.2186
 3448SOL     OW21802   1.360   0.216   7.325  0.0087  0.4029 -0.5325
 3448SOL    HW121803   1.384   0.297   7.370  0.6879  0.4906 -1.0515
 3448SOL    HW221804   1.419   0.224   7.250  1.7493  0.1476  0.8202
 3449SOL     OW21805   2.857   1.727   8.761  0.3448  0.4437  0.3399
 3449SOL    HW121806   2.834   1.744   8.670  1.1281  0.7427  0.1995
 3449SOL    HW221807   2.916   1.654   8.744 -0.8073 -0.1332 -1.2350
 3450SOL     OW21808   1.612   1.176   7.109  0.0623  0.1687 -0.2397
 3450SOL    HW121809   1.522   1.205   7.121  0.4104  1.1424 -0.0091
 3450SOL    HW221810   1.633   1.147   7.198  0.4521  1.3935  0.0636
 3451SOL     OW21811   2.528   4.134   1.605  0.1480 -0.4627 -0.9856
 3451SOL    HW121812   2.450   4.117   1.658 -1.6870 -0.1023 -3.6087
 3451SOL    HW221813   2.532   4.055   1.551 -1.0557  0.2140 -2.0428
 3452SOL     OW21814   2.486   0.396   3.033 -0.5860  0.5040 -0.3793
 3452SOL    HW121815   2.519   0.322   2.982  1.7179  0.9745  0.4565
 3452SOL    HW221816   2.563   0.397   3.089 -1.3825 -0.1063  0.7239
 3453SOL     OW21817   1.799   0.431   0.087  0.2281  0.2987  0.1012
 3453SOL    HW121818   1.713   0.466   0.065 -0.2997 -2.4010 -2.2190
 3453SOL    HW221819   1.775   0.364   0.152  1.6569 -1.9758 -1.7365
 3454SOL     OW21820   1.948   2.701  13.169  0.3513  0.1996 -0.3131
 3454SOL    HW121821   1.987   2.720  13.254  0.8167  0.7920 -0.6558
 3454SOL    HW221822   2.000   2.627  13.136  0.0010 -0.9073  1.5847
 3455SOL     OW21823   1.110   1.909   3.264  0.3961  0.4155  0.2146
 3455SOL    HW121824   1.102   1.814   3.272  0.8640  0.1690 -2.0442
 3455SOL    HW221825   1.127   1.918   3.170 -0.1114  1.2028  0.1995
 3456SOL     OW21826   1.053   3.884   2.257 -0.0333 -0.2070  0.1344
 3456SOL    HW121827   1.081   3.804   2.212  2.6160  1.9969 -2.1237
 3456SOL    HW221828   0.962   3.858   2.270  0.3602 -1.8231 -0.3236
 3457SOL     OW21829   3.175   1.575   1.857 -0.6675  0.0646 -0.7735
 3457SOL    HW121830   3.140   1.532   1.779 -1.3863 -1.2310  0.2752
 3457SOL    HW221831   3.094   1.605   1.898 -0.8413  1.9772 -2.5248
 3458SOL     OW21832   0.260   4.519   6.041  0.1602  0.0727  0.5005
 3458SOL    HW121833   0.255   4.456   5.969  0.3224  2.0814 -1.2884
 3458SOL    HW221834   0.209   4.589   6.001 -1.4820  0.5654  3.4675
 3459SOL     OW21835   4.656   1.708  16.971 -0.3114 -0.1998 -0.1797
 3459SOL    HW121836   0.003   1.769  17.003  0.8945 -1.5739 -0.1274
 3459SOL    HW221837   4.707   1.636  16.935  0.1640  1.0305 -1.9780
 3460SOL     OW21838   2.795   4.160  11.505 -0.6048  0.3262 -0.2656
 3460SOL    HW121839   2.874   4.107  11.497  0.2744  1.3083  1.8456
 3460SOL    HW221840   2.739   4.121  11.438 -0.7795  2.5053 -1.4065
 3461SOL     OW21841   2.982   4.200  17.396  0.2008  0.1055 -0.0149
 3461SOL    HW121842   3.000   4.108  17.373 -0.2459  0.2503 -0.9400
 3461SOL    HW221843   2.983   4.232  17.306 -1.1947 -0.1611 -0.1233
 3462SOL     OW21844   4.603   2.412   8.227 -0.0232  0.1203 -0.2928
 3462SOL    HW121845   4.628   2.496   8.187 -0.4725 -0.3958 -1.6732
 3462SOL    HW221846   4.637   2.427   8.315 -1.7099 -0.3874  0.4402
 3463SOL     OW21847   4.145   4.128   1.742  0.2187  0.7845 -0.1240
 3463SOL    HW121848   4.089   4.122   1.665 -1.7311 -0.2750  1.3718
 3463SOL    HW221849   4.221   4.078   1.713 -0.4902 -0.1234 -0.4399
 3464SOL     OW21850   0.951   4.294   3.501  0.1530  0.1080 -0.2661
 3464SOL    HW121851   0.965   4.206   3.535 -1.1312 -0.7005 -1.8119
 3464SOL    HW221852   0.870   4.275   3.453 -0.1315 -2.1673  1.1410
 3465SOL     OW21853   1.806   1.514   5.783  0.1428  0.3745  0.0022
 3465SOL    HW121854   1.807   1.573   5.859  2.2227  0.2568  0.0628
 3465SOL    HW221855   1.860   1.562   5.719  0.3099  1.8362  1.2300
 3466SOL     OW21856   3.628   2.924  12.968  0.6876  0.0885 -0.2551
 3466SOL    HW121857   3.674   2.908  13.050 -1.7262 -0.6963  0.9397
 3466SOL    HW221858   3.540   2.893  12.989  0.2098  1.2446 -0.5550
 3467SOL     OW21859   0.617   4.140   2.240  0.3454 -0.0168 -0.4409
 3467SOL    HW121860   0.583   4.061   2.199 -0.8827  0.1751  0.2385
 3467SOL    HW221861   0.623   4.118   2.332  4.3236  1.1205 -0.4083
 3468SOL     OW21862   1.602   0.643   3.364  0.1414  0.1787  0.3552
 3468SOL    HW121863   1.669   0.609   3.305 -0.7027 -0.0138 -0.4884
 3468SOL    HW221864   1.647   0.631   3.448 -0.9581 -1.2008  0.7409
 3469SOL     OW21865   0.052   0.612   8.543  0.1759 -0.4086  0.7459
 3469SOL    HW121866   0.000   0.534   8.561  0.5532 -0.8871 -0.2175
 3469SOL    HW221867   0.050   0.614   8.447  1.2753  0.2324  0.7316
 3470SOL     OW21868   0.413   4.310   6.870 -0.6500  0.6813 -0.7955
 3470SOL    HW121869   0.406   4.248   6.797  0.9630  0.7942 -1.0375
 3470SOL    HW221870   0.500   4.350   6.861  1.3103 -3.0561  1.6618
 3471SOL     OW21871   4.598   4.037   4.009  0.0605  0.3941  0.3602
 3471SOL    HW121872   4.626   4.083   3.930 -0.4364 -0.3429 -0.2330
 3471SOL    HW221873   4.611   3.945   3.987  0.7247  0.3356  0.9828
 3472SOL     OW21874   1.957   3.972   7.555  0.0515  0.5073  0.8538
 3472SOL    HW121875   1.962   4.050   7.500 -1.9980 -2.6322 -3.8314
 3472SOL    HW221876   1.889   3.991   7.620 -2.7412  0.0798 -1.9326
 3473SOL     OW21877   1.821   1.970   4.483 -0.0796 -0.3492  0.4998
 3473SOL    HW121878   1.781   2.032   4.544 -1.4365  0.1269 -0.8773
 3473SOL    HW221879   1.776   2.003   4.406  1.3103 -0.6794 -0.4393
 3474SOL     OW21880   4.134   4.319  10.718 -0.1376  0.0202  0.2238
 3474SOL    HW121881   4.147   4.306  10.812  0.2598 -1.3168 -0.0041
 3474SOL    HW221882   4.146   4.232  10.679 -0.3887  0.0485  0.0895
 3475SOL     OW21883   4.333   2.783   3.318 -0.5239  0.2009  0.4457
 3475SOL    HW121884   4.272   2.802   3.247  2.0238  1.0493 -1.5299
 3475SOL    HW221885   4.310   2.701   3.360  1.2075 -0.7510 -0.4637
 3476SOL     OW21886   0.199   0.169   6.173 -0.2556 -0.2508  0.7343
 3476SOL    HW121887   0.212   0.112   6.097 -1.6547 -1.2630  1.2472
 3476SOL    HW221888   0.135   0.232   6.139  1.5399  0.0856 -2.0223
 3477SOL     OW21889   1.534   1.936  16.724 -0.7526  0.2469  0.5532
 3477SOL    HW121890   1.478   1.992  16.670 -0.6343 -0.6134 -0.4608
 3477SOL    HW221891   1.504   1.845  16.721  1.4336 -0.4229 -0.8849
 3478SOL     OW21892   4.041   4.239   2.831 -0.4222 -0.0684  0.0996
 3478SOL    HW121893   4.065   4.295   2.905  1.0005 -1.6547  0.8220
 3478SOL    HW221894   3.957   4.208   2.864 -0.8515 -0.2738 -1.1804
 3479SOL     OW21895   2.635   1.831   3.207  0.2130  0.2216 -0.0750
 3479SOL    HW121896   2.614   1.738   3.205  0.5252  0.1424  0.2925
 3479SOL    HW221897   2.728   1.830   3.231  0.9044 -0.2960 -2.7539
 3480SOL     OW21898   4.612   3.074  15.950 -0.1396 -0.8155  0.1460
 3480SOL    HW121899   4.663   3.052  16.028 -0.4380 -2.4142 -0.0971
 3480SOL    HW221900   4.662   3.018  15.891 -0.2313 -0.8018  0.0545
 3481SOL     OW21901   1.992   1.905   0.334  0.3183 -0.5145  0.3344
 3481SOL    HW121902   2.017   1.834   0.394  0.9150  0.7173  1.5390
 3481SOL    HW221903   1.899   1.880   0.328  0.1459  0.6442 -1.5996
 3482SOL     OW21904   0.962   0.950   6.200 -0.2827 -0.5409  0.1233
 3482SOL    HW121905   0.915   1.028   6.170 -0.8135 -0.4228  1.2469
 3482SOL    HW221906   0.976   0.895   6.123  0.2981 -1.0393  0.5811
 3483SOL     OW21907   3.521   0.653   1.589 -0.8424 -0.2136  0.4932
 3483SOL    HW121908   3.582   0.725   1.602  0.1683 -0.5555 -2.4334
 3483SOL    HW221909   3.567   0.577   1.625  1.8303  1.0630 -0.2658
 3484SOL     OW21910   4.420   0.897   0.714  0.5401  0.4371 -0.2021
 3484SOL    HW121911   4.506   0.870   0.746 -0.0502 -0.5089  0.5709
 3484SOL    HW221912   4.376   0.815   0.736  2.6090 -0.1574  1.7730
 3485SOL     OW21913   2.443   1.668  10.889  0.2275  0.3576  0.3429
 3485SOL    HW121914   2.466   1.703  10.975 -1.3362 -0.1306  0.9657
 3485SOL    HW221915   2.435   1.746  10.834 -2.9641 -1.1916 -1.4274
 3486SOL     OW21916   2.994   4.210   9.089 -0.6298  0.0813 -0.1603
 3486SOL    HW121917   2.971   4.194   8.998  0.3744  1.9502 -0.7391
 3486SOL    HW221918   2.933   4.273   9.127  1.2668  1.8042  0.0564
 3487SOL     OW21919   3.719   4.311   5.627  0.0336 -0.2796 -0.2083
 3487SOL    HW121920   3.652   4.282   5.566 -1.7632  3.5434 -0.0910
 3487SOL    HW221921   3.788   4.347   5.570  0.4181  0.0122  0.4283
 3488SOL     OW21922   2.661   2.896  10.705  0.5295  0.0542 -0.4209
 3488SOL    HW121923   2.621   2.929  10.786 -0.0452 -1.1155 -0.2287
 3488SOL    HW221924   2.750   2.883  10.738  0.7747  0.9684 -0.7311
 3489SOL     OW21925   3.724   2.343   1.864  0.5210  0.0286  0.4048
 3489SOL    HW121926   3.712   2.337   1.769 -1.4389 -1.0418  0.7278
 3489SOL    HW221927   3.685   2.261   1.894  0.4083 -0.8994 -2.1950
 3490SOL     OW21928   3.394   4.536  13.798  0.0991 -0.2324 -0.2078
 3490SOL    HW121929   3.476   4.584  13.786  0.5787 -1.3954 -1.5327
 3490SOL    HW221930   3.338   4.538  13.721 -1.0207  2.6058  0.6579
 3491SOL     OW21931   4.382   0.520   5.519  0.3649 -0.6814 -0.0008
 3491SOL    HW121932   4.432   0.468   5.456  2.9573  2.6626 -0.6997
 3491SOL    HW221933   4.455   0.571   5.555 -0.4505  1.0174 -0.7995
 3492SOL     OW21934   2.254   2.629   2.416 -0.2957 -0.0003 -0.0431
 3492SOL    HW121935   2.291   2.705   2.461  0.6143  0.6065 -1.8383
 3492SOL    HW221936   2.278   2.630   2.324 -0.6030 -1.1557 -0.1405
 3493SOL     OW21937   2.703   1.810  13.369 -0.5352 -0.0592 -0.0716
 3493SOL    HW121938   2.722   1.900  13.342  0.4028 -0.2894 -0.1645
 3493SOL    HW221939   2.787   1.766  13.362 -1.9221 -2.3059 -2.7588
 3494SOL     OW21940   2.681   1.287  10.666  0.1998  0.4382  0.1086
 3494SOL    HW121941   2.638   1.312  10.585 -0.7848 -3.0008 -0.4345
 3494SOL    HW221942   2.752   1.350  10.680  0.9394 -0.3982  0.1017
 3495SOL     OW21943   2.596   4.542   8.947  0.0153 -0.1366 -0.2008
 3495SOL    HW121944   2.527   4.583   8.894 -0.6252  1.0846  1.5637
 3495SOL    HW221945   2.551   4.458   8.951  1.7995 -1.1664 -2.4304
 3496SOL     OW21946   2.908   2.141  15.999  0.6266  0.5462  0.2729
 3496SOL    HW121947   2.915   2.068  15.938  1.0246  0.4313  0.4572
 3496SOL    HW221948   2.818   2.137  16.029  1.1750  0.7851  1.9153
 3497SOL     OW21949   0.545   4.267   4.410 -0.8142 -0.2742  0.4155
 3497SOL    HW121950   0.461   4.287   4.369 -1.1779  0.7575  1.6680
 3497SOL    HW221951   0.585   4.353   4.395 -1.7644  0.1641  0.3734
 3498SOL     OW21952   0.274   4.591   4.691  0.4823  0.6613 -0.0847
 3498SOL    HW121953   0.191   4.563   4.654  0.4311  0.9756 -0.2068
 3498SOL    HW221954   0.318   4.514   4.728 -1.0519 -0.5238 -0.7480
 3499SOL     OW21955   2.754   0.455   3.940  0.1597  0.1343 -0.2582
 3499SOL    HW121956   2.671   0.469   3.894  0.0880  0.4559 -0.0291
 3499SOL    HW221957   2.752   0.359   3.942 -2.3404  0.1524 -1.6988
 3500SOL     OW21958   1.955   2.914   9.159  0.0656  0.2866 -0.1726
 3500SOL    HW121959   1.927   2.981   9.096  1.4418 -1.0096 -2.1681
 3500SOL    HW221960   2.049   2.908   9.143  0.5676  0.7192  2.6020
 3501SOL     OW21961   2.514   3.084  13.822  0.1228  0.1748 -0.0491
 3501SOL    HW121962   2.424   3.113  13.835  0.5917  2.3059 -1.6494
 3501SOL    HW221963   2.541   3.165  13.781  0.8226 -0.9260 -1.7396
 3502SOL     OW21964   0.246   4.123   4.939 -0.7685 -0.4526  0.2697
 3502SOL    HW121965   0.224   4.085   5.024  2.3689 -1.2361  0.7248
 3502SOL    HW221966   0.179   4.191   4.928 -1.1713 -0.5869  1.9008
 3503SOL     OW21967   4.372   0.615   4.083  0.2169 -0.6841  0.0481
 3503SOL    HW121968   4.435   0.543   4.092  0.4096 -0.1799  2.7667
 3503SOL    HW221969   4.415   0.687   4.129 -1.0912 -0.3795  0.8104
 3504SOL     OW21970   3.329   1.457   6.621 -0.6326 -0.2647  0.3958
 3504SOL    HW121971   3.241   1.477   6.590 -0.6024 -2.1909 -0.9384
 3504SOL    HW221972   3.367   1.543   6.602  0.2221 -0.9616 -1.0766
 3505SOL     OW21973   3.848   0.211  15.091  0.7109 -0.9312  0.1461
 3505SOL    HW121974   3.793   0.215  15.012 -1.6684 -0.5388  1.8324
 3505SOL    HW221975   3.927   0.247  15.052  0.7677 -0.5605  0.6165
 3506SOL     OW21976   3.430   0.656  11.257  0.5528 -0.6476 -0.1877
 3506SOL    HW121977   3.382   0.737  11.274  1.7334  0.6085 -2.8172
 3506SOL    HW221978   3.485   0.656  11.335 -1.7402 -0.1743  1.4240
 3507SOL     OW21979   1.207   4.108   4.888 -0.4801  0.3819  0.0091
 3507SOL    HW121980   1.288   4.063   4.863 -0.6482  0.1614 -0.1459
 3507SOL    HW221981   1.148   4.035   4.909  0.8171 -0.6908 -0.0363
 3508SOL     OW21982   2.661   3.970  11.767  0.2521 -0.2345 -0.3946
 3508SOL    HW121983   2.700   3.930  11.844 -1.3831 -1.9252 -0.4284
 3508SOL    HW221984   2.673   4.061  11.796  1.9645 -0.3422 -0.7867
 3509SOL     OW21985   2.071   1.870  13.732  0.5748  0.2187  0.5274
 3509SOL    HW121986   2.144   1.899  13.788 -0.7320 -1.5198  3.1602
 3509SOL    HW221987   1.994   1.883  13.787  0.1403 -3.7558  0.8435
 3510SOL     OW21988   3.783   2.289   4.371  0.0578  0.0769  0.9113
 3510SOL    HW121989   3.834   2.229   4.426 -0.4529  0.6656  2.0334
 3510SOL    HW221990   3.694   2.276   4.405  0.1359  0.9935  1.4895
 3511SOL     OW21991   3.332   1.102   2.640 -0.0569  0.3881 -0.1527
 3511SOL    HW121992   3.423   1.087   2.665 -0.3529  0.6380  1.0768
 3511SOL    HW221993   3.281   1.057   2.708 -1.5002 -0.3561 -1.7237
 3512SOL     OW21994   3.450   3.311   7.207  0.0548 -0.0544 -0.1930
 3512SOL    HW121995   3.487   3.239   7.259  1.4251 -0.6830 -2.0454
 3512SOL    HW221996   3.357   3.297   7.227  0.1536 -0.8394 -0.2577
 3513SOL     OW21997   2.634   0.719   3.290  0.4080  0.6614  0.1122
 3513SOL    HW121998   2.663   0.773   3.363  0.9610  0.9152 -0.2931
 3513SOL    HW221999   2.569   0.780   3.254  1.1109  1.6694  0.5801
 3514SOL     OW22000   3.113   0.586   5.603  0.4514 -0.0769  0.0869
 3514SOL    HW122001   3.202   0.563   5.576  0.0052 -2.4671  0.6849
 3514SOL    HW222002   3.124   0.680   5.617 -1.0254  0.1510 -0.2942
 3515SOL     OW22003   3.053   0.868   0.779  0.0397  0.0254 -0.0171
 3515SOL    HW122004   3.088   0.779   0.780  1.5482  0.6014 -0.5712
 3515SOL    HW222005   3.116   0.918   0.832  0.2586  1.1401 -1.3117
 3516SOL     OW22006   2.099   2.904  11.547 -0.4218 -0.0881 -0.0214
 3516SOL    HW122007   2.169   2.888  11.484  0.6462 -2.1259  1.6789
 3516SOL    HW222008   2.123   2.989  11.583 -0.6385 -0.2881  0.5965
 3517SOL     OW22009   0.672   2.197   9.258  0.2972 -0.0855  0.3272
 3517SOL    HW122010   0.718   2.128   9.307  0.8444  0.4918  0.6242
 3517SOL    HW222011   0.679   2.270   9.319  0.6938 -0.1582  0.3690
 3518SOL     OW22012   1.232   0.012   5.130  0.1857 -0.0190 -0.4645
 3518SOL    HW122013   1.280   0.041   5.053  0.0134 -1.6294 -1.1821
 3518SOL    HW222014   1.148   0.056   5.120  0.3677  0.2312 -0.8578
 3519SOL     OW22015   2.385   0.979   1.160 -0.7522  0.0459  0.1521
 3519SOL    HW122016   2.406   0.929   1.239 -0.2856 -2.1520 -1.3612
 3519SOL    HW222017   2.343   0.901   1.125  1.0795 -0.4114 -1.0109
 3520SOL     OW22018   2.762   4.627   1.577 -0.2069 -0.1655 -0.1563
 3520SOL    HW122019   2.817   4.693   1.534 -1.0546 -0.4626 -1.6964
 3520SOL    HW222020   2.676   4.650   1.544 -0.4034  1.4507  1.4892
 3521SOL     OW22021   3.492   3.506  12.511 -0.4329 -0.5001  0.1895
 3521SOL    HW122022   3.428   3.572  12.486  0.7000  0.0444 -1.2708
 3521SOL    HW222023   3.570   3.561  12.520  0.1134 -1.0893 -0.8588
 3522SOL     OW22024   0.792   1.480  13.269 -0.5617  0.4684  0.6193
 3522SOL    HW122025   0.769   1.528  13.348  0.2626  0.3276  0.9435
 3522SOL    HW222026   0.874   1.527  13.255 -0.1771 -0.0990  0.9446
 3523SOL     OW22027   4.720   3.429   4.693  0.1831 -0.1333  0.0936
 3523SOL    HW122028   4.697   3.337   4.685 -1.3450  0.2175  0.4177
 3523SOL    HW222029   4.664   3.463   4.764  1.6180  2.4500 -0.0059
 3524SOL     OW22030   4.340   4.252  12.054  0.1510 -0.1038 -0.4578
 3524SOL    HW122031   4.246   4.264  12.037  0.0634 -0.5718 -0.3129
 3524SOL    HW222032   4.370   4.230  11.966  0.7519 -0.8061 -0.0791
 3525SOL     OW22033   0.468   0.446   8.524  0.0646  0.5663 -0.0510
 3525SOL    HW122034   0.413   0.511   8.481  0.8845  1.2385 -0.0764
 3525SOL    HW222035   0.430   0.422   8.609  1.9173  0.4181  0.7341
 3526SOL     OW22036   2.259   1.046  10.866  0.0093 -0.7503 -0.1314
 3526SOL    HW122037   2.324   1.069  10.799  1.3074  1.2785  1.7932
 3526SOL    HW222038   2.285   0.961  10.900  0.9917  0.3260  1.8510
 3527SOL     OW22039   0.188   3.831   9.044  0.7428 -0.1673 -0.0398
 3527SOL    HW122040   0.115   3.776   9.072  0.5891 -0.4586 -1.0151
 3527SOL    HW222041   0.140   3.907   9.010  1.9561  0.2195 -0.8716
 3528SOL     OW22042   4.069   1.004  15.827  0.8824 -0.2928  0.2362
 3528SOL    HW122043   4.115   1.086  15.843  2.8150 -1.1346 -0.9037
 3528SOL    HW222044   4.142   0.946  15.848  2.6939  1.5901 -0.8509
 3529SOL     OW22045   2.620   1.640   1.338  0.1401 -0.3155 -0.0359
 3529SOL    HW122046   2.704   1.611   1.303  0.7203  1.8357 -0.4242
 3529SOL    HW222047   2.559   1.586   1.288 -0.3083 -0.4990  0.7114
 3530SOL     OW22048   2.270   3.319  12.131 -0.1623  0.4471 -0.0151
 3530SOL    HW122049   2.188   3.366  12.117 -0.3371  0.2620  0.3745
 3530SOL    HW222050   2.323   3.397  12.119  1.5512 -0.9154 -1.2366
 3531SOL     OW22051   1.087   1.403   2.493  0.4834 -0.4925  0.2398
 3531SOL    HW122052   1.182   1.404   2.505  0.4241 -0.7503  0.7155
 3531SOL    HW222053   1.057   1.394   2.584 -1.7032  0.0137 -0.4207
 3532SOL     OW22054   0.713   1.108   6.225  0.0759  0.2023 -0.2524
 3532SOL    HW122055   0.705   1.041   6.292  2.0314 -0.0146 -0.2315
 3532SOL    HW222056   0.669   1.058   6.156  2.0679 -1.7197 -0.1457
 3533SOL     OW22057   1.477   3.113   4.685 -0.5576  0.2568  0.3968
 3533SOL    HW122058   1.434   3.117   4.770 -1.8760  0.2233 -0.2735
 3533SOL    HW222059   1.465   3.020   4.663  2.1885  0.6847 -2.8412
 3534SOL     OW22060   1.024   1.112   3.996  0.2694 -0.2973 -0.0544
 3534SOL    HW122061   0.944   1.069   3.966  0.8027 -2.3398  1.4560
 3534SOL    HW222062   0.991   1.201   4.008 -0.5074 -0.6347  0.3178
 3535SOL     OW22063   1.941   0.346   7.675 -0.2596  0.5666 -0.2540
 3535SOL    HW122064   1.904   0.395   7.748 -0.4548  0.2233 -0.1258
 3535SOL    HW222065   1.904   0.401   7.606  2.1333  1.3735 -0.9269
 3536SOL     OW22066   1.014   1.553   7.156  0.4329 -0.2156 -0.0220
 3536SOL    HW122067   1.092   1.591   7.115  0.1655  0.3097 -0.0403
 3536SOL    HW222068   0.963   1.632   7.172  0.6842  0.6019 -3.1521
 3537SOL     OW22069   1.367   1.487   5.285 -0.5363  0.3582 -0.4230
 3537SOL    HW122070   1.427   1.444   5.346  0.0484 -1.7662 -2.4973
 3537SOL    HW222071   1.307   1.417   5.258  0.5819 -0.8401  0.1905
 3538SOL     OW22072   3.825   2.697   2.229 -0.2246 -0.2563  0.2726
 3538SOL    HW122073   3.768   2.774   2.235  0.9803  0.8367 -2.0638
 3538SOL    HW222074   3.848   2.704   2.136 -0.7616 -0.0764  0.1516
 3539SOL     OW22075   3.128   1.079   3.059 -0.0709  0.3742 -0.3998
 3539SOL    HW122076   3.149   0.994   3.021 -0.1359  0.8533 -1.4991
 3539SOL    HW222077   3.204   1.092   3.116 -0.8950  1.0144  0.5598
 3540SOL     OW22078   4.476   2.769   8.330 -0.4960 -0.5523  0.1062
 3540SOL    HW122079   4.462   2.794   8.422  1.5890  0.1368  0.2291
 3540SOL    HW222080   4.537   2.698   8.345  1.2182  0.1197 -3.8236
 3541SOL     OW22081   2.532   3.246   2.664  0.2328 -0.1478  0.1887
 3541SOL    HW122082   2.542   3.200   2.747 -2.0697  1.4371  1.3470
 3541SOL    HW222083   2.468   3.192   2.616  0.5575  0.4030 -0.8681
 3542SOL     OW22084   0.377   2.931  12.690  0.2484  0.0647 -0.3273
 3542SOL    HW122085   0.378   2.972  12.777 -0.5231  1.1528 -0.8279
 3542SOL    HW222086   0.399   3.002  12.630  2.8607 -0.8114 -0.4164
 3543SOL     OW22087   3.344   2.830   9.052  0.1462 -0.1265 -0.3245
 3543SOL    HW122088   3.306   2.743   9.039 -1.6580  0.4515  1.1534
 3543SOL    HW222089   3.261   2.875   9.068 -0.3650 -1.4087  0.5943
 3544SOL     OW22090   0.765   2.394   3.541  1.0609  0.0535 -0.3357
 3544SOL    HW122091   0.848   2.374   3.498  0.3352 -0.0254 -1.7227
 3544SOL    HW222092   0.760   2.332   3.614 -0.1900  1.4101  0.7323
 3545SOL     OW22093   2.614   2.096   8.422 -0.1474  0.5385  0.3935
 3545SOL    HW122094   2.586   2.141   8.343 -1.2041  0.3562  0.6650
 3545SOL    HW222095   2.558   2.137   8.488 -2.6540 -2.4544  0.0930
 3546SOL     OW22096   0.820   1.132  12.977  0.3734 -0.0534  0.1567
 3546SOL    HW122097   0.890   1.067  12.976  1.5099  1.1755 -0.5683
 3546SOL    HW222098   0.811   1.145  12.883 -0.2504 -2.5605 -0.1241
 3547SOL     OW22099   2.748   2.986   4.068  0.2985  0.1479 -0.1295
 3547SOL    HW122100   2.811   3.040   4.116 -2.7553  2.3589  1.3897
 3547SOL    HW222101   2.736   3.031   3.984 -0.7466  1.0385  0.4981
 3548SOL     OW22102   3.920   4.442   8.969 -0.0887 -0.1489  0.1575
 3548SOL    HW122103   3.978   4.487   9.030  1.0869 -0.5728 -0.6445
 3548SOL    HW222104   3.860   4.510   8.938  2.4350  2.0604  0.1481
 3549SOL     OW22105   0.492   4.565   4.937  0.5469 -0.6014  0.5802
 3549SOL    HW122106   0.498   4.630   5.006 -1.2687  2.0572 -1.8029
 3549SOL    HW222107   0.398   4.555   4.949  0.1179  1.3137 -1.2277
 3550SOL     OW22108   1.997   2.332  10.959  0.4245  0.7003  0.5035
 3550SOL    HW122109   2.025   2.298  11.044  2.4011  0.7716 -0.1036
 3550SOL    HW222110   2.071   2.296  10.909 -1.6047 -1.3017 -1.0603
 3551SOL     OW22111   2.988   0.978  15.016 -0.4214  0.4958  0.0578
 3551SOL    HW122112   3.009   0.935  15.098 -0.3759  0.7735  0.1914
 3551SOL    HW222113   3.057   1.045  15.010 -0.9664  1.0939  0.4852
 3552SOL     OW22114   0.669   4.384   6.244  0.0200  0.2598 -0.4190
 3552SOL    HW122115   0.733   4.354   6.179  0.5479 -1.6506  0.9662
 3552SOL    HW222116   0.694   4.475   6.262  0.8495 -0.2932  1.2991
 3553SOL     OW22117   2.750   0.837   3.516  0.2831  0.4122  0.0642
 3553SOL    HW122118   2.729   0.783   3.593  1.0499  1.6039  1.1090
 3553SOL    HW222119   2.813   0.901   3.550 -0.7074  2.2063 -1.5158
 3554SOL     OW22120   4.069   4.126   9.182  0.4239 -0.2129 -0.6123
 3554SOL    HW122121   4.133   4.177   9.232 -0.4951  0.2781  0.0604
 3554SOL    HW222122   4.007   4.122   9.254  0.7785 -4.0485 -0.5466
 3555SOL     OW22123   3.846   3.203   3.242  0.3437  0.4744 -0.6160
 3555SOL    HW122124   3.802   3.149   3.176 -0.3140 -0.5449  0.6528
 3555SOL    HW222125   3.789   3.279   3.255  0.1014 -0.1133  1.6642
 3556SOL     OW22126   2.599   2.934   1.016  0.4107  0.0444 -0.6045
 3556SOL    HW122127   2.665   2.870   1.040 -1.2165 -1.2322  0.4487
 3556SOL    HW222128   2.532   2.924   1.084  0.4648  0.0792 -0.5466
 3557SOL     OW22129   4.648   4.288  14.146 -0.5459  0.5477 -0.7323
 3557SOL    HW122130   4.569   4.296  14.094 -0.9239 -1.0346 -0.4241
 3557SOL    HW222131   4.700   4.217  14.108 -0.3107  0.6069 -0.5231
 3558SOL     OW22132   0.327   1.700  10.591 -0.3319  0.2854  0.1388
 3558SOL    HW122133   0.387   1.759  10.546 -2.0116  1.9552  0.0555
 3558SOL    HW222134   0.337   1.733  10.681  1.6967 -1.9182  0.7155
 3559SOL     OW22135   0.268   2.687  12.778  0.3991  0.1691  0.6184
 3559SOL    HW122136   0.336   2.703  12.713  0.2131 -0.3407  0.2925
 3559SOL    HW222137   0.282   2.757  12.842  3.6214  0.7972 -0.7956
 3560SOL     OW22138   3.538   3.723   8.352  0.0093 -0.0697 -0.5943
 3560SOL    HW122139   3.458   3.770   8.376 -0.0293  0.3651 -1.5705
 3560SOL    HW222140   3.591   3.768   8.417 -1.6077 -1.3967  1.6875
 3561SOL     OW22141   1.623   1.391   5.038 -0.1550  0.4165  0.1401
 3561SOL    HW122142   1.574   1.408   4.957  2.1594  0.3067 -1.2943
 3561SOL    HW222143   1.707   1.436   5.023  0.3090 -0.5700 -0.2435
 3562SOL     OW22144   1.809   0.200   7.425  0.4996  0.5433  0.2811
 3562SOL    HW122145   1.886   0.213   7.370 -0.7449  1.7445 -1.2093
 3562SOL    HW222146   1.771   0.121   7.387  1.2832  0.6594 -0.7481
 3563SOL     OW22147   1.957   3.409  11.866  0.5972 -0.0653 -0.0779
 3563SOL    HW122148   2.020   3.481  11.869  2.8178 -2.1163  2.8261
 3563SOL    HW222149   1.957   3.382  11.959  0.4538 -2.5221 -0.7811
 3564SOL     OW22150   1.671   1.128   9.668 -0.1853  0.4521 -0.4211
 3564SOL    HW122151   1.637   1.148   9.580  0.5837 -0.7650 -0.9976
 3564SOL    HW222152   1.766   1.115   9.669 -0.0520  1.3206 -1.8326
 3565SOL     OW22153   2.351   2.983   8.664 -0.4820  0.3385 -0.2319
 3565SOL    HW122154   2.361   2.944   8.577  1.3451  1.9319 -0.7417
 3565SOL    HW222155   2.403   3.060   8.640 -0.7410  0.1755 -1.3111
 3566SOL     OW22156   3.954   3.022  16.669  0.3523  0.4601  0.5023
 3566SOL    HW122157   3.866   2.984  16.662  1.2742 -2.0411  2.3361
 3566SOL    HW222158   3.929   3.109  16.700  0.4050  1.0712 -1.2058
 3567SOL     OW22159   1.138   4.042   4.027  0.1647  0.6269  0.3329
 3567SOL    HW122160   1.152   3.963   4.080  0.6574  0.8010  0.4551
 3567SOL    HW222161   1.197   4.022   3.955  0.1379  0.4680  0.3539
 3568SOL     OW22162   3.254   2.274  17.558  0.8952 -0.2550  0.6506
 3568SOL    HW122163   3.234   2.332  17.630  3.3416 -1.0564  1.9776
 3568SOL    HW222164   3.173   2.269  17.507  0.5308  1.7247  1.0498
 3569SOL     OW22165   0.097   0.814  12.158  0.1396  0.2978  0.0302
 3569SOL    HW122166   0.178   0.766  12.178 -0.0091  0.3294  0.7113
 3569SOL    HW222167   0.023   0.772  12.202 -1.7975  3.1136 -0.5516
 3570SOL     OW22168   0.367   2.578   7.613  0.5936  0.0396 -0.1850
 3570SOL    HW122169   0.450   2.625   7.614 -0.1840  1.4502 -1.8880
 3570SOL    HW222170   0.386   2.487   7.636  0.8220  0.1117 -0.0929
 3571SOL     OW22171   4.269   3.007  16.898  0.3925  0.1000  0.2990
 3571SOL    HW122172   4.190   3.038  16.941  0.3082 -0.6326  0.6823
 3571SOL    HW222173   4.338   3.027  16.962 -0.2599 -1.1938  1.4180
 3572SOL     OW22174   1.256   3.366  14.532  0.1852  0.1482  0.9301
 3572SOL    HW122175   1.251   3.458  14.505  0.7205 -0.0096  0.2873
 3572SOL    HW222176   1.307   3.385  14.611  0.5678 -0.8187  0.9186
 3573SOL     OW22177   2.356   1.684   4.909 -0.4189 -0.1411  0.5998
 3573SOL    HW122178   2.311   1.605   4.879  1.3110 -0.4803 -1.1178
 3573SOL    HW222179   2.442   1.674   4.868 -0.5401 -2.0878  0.8221
 3574SOL     OW22180   3.944   0.900  14.820 -0.0369 -0.1389 -0.9660
 3574SOL    HW122181   3.976   0.917  14.909 -0.8277  1.4280 -0.9793
 3574SOL    HW222182   3.966   0.808  14.801  0.6488 -0.1431 -0.1571
 3575SOL     OW22183   4.425   1.152   1.367  0.1341 -0.2636 -0.5851
 3575SOL    HW122184   4.486   1.133   1.439 -0.6242  0.8453  0.3449
 3575SOL    HW222185   4.418   1.246   1.384  2.7536 -0.0571 -0.6923
 3576SOL     OW22186   1.182   0.459  17.269 -0.1136 -0.2377  0.2220
 3576SOL    HW122187   1.231   0.536  17.242 -0.3968  0.9779  3.1641
 3576SOL    HW222188   1.091   0.471  17.240 -0.1395  0.3759  0.5598
 3577SOL     OW22189   4.651   4.146   4.816  0.2993 -0.1326  0.1746
 3577SOL    HW122190   4.650   4.240   4.838 -0.0856 -0.2916  0.8363
 3577SOL    HW222191   4.677   4.155   4.724  1.5152  1.7034  0.6856
 3578SOL     OW22192   2.664   0.704  14.529 -0.1747  0.2583  0.5215
 3578SOL    HW122193   2.686   0.709  14.435  2.7470  3.7511  1.3589
 3578SOL    HW222194   2.573   0.730  14.537 -0.4663 -0.0895 -1.5026
 3579SOL     OW22195   3.263   3.853   8.341 -0.1214  0.4539 -0.0038
 3579SOL    HW122196   3.266   3.932   8.288 -0.6857 -0.1907 -0.9995
 3579SOL    HW222197   3.168   3.852   8.356 -0.5146  1.4565 -2.4463
 3580SOL     OW22198   1.897   3.086   2.559 -0.3019  0.0698  0.1859
 3580SOL    HW122199   1.812   3.089   2.514  0.8188 -1.6459 -2.0794
 3580SOL    HW222200   1.935   3.152   2.501 -0.1433 -1.8489 -1.9196
 3581SOL     OW22201   1.007   3.034  10.904  0.0656  0.1854 -0.5910
 3581SOL    HW122202   1.074   3.094  10.872 -1.6875  3.1556  1.3068
 3581SOL    HW222203   1.062   2.970  10.950  1.0562  1.9818  0.7012
 3582SOL     OW22204   3.963   1.237   5.457  0.6609  0.2228  0.2379
 3582SOL    HW122205   3.928   1.183   5.529 -1.2943 -0.6800 -1.4025
 3582SOL    HW222206   3.932   1.323   5.485  1.2814  1.2452 -2.1959
 3583SOL     OW22207   2.860   4.696  16.183  0.4453  0.1731  0.1463
 3583SOL    HW122208   2.794   4.632  16.209  0.1859  1.0424  1.6471
 3583SOL    HW222209   2.811   0.041  16.134 -0.2761 -0.6766 -0.2609
 3584SOL     OW22210   4.650   0.994   0.514  0.7851 -0.0708 -0.0987
 3584SOL    HW122211   4.657   0.958   0.602 -0.9364 -0.7695 -0.2431
 3584SOL    HW222212   4.692   1.080   0.508  0.3689  0.0860 -0.7709
 3585SOL     OW22213   4.047   1.448   1.429  0.0228  0.5811 -0.8747
 3585SOL    HW122214   4.034   1.396   1.507 -2.4555 -0.9749 -2.3312
 3585SOL    HW222215   3.983   1.519   1.438  0.0377  0.6184 -1.0585
 3586SOL     OW22216   2.370   3.748   3.020 -0.0533 -0.2167  0.2119
 3586SOL    HW122217   2.387   3.725   3.111  0.3972 -0.9562 -0.0589
 3586SOL    HW222218   2.279   3.716   3.023  0.3264 -1.2287  0.8775
 3587SOL     OW22219   0.460   2.419  16.878  0.1957 -0.7131  0.2657
 3587SOL    HW122220   0.433   2.387  16.791 -0.7132  0.4925  0.1055
 3587SOL    HW222221   0.529   2.357  16.901 -1.5829 -2.4909  0.8926
 3588SOL     OW22222   3.012   4.299   2.876 -0.4730 -0.2049 -0.2603
 3588SOL    HW122223   3.060   4.373   2.839  0.0413 -0.7516 -0.6837
 3588SOL    HW222224   2.932   4.346   2.900 -0.1247  0.4011 -0.2881
 3589SOL     OW22225   0.116   1.164   7.518  0.1137  0.8631  0.0486
 3589SOL    HW122226   0.178   1.095   7.494 -1.1048  0.0529 -0.7701
 3589SOL    HW222227   0.167   1.242   7.540  1.2115 -0.1168  0.9759
 3590SOL     OW22228   0.835   2.615   0.438 -0.2105 -0.6256  0.3201
 3590SOL    HW122229   0.771   2.672   0.395  0.9873  1.8052  1.7824
 3590SOL    HW222230   0.800   2.602   0.526  2.0504 -1.5507  1.0577
 3591SOL     OW22231   2.872   4.227   8.835  0.4088 -0.3803 -0.5844
 3591SOL    HW122232   2.895   4.153   8.779  0.1095 -0.3050 -0.8039
 3591SOL    HW222233   2.812   4.267   8.772 -0.1480  0.3917  0.4247
 3592SOL     OW22234   0.765   3.056  14.125 -0.4321  0.6400  0.5276
 3592SOL    HW122235   0.810   2.982  14.165 -0.7452  0.2204  0.1022
 3592SOL    HW222236   0.800   3.043  14.037 -2.7128 -1.6294 -0.0394
 3593SOL     OW22237   1.286   2.603   3.887  0.0697 -0.4033 -0.5511
 3593SOL    HW122238   1.350   2.663   3.848 -1.1874  0.2096 -1.6888
 3593SOL    HW222239   1.221   2.587   3.819 -0.5299  1.0597 -0.3240
 3594SOL     OW22240   1.427   0.014   7.808 -0.6191 -0.1800 -0.4298
 3594SOL    HW122241   1.364   4.687   7.754  1.7474 -2.4630 -1.2337
 3594SOL    HW222242   1.393   0.103   7.817  0.5008  0.0909  1.2722
 3595SOL     OW22243   4.131   2.383  15.749 -0.0279  0.4074  0.0977
 3595SOL    HW122244   4.061   2.444  15.726  1.9533  1.2054 -3.7627
 3595SOL    HW222245   4.082   2.304  15.728 -1.0837  1.0472  0.1726
 3596SOL     OW22246   4.233   4.544   2.757 -0.1660 -0.4295  0.1063
 3596SOL    HW122247   4.257   4.635   2.771  1.1960 -0.6154 -1.0608
 3596SOL    HW222248   4.137   4.548   2.759 -0.2396 -2.4337  2.3941
 3597SOL     OW22249   3.279   4.629   6.254  0.4745  0.3042  0.1474
 3597SOL    HW122250   3.259   4.542   6.219  0.6444  0.3183  0.0144
 3597SOL    HW222251   3.279   4.614   6.348 -1.0868  2.0093  0.4188
 3598SOL     OW22252   4.453   4.169   7.754  0.1804  0.3340 -0.0691
 3598SOL    HW122253   4.360   4.186   7.737  0.6284  0.3098 -2.4930
 3598SOL    HW222254   4.451   4.073   7.748 -1.0283  0.4322 -1.1977
 3599SOL     OW22255   1.708   2.015   5.431 -0.4757 -0.0840 -0.0874
 3599SOL    HW122256   1.666   1.977   5.509  0.3045 -0.5382  0.1102
 3599SOL    HW222257   1.793   1.974   5.444  0.2806  1.3784 -0.4945
 3600SOL     OW22258   3.302   3.351  10.449 -0.7900 -0.2192  0.2348
 3600SOL    HW122259   3.373   3.287  10.444  1.8947  2.8362 -1.5546
 3600SOL    HW222260   3.329   3.389  10.532  0.2990 -0.7468  0.1259
 3601SOL     OW22261   0.549   2.838  12.300 -0.0425 -0.2359  0.3604
 3601SOL    HW122262   0.521   2.756  12.260 -2.1884  1.3488 -1.3944
 3601SOL    HW222263   0.576   2.885  12.221 -0.4735  0.6266  0.7317
 3602SOL     OW22264   3.930   0.903   6.347 -0.3105 -0.0635 -0.5315
 3602SOL    HW122265   3.861   0.840   6.366 -1.1261  1.0747  0.3059
 3602SOL    HW222266   3.905   0.977   6.403 -0.5683  0.2478 -1.0649
 3603SOL     OW22267   1.396   1.431   4.858  0.3388  0.5844 -0.3245
 3603SOL    HW122268   1.315   1.473   4.829 -2.1857 -3.9448  0.2482
 3603SOL    HW222269   1.443   1.424   4.775 -0.8579  0.2925 -0.9699
 3604SOL     OW22270   2.886   2.372  13.175  0.1655 -0.6350  0.4594
 3604SOL    HW122271   2.949   2.317  13.221 -1.9875 -3.3189  0.2682
 3604SOL    HW222272   2.920   2.460  13.186  2.0924 -1.4425  1.0080
 3605SOL     OW22273   4.025   0.559   8.684  0.1981  0.2392 -0.5893
 3605SOL    HW122274   4.000   0.512   8.763  0.7312  0.1530 -0.4680
 3605SOL    HW222275   3.953   0.621   8.683  0.5723  0.6696 -1.5391
 3606SOL     OW22276   2.791   4.298   2.613  0.3840 -0.1621  0.7450
 3606SOL    HW122277   2.801   4.217   2.663  0.5179 -0.3926  0.3410
 3606SOL    HW222278   2.740   4.353   2.673  0.4299 -1.6076  2.1047
 3607SOL     OW22279   1.964   0.037  12.131  0.9151 -0.1558 -0.3496
 3607SOL    HW122280   2.007   4.694  12.189 -0.9894 -2.6240 -1.6549
 3607SOL    HW222281   1.993   0.014  12.043  0.5235  1.7310 -0.9707
 3608SOL     OW22282   2.919   0.287   3.357  0.1935 -0.6936  0.0389
 3608SOL    HW122283   2.882   0.277   3.444 -3.0935  3.0253 -0.9397
 3608SOL    HW222284   2.893   0.377   3.337 -1.7339 -1.7327 -2.2033
 3609SOL     OW22285   3.722   1.627   2.728  0.0160  0.1457  0.7561
 3609SOL    HW122286   3.738   1.699   2.789  2.0093  0.0831  0.2988
 3609SOL    HW222287   3.806   1.633   2.683  0.6396  0.4508  1.9763
 3610SOL     OW22288   1.344   0.036  14.525  1.1626 -0.0635  0.2992
 3610SOL    HW122289   1.394   0.111  14.558 -0.1645  0.1538  1.7861
 3610SOL    HW222290   1.398   0.018  14.447  3.2112 -0.8862  1.9187
 3611SOL     OW22291   0.276   1.925  15.710 -0.0145 -0.0706  0.1649
 3611SOL    HW122292   0.265   2.020  15.720 -3.2712 -0.5556  1.2001
 3611SOL    HW222293   0.256   1.913  15.617 -1.0669 -1.0414  0.5099
 3612SOL     OW22294   3.526   4.385   8.717 -0.3947  0.1063 -0.9332
 3612SOL    HW122295   3.467   4.402   8.791  1.2464 -0.0850  0.4112
 3612SOL    HW222296   3.500   4.446   8.648  0.0085  2.4097  0.9543
 3613SOL     OW22297   2.845   2.725   7.039 -0.2257 -0.0934 -0.1984
 3613SOL    HW122298   2.846   2.631   7.053 -0.5988  0.0386  0.7368
 3613SOL    HW222299   2.807   2.748   7.124 -0.1996  0.4871 -0.3407
 3614SOL     OW22300   1.038   3.740   5.378  0.0730 -0.0950 -0.3286
 3614SOL    HW122301   1.036   3.831   5.407  0.8593  0.0536 -0.7288
 3614SOL    HW222302   1.042   3.684   5.455  4.3786  0.9059  0.1485
 3615SOL     OW22303   0.194   0.228   9.309 -0.6547  0.4494  0.1530
 3615SOL    HW122304   0.137   0.207   9.383 -0.4089 -0.9830 -0.0527
 3615SOL    HW222305   0.246   0.301   9.343 -1.9613  0.6565  1.7301
 3616SOL     OW22306   4.477   2.823   3.941 -0.6446 -0.5406  0.0327
 3616SOL    HW122307   4.501   2.769   3.866  0.0782  2.0048 -1.5868
 3616SOL    HW222308   4.480   2.913   3.908 -0.3226  0.6057  3.1260
 3617SOL     OW22309   3.105   4.075   0.665  0.1135 -0.2449 -0.1184
 3617SOL    HW122310   3.166   4.109   0.730 -0.0116 -1.7036  0.7769
 3617SOL    HW222311   3.163   4.009   0.627  0.0966 -0.6661  0.5674
 3618SOL     OW22312   2.623   4.011  11.350  0.5733  0.8148  0.5371
 3618SOL    HW122313   2.648   3.950  11.281 -0.8646 -0.6335  1.2854
 3618SOL    HW222314   2.549   3.963  11.386  1.7006  1.0944  3.2870
 3619SOL     OW22315   1.278   1.722   3.079 -0.0722  0.0669 -0.2908
 3619SOL    HW122316   1.211   1.658   3.057  0.1217 -0.1215 -0.3344
 3619SOL    HW222317   1.342   1.653   3.096 -2.2097 -1.7402  0.4960
 3620SOL     OW22318   0.022   3.201  10.750 -0.3105  0.1550  0.2183
 3620SOL    HW122319   0.060   3.197  10.838  0.0864 -4.1995 -0.1327
 3620SOL    HW222320   0.019   3.106  10.740 -1.0928  0.3058 -0.9023
 3621SOL     OW22321   1.358   1.534   9.833  0.8277 -0.0984  0.1236
 3621SOL    HW122322   1.366   1.440   9.820 -1.5422 -0.3956  0.6610
 3621SOL    HW222323   1.420   1.547   9.904  1.0002  2.2745 -0.4621
 3622SOL     OW22324   4.170   2.395   8.412 -0.2746  0.4755 -0.1785
 3622SOL    HW122325   4.151   2.487   8.429  0.7185  0.6503 -0.0193
 3622SOL    HW222326   4.211   2.376   8.497 -1.2771  0.8668  0.3962
 3623SOL     OW22327   2.332   1.100   6.444  0.0858  0.7755 -0.4583
 3623SOL    HW122328   2.356   1.070   6.532  0.4956  0.8216 -0.5545
 3623SOL    HW222329   2.265   1.036   6.419  1.0457  0.0024 -1.0273
 3624SOL     OW22330   3.619   4.121  12.559  0.2987 -1.2027 -0.6208
 3624SOL    HW122331   3.621   4.187  12.629  0.7501  2.6344 -4.2084
 3624SOL    HW222332   3.708   4.087  12.565 -0.4098 -2.5178  2.4367
 3625SOL     OW22333   1.479   3.364   2.466 -0.3770  0.3076  0.6782
 3625SOL    HW122334   1.420   3.289   2.462 -1.7387  1.4235 -0.0127
 3625SOL    HW222335   1.520   3.362   2.379 -1.1805  0.4371  0.2906
 3626SOL     OW22336   2.330   3.241   1.700 -0.0041 -0.2152  0.1317
 3626SOL    HW122337   2.356   3.160   1.656 -0.8925 -0.7089  0.5142
 3626SOL    HW222338   2.241   3.214   1.725 -0.6179  0.3080 -1.4421
 3627SOL     OW22339   1.499   2.665   5.400  0.6045  0.2927  0.1961
 3627SOL    HW122340   1.559   2.595   5.425  1.9234 -0.2537 -4.4884
 3627SOL    HW222341   1.416   2.617   5.396  0.3708  0.7819 -0.6988
 3628SOL     OW22342   1.813   1.751   6.727  0.1447  0.4775  0.6486
 3628SOL    HW122343   1.881   1.736   6.661 -0.9852 -1.2338 -0.1202
 3628SOL    HW222344   1.764   1.669   6.735  0.3569  0.3180  0.3115
 3629SOL     OW22345   0.844   1.789   7.519  0.1734  0.7625 -0.1188
 3629SOL    HW122346   0.911   1.790   7.451 -0.9813  2.0021 -1.2167
 3629SOL    HW222347   0.837   1.697   7.547  0.5862  0.9081  0.4532
 3630SOL     OW22348   0.704   2.152  17.609 -0.3486 -0.0958 -0.1080
 3630SOL    HW122349   0.637   2.183  17.670 -0.7647 -1.0139 -0.0871
 3630SOL    HW222350   0.740   2.240  17.595  0.1836 -0.2622  0.2538
 3631SOL     OW22351   2.722   0.395   6.947  0.3343 -0.4549 -0.0072
 3631SOL    HW122352   2.732   0.448   7.026  1.0197  0.7055 -0.8669
 3631SOL    HW222353   2.761   0.451   6.879  0.2860  2.0353  2.0556
 3632SOL     OW22354   3.729   3.241   1.602 -0.5337  0.0980 -0.5539
 3632SOL    HW122355   3.712   3.322   1.649  1.3005  0.5624 -0.7052
 3632SOL    HW222356   3.822   3.249   1.584 -0.2022  0.0224  1.1614
 3633SOL     OW22357   4.641   0.403  12.703  0.0795 -0.4097 -0.2577
 3633SOL    HW122358   0.007   0.362  12.699 -1.2032 -3.1351  0.1390
 3633SOL    HW222359   4.658   0.451  12.784  0.8125  0.2021 -0.7833
 3634SOL     OW22360   0.645   1.005   8.614 -0.0232  0.1798  0.6069
 3634SOL    HW122361   0.554   0.991   8.642 -0.0560  3.1370  1.9562
 3634SOL    HW222362   0.658   1.091   8.575  0.1957  1.4597  3.4765
 3635SOL     OW22363   1.431   0.494   6.365  0.1868 -0.2125  0.8653
 3635SOL    HW122364   1.419   0.538   6.450  0.2039  0.4563  0.5227
 3635SOL    HW222365   1.493   0.555   6.324 -0.1027 -0.9758 -0.6797
 3636SOL     OW22366   3.728   1.238   2.109  0.4196  0.0701 -0.1605
 3636SOL    HW122367   3.674   1.209   2.035 -1.2456  1.1898  0.5973
 3636SOL    HW222368   3.772   1.312   2.068 -1.1402  0.5450 -1.0020
 3637SOL     OW22369   1.397   0.745   5.600  0.2692  0.2363  0.2583
 3637SOL    HW122370   1.310   0.753   5.638  0.9547  2.2739  1.3819
 3637SOL    HW222371   1.383   0.774   5.510 -1.4779  0.3648  0.5709
 3638SOL     OW22372   1.203   1.375   6.109  0.6720 -0.7713 -0.1128
 3638SOL    HW122373   1.264   1.312   6.149  0.7420 -0.5233  0.1738
 3638SOL    HW222374   1.246   1.458   6.128 -0.8847  0.0240 -0.0457
 3639SOL     OW22375   1.927   0.305  14.741 -0.2652  0.2973  0.0485
 3639SOL    HW122376   1.959   0.280  14.828  0.8192 -4.1196 -1.6454
 3639SOL    HW222377   1.834   0.286  14.753  0.4052 -3.1349 -0.1626
 3640SOL     OW22378   1.485   0.234   1.125  0.9716  0.3085  0.2547
 3640SOL    HW122379   1.574   0.209   1.152 -0.3632 -0.4198  3.9348
 3640SOL    HW222380   1.445   0.227   1.211 -0.2613  0.9888 -0.2582
 3641SOL     OW22381   1.469   2.670   2.191  0.4853  0.0358  0.3155
 3641SOL    HW122382   1.478   2.668   2.286 -2.3540 -0.3565  0.5626
 3641SOL    HW222383   1.489   2.579   2.168  3.2238  0.8503 -0.5053
 3642SOL     OW22384   4.075   3.439  14.279 -1.0799 -0.4836 -0.4517
 3642SOL    HW122385   4.019   3.379  14.229 -1.0852 -0.4459 -0.4917
 3642SOL    HW222386   4.015   3.458  14.352 -0.5391 -2.0297  0.3920
 3643SOL     OW22387   2.105   3.450   2.352  0.0627 -0.1187  0.5260
 3643SOL    HW122388   2.093   3.355   2.356 -0.2001 -0.2130 -1.9684
 3643SOL    HW222389   2.186   3.446   2.301 -1.3573  0.3006 -1.7944
 3644SOL     OW22390   0.213   2.483   6.214 -0.2932 -0.5335 -0.2723
 3644SOL    HW122391   0.222   2.565   6.165 -0.1123  0.5734  1.6280
 3644SOL    HW222392   0.119   2.468   6.215  0.1124 -2.9006  0.9879
 3645SOL     OW22393   0.648   0.742   8.689 -0.1177  0.3957 -0.2591
 3645SOL    HW122394   0.554   0.742   8.709  0.2750 -0.4526  1.6194
 3645SOL    HW222395   0.649   0.835   8.668  0.0714  0.7461  1.2693
 3646SOL     OW22396   4.418   0.083  13.673 -0.6589 -0.2376  0.1128
 3646SOL    HW122397   4.379   0.137  13.742 -0.3672 -0.2595  0.2959
 3646SOL    HW222398   4.359   0.094  13.598 -1.2861  1.9884  0.9245
 3647SOL     OW22399   3.116   2.888   7.287 -0.9172 -0.1801 -0.3653
 3647SOL    HW122400   3.028   2.867   7.255 -1.7596 -1.1196  2.4869
 3647SOL    HW222401   3.150   2.937   7.213  1.4981 -0.2790  0.6711
 3648SOL     OW22402   4.198   2.808   8.204  0.4990 -0.0669 -0.0866
 3648SOL    HW122403   4.291   2.830   8.205  0.0435  1.8525  0.6233
 3648SOL    HW222404   4.185   2.745   8.274  0.2979  0.8859  0.7304
 3649SOL     OW22405   4.125   0.677   5.940 -0.2289  0.4883 -0.5360
 3649SOL    HW122406   4.176   0.754   5.965  1.6487 -1.1877  0.8102
 3649SOL    HW222407   4.193   0.619   5.905 -2.5877 -0.5320 -3.3899
 3650SOL     OW22408   1.325   3.446  14.804 -0.2710 -0.0525 -0.7414
 3650SOL    HW122409   1.240   3.483  14.825  0.1602 -0.0924  1.1052
 3650SOL    HW222410   1.370   3.446  14.889 -3.4638 -3.3613  0.9566
 3651SOL     OW22411   1.623   1.514   7.817 -0.3957  0.5054  0.3407
 3651SOL    HW122412   1.622   1.610   7.815 -0.4659  0.4776 -0.9513
 3651SOL    HW222413   1.555   1.503   7.751 -1.9052  0.4898  1.8859
 3652SOL     OW22414   2.200   3.153   7.126 -0.2281  0.6613  0.3368
 3652SOL    HW122415   2.225   3.085   7.065 -0.1650  0.7620  0.2498
 3652SOL    HW222416   2.284   3.197   7.139 -1.0407  2.4774 -0.4709
 3653SOL     OW22417   1.983   2.622   2.345 -0.0575  0.3600  0.0688
 3653SOL    HW122418   2.074   2.594   2.361 -0.8102 -0.7900  2.4057
 3653SOL    HW222419   1.965   2.681   2.418  0.2643  0.7111 -0.1361
 3654SOL     OW22420   4.603   4.016   2.183  0.7613  0.1056  0.1053
 3654SOL    HW122421   4.513   3.987   2.168  1.0504 -0.9225  0.3357
 3654SOL    HW222422   4.611   4.101   2.139 -2.6018 -0.6434 -1.9715
 3655SOL     OW22423   0.009   2.161   7.752  0.1666 -0.0303 -0.1685
 3655SOL    HW122424   4.689   2.211   7.682 -0.7973  0.3867  0.6739
 3655SOL    HW222425   0.013   2.223   7.826  2.3822  1.6489 -1.6763
 3656SOL     OW22426   3.295   2.361  14.849  0.5239  0.2331  0.0529
 3656SOL    HW122427   3.305   2.449  14.885 -2.1128  0.9382 -0.9691
 3656SOL    HW222428   3.203   2.338  14.864  0.2914 -0.2184 -2.1389
 3657SOL     OW22429   2.828   0.250  10.292 -0.2010  0.4503 -0.0489
 3657SOL    HW122430   2.827   0.288  10.380 -3.3898 -0.6441  0.3692
 3657SOL    HW222431   2.734   0.235  10.286  0.0194 -0.9716  0.0657
 3658SOL     OW22432   3.237   3.745  17.135 -0.1695 -0.3124 -0.1102
 3658SOL    HW122433   3.224   3.697  17.217 -0.6563 -0.4029 -0.2415
 3658SOL    HW222434   3.149   3.746  17.097  0.0291  0.5258 -0.5628
 3659SOL     OW22435   2.906   0.906   6.567  0.7141 -0.6300 -1.1161
 3659SOL    HW122436   2.815   0.906   6.538  0.9055 -2.2472 -1.6739
 3659SOL    HW222437   2.947   0.990   6.547 -0.1680  0.1064  0.1545
 3660SOL     OW22438   1.266   2.638   8.226  0.5501 -0.4583  0.0787
 3660SOL    HW122439   1.255   2.679   8.312  0.0679 -2.3795  0.9367
 3660SOL    HW222440   1.187   2.673   8.185  0.5083  1.2101  1.5716
 3661SOL     OW22441   4.395   2.167   4.347 -0.6276  0.2960  0.0930
 3661SOL    HW122442   4.425   2.149   4.436  2.8582 -1.1460 -1.3922
 3661SOL    HW222443   4.413   2.259   4.328  0.9870 -0.0708 -0.1097
 3662SOL     OW22444   1.288   2.390   5.975 -0.6816 -0.0408  1.1811
 3662SOL    HW122445   1.346   2.341   6.034 -0.0271  2.1132  2.3615
 3662SOL    HW222446   1.269   2.468   6.029  1.3226  1.1732  0.1351
 3663SOL     OW22447   4.548   1.090   0.251 -0.0853  0.5484  0.0029
 3663SOL    HW122448   4.516   1.180   0.257 -0.4448  0.5559 -2.3816
 3663SOL    HW222449   4.605   1.086   0.329  2.1051 -2.7125 -1.7549
 3664SOL     OW22450   4.568   3.847   6.801  0.1663 -0.3162  0.5186
 3664SOL    HW122451   4.497   3.887   6.851  0.8905  1.4012  0.1734
 3664SOL    HW222452   4.653   3.885   6.826  0.7332 -0.1710 -1.6553
 3665SOL     OW22453   1.755   2.854  11.124 -0.4638  0.6989 -0.4567
 3665SOL    HW122454   1.830   2.912  11.135  0.1269  0.1358 -1.4589
 3665SOL    HW222455   1.719   2.853  11.213  1.5967  1.9633  0.3836
 3666SOL     OW22456   4.466   3.504  10.437 -0.1223  0.2338 -0.3046
 3666SOL    HW122457   4.491   3.484  10.527  1.6123  0.3589 -0.7756
 3666SOL    HW222458   4.467   3.414  10.406 -2.4630  0.7733 -2.0133
 3667SOL     OW22459   1.652   4.577   4.278  0.5465 -0.1986 -0.1928
 3667SOL    HW122460   1.564   4.558   4.247 -0.9639  4.8347  1.1174
 3667SOL    HW222461   1.687   4.488   4.287  1.0815  0.2051  1.9014
 3668SOL     OW22462   3.175   0.129  10.426  0.0112  0.2196  0.3727
 3668SOL    HW122463   3.200   0.040  10.449 -1.1978 -0.1971  0.0939
 3668SOL    HW222464   3.138   0.113  10.339 -0.2856 -0.8730  0.6972
 3669SOL     OW22465   4.084   1.033   7.785  0.2185 -0.4650 -0.3534
 3669SOL    HW122466   4.174   1.049   7.757  0.2058  2.3213  1.1317
 3669SOL    HW222467   4.039   1.111   7.753  3.6576  1.8365  0.4320
 3670SOL     OW22468   0.931   3.386  10.795 -0.4379  0.1650 -0.3059
 3670SOL    HW122469   0.941   3.333  10.716  0.9130 -0.2497  0.1316
 3670SOL    HW222470   1.013   3.378  10.844 -0.9749  2.5853  0.9772
 3671SOL     OW22471   0.591   1.713   2.866 -0.0381 -0.1417 -0.5085
 3671SOL    HW122472   0.607   1.682   2.777  1.6659 -1.4683  0.2719
 3671SOL    HW222473   0.551   1.640   2.911 -0.7038 -0.2853 -1.3263
 3672SOL     OW22474   1.732   0.595  14.297 -0.4272  0.6959 -0.3166
 3672SOL    HW122475   1.768   0.664  14.353 -1.7724  1.2012 -0.0650
 3672SOL    HW222476   1.762   0.514  14.338 -1.6260  1.7476  2.7178
 3673SOL     OW22477   3.263   3.184  13.620 -0.5527 -0.1795  0.1041
 3673SOL    HW122478   3.264   3.128  13.542 -0.8233 -0.0100 -0.0191
 3673SOL    HW222479   3.171   3.177  13.646 -0.6761 -2.2195 -0.8594
 3674SOL     OW22480   0.882   0.075   2.640 -0.3533 -0.6063  0.1378
 3674SOL    HW122481   0.975   0.062   2.653  0.0396  0.2667 -1.7230
 3674SOL    HW222482   0.883   0.104   2.548 -2.0992 -0.3678  0.1793
 3675SOL     OW22483   3.332   2.058   6.725 -0.0263 -0.3053  0.0933
 3675SOL    HW122484   3.261   2.083   6.784  0.0201 -1.2292  0.5457
 3675SOL    HW222485   3.352   2.145   6.691  2.2958 -1.0309 -0.3969
 3676SOL     OW22486   2.519   1.934   5.640  0.2667 -0.1503  0.5140
 3676SOL    HW122487   2.505   2.025   5.613  1.4547 -0.0585  0.2231
 3676SOL    HW222488   2.589   1.951   5.703  1.5562 -0.8335 -0.7384
 3677SOL     OW22489   1.570   0.542  12.778 -0.0829 -0.8991 -0.8745
 3677SOL    HW122490   1.608   0.628  12.761 -2.7964  0.5307  0.2468
 3677SOL    HW222491   1.483   0.570  12.809  0.4535  0.3423 -0.4980
 3678SOL     OW22492   0.943   2.194   5.244  0.5517 -0.4586  0.2975
 3678SOL    HW122493   1.033   2.216   5.268  0.9774  1.7315 -3.3337
 3678SOL    HW222494   0.911   2.271   5.196 -1.4683  0.7679  3.6418
 3679SOL     OW22495   2.089   0.025   2.569  0.0606  0.1707  0.3414
 3679SOL    HW122496   2.090   0.021   2.473  0.8864 -2.3519  0.4626
 3679SOL    HW222497   2.144   4.670   2.593  1.6897  1.1376 -0.3113
 3680SOL     OW22498   3.862   4.611   1.931 -0.1911 -0.1417 -0.2796
 3680SOL    HW122499   3.949   4.572   1.947  1.0058  1.5335 -2.6264
 3680SOL    HW222500   3.830   4.548   1.867 -1.7345  0.7858 -0.4089
 3681SOL     OW22501   3.768   4.326   4.445  0.0452  0.3422 -0.1328
 3681SOL    HW122502   3.781   4.266   4.372 -0.0104  0.7404 -0.4696
 3681SOL    HW222503   3.847   4.307   4.496 -0.8189  1.2140  1.5436
 3682SOL     OW22504   4.049   3.424   8.955 -0.5463 -0.0749  0.1575
 3682SOL    HW122505   4.036   3.335   8.987 -2.9843 -0.2954 -1.3393
 3682SOL    HW222506   4.118   3.458   9.011 -1.5739  2.7063 -0.2367
 3683SOL     OW22507   2.925   0.615   0.014 -0.2780 -0.2340  0.0388
 3683SOL    HW122508   2.925   0.606   0.109 -0.4480  2.3324  0.2632
 3683SOL    HW222509   2.934   0.522  17.674  0.8040 -0.4117  1.1255
 3684SOL     OW22510   2.080   0.850   3.068 -0.4712 -0.1203 -0.1656
 3684SOL    HW122511   2.145   0.814   3.008  0.2943  0.5292  0.2740
 3684SOL    HW222512   2.126   0.850   3.152 -0.9629 -1.4845  0.1030
 3685SOL     OW22513   4.024   4.526   7.527  0.1921 -0.0195  0.1157
 3685SOL    HW122514   4.105   4.518   7.477 -0.6330 -0.1771 -1.2165
 3685SOL    HW222515   4.022   4.620   7.544  0.6454 -0.1128  0.6723
 3686SOL     OW22516   0.815   1.559   4.391 -0.0865  0.4477  0.7144
 3686SOL    HW122517   0.784   1.603   4.312 -0.2212  0.9943  1.0758
 3686SOL    HW222518   0.741   1.537   4.447 -1.0755  1.4297 -0.2187
 3687SOL     OW22519   3.686   0.270   2.543 -0.3298  0.3082  0.0973
 3687SOL    HW122520   3.597   0.269   2.508  0.5493 -0.8584 -2.1149
 3687SOL    HW222521   3.732   0.210   2.485 -2.7141  1.2082 -2.7197
 3688SOL     OW22522   0.193   2.273   8.439 -0.2846  0.8243  0.4247
 3688SOL    HW122523   0.278   2.289   8.397  0.6891  1.8275  2.7583
 3688SOL    HW222524   0.152   2.360   8.444 -1.4906  0.2801 -0.0938
 3689SOL     OW22525   0.486   0.175   0.296 -0.1454  0.0853 -0.7223
 3689SOL    HW122526   0.426   0.246   0.317 -2.6060 -1.0317 -3.8742
 3689SOL    HW222527   0.511   0.144   0.383 -1.0210 -0.2865 -0.5966
 3690SOL     OW22528   2.587   3.125   5.035  0.6044 -0.4294 -0.2314
 3690SOL    HW122529   2.544   3.054   4.988 -0.8780 -1.1355  2.1490
 3690SOL    HW222530   2.520   3.143   5.102  1.9552 -0.3371  1.1037
 3691SOL     OW22531   4.707   3.224   8.934 -0.2110  0.1568  0.4984
 3691SOL    HW122532   4.627   3.266   8.902 -0.5404 -1.7772 -1.2712
 3691SOL    HW222533   4.671   3.206   9.021 -1.2524 -0.6087 -0.0734
 3692SOL     OW22534   3.246   2.803  10.880 -0.0840  0.7901 -0.0221
 3692SOL    HW122535   3.180   2.859  10.921  0.3472  0.3254  1.3303
 3692SOL    HW222536   3.324   2.858  10.890  0.8083 -0.6384  1.0392
 3693SOL     OW22537   1.034   0.952  12.880  0.4142 -0.3459  0.3303
 3693SOL    HW122538   1.092   0.971  12.806 -1.4578 -0.7615 -1.2213
 3693SOL    HW222539   1.090   0.882  12.914  1.5238  0.0215 -0.7372
 3694SOL     OW22540   2.918   0.398  11.199 -0.5098  0.0501  0.0621
 3694SOL    HW122541   2.992   0.439  11.244 -0.2227  1.9139 -2.1181
 3694SOL    HW222542   2.855   0.425  11.265  0.7752  2.1964  0.4041
 3695SOL     OW22543   3.744   0.190   0.535  0.3277  0.4156 -0.4129
 3695SOL    HW122544   3.759   0.147   0.451 -1.3542 -0.5352 -0.2193
 3695SOL    HW222545   3.730   0.282   0.511 -1.0614 -0.3101 -2.3562
 3696SOL     OW22546   0.270   0.879  13.722  0.5090  0.7031  0.1897
 3696SOL    HW122547   0.287   0.808  13.660  0.8156 -0.2545  1.3967
 3696SOL    HW222548   0.322   0.945  13.676  1.6928  1.4725  2.6929
 3697SOL     OW22549   2.894   0.664  14.326 -0.3745 -0.1719 -0.4581
 3697SOL    HW122550   2.952   0.676  14.401 -2.4178  0.4870  0.9818
 3697SOL    HW222551   2.934   0.733  14.272 -0.1727 -0.0721 -0.1844
 3698SOL     OW22552   2.002   1.666   2.813  0.5205 -0.5668  0.2442
 3698SOL    HW122553   1.991   1.749   2.766 -2.2792 -0.1285  1.6972
 3698SOL    HW222554   1.908   1.651   2.823  0.4666  1.0274  2.1462
 3699SOL     OW22555   1.331   1.215  11.589  0.0940 -0.3119 -0.5328
 3699SOL    HW122556   1.305   1.240  11.677  0.7388  2.2235 -1.0774
 3699SOL    HW222557   1.367   1.297  11.556  1.5245 -1.5389 -2.0312
 3700SOL     OW22558   1.555   3.104   3.719 -0.5825  0.3189 -0.4636
 3700SOL    HW122559   1.547   3.131   3.811 -0.5541 -1.0944 -0.0449
 3700SOL    HW222560   1.587   3.187   3.684 -0.5631  1.5750  2.5348
 3701SOL     OW22561   1.823   3.990   8.136  0.5694  0.0186  0.3462
 3701SOL    HW122562   1.834   3.988   8.232 -1.6307  1.0042  0.6260
 3701SOL    HW222563   1.805   4.084   8.134 -0.4567 -0.1789  0.1321
 3702SOL     OW22564   2.800   0.824   7.272  0.0163 -0.5036  0.0544
 3702SOL    HW122565   2.876   0.881   7.285 -0.1193 -0.0088 -1.3282
 3702SOL    HW222566   2.728   0.880   7.299 -1.2413 -2.7161  1.3158
 3703SOL     OW22567   4.673   2.991   6.841 -0.3960 -0.1278 -0.1704
 3703SOL    HW122568   0.017   3.060   6.827 -0.9909  0.4282 -0.1568
 3703SOL    HW222569   4.657   2.980   6.747 -0.6865 -0.9343 -0.0328
 3704SOL     OW22570   4.390   1.277   7.326 -0.2935  0.3197 -0.2048
 3704SOL    HW122571   4.419   1.216   7.394  1.2309 -0.3255 -1.4303
 3704SOL    HW222572   4.306   1.309   7.357  0.0939  0.6280  0.5351
 3705SOL     OW22573   4.433   0.370   2.156  0.1312 -0.2152 -0.4232
 3705SOL    HW122574   4.403   0.432   2.222 -2.5481 -1.4133 -0.5153
 3705SOL    HW222575   4.403   0.405   2.072 -1.1036  1.8292  0.8665
 3706SOL     OW22576   3.679   3.892   7.960  0.2960 -0.4002 -0.2096
 3706SOL    HW122577   3.714   3.918   8.045  1.1665 -1.2306 -0.3223
 3706SOL    HW222578   3.607   3.954   7.946 -1.1539 -1.7260  1.3046
 3707SOL     OW22579   0.952   2.056   7.166 -0.3009 -0.6640  0.6311
 3707SOL    HW122580   0.872   2.011   7.141 -0.3463 -0.5175  0.5104
 3707SOL    HW222581   1.013   1.984   7.179 -2.1882 -2.1150  1.4152
 3708SOL     OW22582   2.315   0.928  11.199 -0.6913 -0.0472 -0.2195
 3708SOL    HW122583   2.232   0.923  11.152 -0.1169 -1.1963 -1.0956
 3708SOL    HW222584   2.384   0.899  11.140 -1.4799 -0.6474 -0.8461
 3709SOL     OW22585   0.803   3.674  15.781  0.5654 -0.1457 -0.2626
 3709SOL    HW122586   0.763   3.588  15.763 -0.3176  0.5029 -1.3917
 3709SOL    HW222587   0.878   3.642  15.832  0.2928 -1.6494 -0.7850
 3710SOL     OW22588   3.335   0.460   1.492 -0.0088  0.0465  0.0120
 3710SOL    HW122589   3.402   0.525   1.470 -1.2034  1.1250 -0.4518
 3710SOL    HW222590   3.340   0.464   1.588 -1.0618 -1.7912  0.1262
 3711SOL     OW22591   3.049   1.684   5.969  0.3579  0.2288  0.0870
 3711SOL    HW122592   2.960   1.712   5.947 -0.7415 -3.2968  0.0600
 3711SOL    HW222593   3.043   1.697   6.064 -0.0960  0.1282  0.0712
 3712SOL     OW22594   1.876   1.900   5.620 -0.0117 -0.2548  0.3885
 3712SOL    HW122595   1.841   1.875   5.705 -0.3573  0.9766  0.6089
 3712SOL    HW222596   1.937   1.829   5.600  1.2798  0.7820  0.6340
 3713SOL     OW22597   3.037   2.076   8.149  0.1447 -0.0633  0.1114
 3713SOL    HW122598   3.130   2.086   8.170 -0.1372  1.9500  0.4117
 3713SOL    HW222599   3.003   2.137   8.214  0.5584 -0.2636  0.5138
 3714SOL     OW22600   1.161   0.717   4.318  0.1420 -0.0410 -0.4163
 3714SOL    HW122601   1.119   0.713   4.404  3.7590 -0.6559  1.3517
 3714SOL    HW222602   1.152   0.808   4.292  0.6391  0.4657  1.1678
 3715SOL     OW22603   3.136   0.350   7.689  0.5551 -0.7800 -0.1193
 3715SOL    HW122604   3.074   0.419   7.666  0.9457 -0.5176 -0.3748
 3715SOL    HW222605   3.217   0.399   7.695  0.7448 -1.2938  1.6369
 3716SOL     OW22606   0.559   0.224   4.850 -0.1969  0.0114  0.3712
 3716SOL    HW122607   0.589   0.194   4.936  3.6363 -0.6176 -1.1684
 3716SOL    HW222608   0.540   0.318   4.857 -0.3914 -0.1082  1.4535
 3717SOL     OW22609   1.075   2.523  12.960  0.1628 -0.3610 -0.6485
 3717SOL    HW122610   1.119   2.588  13.015 -0.3154  1.9977 -3.0803
 3717SOL    HW222611   0.984   2.528  12.989 -0.3838  0.4929 -2.5226
 3718SOL     OW22612   1.199   0.697  11.809  0.0145  0.0767 -1.1490
 3718SOL    HW122613   1.249   0.625  11.849 -1.7093 -0.7385 -0.4695
 3718SOL    HW222614   1.265   0.753  11.768  1.8346 -1.5096 -0.4469
 3719SOL     OW22615   4.070   0.697   3.734  0.1917 -0.1578  0.1588
 3719SOL    HW122616   4.075   0.773   3.675  1.6247 -1.5168 -1.4816
 3719SOL    HW222617   4.117   0.638   3.675 -0.5496 -0.1693 -0.4067
 3720SOL     OW22618   4.047   4.612   9.196  0.0274 -0.2921  0.4058
 3720SOL    HW122619   4.107   4.681   9.170  0.6115 -1.6633 -1.8624
 3720SOL    HW222620   3.957   4.642   9.183  0.0831  0.1366  1.0423
 3721SOL     OW22621   3.202   3.648  13.068  0.5513  0.3632  0.1460
 3721SOL    HW122622   3.143   3.721  13.088  1.7446  1.2079  0.5758
 3721SOL    HW222623   3.290   3.679  13.088 -0.3627  0.1220  4.5646
 3722SOL     OW22624   2.818   3.220   1.988  0.3552 -0.3147  0.2695
 3722SOL    HW122625   2.737   3.209   1.937  2.0401 -1.1590 -2.2224
 3722SOL    HW222626   2.851   3.131   1.974  0.4244 -0.1293 -0.7491
 3723SOL     OW22627   3.244   3.594  17.679 -0.1944 -0.1553 -0.1163
 3723SOL    HW122628   3.310   3.525  17.668  0.8494  0.8254 -0.0334
 3723SOL    HW222629   3.212   3.579   0.084 -1.3347  0.2680 -0.4608
 3724SOL     OW22630   4.685   2.557  16.674  0.4602 -0.1903 -0.1068
 3724SOL    HW122631   0.006   2.638  16.704  0.1232 -0.1386  0.2246
 3724SOL    HW222632   0.014   2.491  16.723  1.1534 -0.7405 -1.5736
 3725SOL     OW22633   3.252   1.812   6.376 -0.1104 -0.0398  1.1188
 3725SOL    HW122634   3.292   1.843   6.457 -1.0138  1.1945  1.0932
 3725SOL    HW222635   3.207   1.894   6.356 -0.7344 -0.8531 -0.7794
 3726SOL     OW22636   2.583   2.638   3.658 -0.0042  0.2628 -0.0470
 3726SOL    HW122637   2.490   2.661   3.651 -0.7685 -2.5651  0.7137
 3726SOL    HW222638   2.612   2.697   3.589  1.1729 -0.5029 -0.2019
 3727SOL     OW22639   4.066   0.925   1.588  0.0544 -0.7214 -0.5891
 3727SOL    HW122640   4.019   0.948   1.508  2.5746  1.5661 -1.4052
 3727SOL    HW222641   4.154   0.918   1.551  0.1289 -1.0466 -0.3555
 3728SOL     OW22642   1.200   1.845   3.662  0.3536  0.3376  0.1760
 3728SOL    HW122643   1.220   1.754   3.638 -1.2053 -0.0256  0.2618
 3728SOL    HW222644   1.255   1.889   3.597  2.2355  1.2956  2.4267
 3729SOL     OW22645   2.964   0.684   8.181  0.3376 -0.0035 -0.1726
 3729SOL    HW122646   2.926   0.737   8.112 -0.7547 -0.8414 -0.2118
 3729SOL    HW222647   3.055   0.668   8.156  0.2853 -0.4923 -0.0537
 3730SOL     OW22648   4.119   4.441   3.066  0.5838  0.4889 -0.2953
 3730SOL    HW122649   4.142   4.476   3.152 -0.0044  1.7956 -0.6755
 3730SOL    HW222650   4.036   4.486   3.052  0.2177 -0.6272 -1.6211
 3731SOL     OW22651   4.529   3.214   3.350  0.4081  0.3254 -0.8015
 3731SOL    HW122652   4.467   3.234   3.279 -0.6236 -0.4285 -0.1039
 3731SOL    HW222653   4.467   3.185   3.417  1.0809 -0.0615 -0.3454
 3732SOL     OW22654   1.261   4.526   6.977 -0.4821  0.0142  0.3054
 3732SOL    HW122655   1.225   4.504   7.063 -0.6018 -0.4533  0.1382
 3732SOL    HW222656   1.298   4.442   6.948 -1.4973 -0.1011 -0.6477
 3733SOL     OW22657   0.853   2.474  16.395 -0.6582  0.6179 -0.2759
 3733SOL    HW122658   0.763   2.441  16.402  0.2360 -1.6078  0.6698
 3733SOL    HW222659   0.908   2.400  16.421 -2.5762 -0.4623  0.7544
 3734SOL     OW22660   2.974   0.407   1.636  0.8533  0.3145  0.2959
 3734SOL    HW122661   3.008   0.465   1.567  1.6898 -2.0612 -1.2975
 3734SOL    HW222662   2.925   0.469   1.690  0.4674 -0.0395  0.3467
 3735SOL     OW22663   3.674   2.844   4.582 -0.6772 -0.8152  0.1500
 3735SOL    HW122664   3.654   2.774   4.519 -1.1928 -0.2390 -0.3187
 3735SOL    HW222665   3.590   2.839   4.627 -0.9561  2.8858  0.0029
 3736SOL     OW22666   4.266   2.871   2.433 -0.3050  0.1913 -0.1074
 3736SOL    HW122667   4.249   2.901   2.344  1.1159  1.6778  0.1417
 3736SOL    HW222668   4.202   2.799   2.427 -1.1363  0.5755  4.3598
 3737SOL     OW22669   1.157   1.000   4.214 -0.6649 -0.6702 -0.5868
 3737SOL    HW122670   1.089   1.045   4.164  0.0549 -0.1817 -1.1324
 3737SOL    HW222671   1.153   1.051   4.296  4.0618  0.1621 -0.8326
 3738SOL     OW22672   3.752   4.268   9.132  0.0802  0.0252 -0.4832
 3738SOL    HW122673   3.789   4.265   9.044  0.0304 -1.2924 -0.4571
 3738SOL    HW222674   3.755   4.363   9.143 -0.7410 -0.0739  0.6063
 3739SOL     OW22675   2.836   1.250   0.868  0.2201 -0.3114 -0.4771
 3739SOL    HW122676   2.786   1.216   0.942  1.1533  1.1603  0.8414
 3739SOL    HW222677   2.903   1.183   0.856  0.8438  0.4644 -1.3175
 3740SOL     OW22678   3.113   4.585   8.534 -0.4152  0.5389 -0.1032
 3740SOL    HW122679   3.073   4.563   8.450 -0.9657  0.2986  0.2268
 3740SOL    HW222680   3.118   4.501   8.580  0.1460 -0.7046 -2.4384
 3741SOL     OW22681   1.535   3.974   0.340 -0.3324  0.4626 -0.1044
 3741SOL    HW122682   1.470   4.030   0.296 -0.6919 -0.2623 -0.4958
 3741SOL    HW222683   1.613   4.026   0.323  0.2782 -0.7974 -1.1311
 3742SOL     OW22684   1.066   4.694   6.874 -0.3873  0.3704  0.1592
 3742SOL    HW122685   1.032   4.632   6.939 -2.7875  0.5334 -0.9606
 3742SOL    HW222686   1.158   4.684   6.898 -0.6631 -0.7103  0.7917
 3743SOL     OW22687   4.544   1.906  13.267 -0.3150 -0.0172 -0.8457
 3743SOL    HW122688   4.610   1.874  13.329  0.2153  2.1530 -0.2941
 3743SOL    HW222689   4.543   1.836  13.201  0.1768 -0.5216 -0.3173
 3744SOL     OW22690   2.576   3.574   8.976 -0.7438 -0.0882  0.1931
 3744SOL    HW122691   2.583   3.669   8.988  3.5005 -0.0777 -2.6406
 3744SOL    HW222692   2.606   3.533   9.057 -1.4589  1.8841  1.4810
 3745SOL     OW22693   2.491   2.598  15.949  0.6084 -0.2111 -0.2645
 3745SOL    HW122694   2.488   2.681  15.996  0.3716  0.0341 -0.7113
 3745SOL    HW222695   2.522   2.536  16.015  0.9608 -0.3938 -0.6008
 3746SOL     OW22696   2.995   3.976   2.826  0.2299 -0.6449 -0.3861
 3746SOL    HW122697   2.954   3.905   2.777  1.8291 -1.0547 -1.1567
 3746SOL    HW222698   2.985   3.939   2.914 -0.6716  1.2297  0.2866
 3747SOL     OW22699   1.272   0.090   7.097 -0.0055  0.2724  0.2302
 3747SOL    HW122700   1.282   0.123   7.187  1.1386 -1.2067  0.6302
 3747SOL    HW222701   1.263   4.717   7.117  1.8954  0.5930  2.5417
 3748SOL     OW22702   1.228   4.470  13.530  0.3227  0.0777 -0.1902
 3748SOL    HW122703   1.194   4.545  13.482 -1.8758 -1.3242 -0.8205
 3748SOL    HW222704   1.301   4.441  13.475  0.8226  0.1814  0.4113
 3749SOL     OW22705   1.604   1.214   3.622 -0.5231  0.0417 -0.2261
 3749SOL    HW122706   1.654   1.166   3.688 -1.8844 -0.5586  0.3769
 3749SOL    HW222707   1.641   1.179   3.541  2.1312  1.2661  0.4492
 3750SOL     OW22708   3.232   3.924   5.802  0.0372 -1.1382 -0.2646
 3750SOL    HW122709   3.268   3.982   5.870 -3.2255  1.0799 -0.4307
 3750SOL    HW222710   3.252   3.972   5.721  0.7242  2.3769  1.9809
 3751SOL     OW22711   3.324   3.620  10.183 -0.3250  0.3474  0.0725
 3751SOL    HW122712   3.268   3.554  10.142 -1.8312  0.4604  1.9512
 3751SOL    HW222713   3.340   3.583  10.270  3.3657 -1.9047 -1.5622
 3752SOL     OW22714   0.377   1.103   5.146  0.7357 -0.1706  0.4716
 3752SOL    HW122715   0.420   1.188   5.146 -0.7501  0.5698  0.5711
 3752SOL    HW222716   0.330   1.103   5.229  0.7122  1.4691  0.4477
 3753SOL     OW22717   4.471   0.214   5.401 -0.1459  0.2428 -0.2509
 3753SOL    HW122718   4.513   0.220   5.487  0.3705  0.4521 -0.5137
 3753SOL    HW222719   4.543   0.166   5.359 -0.0193  0.4114 -0.2315
 3754SOL     OW22720   2.658   1.763   8.059 -0.2021 -0.0443  0.4440
 3754SOL    HW122721   2.639   1.818   8.135 -0.9618 -4.2861  3.3639
 3754SOL    HW222722   2.665   1.687   8.117  1.7152 -1.2525 -1.3546
 3755SOL     OW22723   0.477   2.303   3.729  0.1005 -0.0643  0.0715
 3755SOL    HW122724   0.524   2.386   3.727 -1.8375  1.0357  0.9906
 3755SOL    HW222725   0.543   2.252   3.776 -1.1051  0.3521  2.1970
 3756SOL     OW22726   3.326   0.518   0.505  0.9334 -0.2390 -0.8184
 3756SOL    HW122727   3.406   0.533   0.454  0.5752 -2.4263 -2.0140
 3756SOL    HW222728   3.265   0.501   0.434 -0.7547  0.8762  0.3547
 3757SOL     OW22729   0.764   0.975   4.364 -0.4035  0.2805  0.0899
 3757SOL    HW122730   0.757   0.949   4.272  1.1090 -1.6348  0.5346
 3757SOL    HW222731   0.791   1.067   4.358  0.7616 -0.1319 -0.9637
 3758SOL     OW22732   0.055   1.326   6.113 -0.2397  0.9086 -0.7204
 3758SOL    HW122733   0.029   1.254   6.056  0.8134 -0.7804  0.9285
 3758SOL    HW222734   0.113   1.372   6.053  0.5037  0.7508 -0.1215
 3759SOL     OW22735   4.152   3.326   5.285 -0.4007 -0.3882  0.1325
 3759SOL    HW122736   4.095   3.388   5.331 -1.8211 -2.5433  1.2894
 3759SOL    HW222737   4.200   3.297   5.362  0.7064 -1.0131 -0.7971
 3760SOL     OW22738   2.905   2.840  13.690 -0.7124 -0.5206  0.2797
 3760SOL    HW122739   2.890   2.920  13.639 -0.0265 -0.2208  0.5589
 3760SOL    HW222740   2.871   2.874  13.773  2.2945  0.6076  1.0398
 3761SOL     OW22741   4.085   3.819  16.560 -0.1170  0.1242 -0.1597
 3761SOL    HW122742   4.122   3.821  16.649 -0.0298 -0.4692 -0.1879
 3761SOL    HW222743   4.043   3.734  16.558 -2.6357  1.3278  1.4376
 3762SOL     OW22744   2.123   2.966   1.470  0.0435  0.2514 -0.5579
 3762SOL    HW122745   2.193   2.984   1.532 -1.3490 -0.2749  1.1609
 3762SOL    HW222746   2.129   3.046   1.417  0.0314 -0.3707 -1.5015
 3763SOL     OW22747   4.070   0.362   2.371  0.0775 -0.7020 -0.5212
 3763SOL    HW122748   4.121   0.301   2.423 -0.7435 -0.1740  0.9056
 3763SOL    HW222749   4.001   0.382   2.433  3.8647  1.3820  3.0376
 3764SOL     OW22750   1.730   2.807   7.278  0.1518 -0.2808 -0.1285
 3764SOL    HW122751   1.676   2.886   7.274 -1.3421 -1.3128 -0.5353
 3764SOL    HW222752   1.742   2.802   7.373  1.2508  0.9496 -0.2046
 3765SOL     OW22753   3.871   1.235   7.259  0.1081 -0.2084  0.4139
 3765SOL    HW122754   3.960   1.259   7.284  0.2395 -0.7255  0.4500
 3765SOL    HW222755   3.882   1.140   7.256 -2.6307 -0.5413  1.6450
 3766SOL     OW22756   0.153   0.074  17.562 -0.3483 -0.2225  0.4159
 3766SOL    HW122757   0.084   0.010  17.543 -1.3038  0.5173  1.3434
 3766SOL    HW222758   0.216   0.010  17.593  0.8335  0.7944  0.1027
 3767SOL     OW22759   2.229   3.274   7.797  0.1119  0.0682 -0.2769
 3767SOL    HW122760   2.229   3.369   7.809 -0.2719 -0.0702  0.8490
 3767SOL    HW222761   2.137   3.256   7.779 -0.1741  2.0999 -0.8797
 3768SOL     OW22762   4.121   0.693   2.377 -0.3298 -0.3899  0.4197
 3768SOL    HW122763   4.152   0.740   2.455 -2.0898 -0.2764  1.0427
 3768SOL    HW222764   4.029   0.677   2.396 -1.3858  0.2695 -4.2225
 3769SOL     OW22765   4.499   0.797  16.541 -0.0891  0.0940  0.2367
 3769SOL    HW122766   4.486   0.719  16.487 -0.6562 -0.1440  0.7213
 3769SOL    HW222767   4.440   0.787  16.615  0.0528 -2.2617  0.0258
 3770SOL     OW22768   4.680   3.158  16.413 -0.4337  0.0143 -0.2499
 3770SOL    HW122769   4.653   3.110  16.492 -0.8861  1.3728  0.4228
 3770SOL    HW222770   4.680   3.246  16.451 -1.9532 -0.4874  0.9365
 3771SOL     OW22771   2.931   1.355  13.613  0.4244 -0.1722  0.0884
 3771SOL    HW122772   2.995   1.329  13.546  0.6749  0.0139  0.2561
 3771SOL    HW222773   2.948   1.292  13.682  3.7698  1.1708  0.4648
 3772SOL     OW22774   0.452   4.225  15.492  0.2141  0.5012 -0.4259
 3772SOL    HW122775   0.480   4.180  15.572 -1.2915  0.8779  0.3233
 3772SOL    HW222776   0.357   4.211  15.485  0.7289 -2.3820 -1.4320
 3773SOL     OW22777   1.844   0.404   8.229  0.2514 -0.4719  0.3595
 3773SOL    HW122778   1.815   0.368   8.313 -2.1386 -2.2942 -1.2498
 3773SOL    HW222779   1.809   0.493   8.235  1.1486 -0.1172  0.3215
 3774SOL     OW22780   0.437   1.042   7.071 -0.0365  0.2399  0.1374
 3774SOL    HW122781   0.445   0.947   7.061 -2.0387  0.1197 -0.1909
 3774SOL    HW222782   0.374   1.057   7.141 -0.6354 -0.7684 -0.1906
 3775SOL     OW22783   1.801   1.855   5.889 -0.0824  0.2398 -0.5551
 3775SOL    HW122784   1.891   1.853   5.921 -0.5679  2.0962  0.9203
 3775SOL    HW222785   1.770   1.942   5.917  2.4454  0.2553  2.1907
 3776SOL     OW22786   1.100   1.393  10.470 -0.4936  0.4897  0.5093
 3776SOL    HW122787   1.026   1.437  10.511 -0.1293  1.4371  0.1273
 3776SOL    HW222788   1.162   1.465  10.482 -0.3143  0.3855  0.1998
 3777SOL     OW22789   2.245   4.505   4.942 -0.2506  0.2754  0.4827
 3777SOL    HW122790   2.261   4.521   5.035 -0.7271  0.2276  0.5767
 3777SOL    HW222791   2.250   4.410   4.932 -1.8532  0.1410  0.8748
 3778SOL     OW22792   0.034   3.782   6.035 -0.5363  0.2876 -0.9695
 3778SOL    HW122793   4.693   3.775   6.107 -1.1211  3.1199 -1.2071
 3778SOL    HW222794   0.104   3.721   6.059  0.5774  1.7600 -0.4734
 3779SOL     OW22795   1.556   0.834   5.080 -0.1746 -0.7790  0.5255
 3779SOL    HW122796   1.622   0.842   5.011 -1.7190 -1.0592 -1.0024
 3779SOL    HW222797   1.611   0.852   5.155  2.7557 -0.2788 -1.7471
 3780SOL     OW22798   3.595   2.890   9.097  0.4282  0.2941  0.6754
 3780SOL    HW122799   3.603   2.969   9.043  1.8139 -0.7494 -0.6288
 3780SOL    HW222800   3.499   2.883   9.094  0.4821  0.2200 -0.7710
 3781SOL     OW22801   3.860   1.539   5.920  0.0720 -0.4371  0.5891
 3781SOL    HW122802   3.766   1.548   5.938  0.1797  3.6905 -0.7989
 3781SOL    HW222803   3.893   1.628   5.931  0.2896 -0.5507  0.8594
 3782SOL     OW22804   1.787   2.186  15.236 -0.4091  0.5674  0.0116
 3782SOL    HW122805   1.851   2.230  15.180  0.1980  0.7998  0.9005
 3782SOL    HW222806   1.851   2.132  15.281 -0.7503  0.1248 -0.0324
 3783SOL     OW22807   0.258   3.376   9.112  0.0073 -0.0469  0.3596
 3783SOL    HW122808   0.287   3.392   9.022 -0.0965  1.4779  0.6000
 3783SOL    HW222809   0.276   3.282   9.117 -1.0111 -0.2883 -0.4637
 3784SOL     OW22810   3.927   2.973   7.108  0.6710 -0.4049 -0.4303
 3784SOL    HW122811   3.941   2.907   7.176  1.4099  0.8079  0.5971
 3784SOL    HW222812   3.948   3.057   7.150 -2.3575 -0.1221  0.5541
 3785SOL     OW22813   1.914   1.313  10.716  0.1251 -0.7462  0.1810
 3785SOL    HW122814   1.920   1.245  10.784 -1.8415  0.3537  1.4551
 3785SOL    HW222815   1.844   1.273  10.664  0.7341 -1.0023 -0.4476
 3786SOL     OW22816   3.026   0.891   6.308 -0.0618  0.4093  0.7055
 3786SOL    HW122817   3.087   0.828   6.347  0.4061  1.3574  1.5110
 3786SOL    HW222818   3.040   0.970   6.361 -0.0858 -0.1528  1.5353
 3787SOL     OW22819   0.537   3.961   8.800  0.3067 -0.5063 -0.5205
 3787SOL    HW122820   0.615   3.923   8.759  0.3103 -0.1792 -0.8208
 3787SOL    HW222821   0.542   3.923   8.887 -2.9164 -1.8148 -0.8972
 3788SOL     OW22822   2.450   3.972   6.908 -0.8975 -0.0981 -0.1234
 3788SOL    HW122823   2.522   3.963   6.970 -0.6950  2.2933 -0.0128
 3788SOL    HW222824   2.409   4.057   6.924  0.6238  1.3479 -3.7272
 3789SOL     OW22825   2.199   0.436   2.902  0.6807  0.0653  0.6249
 3789SOL    HW122826   2.227   0.353   2.864  1.6454  0.7577 -0.1721
 3789SOL    HW222827   2.266   0.461   2.966 -0.6895 -0.3728  2.2346
 3790SOL     OW22828   4.520   3.644   5.795  0.4049  0.3600 -0.0488
 3790SOL    HW122829   4.524   3.607   5.883 -2.4970 -0.6125 -0.3353
 3790SOL    HW222830   4.504   3.737   5.813 -0.5606 -0.3181  2.5738
 3791SOL     OW22831   3.512   2.420   2.371  0.0377 -0.8145  0.7772
 3791SOL    HW122832   3.460   2.385   2.443 -1.6808  1.1964  0.4954
 3791SOL    HW222833   3.579   2.479   2.403 -0.3040 -0.1759  0.3188
 3792SOL     OW22834   4.702   1.007  13.666  0.1779  0.0588 -0.1213
 3792SOL    HW122835   4.693   0.917  13.635  0.4928 -0.0273  0.0361
 3792SOL    HW222836   4.621   1.017  13.715 -0.1370  2.4914 -1.1424
 3793SOL     OW22837   3.788   1.841   4.162 -0.3075  0.3807 -0.2583
 3793SOL    HW122838   3.767   1.856   4.070 -0.9122 -0.6334 -0.2925
 3793SOL    HW222839   3.870   1.890   4.168  0.4369 -1.0894  1.8505
 3794SOL     OW22840   0.611   3.689   8.972  0.0664  0.2099 -0.1649
 3794SOL    HW122841   0.582   3.670   8.883 -2.2950  0.1664  0.6153
 3794SOL    HW222842   0.592   3.605   9.015  1.1637 -0.2379 -0.5273
 3795SOL     OW22843   2.251   0.368   4.955 -0.3045  0.2403 -0.3826
 3795SOL    HW122844   2.305   0.382   4.877  1.1679  1.1911  0.8149
 3795SOL    HW222845   2.201   0.291   4.925  0.7390 -0.1380 -1.1688
 3796SOL     OW22846   0.586   2.365   2.915  0.3580  0.7449  0.0141
 3796SOL    HW122847   0.501   2.406   2.932 -0.4608 -1.0072  0.1131
 3796SOL    HW222848   0.643   2.410   2.978  2.1167  0.5540 -1.4374
 3797SOL     OW22849   2.941   4.324   5.704  0.1548  0.3307 -0.4148
 3797SOL    HW122850   2.946   4.419   5.699 -3.2808  0.4590 -1.0894
 3797SOL    HW222851   2.980   4.297   5.620 -1.5818  1.4146 -1.5758
 3798SOL     OW22852   3.382   1.908   2.789 -0.2779 -0.0050 -0.1617
 3798SOL    HW122853   3.451   1.907   2.856 -1.6242  0.9527  1.2391
 3798SOL    HW222854   3.440   1.904   2.712 -0.0463  1.3399 -0.0620
 3799SOL     OW22855   4.700   3.790   2.730 -0.2655 -0.4309  0.0374
 3799SOL    HW122856   4.656   3.722   2.781  1.1059 -2.0191 -0.9014
 3799SOL    HW222857   0.072   3.768   2.743 -0.4729 -2.1998 -1.4730
 3800SOL     OW22858   4.349   2.961  10.437 -0.1856 -0.2237 -0.3382
 3800SOL    HW122859   4.418   2.994  10.495 -0.0697  0.5209 -0.9012
 3800SOL    HW222860   4.388   2.876  10.419 -1.2305 -0.7856  0.0519
 3801SOL     OW22861   0.610   3.354   8.793  0.0213 -0.0968 -0.3332
 3801SOL    HW122862   0.618   3.309   8.708 -1.8647  0.8854 -1.0285
 3801SOL    HW222863   0.585   3.279   8.848  3.4741 -1.8156 -1.0753
 3802SOL     OW22864   1.435   1.452   2.221 -0.0631 -0.1499  1.0561
 3802SOL    HW122865   1.417   1.373   2.170 -4.1446  1.9615 -0.7906
 3802SOL    HW222866   1.511   1.492   2.178 -0.4990  0.1399  0.5566
 3803SOL     OW22867   0.818   2.418  17.646 -0.7480  0.1753  0.5922
 3803SOL    HW122868   0.849   2.375   0.042  0.6533 -5.2864 -2.8304
 3803SOL    HW222869   0.796   2.499   0.007  0.8779  1.9579 -1.8561
 3804SOL     OW22870   3.899   0.976   6.075  0.6519  0.2375  0.0111
 3804SOL    HW122871   3.948   1.058   6.079  0.4873  0.4463 -2.3562
 3804SOL    HW222872   3.943   0.927   6.145  1.6933  2.7165  1.0902
 3805SOL     OW22873   2.816   1.580   2.239  0.2742  0.6012 -0.2016
 3805SOL    HW122874   2.856   1.635   2.171 -0.2201 -0.9138 -1.7384
 3805SOL    HW222875   2.735   1.630   2.241 -0.1204 -0.0599  0.4284
 3806SOL     OW22876   1.653   0.472   4.875 -0.0127  0.2249 -0.3926
 3806SOL    HW122877   1.680   0.451   4.964 -2.1151 -2.9919 -0.5102
 3806SOL    HW222878   1.568   0.504   4.906 -0.4757 -0.0402 -1.3752
 3807SOL     OW22879   1.561   2.904  10.331  0.2094 -0.6638 -0.0866
 3807SOL    HW122880   1.627   2.855  10.379  1.4247  0.2308 -0.8431
 3807SOL    HW222881   1.602   2.989  10.315 -0.6964  0.3937  3.1555
 3808SOL     OW22882   2.431   2.138   8.657  0.1295 -0.4215 -0.1850
 3808SOL    HW122883   2.485   2.102   8.727 -0.4924  0.9895  1.0089
 3808SOL    HW222884   2.391   2.052   8.642  1.0904 -0.9290  0.1258
 3809SOL     OW22885   2.433   0.661  11.865  0.3540  0.3368 -0.2095
 3809SOL    HW122886   2.498   0.591  11.872  0.5668  0.5148 -0.3780
 3809SOL    HW222887   2.488   0.731  11.829 -1.3737  0.5730 -2.3646
 3810SOL     OW22888   1.067   2.491   8.717  0.1437 -0.0462  0.2586
 3810SOL    HW122889   1.139   2.469   8.776  0.6303  2.9942  0.8074
 3810SOL    HW222890   1.083   2.429   8.646 -0.7591  0.1064 -0.0754
 3811SOL     OW22891   2.254   0.325   3.148  0.3191 -0.0046  0.2835
 3811SOL    HW122892   2.342   0.321   3.110  0.8550  1.6233  1.3877
 3811SOL    HW222893   2.221   0.235   3.145  0.0035  0.1128  0.2179
 3812SOL     OW22894   1.781   3.459  15.460 -0.5096  0.6772 -0.2269
 3812SOL    HW122895   1.813   3.540  15.419 -1.1653  1.1547  0.2207
 3812SOL    HW222896   1.757   3.497  15.544 -0.9317  0.1980 -0.1356
 3813SOL     OW22897   1.444   2.236   0.450 -0.1569 -0.2561 -0.2014
 3813SOL    HW122898   1.411   2.189   0.527  1.2657 -2.2127 -0.7990
 3813SOL    HW222899   1.427   2.180   0.374 -0.5714 -2.5260  1.5501
 3814SOL     OW22900   1.527   1.153   4.181 -0.1804 -0.6350 -0.1102
 3814SOL    HW122901   1.492   1.113   4.261 -1.9121  0.2475 -0.4230
 3814SOL    HW222902   1.453   1.159   4.121  0.4553 -0.8688 -0.9049
 3815SOL     OW22903   2.235   3.468   7.169  0.1008 -0.5050 -0.1327
 3815SOL    HW122904   2.291   3.436   7.240  1.6349  2.5124  0.0160
 3815SOL    HW222905   2.257   3.560   7.155  2.0240 -0.7111  1.4827
 3816SOL     OW22906   0.521   1.289  10.605 -0.1852 -0.0339 -0.3199
 3816SOL    HW122907   0.602   1.242  10.626 -1.6658 -1.8742  1.2492
 3816SOL    HW222908   0.554   1.367  10.561  0.9779 -1.2757 -1.6752
 3817SOL     OW22909   3.078   0.199   7.189  0.5363  0.2631 -0.0153
 3817SOL    HW122910   3.070   0.237   7.276 -0.1264  2.2678 -0.9399
 3817SOL    HW222911   3.165   0.161   7.177  0.9275  1.3951 -0.7291
 3818SOL     OW22912   0.815   1.343  16.570  0.1234  0.4659 -0.0391
 3818SOL    HW122913   0.762   1.264  16.558 -1.4924  1.5522 -0.1618
 3818SOL    HW222914   0.831   1.339  16.664  0.7187 -1.7537 -0.2417
 3819SOL     OW22915   1.474   3.064   8.915 -0.3293 -0.4701  0.0008
 3819SOL    HW122916   1.483   3.064   9.011 -0.9189  1.0398  0.0401
 3819SOL    HW222917   1.447   3.153   8.893 -0.2618 -0.0443  1.6235
 3820SOL     OW22918   0.900   1.103   2.823  0.0640  0.2584 -0.0137
 3820SOL    HW122919   0.918   1.046   2.898  1.9038  0.7724 -0.0744
 3820SOL    HW222920   0.878   1.037   2.757  0.4359  0.7628 -0.6406
 3821SOL     OW22921   2.823   0.293   9.382  0.3523 -0.8458  0.3339
 3821SOL    HW122922   2.775   0.220   9.344  0.8194 -0.7597 -0.4208
 3821SOL    HW222923   2.900   0.298   9.326 -0.1175 -0.3633 -0.2822
 3822SOL     OW22924   1.075   1.035   7.795 -0.2122 -0.5600  0.6493
 3822SOL    HW122925   0.982   1.044   7.816 -0.5529  1.3764 -1.7185
 3822SOL    HW222926   1.108   1.018   7.884 -0.0774 -0.3656  0.6384
 3823SOL     OW22927   1.033   3.891   2.722  0.4285 -0.3989 -0.3756
 3823SOL    HW122928   1.001   3.875   2.810 -1.4893 -1.3922 -1.2573
 3823SOL    HW222929   1.048   3.802   2.690  2.0738 -0.5276  0.7915
 3824SOL     OW22930   0.951   1.342   6.773  0.2319  0.0800 -0.2198
 3824SOL    HW122931   1.031   1.383   6.740  1.2449 -1.7370 -0.0207
 3824SOL    HW222932   0.970   1.256   6.737  1.1835 -0.3312  1.2941
 3825SOL     OW22933   0.406   4.486   7.861 -0.3961  0.0460 -0.0404
 3825SOL    HW122934   0.371   4.441   7.784  0.2997 -1.8753  0.7895
 3825SOL    HW222935   0.351   4.565   7.869  1.3820  1.0466  2.3335
 3826SOL     OW22936   4.565   2.359   3.783 -0.3587  0.0856 -0.1082
 3826SOL    HW122937   4.571   2.287   3.846  1.3081 -1.5597 -2.1131
 3826SOL    HW222938   4.559   2.434   3.842 -2.2936 -1.0615  1.1625
 3827SOL     OW22939   4.411   3.434   5.638 -0.3235 -0.6374  0.8023
 3827SOL    HW122940   4.317   3.442   5.655 -0.5262 -3.3575  0.9939
 3827SOL    HW222941   4.449   3.489   5.707  0.5204 -0.8357  0.4970
 3828SOL     OW22942   3.362   1.467   7.075 -0.0508 -0.0106  0.2423
 3828SOL    HW122943   3.291   1.411   7.047  0.1935 -0.2756  0.1530
 3828SOL    HW222944   3.434   1.444   7.016 -3.7451  1.2204 -4.7259
 3829SOL     OW22945   3.688   1.348   3.335 -0.1520 -0.4748 -0.0496
 3829SOL    HW122946   3.771   1.326   3.378 -0.6251 -0.0074  1.1115
 3829SOL    HW222947   3.720   1.385   3.253 -2.4883  0.1231 -0.6925
 3830SOL     OW22948   0.775   1.403   8.935  0.3469  0.2337 -0.2842
 3830SOL    HW122949   0.810   1.349   9.007 -0.8144 -0.0156  0.0943
 3830SOL    HW222950   0.682   1.381   8.939  0.2347  0.4420 -2.0963
 3831SOL     OW22951   3.083   1.650   5.270  0.0875 -0.2258 -0.4958
 3831SOL    HW122952   3.127   1.606   5.197 -0.0525  0.2533 -0.8709
 3831SOL    HW222953   3.061   1.734   5.231  2.8618  0.9140  0.4261
 3832SOL     OW22954   2.747   0.443   4.213  0.2717 -0.1056 -0.0100
 3832SOL    HW122955   2.719   0.351   4.217 -3.4437  1.1177  1.8530
 3832SOL    HW222956   2.774   0.450   4.122 -1.6071 -1.5822 -0.6932
 3833SOL     OW22957   0.261   3.145  13.070 -0.0182  0.2832  0.3709
 3833SOL    HW122958   0.182   3.198  13.065  0.0695  0.3469 -0.4079
 3833SOL    HW222959   0.269   3.151  13.165 -0.3463 -1.5070  0.5173
 3834SOL     OW22960   3.645   3.317   9.078 -0.0665  0.5640  0.1841
 3834SOL    HW122961   3.641   3.261   9.000  0.9495  0.4033  0.2446
 3834SOL    HW222962   3.562   3.294   9.120  1.2443 -1.8408  1.4640
 3835SOL     OW22963   1.951   4.392   2.402 -0.2726  0.2359  0.6995
 3835SOL    HW122964   1.985   4.400   2.491  0.5424 -0.6167  0.4666
 3835SOL    HW222965   1.866   4.350   2.416 -0.2593 -0.6906 -1.9902
 3836SOL     OW22966   2.866   3.964   1.424 -0.2077  0.1569 -0.2749
 3836SOL    HW122967   2.783   3.933   1.461 -0.9895  0.5028 -1.7433
 3836SOL    HW222968   2.903   3.989   1.509 -0.6532  1.3193 -0.4181
 3837SOL     OW22969   0.077   2.640   3.713 -1.3802 -0.2810  0.2147
 3837SOL    HW122970   0.100   2.680   3.629 -0.4203  0.8738  1.0361
 3837SOL    HW222971   0.090   2.548   3.690  0.8526 -0.1164  0.8932
 3838SOL     OW22972   0.304   1.658   6.387 -0.0827  0.4934  0.0579
 3838SOL    HW122973   0.294   1.592   6.319  2.7419 -0.4292  0.5274
 3838SOL    HW222974   0.399   1.668   6.379 -0.1659  1.1939 -0.1231
 3839SOL     OW22975   4.665   1.163   7.906  0.2868  0.3241  0.7110
 3839SOL    HW122976   4.651   1.090   7.847 -2.0866  1.5100 -0.1510
 3839SOL    HW222977   4.610   1.139   7.980 -1.4148 -0.4783 -0.8321
 3840SOL     OW22978   1.317   2.950   0.118  0.5702 -0.1522  0.4525
 3840SOL    HW122979   1.331   2.857   0.138  0.8389  0.2304  2.0157
 3840SOL    HW222980   1.232   2.966   0.158  0.7209  1.0524  0.2762
 3841SOL     OW22981   4.463   2.803   8.623 -1.0353 -0.3922 -0.3034
 3841SOL    HW122982   4.508   2.885   8.646  0.5254 -1.2738 -0.2186
 3841SOL    HW222983   4.506   2.739   8.679 -1.7627 -2.4501 -2.1299
 3842SOL     OW22984   3.459   2.534   3.038  0.2685  0.0086  0.1128
 3842SOL    HW122985   3.440   2.589   3.114 -0.9365  1.3518 -1.1473
 3842SOL    HW222986   3.517   2.586   2.982  2.3636 -1.3071  1.0815
 3843SOL     OW22987   1.706   2.077  12.101  0.2117  0.3272  0.2180
 3843SOL    HW122988   1.647   2.035  12.039  1.1981  1.1083 -1.2541
 3843SOL    HW222989   1.646   2.095  12.173  0.6427  0.0050  0.6607
 3844SOL     OW22990   1.054   3.203   0.381  0.1377  0.0510  0.2048
 3844SOL    HW122991   1.093   3.126   0.340  1.4605  1.1355 -0.5455
 3844SOL    HW222992   0.983   3.158   0.427  1.2098 -2.3722 -0.5570
 3845SOL     OW22993   1.974   4.346   0.362  0.0601  0.0994 -0.2287
 3845SOL    HW122994   2.051   4.369   0.311  0.6242  1.1435  1.0889
 3845SOL    HW222995   1.904   4.368   0.300  0.0678 -0.9308 -0.6030
 3846SOL     OW22996   4.250   1.496   3.962 -0.0648  0.0167  0.1980
 3846SOL    HW122997   4.302   1.415   3.962 -1.3855 -0.8325  1.2085
 3846SOL    HW222998   4.316   1.560   3.936 -1.4896  0.6035 -1.9770
 3847SOL     OW22999   4.013   2.239   8.572 -0.5298 -0.4139 -0.2481
 3847SOL    HW123000   4.023   2.299   8.499 -1.0790  1.6109  1.3301
 3847SOL    HW223001   4.093   2.245   8.624 -1.6686 -1.6108  1.6815
 3848SOL     OW23002   4.221   4.244  13.150  0.2288 -0.2559 -0.6582
 3848SOL    HW123003   4.226   4.339  13.162 -0.1779 -0.1726 -1.1626
 3848SOL    HW223004   4.130   4.233  13.125 -0.2321  0.3447  0.7389
 3849SOL     OW23005   0.847   2.893   3.933  0.4461  0.2386  0.0521
 3849SOL    HW123006   0.834   2.853   3.847  0.8234  5.4566 -2.4404
 3849SOL    HW223007   0.847   2.818   3.993  0.8508  0.9592  0.9552
 3850SOL     OW23008   1.428   3.171   3.420  0.1410 -0.0378 -0.2143
 3850SOL    HW123009   1.463   3.179   3.332 -1.7862 -0.3980 -1.0036
 3850SOL    HW223010   1.476   3.095   3.452  0.4075  0.2762  0.1348
 3851SOL     OW23011   3.693   3.674  11.195  0.1786  0.5389  0.1315
 3851SOL    HW123012   3.719   3.656  11.105 -0.6544  1.1012 -0.2233
 3851SOL    HW223013   3.612   3.722  11.178 -0.0374  0.4082  0.7803
 3852SOL     OW23014   2.974   3.872   8.377 -0.1200 -0.3551  0.0854
 3852SOL    HW123015   2.888   3.859   8.419 -0.0574  0.8480  0.6153
 3852SOL    HW223016   2.950   3.956   8.336  5.2175  1.3813  0.5349
 3853SOL     OW23017   1.871   4.436   8.937 -0.2091 -0.5066 -0.0597
 3853SOL    HW123018   1.788   4.417   8.893 -1.1742  2.5785  0.4883
 3853SOL    HW223019   1.914   4.473   8.860  0.1544  0.5764  0.6596
 3854SOL     OW23020   1.552   2.878   5.550  0.4061  0.6468  0.9199
 3854SOL    HW123021   1.529   2.808   5.489 -0.5907  0.9733  0.9187
 3854SOL    HW223022   1.605   2.938   5.498  0.7518  1.1618  1.8698
 3855SOL     OW23023   1.652   0.945  13.860  0.5497 -0.1715 -0.6973
 3855SOL    HW123024   1.621   0.857  13.880 -3.3838  1.2643 -0.3088
 3855SOL    HW223025   1.580   0.996  13.898  1.2266  0.0862  0.2397
 3856SOL     OW23026   1.056   3.587   2.662 -0.3799  0.0995  0.0425
 3856SOL    HW123027   0.989   3.553   2.603 -0.8132 -0.9085  1.1148
 3856SOL    HW223028   1.120   3.624   2.600 -1.2779 -0.0553 -0.9753
 3857SOL     OW23029   2.084   0.462  16.311  0.0562 -0.0749 -0.0973
 3857SOL    HW123030   2.169   0.470  16.354  0.8469 -2.1058 -1.3098
 3857SOL    HW223031   2.097   0.499  16.224 -1.5051 -0.2615 -0.4161
 3858SOL     OW23032   1.349   2.583   7.585  0.6150 -0.4536  0.0009
 3858SOL    HW123033   1.427   2.531   7.564  1.4541  0.2814  1.2760
 3858SOL    HW223034   1.319   2.600   7.496 -0.2444 -1.4634  0.1066
 3859SOL     OW23035   2.681   2.207   6.148  0.3706  0.3161  0.2809
 3859SOL    HW123036   2.758   2.200   6.091 -0.0133  2.8367 -0.5421
 3859SOL    HW223037   2.688   2.125   6.196  0.2702  0.5615  0.7118
 3860SOL     OW23038   4.704   0.468  11.576 -0.0476  0.1368 -0.1336
 3860SOL    HW123039   4.637   0.409  11.543  0.6209  0.1317 -1.4654
 3860SOL    HW223040   4.669   0.464  11.665  0.9336  1.1742  0.3028
 3861SOL     OW23041   4.467   4.496   3.180 -0.4950 -0.3922 -0.0530
 3861SOL    HW123042   4.388   4.538   3.213 -0.2515  0.1040 -0.1068
 3861SOL    HW223043   4.438   4.441   3.108 -2.1806  0.2582  0.1415
 3862SOL     OW23044   4.314   4.164   9.632  0.1309 -0.2621  0.2482
 3862SOL    HW123045   4.326   4.121   9.717  0.5557 -0.6412 -0.0020
 3862SOL    HW223046   4.219   4.157   9.621  0.2443 -0.1418 -0.8525
 3863SOL     OW23047   3.502   0.038   5.331  0.2076  0.6487  0.0276
 3863SOL    HW123048   3.531   4.715   5.412 -2.2042 -0.5526  0.2380
 3863SOL    HW223049   3.543   4.699   5.269  0.1220 -0.8208  1.3670
 3864SOL     OW23050   3.846   4.066   9.353 -0.5031 -0.3804 -0.2277
 3864SOL    HW123051   3.778   4.126   9.321 -1.5819 -1.9881 -0.9255
 3864SOL    HW223052   3.790   4.019   9.415 -0.0029 -0.3660  0.2414
 3865SOL     OW23053   3.125   3.150  10.640  0.2077  0.0978 -0.6149
 3865SOL    HW123054   3.051   3.097  10.610 -0.1855  0.3844 -0.1582
 3865SOL    HW223055   3.193   3.103  10.593  1.4581  1.1235  0.1694
 3866SOL     OW23056   4.603   0.200   8.813  0.6247  0.0108  0.1979
 3866SOL    HW123057   4.624   0.107   8.826 -2.0211 -0.3659  1.8667
 3866SOL    HW223058   4.517   0.191   8.854 -1.0097  0.1138 -3.2580
 3867SOL     OW23059   0.729   0.565  11.649  0.5075 -0.2277 -0.1793
 3867SOL    HW123060   0.813   0.592  11.688  0.0876 -1.6555  1.7273
 3867SOL    HW223061   0.685   0.650  11.650  2.5069  0.8321 -1.7693
 3868SOL     OW23062   3.906   1.153  16.988 -0.9031 -0.0111 -0.1625
 3868SOL    HW123063   3.922   1.161  17.082 -2.1082 -0.8118  0.1035
 3868SOL    HW223064   3.961   1.080  16.957  1.9117  1.4282  1.3863
 3869SOL     OW23065   1.416   3.992   2.217 -0.0666  0.3827  0.0364
 3869SOL    HW123066   1.474   4.053   2.173 -1.3175 -0.1634 -2.3731
 3869SOL    HW223067   1.340   3.992   2.158 -0.4554  2.7347  0.5279
 3870SOL     OW23068   0.759   2.853   8.225  0.4131  0.0463 -0.4575
 3870SOL    HW123069   0.718   2.798   8.291  1.4157 -1.1632 -0.8313
 3870SOL    HW223070   0.695   2.924   8.224 -0.8507 -1.1375 -2.0341
 3871SOL     OW23071   2.595   3.617   8.260  0.6521 -0.4621 -0.2572
 3871SOL    HW123072   2.507   3.594   8.233  1.0179 -2.4393  0.2505
 3871SOL    HW223073   2.604   3.708   8.232 -1.6275  0.0637  0.6890
 3872SOL     OW23074   1.186   0.363   6.507  0.6146  0.0649 -0.1762
 3872SOL    HW123075   1.129   0.317   6.446  0.1259  0.3740  0.0490
 3872SOL    HW223076   1.186   0.447   6.460  0.4233 -0.5921 -1.3426
 3873SOL     OW23077   4.067   3.621  16.909  0.6919  0.0399  0.2786
 3873SOL    HW123078   4.119   3.661  16.838 -1.0582  1.3964 -0.2481
 3873SOL    HW223079   4.097   3.531  16.904 -1.7177 -0.6977 -1.0065
 3874SOL     OW23080   1.152   3.114   7.016  0.5541 -0.0080  0.2144
 3874SOL    HW123081   1.160   3.019   7.023  1.0004 -0.0375 -0.8008
 3874SOL    HW223082   1.089   3.112   6.943 -0.6239  1.9368  1.1487
 3875SOL     OW23083   1.837   0.829   9.493 -0.0713  0.3620  0.3235
 3875SOL    HW123084   1.826   0.780   9.575  3.8481 -0.1657  0.5375
 3875SOL    HW223085   1.752   0.864   9.467 -0.3869 -0.8185 -0.2214
 3876SOL     OW23086   2.710   3.319   4.888  0.0805  0.1887 -0.0258
 3876SOL    HW123087   2.622   3.351   4.868 -0.3858 -0.8885  0.3321
 3876SOL    HW223088   2.681   3.239   4.931 -0.1678  0.0449 -0.4592
 3877SOL     OW23089   2.620   1.990   6.309 -0.3682 -0.1692  0.1301
 3877SOL    HW123090   2.553   1.940   6.263  1.2629 -2.0867 -0.1182
 3877SOL    HW223091   2.595   1.976   6.401  0.4772 -1.2316  0.1890
 3878SOL     OW23092   0.714   3.777   6.727 -0.1632 -0.0000 -0.3095
 3878SOL    HW123093   0.637   3.809   6.680  0.3052 -0.0503 -1.1254
 3878SOL    HW223094   0.695   3.683   6.720  0.0435 -0.1182  0.7216
 3879SOL     OW23095   2.923   1.732   2.921  0.4410 -0.0172  0.1187
 3879SOL    HW123096   2.864   1.784   2.976  0.4857 -0.4611  0.5889
 3879SOL    HW223097   3.009   1.758   2.954 -0.1877  1.5961  0.4628
 3880SOL     OW23098   0.302   3.172   3.233 -0.1875 -0.0825  0.0136
 3880SOL    HW123099   0.210   3.147   3.240 -0.8939  2.8799  1.7520
 3880SOL    HW223100   0.349   3.090   3.221 -3.3735 -1.6414 -2.0088
 3881SOL     OW23101   1.488   0.251   2.496  0.7721  0.2589 -0.0243
 3881SOL    HW123102   1.397   0.271   2.514  0.5276 -0.7130 -0.1807
 3881SOL    HW223103   1.527   0.338   2.487  0.4427  0.3255 -0.8654
 3882SOL     OW23104   4.062   1.408  13.517 -0.3055 -0.1502  0.0739
 3882SOL    HW123105   4.147   1.441  13.546  0.0486  1.0142 -2.2297
 3882SOL    HW223106   4.056   1.323  13.560 -0.3142 -1.3974 -2.4233
 3883SOL     OW23107   4.283   2.222   9.612  0.2850 -0.0276  0.3811
 3883SOL    HW123108   4.308   2.242   9.522  1.8874  1.0647  1.0922
 3883SOL    HW223109   4.348   2.275   9.657 -0.0610 -0.7362  1.7300
 3884SOL     OW23110   1.348   0.903  13.735 -0.4612 -0.4120  0.2952
 3884SOL    HW123111   1.341   0.958  13.814  1.2026 -0.6931  0.6416
 3884SOL    HW223112   1.408   0.836  13.769  0.1388 -0.0290 -0.0006
 3885SOL     OW23113   1.764   1.932   1.429 -0.0009  0.0435  0.2115
 3885SOL    HW123114   1.797   1.974   1.509 -0.8147  0.4999  0.3038
 3885SOL    HW223115   1.677   1.969   1.416 -0.0373 -0.3670 -0.6765
 3886SOL     OW23116   1.725   4.571   2.839  0.2975  0.3163 -0.1789
 3886SOL    HW123117   1.701   4.648   2.787  1.3677  1.2341  0.7013
 3886SOL    HW223118   1.647   4.519   2.856 -0.3964  1.8947  1.4389
 3887SOL     OW23119   3.821   3.780  16.107  0.7611 -0.0126 -0.3732
 3887SOL    HW123120   3.772   3.862  16.099  0.7061 -0.3663 -3.5636
 3887SOL    HW223121   3.750   3.720  16.086  1.1044 -0.0844 -1.3451
 3888SOL     OW23122   1.718   3.342   7.419 -0.0030 -0.1177 -0.1696
 3888SOL    HW123123   1.746   3.333   7.328 -0.2375  0.4468 -0.2971
 3888SOL    HW223124   1.725   3.253   7.453 -1.2052 -0.3290 -0.4845
 3889SOL     OW23125   1.418   0.917  17.409  0.1976 -0.5233  0.3533
 3889SOL    HW123126   1.486   0.950  17.352 -0.1123  0.1157  0.3587
 3889SOL    HW223127   1.468   0.851  17.457  1.4776  0.4884  0.3753
 3890SOL     OW23128   1.175   0.778   1.576  0.1066 -0.6888 -0.1063
 3890SOL    HW123129   1.140   0.866   1.569  2.3722  0.2523  0.2926
 3890SOL    HW223130   1.113   0.719   1.534  0.2607 -0.7078 -0.3096
 3891SOL     OW23131   4.332   3.698   3.735 -0.2557  0.0699  0.3500
 3891SOL    HW123132   4.313   3.642   3.660 -1.3838 -0.2062  0.8316
 3891SOL    HW223133   4.244   3.692   3.772 -0.2315 -0.5019  0.3221
 3892SOL     OW23134   4.068   3.076   7.735 -0.1122  0.1902  0.0062
 3892SOL    HW123135   4.083   3.042   7.823 -1.3137  1.0096  0.5099
 3892SOL    HW223136   3.980   3.046   7.712 -0.4395  0.6164  0.7029
 3893SOL     OW23137   4.598   1.664   4.195  0.6864 -0.0033  0.4033
 3893SOL    HW123138   4.595   1.633   4.285 -0.6545 -0.9714  0.0255
 3893SOL    HW223139   4.581   1.757   4.211 -0.9862 -0.0672 -0.9860
 3894SOL     OW23140   0.469   1.698  12.968 -0.3417 -0.2116  0.2337
 3894SOL    HW123141   0.528   1.629  12.997  3.1131  2.5763 -0.2168
 3894SOL    HW223142   0.493   1.765  13.032  0.3895 -0.1249 -0.1308
 3895SOL     OW23143   0.217   1.736   5.139 -0.3786  0.5612  0.1853
 3895SOL    HW123144   0.285   1.671   5.121 -0.0525  1.1269 -0.5897
 3895SOL    HW223145   0.268   1.816   5.131  0.5565 -0.1581 -1.0002
 3896SOL     OW23146   4.551   3.142  14.392  0.4134 -0.3640  0.2616
 3896SOL    HW123147   4.605   3.221  14.397 -1.3525  0.9098 -0.7014
 3896SOL    HW223148   4.528   3.144  14.299  1.6698  0.9394 -0.0279
 3897SOL     OW23149   3.430   4.337  13.116 -0.2779  0.3877 -0.8597
 3897SOL    HW123150   3.339   4.333  13.147 -1.2752  1.3897 -3.6829
 3897SOL    HW223151   3.422   4.294  13.031  2.8119 -0.8290 -0.5052
 3898SOL     OW23152   4.338   3.581   6.439  0.0193  0.6796 -0.4211
 3898SOL    HW123153   4.291   3.596   6.357  2.0096  1.8392 -1.3455
 3898SOL    HW223154   4.350   3.668   6.477  0.0653 -0.0555  1.2373
 3899SOL     OW23155   3.611   1.641   8.063 -0.5933 -0.3467  0.2344
 3899SOL    HW123156   3.643   1.690   8.139  0.7828 -3.0462  1.4235
 3899SOL    HW223157   3.529   1.611   8.103 -1.1419 -1.2959 -1.6248
 3900SOL     OW23158   3.880   0.162  15.348  0.0299 -0.5931  0.2042
 3900SOL    HW123159   3.868   0.174  15.254 -1.9551 -0.4633  0.4778
 3900SOL    HW223160   3.881   0.066  15.352 -2.7358 -0.7172 -2.4673
 3901SOL     OW23161   3.213   0.275   0.155 -0.7185  0.4578 -0.2023
 3901SOL    HW123162   3.182   0.360   0.187  3.4729  2.1683 -0.6243
 3901SOL    HW223163   3.246   0.304   0.069  2.6971  0.6364  1.1816
 3902SOL     OW23164   0.497   4.630  11.423 -0.0150  0.3262 -0.1513
 3902SOL    HW123165   0.522   4.539  11.440  0.7240  0.5566 -0.0057
 3902SOL    HW223166   0.507   4.642  11.329 -0.5750 -0.5929 -0.3286
 3903SOL     OW23167   2.568   1.639   4.716 -0.2979 -0.2361 -0.3988
 3903SOL    HW123168   2.513   1.691   4.658 -1.6425 -0.0423  1.0738
 3903SOL    HW223169   2.639   1.614   4.657  0.4764 -0.8177  0.7688
 3904SOL     OW23170   1.174   2.806   4.103 -0.4007  0.1130  0.2229
 3904SOL    HW123171   1.119   2.864   4.050  0.8768 -0.3331 -1.5731
 3904SOL    HW223172   1.210   2.743   4.042 -0.6543 -0.2487  0.4454
 3905SOL     OW23173   2.093   3.717   7.617 -0.5413 -0.2556  0.4091
 3905SOL    HW123174   2.046   3.799   7.599  0.9109  0.4199 -0.2731
 3905SOL    HW223175   2.149   3.713   7.540 -1.3103 -1.5262 -0.0667
 3906SOL     OW23176   4.291   4.540   7.365 -0.1178 -0.1236  0.2655
 3906SOL    HW123177   4.368   4.516   7.417  0.3087 -0.6721 -0.6290
 3906SOL    HW223178   4.318   4.624   7.328 -1.4220 -1.2168 -3.1183
 3907SOL     OW23179   4.588   3.013  12.600 -0.5852 -0.1029 -0.1595
 3907SOL    HW123180   4.646   3.021  12.524 -2.2215  1.4082 -1.2567
 3907SOL    HW223181   4.643   2.945  12.639 -0.5092 -0.0851 -0.2363
 3908SOL     OW23182   1.986   1.920   2.718 -0.2901  0.3582  0.0449
 3908SOL    HW123183   1.928   1.996   2.718 -2.5634 -1.3417  1.2790
 3908SOL    HW223184   2.064   1.947   2.767  0.0240 -1.8213  0.7663
 3909SOL     OW23185   0.076   1.535   4.634 -0.4326  0.1742 -0.7579
 3909SOL    HW123186   4.719   1.569   4.679  1.1529  1.3045  1.0900
 3909SOL    HW223187   0.109   1.616   4.594  0.6574  0.5855  0.9936
 3910SOL     OW23188   1.780   2.378   1.439  0.5207  0.1269 -0.3757
 3910SOL    HW123189   1.762   2.351   1.529  0.2449 -0.3509 -0.5773
 3910SOL    HW223190   1.746   2.468   1.434  0.3977  0.0896 -0.2245
 3911SOL     OW23191   0.362   3.012  13.924 -0.1860  0.3883 -0.1142
 3911SOL    HW123192   0.420   3.074  13.968 -0.9184 -0.4742  2.0463
 3911SOL    HW223193   0.407   2.927  13.923 -0.0492  0.4219  3.6610
 3912SOL     OW23194   4.322   1.974  12.530  1.0144  0.3482 -0.2728
 3912SOL    HW123195   4.393   2.035  12.549  1.3705 -0.2125  0.1744
 3912SOL    HW223196   4.293   2.016  12.449  1.2490  2.3780  0.7096
 3913SOL     OW23197   1.894   3.563   3.983  0.2680 -0.2251 -0.0866
 3913SOL    HW123198   1.926   3.644   3.943  1.9785 -2.4145 -3.1016
 3913SOL    HW223199   1.865   3.603   4.065  1.1829 -0.1969  0.2278
 3914SOL     OW23200   3.063   3.787   3.702  0.4241 -0.3553 -0.8674
 3914SOL    HW123201   3.124   3.845   3.656  0.8789  1.0113  1.4426
 3914SOL    HW223202   2.994   3.772   3.637  1.9108 -1.3121 -2.2228
 3915SOL     OW23203   0.229   3.682   5.619  0.3301  0.5417  0.5834
 3915SOL    HW123204   0.148   3.640   5.590  0.0614  1.0918  0.5576
 3915SOL    HW223205   0.277   3.600   5.635 -0.7788 -0.2147  0.0859
 3916SOL     OW23206   3.453   4.534   6.948  0.2804 -0.4206  0.3529
 3916SOL    HW123207   3.504   4.614   6.956  1.5675 -1.2869  1.0034
 3916SOL    HW223208   3.514   4.460   6.940 -0.9719 -1.2575 -1.4577
 3917SOL     OW23209   2.191   0.119   9.555  0.0130  0.4203  0.1998
 3917SOL    HW123210   2.209   0.058   9.483 -0.4205  0.2005  0.2738
 3917SOL    HW223211   2.128   0.178   9.514  0.9082  1.6881  0.6655
 3918SOL     OW23212   1.342   2.980  10.156 -0.1634  0.1024 -0.6225
 3918SOL    HW123213   1.285   3.051  10.188 -0.1454  1.2853 -3.2367
 3918SOL    HW223214   1.388   2.960  10.237  0.8841 -2.1618 -1.7902
 3919SOL     OW23215   1.609   3.399   4.011 -0.3518  0.3597  0.0424
 3919SOL    HW123216   1.616   3.416   4.105  1.9987 -1.3698  0.1703
 3919SOL    HW223217   1.701   3.404   3.984 -0.1119 -0.3267  0.7489
 3920SOL     OW23218   1.426   1.152  13.089 -0.7158  0.3642 -0.0714
 3920SOL    HW123219   1.477   1.153  13.170 -2.0564  1.4021  0.7607
 3920SOL    HW223220   1.438   1.059  13.071  1.8326  1.0916 -2.2206
 3921SOL     OW23221   3.014   0.954  16.075 -0.8505 -0.1670  0.0989
 3921SOL    HW123222   3.084   0.970  16.138  0.2222  1.4658 -1.4883
 3921SOL    HW223223   2.975   1.041  16.066 -1.5216 -0.2838  2.0170
 3922SOL     OW23224   0.361   2.308   6.075  0.2532  0.3595  0.2818
 3922SOL    HW123225   0.327   2.377   6.133 -2.3274 -1.9946  1.5577
 3922SOL    HW223226   0.382   2.366   6.002 -2.2320 -0.2311 -0.8963
 3923SOL     OW23227   0.989   0.784   6.799  0.6278 -0.3974 -0.1844
 3923SOL    HW123228   1.062   0.811   6.742 -0.4219  2.3036 -0.2517
 3923SOL    HW223229   1.041   0.722   6.850  1.8203 -0.1660 -1.1174
 3924SOL     OW23230   2.837   2.739   7.601  0.0004  0.3881  0.2094
 3924SOL    HW123231   2.877   2.757   7.686 -0.8617  2.0647  0.2653
 3924SOL    HW223232   2.779   2.813   7.584 -2.5780 -2.0072 -1.4799
 3925SOL     OW23233   0.796   2.679  12.489  0.0234  0.7020  0.4918
 3925SOL    HW123234   0.763   2.705  12.575 -0.8601  0.9853  0.0711
 3925SOL    HW223235   0.726   2.725  12.443 -1.1237 -1.6525 -0.1366
 3926SOL     OW23236   3.396   1.558   4.455 -0.3989 -0.2478 -0.0914
 3926SOL    HW123237   3.302   1.569   4.442 -0.5969 -2.1630 -0.3037
 3926SOL    HW223238   3.426   1.644   4.486  1.1021 -0.6330 -0.4716
 3927SOL     OW23239   1.033   4.402   5.696 -0.5502  0.1046 -0.0124
 3927SOL    HW123240   0.958   4.346   5.719  0.4515 -1.2535 -0.0364
 3927SOL    HW223241   0.984   4.481   5.675 -1.1369 -0.7605 -1.8827
 3928SOL     OW23242   1.779   1.316   6.078 -0.3118 -0.1263  0.1143
 3928SOL    HW123243   1.809   1.407   6.074  0.4964 -0.4105 -0.2451
 3928SOL    HW223244   1.832   1.280   6.149  1.8128 -2.1373 -2.4768
 3929SOL     OW23245   4.452   4.494   9.051 -0.1306 -0.2420 -0.1548
 3929SOL    HW123246   4.525   4.514   9.109 -1.0394 -1.2260  1.3493
 3929SOL    HW223247   4.383   4.529   9.107  0.1626  0.0253  0.0400
 3930SOL     OW23248   1.381   4.348  10.059 -0.1640  0.1598 -0.8048
 3930SOL    HW123249   1.429   4.427  10.034  0.2972  0.2595  0.3803
 3930SOL    HW223250   1.341   4.323   9.976 -2.7335 -2.5475  1.2219
 3931SOL     OW23251   1.396   1.193   7.700 -0.2883 -0.1818 -0.4762
 3931SOL    HW123252   1.481   1.149   7.705 -1.1000 -1.7885 -0.9096
 3931SOL    HW223253   1.405   1.250   7.776  0.2076  0.9349 -1.3659
 3932SOL     OW23254   3.516   0.038  13.596 -0.5983  0.5495 -0.0093
 3932SOL    HW123255   3.488   0.104  13.660 -1.0728 -2.0003  2.4238
 3932SOL    HW223256   3.574   4.708  13.654 -0.7233  0.3865 -0.0268
 3933SOL     OW23257   1.022   1.016  16.633  0.0972  0.6340  0.2656
 3933SOL    HW123258   0.971   1.006  16.553  1.2414  3.2377 -0.7653
 3933SOL    HW223259   1.003   0.933  16.678 -1.2708  1.4007  1.1101
 3934SOL     OW23260   2.075   3.493  12.111  0.2433 -0.0890  0.2723
 3934SOL    HW123261   1.982   3.506  12.126  0.5283 -0.0178  1.9738
 3934SOL    HW223262   2.121   3.542  12.179 -1.2873  1.6049  0.0774
 3935SOL     OW23263   4.379   2.592   3.081 -0.2018 -0.6320  0.1666
 3935SOL    HW123264   4.445   2.525   3.097  1.1023  0.1373 -1.9456
 3935SOL    HW223265   4.439   2.659   3.048  0.6941 -1.5879 -0.1483
 3936SOL     OW23266   2.319   0.442  13.450  0.5252  0.6027 -0.1088
 3936SOL    HW123267   2.300   0.412  13.539 -0.6864  0.7353 -0.3232
 3936SOL    HW223268   2.350   0.530  13.469  1.4978  0.4392 -0.9675
 3937SOL     OW23269   1.275   3.492   2.793 -0.1749 -0.0898  0.2598
 3937SOL    HW123270   1.192   3.538   2.806 -0.1526  0.3673 -1.2680
 3937SOL    HW223271   1.253   3.419   2.735  1.1360 -0.3103  0.0372
 3938SOL     OW23272   3.999   4.294   8.581  0.1334 -0.2436  0.0938
 3938SOL    HW123273   4.070   4.359   8.580  0.0062 -0.1046  0.2382
 3938SOL    HW223274   3.929   4.346   8.620 -0.7151 -1.0195 -0.4160
 3939SOL     OW23275   0.677   0.274  13.146  0.1593 -0.2913 -0.0578
 3939SOL    HW123276   0.672   0.365  13.116 -1.1498 -1.1724 -2.4417
 3939SOL    HW223277   0.767   0.258  13.117  0.6921 -0.9766  1.9778
 3940SOL     OW23278   1.919   3.056   3.847 -0.1186 -0.5669 -0.2178
 3940SOL    HW123279   1.935   3.148   3.869 -1.3845 -1.0892  2.8396
 3940SOL    HW223280   1.957   3.057   3.759  0.0953  0.6188 -0.1076
 3941SOL     OW23281   1.107   2.325   8.509  0.3483 -0.1044 -0.1198
 3941SOL    HW123282   1.047   2.252   8.518 -0.9397  0.4443 -4.3439
 3941SOL    HW223283   1.109   2.350   8.417  1.2006 -0.0442 -0.0850
 3942SOL     OW23284   3.219   3.018   3.188 -0.0353  0.2594  0.0762
 3942SOL    HW123285   3.313   3.002   3.183 -0.4029 -2.2107  1.0525
 3942SOL    HW223286   3.205   2.981   3.275  0.3088 -2.1732 -0.9093
 3943SOL     OW23287   2.085   1.804   6.992 -0.1587 -0.2676 -0.1559
 3943SOL    HW123288   2.036   1.878   7.027 -1.6763 -0.8771 -0.9860
 3943SOL    HW223289   2.154   1.808   7.058  0.1369  1.1211 -0.5507
 3944SOL     OW23290   2.244   4.464   7.718 -0.1803 -0.1490  0.3860
 3944SOL    HW123291   2.331   4.440   7.747 -0.1357 -0.9031 -0.3891
 3944SOL    HW223292   2.204   4.485   7.803  1.4303  0.7925  0.9067
 3945SOL     OW23293   3.355   2.054   5.152 -0.2661 -0.3385  0.2832
 3945SOL    HW123294   3.430   2.095   5.195 -0.5296 -1.0677  1.4314
 3945SOL    HW223295   3.318   2.022   5.234  0.9228  0.4088  1.1113
 3946SOL     OW23296   1.577   2.516   2.543 -0.0113 -0.6980  0.6706
 3946SOL    HW123297   1.565   2.597   2.495 -1.0070 -1.2776 -0.0532
 3946SOL    HW223298   1.656   2.540   2.591 -0.6073  1.7377  0.4021
 3947SOL     OW23299   2.161   1.310   5.611  0.3433  0.4195 -0.4799
 3947SOL    HW123300   2.194   1.393   5.645 -3.2502  1.1888  1.1671
 3947SOL    HW223301   2.199   1.313   5.524  2.4255 -1.1872  0.3753
 3948SOL     OW23302   1.836   1.180  10.338 -0.0831 -0.4621  0.2948
 3948SOL    HW123303   1.820   1.138  10.254  1.7325 -0.0723 -0.2438
 3948SOL    HW223304   1.881   1.260  10.310 -1.1075 -0.1737 -0.5247
 3949SOL     OW23305   1.371   2.239   9.276  0.0384  0.3495  0.3733
 3949SOL    HW123306   1.460   2.272   9.287 -0.4239  0.7446  2.8710
 3949SOL    HW223307   1.386   2.148   9.250 -1.9446  0.3264 -0.7143
 3950SOL     OW23308   1.286   3.573  12.506  0.2489  0.0418  0.3733
 3950SOL    HW123309   1.231   3.521  12.448 -0.4906  2.7751 -1.3865
 3950SOL    HW223310   1.309   3.646  12.448  0.9941  0.7430  1.5457
 3951SOL     OW23311   3.375   3.684   3.548 -0.6049 -0.1332  0.7404
 3951SOL    HW123312   3.362   3.726   3.633 -0.1263  0.2741  0.6140
 3951SOL    HW223313   3.405   3.763   3.502  0.1403 -0.4232  0.7430
 3952SOL     OW23314   0.267   1.623   7.694  0.3462  0.1504 -0.1864
 3952SOL    HW123315   0.185   1.660   7.662  1.6064  2.3884 -0.7878
 3952SOL    HW223316   0.336   1.626   7.628  0.7017  1.4016  0.2572
 3953SOL     OW23317   2.439   3.773  12.407 -0.5703 -0.1132  0.1474
 3953SOL    HW123318   2.394   3.832  12.467  1.0109  3.0797 -1.8163
 3953SOL    HW223319   2.368   3.716  12.376 -0.6607 -0.6120  1.3023
 3954SOL     OW23320   1.982   4.075   1.216 -0.1118 -0.1370 -0.5931
 3954SOL    HW123321   1.892   4.052   1.193 -0.6964  1.9100 -0.3454
 3954SOL    HW223322   2.041   4.042   1.148  2.1397 -0.8118  1.7049
 3955SOL     OW23323   3.565   3.184   4.844  0.5166  0.6455  0.3732
 3955SOL    HW123324   3.528   3.255   4.792 -0.3503 -0.3029 -0.3119
 3955SOL    HW223325   3.568   3.117   4.776  1.9177  0.8591  0.2326
 3956SOL     OW23326   1.092   4.260   6.972  0.0250 -0.1884 -0.0042
 3956SOL    HW123327   1.163   4.271   6.909 -0.9165  0.3325 -0.9723
 3956SOL    HW223328   1.023   4.270   6.907 -2.5898 -0.4123  2.7415
 3957SOL     OW23329   1.352   2.625  16.353 -0.1287 -0.2827  0.0911
 3957SOL    HW123330   1.417   2.692  16.333 -1.5074  0.3414 -2.3651
 3957SOL    HW223331   1.280   2.649  16.295  1.0126  2.0300 -0.3673
 3958SOL     OW23332   1.291   0.851  12.968 -0.5469  0.6826 -0.5272
 3958SOL    HW123333   1.317   0.778  12.912  0.6758  0.0320  0.8794
 3958SOL    HW223334   1.345   0.846  13.047  0.3094  0.1045 -1.1459
 3959SOL     OW23335   1.690   4.470   7.472 -0.1199 -0.3279  0.0322
 3959SOL    HW123336   1.698   4.410   7.547  1.8500 -0.8847 -0.6276
 3959SOL    HW223337   1.635   4.416   7.414  1.3987 -2.0337  0.1693
 3960SOL     OW23338   1.534   4.068   2.607  0.0918  0.3997 -0.4701
 3960SOL    HW123339   1.518   4.161   2.589 -2.9347 -0.4725 -2.1961
 3960SOL    HW223340   1.477   4.050   2.681  1.7298 -0.6385  0.5535
 3961SOL     OW23341   1.687   3.413   8.535 -0.0603  0.0513  0.3130
 3961SOL    HW123342   1.690   3.468   8.614 -1.4262 -0.6384  0.8541
 3961SOL    HW223343   1.781   3.395   8.536 -0.3433 -1.5224 -0.6376
 3962SOL     OW23344   0.212   2.360   3.677  0.0047  0.0828 -0.2329
 3962SOL    HW123345   0.297   2.333   3.710  0.0403 -1.7154 -1.7572
 3962SOL    HW223346   0.165   2.320   3.750  0.8682 -2.5461 -1.1210
 3963SOL     OW23347   3.351   3.298  12.629 -0.0761 -0.1787 -0.1653
 3963SOL    HW123348   3.392   3.375  12.591 -1.1793  0.3076 -0.3708
 3963SOL    HW223349   3.409   3.278  12.703 -1.3591 -0.9029  0.6438
 3964SOL     OW23350   1.671   4.011  17.639  0.0602  0.1018  0.3357
 3964SOL    HW123351   1.637   4.068   0.023  1.1051 -0.2775  1.1515
 3964SOL    HW223352   1.668   4.060  17.556 -0.5403 -0.8284 -0.2066
 3965SOL     OW23353   3.841   3.523  15.892  0.4091 -0.7584 -0.3236
 3965SOL    HW123354   3.758   3.478  15.875  0.3857 -0.5418 -0.7996
 3965SOL    HW223355   3.883   3.532  15.806  1.5373 -0.5081  0.2653
 3966SOL     OW23356   3.747   1.348   3.894 -0.0422 -0.4206  0.4387
 3966SOL    HW123357   3.767   1.314   3.981 -2.0443 -2.4257  0.1188
 3966SOL    HW223358   3.779   1.437   3.905  0.2546 -0.7183  1.9137
 3967SOL     OW23359   2.514   1.536   1.671  0.1663  0.1480  0.0108
 3967SOL    HW123360   2.524   1.594   1.595  0.7778  1.1872  0.8833
 3967SOL    HW223361   2.603   1.507   1.691  0.4491  0.4875 -0.7378
 3968SOL     OW23362   0.625   1.139  16.531 -0.4401  0.4926  0.6407
 3968SOL    HW123363   0.550   1.116  16.477  0.9286 -0.0230 -1.0426
 3968SOL    HW223364   0.648   1.053  16.567  3.5744  0.5578 -1.7737
 3969SOL     OW23365   1.364   1.286   2.985 -0.1174 -0.7864  0.0236
 3969SOL    HW123366   1.376   1.303   2.891 -0.6496  1.7241  0.4050
 3969SOL    HW223367   1.452   1.268   3.018 -1.2761 -0.7675  3.1470
 3970SOL     OW23368   2.189   3.284   6.104 -0.3466 -0.2543  0.0903
 3970SOL    HW123369   2.270   3.330   6.125  0.8384 -2.4712  0.3218
 3970SOL    HW223370   2.119   3.344   6.131 -0.5786  0.1995 -1.5293
 3971SOL     OW23371   4.581   0.187   5.651 -0.3764 -0.4135  0.4577
 3971SOL    HW123372   4.592   0.239   5.731 -2.8905 -1.1202  1.2860
 3971SOL    HW223373   4.668   0.162   5.622 -0.4564  0.1375 -0.2579
 3972SOL     OW23374   4.474   1.342   6.019 -0.6473  0.1814 -0.3498
 3972SOL    HW123375   4.501   1.434   6.024  2.4692 -0.6445 -2.0759
 3972SOL    HW223376   4.523   1.315   6.096  1.0184  0.7567 -1.1757
 3973SOL     OW23377   1.990   3.879   5.591 -0.1347  0.0803  0.5924
 3973SOL    HW123378   2.070   3.840   5.557 -0.1623 -2.0835  3.0785
 3973SOL    HW223379   1.932   3.805   5.573  0.6424 -1.0346  2.8584
 3974SOL     OW23380   0.127   4.708  12.334 -0.3042  0.6329 -0.2369
 3974SOL    HW123381   0.091   0.049  12.398 -0.7936  2.3178 -2.1155
 3974SOL    HW223382   0.213   0.023  12.310  0.6867 -0.1277  2.2581
 3975SOL     OW23383   0.802   3.526  11.582 -0.4862 -0.6428  0.2408
 3975SOL    HW123384   0.824   3.505  11.491  0.5720 -0.8416  0.5375
 3975SOL    HW223385   0.875   3.581  11.612  0.5477 -1.7652 -0.1747
 3976SOL     OW23386   3.509   3.040   7.005  0.0459  0.4297 -0.1630
 3976SOL    HW123387   3.508   2.994   7.089  0.6381 -1.9013 -1.4070
 3976SOL    HW223388   3.595   3.006   6.977 -0.6437 -0.9238 -0.6405
 3977SOL     OW23389   3.214   2.659   7.400 -0.2557  0.3329  0.2635
 3977SOL    HW123390   3.184   2.743   7.366 -2.0818 -0.1131  0.7716
 3977SOL    HW223391   3.202   2.676   7.494 -2.6588 -0.9584  0.2055
 3978SOL     OW23392   1.731   0.498   9.072 -0.0182  0.0808  0.3746
 3978SOL    HW123393   1.643   0.471   9.100  0.4284 -1.2406  0.5046
 3978SOL    HW223394   1.754   0.563   9.139  0.6326  0.1759  0.0603
 3979SOL     OW23395   4.206   3.950   7.118 -0.2477 -0.5436  0.2181
 3979SOL    HW123396   4.293   3.940   7.079 -0.0107 -2.1014  1.1569
 3979SOL    HW223397   4.172   3.861   7.114 -0.4973 -0.3656 -1.7631
 3980SOL     OW23398   4.023   4.367   2.364  0.3976  0.6466 -0.1225
 3980SOL    HW123399   4.071   4.376   2.282 -0.1958  1.3893 -0.3841
 3980SOL    HW223400   4.053   4.441   2.418 -0.5912  0.5162  0.5928
 3981SOL     OW23401   4.446   0.479  16.641 -0.2831 -0.0546 -0.6909
 3981SOL    HW123402   4.502   0.431  16.701 -2.8967 -1.5660  0.5285
 3981SOL    HW223403   4.361   0.458  16.681 -1.0598 -1.3395 -2.9993
 3982SOL     OW23404   0.628   4.279   4.740 -0.3662 -0.0376  0.3309
 3982SOL    HW123405   0.580   4.361   4.752 -1.7197 -0.7150 -0.4500
 3982SOL    HW223406   0.593   4.254   4.654  0.8872 -1.1092  0.1244
 3983SOL     OW23407   2.922   1.540   9.069  0.1346 -0.0230 -0.1943
 3983SOL    HW123408   2.942   1.462   9.121  0.9920 -0.3230 -0.9822
 3983SOL    HW223409   3.004   1.550   9.021 -0.8825 -0.9177 -2.1453
 3984SOL     OW23410   0.542   0.485  14.743 -0.0926 -0.1762  0.2888
 3984SOL    HW123411   0.514   0.484  14.652  1.5940  0.4097 -0.2310
 3984SOL    HW223412   0.487   0.554  14.780 -1.3557 -0.4021 -1.1838
 3985SOL     OW23413   2.525   4.455   0.465 -0.2664 -0.2628  0.3961
 3985SOL    HW123414   2.534   4.392   0.536 -2.1926 -0.2592  0.6503
 3985SOL    HW223415   2.538   4.398   0.389 -0.2670 -0.0378  0.2265
 3986SOL     OW23416   1.594   2.841  12.943  0.2322 -0.3030  0.2073
 3986SOL    HW123417   1.616   2.788  13.020 -0.5405  1.5496  1.7112
 3986SOL    HW223418   1.659   2.811  12.880  0.3374 -0.8273  0.5570
 3987SOL     OW23419   0.588   3.428   3.603 -0.2624 -0.0172  0.5192
 3987SOL    HW123420   0.587   3.336   3.630  4.0229 -0.8633 -2.0743
 3987SOL    HW223421   0.572   3.470   3.688 -1.3575 -0.3069  0.4506
 3988SOL     OW23422   3.673   0.843  13.762 -0.0255 -0.5603  0.1680
 3988SOL    HW123423   3.635   0.766  13.805 -0.1268 -0.7275 -0.2259
 3988SOL    HW223424   3.728   0.878  13.832  0.5251 -2.9584  0.9367
 3989SOL     OW23425   1.500   3.213  15.403 -0.0266  0.3707 -0.1308
 3989SOL    HW123426   1.406   3.208  15.423  0.2561 -0.0224  1.1250
 3989SOL    HW223427   1.512   3.277  15.333  1.2441  0.4085  0.1290
 3990SOL     OW23428   0.621   0.678  16.366 -0.4332  0.1459  0.0199
 3990SOL    HW123429   0.613   0.700  16.273 -0.4168  0.4432  0.0912
 3990SOL    HW223430   0.648   0.586  16.366  2.6845  1.0452 -2.3245
 3991SOL     OW23431   2.223   0.694  13.770  0.0926 -0.2950  0.1823
 3991SOL    HW123432   2.226   0.765  13.706  0.7476 -1.1093 -0.6916
 3991SOL    HW223433   2.163   0.640  13.719  1.0053  0.0288 -1.2335
 3992SOL     OW23434   2.677   0.119   9.223  0.4793  0.3776 -0.6894
 3992SOL    HW123435   2.727   0.052   9.177 -1.0759 -1.7118  0.6107
 3992SOL    HW223436   2.592   0.118   9.179 -0.0501  0.5684  0.3193
 3993SOL     OW23437   2.419   4.447   1.583  0.2669  0.4311  0.1807
 3993SOL    HW123438   2.391   4.459   1.673  0.0811 -2.4104  0.4827
 3993SOL    HW223439   2.501   4.399   1.596 -2.0100 -2.5182  3.3450
 3994SOL     OW23440   2.228   3.131  11.647 -0.2433  0.3211  0.0411
 3994SOL    HW123441   2.318   3.148  11.621 -0.8079  0.8137 -1.6008
 3994SOL    HW223442   2.239   3.160  11.737  1.4168  2.3143 -0.8195
 3995SOL     OW23443   4.170   1.614  11.721  0.1810  0.3787 -0.6443
 3995SOL    HW123444   4.241   1.551  11.709 -0.0004  0.1590 -0.5651
 3995SOL    HW223445   4.210   1.693  11.686 -1.5079  1.1878 -0.7405
 3996SOL     OW23446   3.821   3.900   3.440 -0.1016 -0.5327 -0.8136
 3996SOL    HW123447   3.849   3.942   3.359 -0.0049 -2.3228 -1.7081
 3996SOL    HW223448   3.869   3.818   3.428 -0.0752 -0.7958  0.9783
 3997SOL     OW23449   2.852   1.497   4.995  0.1271  0.1884 -0.7012
 3997SOL    HW123450   2.902   1.578   4.986  1.4801 -0.6906 -1.1280
 3997SOL    HW223451   2.912   1.428   5.026  0.1095  0.8084  0.7006
 3998SOL     OW23452   2.831   4.249   6.628  0.4440  0.3833  0.6106
 3998SOL    HW123453   2.880   4.326   6.657  2.9301 -0.6604 -0.7822
 3998SOL    HW223454   2.740   4.275   6.640  0.4882  0.3548  0.9805
 3999SOL     OW23455   1.556   3.197  11.583 -0.5075 -0.2418  0.1745
 3999SOL    HW123456   1.646   3.214  11.611  0.2658 -0.3131 -2.2005
 3999SOL    HW223457   1.503   3.259  11.633  1.4013  0.1483  1.6992
 4000SOL     OW23458   2.709   0.294   1.240 -0.7995 -0.6967  0.1955
 4000SOL    HW123459   2.659   0.355   1.294 -0.4395 -0.0771 -0.1661
 4000SOL    HW223460   2.707   0.344   1.159  1.4439 -0.5369  0.2331
 4001SOL     OW23461   1.749   0.814   5.947 -0.1447  0.3113 -0.0406
 4001SOL    HW123462   1.696   0.885   5.911  2.5821  1.7511 -1.1608
 4001SOL    HW223463   1.834   0.848   5.921  0.7873 -1.5355  0.5995
 4002SOL     OW23464   1.083   2.380   8.261  0.3296  0.0783 -0.4852
 4002SOL    HW123465   1.035   2.461   8.243  0.5970  0.4615  0.4914
 4002SOL    HW223466   1.095   2.346   8.172 -1.0258 -2.0431  0.1433
 4003SOL     OW23467   0.808   2.977   8.528  0.1745 -0.2264 -0.2864
 4003SOL    HW123468   0.847   3.050   8.575  0.1459 -0.5046  0.1684
 4003SOL    HW223469   0.871   2.905   8.539  1.2224  1.1152  2.3112
 4004SOL     OW23470   4.301   0.227   3.990 -0.1670 -0.3355 -0.0778
 4004SOL    HW123471   4.254   0.309   3.971  0.9935  0.0940 -1.1106
 4004SOL    HW223472   4.241   0.163   3.951  0.3568  0.0238 -1.4719
 4005SOL     OW23473   3.725   1.477   6.202 -0.5506  0.5157  0.4378
 4005SOL    HW123474   3.804   1.528   6.220  0.5363 -1.2982  0.8365
 4005SOL    HW223475   3.677   1.538   6.147 -0.9335  0.6967  0.9721
 4006SOL     OW23476   1.064   2.775   6.436  0.0406  0.7767  0.3102
 4006SOL    HW123477   1.158   2.764   6.429 -0.4373 -1.8762 -1.6315
 4006SOL    HW223478   1.053   2.715   6.510 -0.9271  1.2473  0.5603
 4007SOL     OW23479   0.476   1.882   5.068  0.2102  0.0244 -0.5163
 4007SOL    HW123480   0.564   1.896   5.102  0.4357 -0.1338 -1.0407
 4007SOL    HW223481   0.504   1.820   5.001  0.6206  3.2111 -3.2591
 4008SOL     OW23482   4.164   2.973  16.100 -0.0353  0.6883  0.0744
 4008SOL    HW123483   4.159   3.068  16.097  0.5587  0.7196 -0.0842
 4008SOL    HW223484   4.105   2.946  16.170 -0.2686 -0.6186 -0.6105
 4009SOL     OW23485   0.906   0.662  10.117  0.1641  0.4915  0.0248
 4009SOL    HW123486   0.937   0.683  10.206 -4.5940  1.1937  1.5566
 4009SOL    HW223487   0.865   0.745  10.093 -1.9541 -0.9835 -1.4547
 4010SOL     OW23488   1.892   2.030   8.178  0.2442  0.1308 -0.1684
 4010SOL    HW123489   1.842   2.040   8.259  1.7395 -1.3998  0.9385
 4010SOL    HW223490   1.976   2.070   8.204  0.6148 -0.0367 -1.1285
 4011SOL     OW23491   3.547   3.905   1.829  0.2765  0.3729 -0.1508
 4011SOL    HW123492   3.490   3.900   1.905  0.9294  0.3953  0.3339
 4011SOL    HW223493   3.599   3.828   1.849 -0.4598 -0.6748 -2.2205
 4012SOL     OW23494   2.871   1.297   2.719 -0.2178 -0.1781 -0.0594
 4012SOL    HW123495   2.855   1.391   2.724 -0.8893 -0.4165  2.0990
 4012SOL    HW223496   2.948   1.294   2.775 -0.5567 -2.0507  0.2980
 4013SOL     OW23497   2.074   4.485   2.938 -0.2095  0.0722 -0.3090
 4013SOL    HW123498   2.159   4.468   2.979 -0.3499 -0.8723 -0.4297
 4013SOL    HW223499   2.037   4.549   2.999 -0.2541  1.1543 -1.4681
 4014SOL     OW23500   1.320   0.450  12.309 -0.6794 -0.4655 -0.3884
 4014SOL    HW123501   1.372   0.376  12.279  0.7475  1.1661 -1.9067
 4014SOL    HW223502   1.376   0.465  12.385  1.7151  0.4542 -2.3392
 4015SOL     OW23503   2.439   3.792   6.484  0.1174 -0.0845 -0.7080
 4015SOL    HW123504   2.430   3.803   6.389  2.8255 -0.0310 -0.9523
 4015SOL    HW223505   2.441   3.885   6.507 -0.6019 -0.0335 -0.8429
 4016SOL     OW23506   1.194   0.837   6.626  0.1316  0.2842 -0.8565
 4016SOL    HW123507   1.268   0.868   6.677 -1.0803  0.5278  0.7423
 4016SOL    HW223508   1.187   0.897   6.551  1.1254  1.6085  0.1150
 4017SOL     OW23509   1.917   1.765   7.264  0.2454 -0.3194 -0.3866
 4017SOL    HW123510   1.852   1.717   7.212 -0.9755 -1.0200  1.7638
 4017SOL    HW223511   1.871   1.843   7.294 -0.3452 -0.1183 -1.7960
 4018SOL     OW23512   0.202   4.626   7.421 -0.0963 -0.2178 -0.3125
 4018SOL    HW123513   0.144   4.570   7.473  0.4419 -0.8018 -0.3385
 4018SOL    HW223514   0.166   4.604   7.334 -0.7393 -0.5946  0.0479
 4019SOL     OW23515   1.803   2.947  11.670 -0.3041 -0.1177 -0.0658
 4019SOL    HW123516   1.885   2.994  11.687 -0.6958  0.5883 -0.0962
 4019SOL    HW223517   1.754   2.962  11.752 -0.4584  0.5395 -0.2721
 4020SOL     OW23518   0.464   0.163   4.316  0.0294  0.1649 -0.0246
 4020SOL    HW123519   0.457   0.075   4.278  1.4310  0.6884 -1.4580
 4020SOL    HW223520   0.449   0.137   4.407 -1.1095 -1.4982 -0.6775
 4021SOL     OW23521   0.859   3.247   7.546 -0.4712  0.1417 -0.1654
 4021SOL    HW123522   0.816   3.192   7.481 -1.7625  1.4742 -0.4519
 4021SOL    HW223523   0.818   3.334   7.539 -0.6319  0.1294  0.5865
 4022SOL     OW23524   4.306   4.298   3.571 -0.3244  0.0128 -0.4074
 4022SOL    HW123525   4.338   4.210   3.554 -3.8733 -1.2630 -0.4470
 4022SOL    HW223526   4.224   4.297   3.521  0.6979 -2.0505 -2.0022
 4023SOL     OW23527   3.980   1.927   3.698 -0.3553 -0.1995 -0.3855
 4023SOL    HW123528   3.917   1.946   3.628  0.1749  0.5121 -0.6709
 4023SOL    HW223529   4.056   1.957   3.648  0.5413  0.7310  1.5456
 4024SOL     OW23530   0.697   3.564   2.798 -0.3102  0.3288 -0.2117
 4024SOL    HW123531   0.656   3.497   2.853  1.4681  0.6168  1.4646
 4024SOL    HW223532   0.654   3.643   2.831 -0.3538  1.0457 -1.9747
 4025SOL     OW23533   4.131   2.702  17.058  0.0559  0.1794 -0.8189
 4025SOL    HW123534   4.078   2.750  16.994 -0.9567 -0.3555 -0.3777
 4025SOL    HW223535   4.103   2.614  17.034  0.6211 -0.3395  0.4697
 4026SOL     OW23536   4.396   4.175   2.431  0.1084 -0.3989  0.0586
 4026SOL    HW123537   4.323   4.162   2.371 -0.3856 -2.0573  1.0493
 4026SOL    HW223538   4.358   4.231   2.498 -0.0055 -0.0182 -0.3185
 4027SOL     OW23539   4.299   1.985   6.341 -0.1978  0.0988  0.9795
 4027SOL    HW123540   4.290   2.026   6.427 -1.1875 -0.0227  0.9287
 4027SOL    HW223541   4.231   1.919   6.356  1.8000 -1.8452  1.4786
 4028SOL     OW23542   0.400   2.311   6.546 -0.1260  0.0161  0.1467
 4028SOL    HW123543   0.493   2.328   6.560 -0.9059  2.1908  2.6296
 4028SOL    HW223544   0.396   2.268   6.461 -1.4187 -1.0240  0.7430
 4029SOL     OW23545   1.210   3.304  10.894  0.0046  0.8344  0.2163
 4029SOL    HW123546   1.284   3.277  10.949  1.1227  0.4996 -1.4499
 4029SOL    HW223547   1.253   3.301  10.809  0.7674 -0.1113  0.6305
 4030SOL     OW23548   3.336   0.453  11.074  0.1258  0.0159  0.1420
 4030SOL    HW123549   3.424   0.426  11.049 -0.4305  0.0093 -1.8098
 4030SOL    HW223550   3.355   0.536  11.117  1.1235 -0.2491  0.2003
 4031SOL     OW23551   3.715   0.286  17.666  0.1186 -0.3585  0.0993
 4031SOL    HW123552   3.717   0.367   0.032 -0.3245  0.2404 -0.8432
 4031SOL    HW223553   3.769   0.307  17.589  0.0172  0.4243  0.2386
 4032SOL     OW23554   3.193   3.062   7.869 -0.6309 -0.0855  0.5119
 4032SOL    HW123555   3.249   3.028   7.939 -1.0256  0.5097  1.1208
 4032SOL    HW223556   3.224   3.153   7.865  0.8866 -0.6457 -0.5198
 4033SOL     OW23557   3.940   4.423   2.664  0.3383 -0.1560 -0.0445
 4033SOL    HW123558   3.998   4.365   2.713  0.9435  1.9699  1.7284
 4033SOL    HW223559   3.871   4.442   2.727  1.7809 -0.9740  1.7863
 4034SOL     OW23560   1.873   1.138   8.981  0.1099  0.3038  0.1818
 4034SOL    HW123561   1.874   1.220   9.030  1.1719 -0.4568  1.4352
 4034SOL    HW223562   1.963   1.128   8.952  0.6239 -1.7040  2.4078
 4035SOL     OW23563   3.368   1.780   2.169 -0.5980 -0.1387  0.2832
 4035SOL    HW123564   3.336   1.696   2.137  4.5882 -2.1796  0.4161
 4035SOL    HW223565   3.397   1.825   2.090  1.0726  0.1012  1.0288
 4036SOL     OW23566   0.439   0.544   0.348 -1.0449  0.9268  0.0469
 4036SOL    HW123567   0.407   0.454   0.338  0.0139  0.2444  2.6705
 4036SOL    HW223568   0.363   0.580   0.393 -0.7043  0.7787  0.7398
 4037SOL     OW23569   1.210   2.736  13.123  0.5255  0.0787  0.2129
 4037SOL    HW123570   1.271   2.790  13.174  0.7492 -0.0172  0.0438
 4037SOL    HW223571   1.126   2.764  13.159  0.6723  0.7146  0.0636
 4038SOL     OW23572   3.115   1.587   4.348 -0.7170  0.3765  0.4623
 4038SOL    HW123573   3.069   1.510   4.315  0.6652 -0.8390  1.3549
 4038SOL    HW223574   3.100   1.653   4.281  0.9676 -0.0256 -0.3277
 4039SOL     OW23575   0.793   1.320   9.680  0.4905  0.0057 -0.6685
 4039SOL    HW123576   0.835   1.323   9.594  1.3172  0.1746 -0.2555
 4039SOL    HW223577   0.727   1.253   9.662  0.3425 -0.0129 -0.0634
 4040SOL     OW23578   4.444   1.512   4.915 -0.5829  0.1704  0.4028
 4040SOL    HW123579   4.355   1.547   4.928  0.0902  2.3525 -0.7252
 4040SOL    HW223580   4.427   1.420   4.898 -0.9545  0.2407  0.3897
 4041SOL     OW23581   2.710   1.180  12.817  0.5405 -0.3781 -0.3411
 4041SOL    HW123582   2.743   1.091  12.828  0.0164 -0.2776  2.0537
 4041SOL    HW223583   2.695   1.188  12.723 -0.7744 -0.1669 -0.1191
 4042SOL     OW23584   4.130   1.354  11.834  0.6830 -0.4468 -0.5621
 4042SOL    HW123585   4.113   1.444  11.864  0.2122 -0.9738  0.7925
 4042SOL    HW223586   4.205   1.326  11.887 -1.6024  0.0236  2.9975
 4043SOL     OW23587   3.023   2.132   4.604  0.3928  0.2036 -0.2857
 4043SOL    HW123588   2.997   2.199   4.667 -1.9777  0.6377 -1.7376
 4043SOL    HW223589   2.960   2.142   4.532 -0.2525 -1.0486  0.0910
 4044SOL     OW23590   1.794   2.478  17.490 -0.1159 -0.4981  0.1659
 4044SOL    HW123591   1.860   2.498  17.424 -0.5593  0.1338 -0.0845
 4044SOL    HW223592   1.757   2.565  17.502  0.1789 -0.3809  0.2393
 4045SOL     OW23593   2.204   3.273   3.177  0.1659  0.2726 -0.2740
 4045SOL    HW123594   2.157   3.306   3.254 -0.7470  0.4000 -0.8943
 4045SOL    HW223595   2.258   3.196   3.198  0.4981  0.0389 -1.9730
 4046SOL     OW23596   3.369   1.835   3.141  0.3095  0.2222  0.4432
 4046SOL    HW123597   3.424   1.886   3.201 -0.3989  1.9089 -0.3539
 4046SOL    HW223598   3.413   1.750   3.142 -0.8721 -0.3438  3.0102
 4047SOL     OW23599   0.138   0.004   6.917  0.1316  0.2691 -0.1121
 4047SOL    HW123600   0.175   0.016   6.830  0.0698  0.1916 -0.1485
 4047SOL    HW223601   0.192   0.055   6.978  0.0026  0.6718 -0.3403
 4048SOL     OW23602   3.627   2.968   7.729  0.4054 -0.0149 -0.2603
 4048SOL    HW123603   3.533   2.982   7.713  0.5996 -0.7707 -1.9911
 4048SOL    HW223604   3.626   2.944   7.822 -0.1714  1.8241  0.2155
 4049SOL     OW23605   3.043   0.297   5.096  0.2254  0.3410  0.0580
 4049SOL    HW123606   2.965   0.305   5.042 -0.2256  1.6833  0.9143
 4049SOL    HW223607   3.051   0.378   5.146  0.2472  0.5335 -0.2632
 4050SOL     OW23608   3.975   2.654   9.095 -0.2443  0.3222 -0.0209
 4050SOL    HW123609   4.052   2.631   9.145 -1.7207 -3.2180  0.6352
 4050SOL    HW223610   3.909   2.593   9.128  0.4455  0.9512  2.4696
 4051SOL     OW23611   1.426   0.443  13.035 -0.5709  0.0546  0.5631
 4051SOL    HW123612   1.359   0.409  13.094 -0.5392 -0.5289  0.2629
 4051SOL    HW223613   1.482   0.503  13.083  2.4533 -3.0206  0.8607
 4052SOL     OW23614   3.032   0.608   3.868  0.2106  0.5154 -0.4267
 4052SOL    HW123615   3.080   0.606   3.951 -3.0556 -2.4036  1.3923
 4052SOL    HW223616   2.951   0.564   3.895  1.0004 -1.7233 -1.7190
 4053SOL     OW23617   3.401   2.013   0.008  0.0921  0.4225 -0.5017
 4053SOL    HW123618   3.343   2.072  17.645  0.3539 -0.0888 -1.4445
 4053SOL    HW223619   3.438   2.080   0.066 -0.7249  0.4459  0.0013
 4054SOL     OW23620   1.481   4.383   8.949  0.1998 -0.5092 -0.0954
 4054SOL    HW123621   1.539   4.459   8.954 -0.3360 -0.2308  1.7475
 4054SOL    HW223622   1.506   4.344   9.033  1.1388  0.9938  0.3236
 4055SOL     OW23623   2.997   4.338   1.420  0.4634  0.1278 -0.5544
 4055SOL    HW123624   2.997   4.432   1.403 -0.1164  1.0058  4.1723
 4055SOL    HW223625   2.914   4.320   1.465 -0.2508 -1.0155 -2.3209
 4056SOL     OW23626   2.319   3.373   5.808 -0.3368 -0.4094 -0.5873
 4056SOL    HW123627   2.316   3.456   5.855 -1.5287 -0.0246 -1.3383
 4056SOL    HW223628   2.364   3.397   5.727  0.4783  1.4583  0.4283
 4057SOL     OW23629   4.538   2.877   0.088 -0.2321 -0.2626  0.6472
 4057SOL    HW123630   4.518   2.795   0.134 -0.7078 -0.6130 -0.1808
 4057SOL    HW223631   4.554   2.841   0.001 -1.2011  1.0835 -0.0806
 4058SOL     OW23632   2.619   0.386   9.817 -0.0504  0.0185  0.0782
 4058SOL    HW123633   2.676   0.385   9.894 -1.2033  0.7849  0.9431
 4058SOL    HW223634   2.688   0.384   9.750  0.3933  1.6438  0.4826
 4059SOL     OW23635   2.850   0.774  17.466 -0.1464  0.4303  0.5346
 4059SOL    HW123636   2.760   0.768  17.499 -0.6497 -1.7654 -1.2348
 4059SOL    HW223637   2.892   0.720  17.532  0.5130  1.1173  0.6801
 4060SOL     OW23638   4.545   0.568   6.835 -0.0358  0.2223 -0.6389
 4060SOL    HW123639   4.455   0.537   6.845  0.3839 -1.1266 -1.0637
 4060SOL    HW223640   4.561   0.605   6.922 -0.8074  0.4238 -0.5806
 4061SOL     OW23641   1.520   2.113  13.001 -0.1180  0.2834 -0.3245
 4061SOL    HW123642   1.519   2.075  12.913 -2.0814  1.8547 -0.9752
 4061SOL    HW223643   1.428   2.110  13.026  0.3011 -0.2704  1.2133
 4062SOL     OW23644   3.000   2.293   3.546 -0.2081  0.2458 -0.2052
 4062SOL    HW123645   3.087   2.326   3.571 -1.0618  0.9425  1.8142
 4062SOL    HW223646   2.939   2.366   3.556  1.5015  1.6415  0.1733
 4063SOL     OW23647   2.271   1.689  11.219 -0.1420 -0.2214 -0.1270
 4063SOL    HW123648   2.336   1.745  11.175 -1.2738  1.3168  0.1613
 4063SOL    HW223649   2.267   1.610  11.165 -0.0913 -0.1898 -0.1768
 4064SOL     OW23650   1.548   1.485   5.837  0.6271 -0.0573  0.2106
 4064SOL    HW123651   1.640   1.471   5.815  0.1012 -2.0533 -0.7139
 4064SOL    HW223652   1.533   1.405   5.888 -0.1473  0.4725  0.8277
 4065SOL     OW23653   0.785   0.618   7.133  0.8599 -0.2423  0.2538
 4065SOL    HW123654   0.746   0.667   7.060  2.1624  0.7882  0.2433
 4065SOL    HW223655   0.830   0.555   7.076 -0.2096 -1.5977  0.9146
 4066SOL     OW23656   3.291   3.219   6.215 -0.0793  1.1393 -0.2878
 4066SOL    HW123657   3.327   3.218   6.304 -0.3742  3.0962 -0.1337
 4066SOL    HW223658   3.319   3.308   6.192  0.8895  1.0520  0.5488
 4067SOL     OW23659   4.181   0.593   0.504 -0.6706  0.2630 -0.2888
 4067SOL    HW123660   4.223   0.566   0.423  0.6307  2.0011 -0.2129
 4067SOL    HW223661   4.176   0.688   0.490  1.1385  0.4784  0.4782
 4068SOL     OW23662   1.955   1.573   6.938 -0.1937 -0.4170 -0.0284
 4068SOL    HW123663   2.026   1.633   6.959  0.9112 -1.1745 -1.6153
 4068SOL    HW223664   1.943   1.606   6.849  1.2038 -0.6046 -0.2803
 4069SOL     OW23665   2.405   3.152   9.171  0.0835  0.3903 -0.1950
 4069SOL    HW123666   2.437   3.063   9.185  1.4100  1.3262  2.9588
 4069SOL    HW223667   2.443   3.189   9.251  1.4616 -0.1203 -0.6129
 4070SOL     OW23668   4.168   3.130   8.833 -0.1380  0.4249 -0.2847
 4070SOL    HW123669   4.227   3.118   8.907  0.5048  1.5866 -0.5999
 4070SOL    HW223670   4.210   3.074   8.768  1.9603  0.5389  0.9964
 4071SOL     OW23671   2.202   3.650   2.584 -0.2688  0.3063 -0.6163
 4071SOL    HW123672   2.193   3.740   2.618 -1.6415 -0.2356  0.4457
 4071SOL    HW223673   2.235   3.677   2.498  1.6447 -1.5212 -0.4612
 4072SOL     OW23674   3.168   2.279  16.678  0.8627 -0.3538 -0.2826
 4072SOL    HW123675   3.136   2.353  16.627  1.4285 -0.8049 -1.3083
 4072SOL    HW223676   3.183   2.327  16.760 -1.8950 -0.7106  0.4331
 4073SOL     OW23677   3.054   4.337   0.415  0.3118 -0.6404  0.4264
 4073SOL    HW123678   3.128   4.280   0.391 -0.0262 -1.2294  0.7720
 4073SOL    HW223679   3.097   4.399   0.474 -2.4661  2.5571 -0.9338
 4074SOL     OW23680   3.300   1.749   0.058 -0.3671 -0.5932  0.0662
 4074SOL    HW123681   3.385   1.706   0.048  0.3118  0.8371 -0.4181
 4074SOL    HW223682   3.324   1.841   0.044 -1.5615 -0.2008  0.6722
 4075SOL     OW23683   2.649   4.612   0.837 -0.4847 -0.3813  0.3453
 4075SOL    HW123684   2.565   4.656   0.852  0.1625  1.7043 -2.0291
 4075SOL    HW223685   2.704   4.660   0.899 -1.1884 -0.1027  0.7611
 4076SOL     OW23686   2.393   2.635  16.580  0.5765  0.6518 -0.3734
 4076SOL    HW123687   2.365   2.543  16.576  1.3272  0.3916  0.2524
 4076SOL    HW223688   2.338   2.672  16.650 -0.7865 -3.8127  0.9352
 4077SOL     OW23689   1.094   2.174   4.101 -0.7073  0.3408 -0.1817
 4077SOL    HW123690   1.183   2.201   4.125 -0.9769  0.7189  0.3803
 4077SOL    HW223691   1.122   2.120   4.027 -1.9447 -0.2430 -0.2198
 4078SOL     OW23692   1.623   1.588  11.117 -0.8315  0.3659  0.0337
 4078SOL    HW123693   1.711   1.556  11.138 -0.6528 -0.1562 -1.5209
 4078SOL    HW223694   1.635   1.676  11.152  1.8800 -0.4865  1.1808
 4079SOL     OW23695   3.000   3.833  13.115  0.1797  0.3951 -0.1475
 4079SOL    HW123696   3.027   3.919  13.083 -1.2535  0.8242 -0.2142
 4079SOL    HW223697   2.907   3.833  13.095 -0.1920  0.6840  1.5954
 4080SOL     OW23698   4.645   3.684  15.475  0.5034 -0.2010 -0.0916
 4080SOL    HW123699   4.575   3.675  15.541  0.3496 -0.2405 -0.2591
 4080SOL    HW223700   4.692   3.601  15.479 -1.0168 -1.0457  0.6075
 4081SOL     OW23701   2.902   1.229  13.852  0.1342 -0.2372 -0.8637
 4081SOL    HW123702   2.857   1.145  13.860  0.3203 -0.4127 -1.6454
 4081SOL    HW223703   2.831   1.293  13.859 -0.1676 -0.7776  1.0851
 4082SOL     OW23704   0.930   4.550   4.888 -0.1518  0.4128  0.3080
 4082SOL    HW123705   0.967   4.625   4.935  1.2159  0.9090 -1.5661
 4082SOL    HW223706   0.970   4.544   4.801 -0.2881  0.5852  0.2334
 4083SOL     OW23707   3.510   0.130   1.504 -0.6271  0.2811  0.5448
 4083SOL    HW123708   3.471   0.096   1.424  0.2088  0.1431  0.1992
 4083SOL    HW223709   3.527   0.221   1.480  2.8327 -0.5014 -0.0537
 4084SOL     OW23710   3.414   3.121   5.537 -0.5257  0.2820  0.0581
 4084SOL    HW123711   3.505   3.091   5.546 -0.5305  1.0658  2.7383
 4084SOL    HW223712   3.409   3.154   5.627 -1.5705 -1.8912  0.7926
 4085SOL     OW23713   1.857   3.993   5.271  0.0437  0.5588  0.3419
 4085SOL    HW123714   1.838   4.059   5.337 -0.7369 -0.7065  1.3874
 4085SOL    HW223715   1.815   3.917   5.312 -0.4968  0.9857  0.5811
 4086SOL     OW23716   0.789   2.567   6.698  0.5286 -0.2733  0.2233
 4086SOL    HW123717   0.762   2.495   6.755 -0.7268  0.7101  0.8809
 4086SOL    HW223718   0.819   2.633   6.761  2.5814 -0.4851 -0.5411
 4087SOL     OW23719   2.903   3.227  16.748  0.5358  0.0821  0.6700
 4087SOL    HW123720   2.894   3.153  16.808 -0.6486 -0.6972 -0.4581
 4087SOL    HW223721   2.910   3.301  16.808  0.9047  0.9042 -0.3786
 4088SOL     OW23722   1.677   1.593  15.498 -0.1754 -0.0608 -0.2124
 4088SOL    HW123723   1.726   1.514  15.520 -0.8555 -1.0043 -2.1008
 4088SOL    HW223724   1.743   1.662  15.500  0.6725 -0.8447 -0.8458
 4089SOL     OW23725   1.630   0.340   3.432 -0.4174  0.1857 -0.6587
 4089SOL    HW123726   1.706   0.283   3.421 -0.1656  0.7055 -1.6206
 4089SOL    HW223727   1.558   0.279   3.447  2.4012 -2.8719  0.4705
 4090SOL     OW23728   2.737   2.242   6.465  0.1570  0.4003  0.5455
 4090SOL    HW123729   2.706   2.192   6.389  0.2899  0.8232  0.2119
 4090SOL    HW223730   2.766   2.320   6.418 -0.3626  0.8373  0.9511
 4091SOL     OW23731   0.313   1.105   6.723  0.1286  0.5334  0.0200
 4091SOL    HW123732   0.282   1.195   6.729 -1.2600 -0.0691  1.9028
 4091SOL    HW223733   0.377   1.127   6.655  2.5333 -2.2917  1.3535
 4092SOL     OW23734   0.818   2.861  10.724  0.7860 -0.1791 -0.1565
 4092SOL    HW123735   0.900   2.879  10.769  0.6917 -0.2333  0.0372
 4092SOL    HW223736   0.816   2.943  10.673  0.6529  0.6642  1.2046
 4093SOL     OW23737   2.670   1.442   9.041  0.1700 -0.5049 -0.4557
 4093SOL    HW123738   2.628   1.528   9.032 -0.6700 -0.7843  0.8077
 4093SOL    HW223739   2.763   1.466   9.043 -0.4449  1.6731  1.8065
 4094SOL     OW23740   4.581   2.190   2.513  0.6138 -0.0702  0.1211
 4094SOL    HW123741   4.514   2.213   2.449  0.6671 -0.2136  0.0137
 4094SOL    HW223742   4.606   2.275   2.549  1.1093  0.2601 -0.9883
 4095SOL     OW23743   3.119   4.386   6.728  0.1107  0.0245 -0.3275
 4095SOL    HW123744   3.101   4.463   6.675  0.9473  1.2950  1.2193
 4095SOL    HW223745   3.163   4.422   6.805  1.5963 -0.1387 -1.0906
 4096SOL     OW23746   0.455   1.186   1.564 -0.0069 -0.0910  0.3671
 4096SOL    HW123747   0.483   1.096   1.550 -4.4351 -1.0030 -2.6670
 4096SOL    HW223748   0.437   1.230   1.481  0.4273 -0.3962  0.1126
 4097SOL     OW23749   4.609   4.415   4.826 -0.3213  0.2255  0.1354
 4097SOL    HW123750   4.648   4.436   4.911 -0.9701  0.7728  0.3014
 4097SOL    HW223751   4.555   4.494   4.825 -1.7854 -0.8002 -1.5284
 4098SOL     OW23752   2.986   3.663   4.214 -0.1928  0.0487 -0.8046
 4098SOL    HW123753   2.997   3.758   4.210 -1.4031  0.1636 -1.2625
 4098SOL    HW223754   2.963   3.655   4.307 -0.2487  1.9777 -0.6616
 4099SOL     OW23755   1.604   0.143   1.919  0.4529  0.4117  0.5086
 4099SOL    HW123756   1.667   0.214   1.911 -0.0560  0.9001  0.8726
 4099SOL    HW223757   1.667   0.082   1.959 -0.5191 -0.5803  0.5380
 4100SOL     OW23758   3.317   3.979   7.102 -0.1124  0.0881  0.2065
 4100SOL    HW123759   3.361   4.061   7.124  0.1243 -0.9030  3.4778
 4100SOL    HW223760   3.302   3.940   7.188 -0.5084 -1.7343 -0.6953
 4101SOL     OW23761   3.175   1.989   5.457  0.4533  0.2417 -0.1895
 4101SOL    HW123762   3.230   1.986   5.536  1.2284 -1.8091 -0.8062
 4101SOL    HW223763   3.089   1.999   5.497  0.0564 -0.0355 -0.9873
 4102SOL     OW23764   0.901   0.331   2.918 -0.3385  0.0674 -0.0905
 4102SOL    HW123765   0.825   0.388   2.916 -0.1034  0.2549 -3.4335
 4102SOL    HW223766   0.950   0.360   2.840  0.3672 -4.0667 -1.1966
 4103SOL     OW23767   2.093   3.934   2.306  0.7308 -0.1050 -0.0341
 4103SOL    HW123768   2.114   3.896   2.220 -0.9258  1.4097 -1.1145
 4103SOL    HW223769   1.998   3.938   2.300  0.8287 -0.4652 -1.9406
 4104SOL     OW23770   0.109   4.131   2.391  0.4517 -0.0153  0.0798
 4104SOL    HW123771   0.036   4.149   2.332  0.5565  0.8712  0.2285
 4104SOL    HW223772   0.092   4.039   2.410  0.4725 -0.2548 -1.0503
 4105SOL     OW23773   0.832   3.947   6.006  0.1863  0.0345 -0.3672
 4105SOL    HW123774   0.765   3.957   6.073 -1.4506 -0.2608 -1.9686
 4105SOL    HW223775   0.784   3.886   5.951 -0.2468  2.3894 -2.5750
 4106SOL     OW23776   4.147   1.499   1.741  0.2031  0.5620 -0.2163
 4106SOL    HW123777   4.147   1.502   1.837  1.2633  1.2434 -0.2307
 4106SOL    HW223778   4.068   1.549   1.723 -0.6759  0.0540  2.2163
 4107SOL     OW23779   1.704   1.815   3.398 -0.0641 -0.3994  0.0241
 4107SOL    HW123780   1.695   1.724   3.425  1.2880 -0.2272  1.0236
 4107SOL    HW223781   1.794   1.814   3.367  0.1392  1.7390  0.5681
 4108SOL     OW23782   0.553   2.179   9.751 -0.0707  0.1264  0.3989
 4108SOL    HW123783   0.620   2.134   9.699  0.9719  2.2120 -0.0649
 4108SOL    HW223784   0.572   2.260   9.703  0.0286  0.2030  0.5655
 4109SOL     OW23785   3.335   3.980  16.258  0.1118 -0.3093  0.0768
 4109SOL    HW123786   3.321   3.920  16.186  0.3666  1.4433 -1.4240
 4109SOL    HW223787   3.334   4.063  16.211 -0.1282 -0.1746  0.3117
 4110SOL     OW23788   1.632   2.380   8.093 -0.6399 -0.1621 -0.0014
 4110SOL    HW123789   1.576   2.327   8.036 -2.8873  0.5808  1.4917
 4110SOL    HW223790   1.575   2.457   8.100 -0.3402  0.1570 -1.0044
 4111SOL     OW23791   4.708   1.132   7.277  0.3466  0.0728  0.0311
 4111SOL    HW123792   0.028   1.161   7.359  0.3578 -2.0153  0.7659
 4111SOL    HW223793   4.678   1.214   7.238  0.7769  0.1622 -0.1009
 4112SOL     OW23794   2.639   0.807   5.800  0.2136  0.1117  0.7968
 4112SOL    HW123795   2.584   0.730   5.784 -1.4989  1.5110 -0.0911
 4112SOL    HW223796   2.729   0.776   5.795  0.2411  0.2482  0.4084
 4113SOL     OW23797   0.108   3.600   1.886  0.0292 -0.3167 -0.5831
 4113SOL    HW123798   0.179   3.624   1.827  1.5316 -1.8901  0.6017
 4113SOL    HW223799   0.081   3.687   1.915 -2.5651 -1.5617  0.7532
 4114SOL     OW23800   0.519   3.678  10.128  0.3290  0.0858  0.1103
 4114SOL    HW123801   0.452   3.612  10.114  0.5172 -0.0069 -0.3626
 4114SOL    HW223802   0.477   3.730  10.197 -0.9438 -0.8078 -0.0059
 4115SOL     OW23803   3.958   2.536   6.308 -0.6697 -0.2847  0.4660
 4115SOL    HW123804   3.922   2.523   6.396  1.6429 -1.5442  1.2445
 4115SOL    HW223805   3.892   2.601   6.283  0.1632 -0.0947 -1.2368
 4116SOL     OW23806   0.174   3.055   9.352 -0.6036  0.1876 -0.4370
 4116SOL    HW123807   0.087   3.037   9.387 -0.6729  0.2169 -0.5935
 4116SOL    HW223808   0.219   2.974   9.377  0.9973  1.1798 -0.0949
 4117SOL     OW23809   0.630   3.298  17.454  0.0035 -0.2798 -0.5098
 4117SOL    HW123810   0.707   3.322  17.506 -0.4208  0.1084 -0.0535
 4117SOL    HW223811   0.587   3.382  17.471  1.2497  0.3800 -0.6187
 4118SOL     OW23812   4.034   2.413   6.626  0.0260 -0.2086 -0.1058
 4118SOL    HW123813   3.979   2.343   6.589  0.4367  0.3287 -1.7442
 4118SOL    HW223814   3.981   2.493   6.625 -1.0289 -0.8934  1.6960
 4119SOL     OW23815   0.828   3.889   7.343 -0.3978 -0.1237  0.1376
 4119SOL    HW123816   0.890   3.954   7.310 -1.0113  0.5516  0.3015
 4119SOL    HW223817   0.749   3.941   7.330  0.4899  0.8465 -1.3818
 4120SOL     OW23818   3.049   1.970   3.823  0.0788  0.7173 -0.1597
 4120SOL    HW123819   2.963   2.003   3.847 -0.0992  0.7598 -0.8474
 4120SOL    HW223820   3.041   1.947   3.730  1.3170 -0.6934  0.0780
 4121SOL     OW23821   3.132   1.814   8.612 -0.6843 -1.0279  0.3871
 4121SOL    HW123822   3.061   1.762   8.573 -0.6902  0.1656 -1.1604
 4121SOL    HW223823   3.159   1.750   8.679  0.0704  0.1933  1.2356
 4122SOL     OW23824   1.761   0.325   5.821  0.7450 -0.3171 -0.3149
 4122SOL    HW123825   1.738   0.418   5.821  1.2392 -0.1914  0.0407
 4122SOL    HW223826   1.841   0.329   5.874  0.9987 -1.8459 -0.5867
 4123SOL     OW23827   0.945   3.708   4.368 -0.4280 -0.1987 -0.1560
 4123SOL    HW123828   0.959   3.793   4.326  1.8283 -0.2385  0.5105
 4123SOL    HW223829   1.029   3.662   4.369 -0.6102 -0.5363 -0.6481
 4124SOL     OW23830   3.550   1.160   0.990  0.3173  0.3687 -0.1629
 4124SOL    HW123831   3.573   1.228   1.053  3.3734 -0.9249  0.1130
 4124SOL    HW223832   3.475   1.198   0.944  0.3177  0.1630 -0.3324
 4125SOL     OW23833   2.108   3.038   2.723 -0.2281 -0.2544  0.2056
 4125SOL    HW123834   2.026   3.035   2.673  0.8274 -0.1748 -1.5348
 4125SOL    HW223835   2.086   3.003   2.809 -0.3219 -0.5992  0.0383
 4126SOL     OW23836   0.750   4.647   6.254 -0.2557  0.5207  0.0458
 4126SOL    HW123837   0.727   0.001   6.197 -0.5761 -0.4671 -1.1305
 4126SOL    HW223838   0.792   4.700   6.321 -0.2876  2.4481 -1.4298
 4127SOL     OW23839   4.148   2.976   7.993 -0.0334  0.0590  0.2446
 4127SOL    HW123840   4.150   2.909   8.062 -1.1703 -0.5846 -0.3381
 4127SOL    HW223841   4.079   3.031   8.030  2.4730  2.7796  0.8134
 4128SOL     OW23842   2.208   4.458   0.281  0.5679 -0.1148 -0.4546
 4128SOL    HW123843   2.219   4.503   0.365 -0.4603  1.4430 -1.1648
 4128SOL    HW223844   2.179   4.534   0.230 -0.8245 -0.0958  0.3943
 4129SOL     OW23845   0.694   2.847  14.944  0.1159 -0.5652 -0.1038
 4129SOL    HW123846   0.727   2.759  14.929 -1.0759 -0.9677 -0.3482
 4129SOL    HW223847   0.763   2.893  14.992  0.7141 -0.2057 -1.3250
 4130SOL     OW23848   1.881   2.640   4.492 -0.1176 -0.2600 -0.2492
 4130SOL    HW123849   1.807   2.604   4.444 -0.5515  2.0734 -1.3617
 4130SOL    HW223850   1.925   2.675   4.414 -0.8907  2.0368  0.3378
 4131SOL     OW23851   4.009   3.036   3.621  0.0323  0.3821 -0.4073
 4131SOL    HW123852   3.940   3.017   3.685 -0.4494  0.2601 -0.9603
 4131SOL    HW223853   3.974   2.988   3.546  2.3376 -0.0795 -1.1590
 4132SOL     OW23854   0.384   4.576  10.364  0.0744  0.2518 -0.0812
 4132SOL    HW123855   0.336   4.657  10.381  0.6241  0.9903 -2.0621
 4132SOL    HW223856   0.308   4.519  10.376 -0.0685  0.4021 -0.2697
 4133SOL     OW23857   0.698   2.621   5.525  0.3934  0.4557  0.5146
 4133SOL    HW123858   0.724   2.529   5.525 -1.4484 -0.0843 -0.1172
 4133SOL    HW223859   0.769   2.661   5.575 -0.2148 -1.2302  2.7144
 4134SOL     OW23860   0.736   3.242   6.639  0.0566 -0.3800  0.7557
 4134SOL    HW123861   0.724   3.257   6.545 -3.4435  2.3678  1.6489
 4134SOL    HW223862   0.827   3.213   6.647  0.8074  0.9800 -2.6094
 4135SOL     OW23863   4.573   4.415   8.358  0.0545 -0.0956 -0.2709
 4135SOL    HW123864   4.537   4.496   8.393 -0.4273  1.0697 -3.4820
 4135SOL    HW223865   4.629   4.383   8.429 -0.0477 -0.4802 -0.3594
 4136SOL     OW23866   3.203   1.901  15.396 -0.0415  0.0886 -0.2545
 4136SOL    HW123867   3.180   1.935  15.310 -1.2307 -1.3889 -0.5089
 4136SOL    HW223868   3.122   1.925  15.441 -1.0781 -0.0516 -2.0607
 4137SOL     OW23869   3.151   1.689   4.040  0.3439 -0.1658  0.3200
 4137SOL    HW123870   3.060   1.666   4.020  0.2060 -1.1645  2.1220
 4137SOL    HW223871   3.195   1.612   4.075  1.6206  0.2479 -0.3605
 4138SOL     OW23872   1.246   3.237  16.843 -0.7228 -0.4000  0.5148
 4138SOL    HW123873   1.165   3.288  16.849 -0.6396 -0.1327 -0.4859
 4138SOL    HW223874   1.282   3.244  16.931 -0.4065 -0.8344  0.4177
 4139SOL     OW23875   3.802   1.599   4.572 -0.4616  0.1034  0.2087
 4139SOL    HW123876   3.762   1.623   4.489  1.9080  1.1344 -0.6198
 4139SOL    HW223877   3.810   1.681   4.620 -1.6441 -0.5576  1.5361
 4140SOL     OW23878   2.328   2.740   3.072  0.1112  0.1209 -0.5646
 4140SOL    HW123879   2.375   2.818   3.044  0.8465  0.5702  1.9047
 4140SOL    HW223880   2.296   2.721   2.984 -0.0086  0.7916 -0.6644
 4141SOL     OW23881   3.283   0.095   0.968 -0.2476  0.0663  0.2326
 4141SOL    HW123882   3.372   0.062   0.957 -0.2219  0.3408 -0.4032
 4141SOL    HW223883   3.275   0.173   0.913  1.1256 -0.3744 -0.5838
 4142SOL     OW23884   4.330   1.613   2.961  0.9189 -0.0514  0.0288
 4142SOL    HW123885   4.349   1.704   2.939 -0.8454  0.4536  0.5248
 4142SOL    HW223886   4.348   1.569   2.878 -2.1332 -1.8255  0.3110
 4143SOL     OW23887   3.511   2.741   3.557  0.1065  0.4548 -0.6243
 4143SOL    HW123888   3.548   2.681   3.622 -1.1990  1.1616  0.7743
 4143SOL    HW223889   3.459   2.795   3.617  0.3123 -3.2327  2.8924
 4144SOL     OW23890   1.430   3.375   1.884  0.7003 -0.0932 -0.5754
 4144SOL    HW123891   1.353   3.322   1.864 -0.2063  0.4495  1.4491
 4144SOL    HW223892   1.495   3.314   1.919  2.6992  2.5980  0.3998
 4145SOL     OW23893   3.800   0.461   4.573  0.3367  0.1085 -0.0964
 4145SOL    HW123894   3.882   0.437   4.616 -0.1144  1.5398  1.5653
 4145SOL    HW223895   3.738   0.428   4.638  1.2792 -0.0006  0.7526
 4146SOL     OW23896   0.451   2.798   6.167 -0.1865  0.1734 -0.8395
 4146SOL    HW123897   0.460   2.891   6.189 -0.2626 -0.2336  0.8899
 4146SOL    HW223898   0.368   2.780   6.210 -0.2001 -0.7558 -1.2517
 4147SOL     OW23899   2.931   3.216   8.044 -0.8384  0.2639 -0.5480
 4147SOL    HW123900   2.872   3.143   8.032 -0.1132 -0.1320 -1.7755
 4147SOL    HW223901   2.913   3.238   8.135  1.8638  1.9242 -0.4183
 4148SOL     OW23902   3.304   2.865   6.962 -0.0011 -0.3733  0.3738
 4148SOL    HW123903   3.378   2.925   6.952 -0.9043  0.8357  0.8741
 4148SOL    HW223904   3.235   2.930   6.976  0.1505  0.2922 -1.9686
 4149SOL     OW23905   3.081   3.306   2.538 -0.3799  0.4044 -0.0443
 4149SOL    HW123906   3.021   3.381   2.531  1.3507  1.7007 -0.8711
 4149SOL    HW223907   3.171   3.333   2.520  0.0454 -0.0519  1.4229
 4150SOL     OW23908   2.965   0.184   9.993 -0.3727 -0.1455 -0.2861
 4150SOL    HW123909   2.901   0.245  10.029  0.2736 -1.1157  2.4880
 4150SOL    HW223910   3.042   0.198  10.048 -2.2169  0.6965  2.1239
 4151SOL     OW23911   0.323   1.009   7.430 -0.3697 -0.1008  0.6264
 4151SOL    HW123912   0.403   1.034   7.383 -0.7201  0.0045  0.0851
 4151SOL    HW223913   0.368   0.952   7.493  1.5386 -1.4231 -1.8863
 4152SOL     OW23914   1.084   1.105   5.476 -0.1050 -0.3792  0.1832
 4152SOL    HW123915   1.102   1.126   5.567  0.6739  1.8452 -0.4980
 4152SOL    HW223916   1.133   1.174   5.432  0.2503 -1.3250 -0.9157
 4153SOL     OW23917   1.145   3.610   9.344 -0.0394 -0.1217 -0.2026
 4153SOL    HW123918   1.190   3.560   9.412 -0.0315 -0.0978 -0.1903
 4153SOL    HW223919   1.172   3.701   9.352 -0.7414  0.1400 -0.7233
 4154SOL     OW23920   3.354   3.818   2.860  0.5938 -0.1766 -0.6229
 4154SOL    HW123921   3.383   3.782   2.944  0.9084  1.0943 -0.1756
 4154SOL    HW223922   3.318   3.746   2.810  0.8474 -2.2260  2.1406
 4155SOL     OW23923   0.560   2.229   7.307  0.1468  0.1632 -0.4374
 4155SOL    HW123924   0.588   2.180   7.230 -1.2794 -0.9401 -0.2511
 4155SOL    HW223925   0.588   2.175   7.381  0.3407  1.8620  0.7383
 4156SOL     OW23926   1.376   2.695   0.222 -0.5873  0.4210 -0.2917
 4156SOL    HW123927   1.343   2.654   0.142  0.3067  0.1124 -0.5071
 4156SOL    HW223928   1.407   2.617   0.267  2.2991  1.4537 -0.4397
 4157SOL     OW23929   2.246   0.995  15.167  1.0822 -0.0433  0.1482
 4157SOL    HW123930   2.221   0.909  15.200 -2.7032  0.4795 -1.3764
 4157SOL    HW223931   2.313   0.977  15.101 -2.4071 -0.5080 -3.2906
 4158SOL     OW23932   2.749   1.304   0.598 -0.0517 -0.4962 -0.0929
 4158SOL    HW123933   2.778   1.277   0.685 -1.4319 -1.2541  0.1204
 4158SOL    HW223934   2.660   1.269   0.596 -0.3009  0.1679 -0.6193
 4159SOL     OW23935   3.359   2.450   8.554 -0.2524  0.2230 -1.1079
 4159SOL    HW123936   3.303   2.472   8.480 -0.7620 -1.5430 -1.2634
 4159SOL    HW223937   3.294   2.454   8.624 -0.5045 -0.1345 -1.3248
 4160SOL     OW23938   2.993   3.994   5.162 -0.0342 -0.0364 -0.7531
 4160SOL    HW123939   3.027   4.077   5.130 -2.0224  1.7710  1.7667
 4160SOL    HW223940   3.051   3.929   5.122 -0.2754 -0.3940 -0.5298
 4161SOL     OW23941   2.279   2.772   9.871  0.0274 -0.0216 -0.4067
 4161SOL    HW123942   2.343   2.725   9.817 -0.2777 -0.8846 -0.0291
 4161SOL    HW223943   2.256   2.696   9.926  0.9261  0.3814  0.5386
 4162SOL     OW23944   3.880   0.693   7.118  0.1902  0.3901  0.5677
 4162SOL    HW123945   3.894   0.781   7.153 -0.7133  0.4594  0.7615
 4162SOL    HW223946   3.824   0.708   7.042  1.2475  1.5844  0.0288
 4163SOL     OW23947   2.488   1.186   1.696 -0.3304 -0.3195 -0.3169
 4163SOL    HW123948   2.418   1.230   1.647 -0.1069 -0.3830 -0.6877
 4163SOL    HW223949   2.513   1.251   1.761 -2.3560  0.3248 -0.1650
 4164SOL     OW23950   1.050   4.192   8.216 -0.0514  0.0845 -0.0472
 4164SOL    HW123951   1.094   4.163   8.136 -1.1470  1.7969 -1.2627
 4164SOL    HW223952   1.019   4.105   8.239 -1.3789  1.2845  2.6775
 4165SOL     OW23953   3.895   4.630  14.720 -0.1783  0.3991 -0.3130
 4165SOL    HW123954   3.839   4.617  14.797 -0.3653  0.2075 -0.4823
 4165SOL    HW223955   3.853   4.593  14.642 -0.3935  1.2588 -0.6035
 4166SOL     OW23956   3.884   4.501   8.364 -0.3231  0.0520 -0.0374
 4166SOL    HW123957   3.964   4.456   8.336 -1.5091 -0.6409 -2.2902
 4166SOL    HW223958   3.818   4.432   8.362 -1.0234  0.6883  1.0486
 4167SOL     OW23959   4.398   3.845  12.992  0.7534 -0.5526  0.0292
 4167SOL    HW123960   4.487   3.839  12.958  0.0480 -1.8606 -1.5815
 4167SOL    HW223961   4.396   3.937  13.018  2.8708 -0.3943 -0.3605
 4168SOL     OW23962   3.400   1.078   6.043 -0.0766  0.1131 -0.3097
 4168SOL    HW123963   3.480   1.129   6.056 -0.5890  0.9362 -0.3701
 4168SOL    HW223964   3.378   1.089   6.135 -0.2867  0.2456 -0.3751
 4169SOL     OW23965   2.377   0.994   6.700 -0.1488 -0.1447  0.1388
 4169SOL    HW123966   2.371   1.067   6.761 -2.9630 -0.3038  0.0543
 4169SOL    HW223967   2.308   0.936   6.734 -0.8886  1.1916  0.9375
 4170SOL     OW23968   0.502   0.046  16.100 -0.4461  0.4115 -0.5831
 4170SOL    HW123969   0.479   4.675  16.117  1.2563  0.1517  0.2987
 4170SOL    HW223970   0.538   0.022  16.014 -1.5323  2.1955 -1.5501
 4171SOL     OW23971   2.367   0.066   7.718 -0.3920  0.2454 -0.2112
 4171SOL    HW123972   2.374   0.161   7.727 -0.4499  0.2567 -0.2890
 4171SOL    HW223973   2.272   0.060   7.728 -0.1859 -0.5765  1.2587
 4172SOL     OW23974   3.631   2.037  13.994  0.0694 -0.0264 -0.1622
 4172SOL    HW123975   3.726   2.026  13.994  0.1562  0.7325 -0.5450
 4172SOL    HW223976   3.624   2.074  14.082  0.8927 -1.7618  0.6342
 4173SOL     OW23977   1.747   0.852  10.761  0.1200  0.0539 -0.5024
 4173SOL    HW123978   1.790   0.827  10.679  1.8967  0.2845  0.3524
 4173SOL    HW223979   1.657   0.866  10.731  0.4152 -0.0119 -1.4108
 4174SOL     OW23980   1.386   1.642   5.061 -0.1751  0.2079  0.2497
 4174SOL    HW123981   1.435   1.593   4.996  1.1610 -0.7333  1.9410
 4174SOL    HW223982   1.370   1.581   5.133  0.2445 -0.1537  0.0399
 4175SOL     OW23983   1.529   2.162   6.083 -0.3879  0.2120 -0.1904
 4175SOL    HW123984   1.556   2.248   6.114  4.1752 -0.4185 -2.5355
 4175SOL    HW223985   1.606   2.111   6.057 -0.1503  0.4558  0.0308
 4176SOL     OW23986   4.119   2.754   3.911 -0.3073 -0.2421 -0.7800
 4176SOL    HW123987   4.131   2.848   3.903  1.5073 -0.5897 -2.2157
 4176SOL    HW223988   4.051   2.741   3.977  1.2896  0.1376  0.9427
 4177SOL     OW23989   1.025   1.168  14.797  0.2964  0.0166  0.4461
 4177SOL    HW123990   1.111   1.199  14.825  0.1802  0.4647  0.3076
 4177SOL    HW223991   1.049   1.077  14.812  0.0943  0.0577  1.0365
 4178SOL     OW23992   0.012   0.563   2.648  0.3921  0.0347 -0.8563
 4178SOL    HW123993   0.034   0.483   2.694 -0.8684  1.6553  2.5427
 4178SOL    HW223994   4.710   0.532   2.560 -1.2761  0.8718 -0.7383
 4179SOL     OW23995   3.956   2.137   6.264  0.0502  0.3376  0.6518
 4179SOL    HW123996   4.011   2.215   6.255 -0.6648  0.5920 -1.3921
 4179SOL    HW223997   3.981   2.127   6.356 -1.0937  0.1559  0.9475
 4180SOL     OW23998   4.336   3.221   8.045  0.2550 -0.4488 -0.1196
 4180SOL    HW123999   4.256   3.195   8.093  0.2330 -0.5931 -0.2344
 4180SOL    HW224000   4.401   3.175   8.098 -0.1866 -2.0903 -1.0074
 4181SOL     OW24001   4.149   4.701   6.273 -0.2657 -0.0947  0.2366
 4181SOL    HW124002   4.219   0.041   6.299  0.4436 -0.5775 -0.5257
 4181SOL    HW224003   4.206   4.643   6.222  0.5244 -0.2956  1.3457
 4182SOL     OW24004   0.456   0.658   3.436  0.0220  0.1265 -0.1110
 4182SOL    HW124005   0.427   0.569   3.414 -0.1071  0.1831 -0.1678
 4182SOL    HW224006   0.471   0.666   3.530  3.1397  0.4037 -0.6263
 4183SOL     OW24007   2.950   1.472   7.207  0.4418  0.3909  0.5655
 4183SOL    HW124008   2.946   1.452   7.300  0.8489 -2.3800 -0.0188
 4183SOL    HW224009   2.861   1.471   7.170  0.5554 -0.4080  0.3219
 4184SOL     OW24010   4.043   1.720   3.301  0.5025  0.2060  0.2217
 4184SOL    HW124011   4.096   1.795   3.273  0.9905 -0.7593 -1.3988
 4184SOL    HW224012   4.109   1.660   3.333 -0.2589 -0.0891  1.2560
 4185SOL     OW24013   1.953   0.020   8.873  0.2493 -0.3040  0.3660
 4185SOL    HW124014   1.988   0.108   8.892 -1.0008 -0.0281  1.4135
 4185SOL    HW224015   1.974   0.013   8.780  0.3059  0.5384  0.3152
 4186SOL     OW24016   3.670   0.973   1.202  0.2095 -0.1092  0.1675
 4186SOL    HW124017   3.671   0.980   1.106 -1.1775  3.7705  0.4537
 4186SOL    HW224018   3.598   1.028   1.232  0.9525  0.0329  1.6659
 4187SOL     OW24019   4.584   0.379   2.919  0.5785  0.2430 -0.4384
 4187SOL    HW124020   4.680   0.379   2.924  0.4847 -0.3939  1.4559
 4187SOL    HW224021   4.580   0.316   2.848 -0.4516 -1.1825  0.8828
 4188SOL     OW24022   0.951   3.747   7.667 -0.2044 -0.2746  0.3910
 4188SOL    HW124023   0.978   3.689   7.739  1.1754 -0.8169 -0.5835
 4188SOL    HW224024   1.013   3.727   7.598 -0.5872  0.1793 -0.0817
 4189SOL     OW24025   0.087   1.520   7.268  0.2615 -0.3190  0.4296
 4189SOL    HW124026   0.166   1.570   7.247 -0.0631 -0.1512 -0.3755
 4189SOL    HW224027   0.035   1.600   7.276  0.1825 -0.4290  1.0454
 4190SOL     OW24028   2.702   2.367  13.397  0.1419 -0.4127 -0.1733
 4190SOL    HW124029   2.754   2.383  13.318 -1.0368 -0.5608 -0.9781
 4190SOL    HW224030   2.681   2.457  13.423  0.1167 -0.3253 -0.4909
 4191SOL     OW24031   2.741   1.926   2.344  0.3119  0.4938  0.2643
 4191SOL    HW124032   2.823   1.894   2.381  0.0422 -0.5569 -0.0586
 4191SOL    HW224033   2.726   2.001   2.402 -0.7099  0.0981  0.5113
 4192SOL     OW24034   2.072   2.498  14.756  0.1499  0.4662 -0.2206
 4192SOL    HW124035   2.025   2.482  14.837  1.8644 -0.6333  0.5730
 4192SOL    HW224036   2.085   2.409  14.722  1.9087  0.7121 -0.2042
 4193SOL     OW24037   2.655   4.275  13.115  0.6779 -0.1342  0.3454
 4193SOL    HW124038   2.712   4.347  13.143  0.0516  0.7232 -0.5740
 4193SOL    HW224039   2.711   4.208  13.075  0.4440  1.0576 -1.9470
 4194SOL     OW24040   1.001   1.929   2.332 -0.5580  0.3120 -0.3329
 4194SOL    HW124041   0.954   1.999   2.376 -0.3153 -0.5485  1.2863
 4194SOL    HW224042   1.087   1.933   2.373 -1.0923  0.8285  0.7274
 4195SOL     OW24043   4.462   4.625   8.767 -0.1748  0.3333 -0.6321
 4195SOL    HW124044   4.415   4.584   8.840  1.0810 -0.4704 -0.2715
 4195SOL    HW224045   4.551   4.614   8.800  0.1397  1.4396 -1.0838
 4196SOL     OW24046   3.828   4.610   0.494 -0.3312  0.3390  0.4285
 4196SOL    HW124047   3.908   4.575   0.454 -0.0387  0.1198  1.2013
 4196SOL    HW224048   3.811   4.670   0.422 -2.1827  0.7011  1.1772
 4197SOL     OW24049   3.313   3.305   2.892 -1.1666 -0.2512 -0.2349
 4197SOL    HW124050   3.283   3.239   2.829  0.4352 -2.0255  0.8534
 4197SOL    HW224051   3.407   3.289   2.884 -0.5269  2.8181  1.2408
 4198SOL     OW24052   3.114   3.074  11.237  0.0293 -0.5257 -0.5567
 4198SOL    HW124053   3.080   3.163  11.251  2.7917  0.3104  0.8512
 4198SOL    HW224054   3.036   3.021  11.253  0.4437 -1.1976 -0.7649
 4199SOL     OW24055   1.657   0.052   1.296 -0.4590  0.1090 -0.1425
 4199SOL    HW124056   1.727   0.113   1.318 -1.1059  0.3354  1.2406
 4199SOL    HW224057   1.712   4.696   1.277  1.6817  1.3591  1.0426
 4200SOL     OW24058   3.334   0.081   5.919 -0.7734  0.0777 -0.1219
 4200SOL    HW124059   3.417   0.117   5.890  0.3239 -2.0027  0.4741
 4200SOL    HW224060   3.269   0.116   5.858  0.6320  2.2188 -0.3823
 4201SOL     OW24061   3.288   1.406   7.705  0.0127  0.5935 -0.0300
 4201SOL    HW124062   3.341   1.455   7.642  0.2480  1.0837  0.5419
 4201SOL    HW224063   3.308   1.464   7.779  0.6196 -0.4805  0.6511
 4202SOL     OW24064   1.134   2.033   7.820  0.0352  0.0213 -0.9325
 4202SOL    HW124065   1.130   2.117   7.774 -0.2828 -0.0876 -1.1042
 4202SOL    HW224066   1.205   2.048   7.883 -0.2555  1.7160 -0.9984
 4203SOL     OW24067   2.767   0.705  10.090 -0.0716 -0.2210  0.0630
 4203SOL    HW124068   2.672   0.708  10.078 -0.0847  2.3665  0.8024
 4203SOL    HW224069   2.765   0.692  10.185  1.5510 -0.9856 -0.0147
 4204SOL     OW24070   4.380   3.811   6.584 -0.3239  0.6939 -0.1951
 4204SOL    HW124071   4.320   3.885   6.592 -1.4684 -0.2502 -0.1762
 4204SOL    HW224072   4.445   3.826   6.653  0.0323 -2.6749  0.2227
 4205SOL     OW24073   2.264   1.617  10.528 -0.4236  0.7328  0.3538
 4205SOL    HW124074   2.199   1.567  10.577 -1.2369  1.4959  0.0780
 4205SOL    HW224075   2.344   1.583  10.567  0.9915  0.2956 -2.9264
 4206SOL     OW24076   2.653   2.376   2.611 -0.6234  0.2749 -0.0581
 4206SOL    HW124077   2.678   2.421   2.692  2.0204 -0.5321 -0.3990
 4206SOL    HW224078   2.633   2.452   2.556  3.0789 -0.7578 -2.8308
 4207SOL     OW24079   0.650   2.050   7.125  0.1542  0.6352 -0.1979
 4207SOL    HW124080   0.701   1.969   7.123  1.8624  1.7048 -0.1084
 4207SOL    HW224081   0.637   2.050   7.030  0.2465  0.7970 -0.2100
 4208SOL     OW24082   0.183   4.105   2.660  0.0301 -0.1087 -0.4062
 4208SOL    HW124083   0.223   4.020   2.644  1.0832  0.5186 -1.1190
 4208SOL    HW224084   0.135   4.125   2.580 -0.5261 -0.4842 -0.1664
 4209SOL     OW24085   4.633   0.971   5.933 -0.0320  0.1740  0.2006
 4209SOL    HW124086   4.603   1.028   6.004  0.5308  1.6559 -0.7322
 4209SOL    HW224087   0.006   0.977   5.953 -0.0517  1.3403 -0.0264
 4210SOL     OW24088   0.060   2.852   3.486 -0.1103 -0.1400 -0.2321
 4210SOL    HW124089   0.113   2.909   3.430  0.7130  1.1718  1.8718
 4210SOL    HW224090   0.020   2.916   3.545 -0.1124  0.2081 -0.6067
 4211SOL     OW24091   3.209   3.116   2.688  0.7027  0.2048  0.0088
 4211SOL    HW124092   3.267   3.117   2.612  0.9005  1.3243  0.1690
 4211SOL    HW224093   3.146   3.182   2.660  0.5993  0.1258  0.0586
 4212SOL     OW24094   3.082   2.475   2.196 -0.1511  0.0785 -0.1284
 4212SOL    HW124095   3.062   2.441   2.109  1.5450 -1.0583 -0.0698
 4212SOL    HW224096   3.176   2.492   2.190  0.0788 -0.8608  0.6310
 4213SOL     OW24097   4.714   3.283   4.412 -0.0876 -0.6288  0.5471
 4213SOL    HW124098   0.078   3.287   4.367 -0.1192 -0.2212  0.5194
 4213SOL    HW224099   0.020   3.235   4.490  0.1907  0.4336  1.1141
 4214SOL     OW24100   4.643   2.577   7.995  0.4307  0.6078  0.2728
 4214SOL    HW124101   4.552   2.605   7.985  0.3001  1.0524  2.6251
 4214SOL    HW224102   4.677   2.589   7.907  1.4067 -0.6415  0.4750
 4215SOL     OW24103   4.547   1.033  16.343  0.5588  0.0012  0.0343
 4215SOL    HW124104   4.519   1.123  16.357  1.9329  0.4770 -0.2852
 4215SOL    HW224105   4.544   1.004  16.434 -0.9312  0.2401  0.0530
 4216SOL     OW24106   3.716   4.456   5.850 -0.1482  0.3079  0.0150
 4216SOL    HW124107   3.733   4.389   5.784 -1.4196  1.1665 -1.1937
 4216SOL    HW224108   3.756   4.531   5.805 -1.5329  0.6655 -0.6067
 4217SOL     OW24109   0.186   3.157   6.850  0.4881 -0.6545  0.0640
 4217SOL    HW124110   0.207   3.247   6.873  1.1102 -0.5094 -1.1108
 4217SOL    HW224111   0.247   3.110   6.907 -1.9836 -3.6840  0.1986
 4218SOL     OW24112   1.715   4.614   5.897 -0.1064 -0.5910  0.6206
 4218SOL    HW124113   1.675   4.634   5.812 -0.6857 -1.1555  0.7591
 4218SOL    HW224114   1.806   4.612   5.866 -0.8153 -1.1450 -1.4546
 4219SOL     OW24115   3.362   3.257   7.869 -0.0841 -0.0664  0.1090
 4219SOL    HW124116   3.394   3.294   7.952  0.9531 -0.9964  0.1192
 4219SOL    HW224117   3.383   3.320   7.800 -0.3886 -0.9493 -0.7911
 4220SOL     OW24118   2.059   0.443   2.559  0.0884 -0.1406  0.1534
 4220SOL    HW124119   2.050   0.523   2.610 -2.1780 -1.6844  2.1591
 4220SOL    HW224120   2.152   0.444   2.536 -0.0715 -0.8908 -0.5311
 4221SOL     OW24121   4.508   2.076   6.180  0.2521  0.4815  0.0858
 4221SOL    HW124122   4.498   2.168   6.157  2.0385  0.1551 -1.9884
 4221SOL    HW224123   4.433   2.050   6.234 -1.1961 -0.3052 -2.2890
 4222SOL     OW24124   0.119   0.918   2.950 -0.2739 -0.1838  0.8027
 4222SOL    HW124125   0.031   0.884   2.935  0.3113 -1.0001 -0.8339
 4222SOL    HW224126   0.145   0.957   2.866  1.8066 -2.5728  0.3188
 4223SOL     OW24127   0.666   1.826   5.841 -0.0898 -0.3197  0.5800
 4223SOL    HW124128   0.589   1.876   5.814  0.1335 -0.0030  0.5410
 4223SOL    HW224129   0.640   1.800   5.930  0.6812  0.1629  0.9449
 4224SOL     OW24130   0.984   3.026   8.271  0.1193  0.3116 -0.8345
 4224SOL    HW124131   0.888   3.032   8.271  0.1922  1.4538 -0.3490
 4224SOL    HW224132   1.004   3.001   8.181  0.2890  0.5581 -0.8636
 4225SOL     OW24133   2.275   4.208   3.446 -0.8645  0.8604 -0.5666
 4225SOL    HW124134   2.263   4.297   3.413  0.0095  1.3529  0.4584
 4225SOL    HW224135   2.194   4.165   3.417 -0.9735 -0.9908  2.4852
 4226SOL     OW24136   3.408   2.140   3.438  0.2672  0.6799 -0.1120
 4226SOL    HW124137   3.326   2.096   3.458  1.6367 -1.8771 -0.1230
 4226SOL    HW224138   3.448   2.069   3.389  1.9692  0.8317  1.0871
 4227SOL     OW24139   0.560   4.246   6.474 -0.0293  0.1201  0.1055
 4227SOL    HW124140   0.592   4.305   6.405  1.1201 -2.3310 -1.4484
 4227SOL    HW224141   0.625   4.176   6.468 -0.1731 -0.2692  3.1559
 4228SOL     OW24142   1.098   2.714   5.964 -0.3679  0.4145  0.1938
 4228SOL    HW124143   1.030   2.659   5.924 -1.0724  1.5831 -0.2281
 4228SOL    HW224144   1.061   2.746   6.046  1.6900 -1.9387  2.0139
 4229SOL     OW24145   3.819   1.062   2.603 -0.5557 -0.2284  0.1912
 4229SOL    HW124146   3.822   1.040   2.510  2.0005 -0.5680  0.3299
 4229SOL    HW224147   3.833   0.973   2.637 -0.3297 -0.1553  0.2908
 4230SOL     OW24148   4.122   2.350   2.286 -0.9515  0.0330 -0.3698
 4230SOL    HW124149   4.079   2.277   2.241  0.4989 -0.8337 -0.3264
 4230SOL    HW224150   4.059   2.373   2.355 -0.1784  0.8980  0.0468
 4231SOL     OW24151   2.084   0.679  10.372 -0.2463 -0.1239  0.0147
 4231SOL    HW124152   2.090   0.624  10.294  0.6235  0.4312 -0.3083
 4231SOL    HW224153   2.164   0.730  10.363 -0.8315  1.1917  2.2495
 4232SOL     OW24154   3.678   4.371   6.996  0.1650 -0.0883 -0.2634
 4232SOL    HW124155   3.732   4.406   7.066  1.3487 -1.4130 -0.5098
 4232SOL    HW224156   3.733   4.296   6.971  0.2578 -0.5391  1.2943
 4233SOL     OW24157   2.601   4.212   4.374  0.7646  0.2981  0.0676
 4233SOL    HW124158   2.618   4.305   4.361  3.4957 -0.3693 -0.9590
 4233SOL    HW224159   2.579   4.190   4.284 -1.0330 -0.3250  0.6524
 4234SOL     OW24160   3.859   1.532  17.388  0.2574  0.1330  0.2368
 4234SOL    HW124161   3.795   1.518  17.458  1.8534 -0.3979  1.5857
 4234SOL    HW224162   3.906   1.604  17.429 -1.3102  0.5142  1.3546
 4235SOL     OW24163   3.995   0.491   6.872 -0.2877 -0.5017 -0.3731
 4235SOL    HW124164   3.921   0.537   6.912  0.4341 -1.4198  1.9914
 4235SOL    HW224165   4.053   0.567   6.860 -0.2782 -0.4937 -0.2746
 4236SOL     OW24166   0.198   4.338   6.282 -0.4699 -0.7073  0.1578
 4236SOL    HW124167   0.282   4.320   6.238 -0.4189 -0.6755  0.2422
 4236SOL    HW224168   0.169   4.419   6.240 -1.3632 -0.4603  1.2643
 4237SOL     OW24169   3.312   2.563  13.259  0.1852 -0.1741  0.1306
 4237SOL    HW124170   3.337   2.651  13.286 -2.9923  1.0538 -0.8622
 4237SOL    HW224171   3.385   2.510  13.291  1.2082  0.9299 -0.4043
 4238SOL     OW24172   4.430   3.043   6.049  0.2976  0.0495 -0.7669
 4238SOL    HW124173   4.493   3.014   5.983  0.3839 -1.0762 -0.1724
 4238SOL    HW224174   4.416   2.959   6.091 -2.8714  0.8728 -0.2064
 4239SOL     OW24175   1.668   4.605   2.024  0.4898  0.3709  0.6605
 4239SOL    HW124176   1.679   4.598   2.119  3.0498 -0.6296  0.2925
 4239SOL    HW224177   1.746   4.561   1.991 -1.9409 -3.2013 -0.3230
 4240SOL     OW24178   1.079   2.686   1.721  0.0323 -0.1332  0.0173
 4240SOL    HW124179   1.048   2.702   1.811  0.2103 -0.1773  0.0863
 4240SOL    HW224180   1.173   2.668   1.719  0.5223  2.4301  0.8150
 4241SOL     OW24181   2.353   2.454   6.716  0.2026  0.4053 -0.4444
 4241SOL    HW124182   2.434   2.487   6.677  0.3268  0.1318 -0.4123
 4241SOL    HW224183   2.321   2.393   6.650  1.1541 -1.4689  0.8296
 4242SOL     OW24184   2.325   3.900  13.098  0.2890  0.7301  0.2066
 4242SOL    HW124185   2.262   3.939  13.038 -1.3920 -1.4924  0.4955
 4242SOL    HW224186   2.404   3.948  13.074  0.6655  0.7322  1.4392
 4243SOL     OW24187   1.973   3.555   8.301  0.2156  0.3300  0.1580
 4243SOL    HW124188   1.883   3.584   8.315  0.4310  1.4866 -0.8493
 4243SOL    HW224189   1.980   3.476   8.355 -3.2110 -1.4140 -1.8952
 4244SOL     OW24190   3.703   3.120   3.029  0.2317  0.0166  0.3922
 4244SOL    HW124191   3.675   3.170   2.952  1.1401 -0.2221 -0.0973
 4244SOL    HW224192   3.620   3.104   3.073 -0.3074 -2.3014 -1.4866
 4245SOL     OW24193   1.954   1.762   7.812  0.7593  0.4567  0.5262
 4245SOL    HW124194   1.967   1.856   7.799 -0.3048  0.2184 -2.3052
 4245SOL    HW224195   1.900   1.757   7.891 -0.5055 -0.0988 -0.3836
 4246SOL     OW24196   0.925   3.906  14.919  0.0693 -0.1410 -0.5396
 4246SOL    HW124197   0.932   3.943  14.831  2.6425 -1.1783 -0.7848
 4246SOL    HW224198   0.886   3.979  14.967 -0.8713 -0.3041 -1.0604
 4247SOL     OW24199   3.492   1.537   5.075  0.1214 -0.1400  0.1536
 4247SOL    HW124200   3.581   1.502   5.065 -0.2018 -0.9816  0.1951
 4247SOL    HW224201   3.519   1.622   5.108 -1.9943  0.9234 -0.9077
 4248SOL     OW24202   2.166   4.618   6.084 -0.5172  0.5682  0.1015
 4248SOL    HW124203   2.137   4.589   5.998 -0.2824  1.1074 -0.1598
 4248SOL    HW224204   2.200   4.705   6.065  1.1293  0.1841  1.3279
 4249SOL     OW24205   2.525   0.498   1.053  0.4834 -0.1046 -0.0921
 4249SOL    HW124206   2.510   0.584   1.013  0.0668 -0.1230  0.0332
 4249SOL    HW224207   2.479   0.511   1.135  0.8074 -0.5084  0.1551
 4250SOL     OW24208   1.388   1.402  11.396  0.0919  0.8647  0.2196
 4250SOL    HW124209   1.383   1.403  11.300 -2.7735 -2.2524  0.3304
 4250SOL    HW224210   1.477   1.371  11.407 -1.1956 -2.0669  2.2834
 4251SOL     OW24211   0.078   2.094   5.609  0.0227 -0.5094  0.0583
 4251SOL    HW124212   0.101   2.083   5.517  2.6723 -0.0005  0.6587
 4251SOL    HW224213   0.064   2.003   5.635  1.6384 -0.5969  0.6339
 4252SOL     OW24214   3.397   1.227  14.626 -0.2431 -0.0926 -0.3848
 4252SOL    HW124215   3.440   1.307  14.657  1.6818 -0.6512 -1.6606
 4252SOL    HW224216   3.395   1.182  14.711 -0.9411 -1.7954 -1.2979
 4253SOL     OW24217   3.481   3.782  11.705 -0.1072  0.0605  0.3038
 4253SOL    HW124218   3.529   3.805  11.626 -0.5066 -0.9227 -0.2289
 4253SOL    HW224219   3.433   3.708  11.667  0.1250  0.8250 -1.4412
 4254SOL     OW24220   0.226   0.056  10.429  0.1157  0.1324 -0.8099
 4254SOL    HW124221   0.202   0.114  10.501  1.0612 -1.4513  0.7887
 4254SOL    HW224222   0.151   0.068  10.371 -1.0752 -0.2571  0.6285
 4255SOL     OW24223   3.237   3.439  12.904  0.1779  0.5137  0.8208
 4255SOL    HW124224   3.199   3.474  12.984 -0.9657 -1.1788  1.0142
 4255SOL    HW224225   3.219   3.508  12.840 -0.8299  1.3007  1.9421
 4256SOL     OW24226   1.874   4.563  13.973 -0.0775  0.1029 -0.0966
 4256SOL    HW124227   1.950   4.576  13.915 -1.1247  2.7037 -0.9164
 4256SOL    HW224228   1.830   4.484  13.942 -0.2930  0.2527 -0.1743
 4257SOL     OW24229   0.555   3.699  11.656  0.2091  0.9023 -0.2261
 4257SOL    HW124230   0.609   3.636  11.608 -1.2077  1.7699 -2.9887
 4257SOL    HW224231   0.618   3.739  11.716  0.7349 -1.1797  0.5957
 4258SOL     OW24232   1.276   2.399   4.374  0.3356 -0.7347 -0.2744
 4258SOL    HW124233   1.287   2.338   4.301 -3.3500 -0.8167 -0.7420
 4258SOL    HW224234   1.279   2.485   4.332  1.4299  0.6151  2.5839
 4259SOL     OW24235   0.953   3.448   8.728 -0.4805  0.1656 -0.3117
 4259SOL    HW124236   0.982   3.484   8.812  0.7960  0.0147 -0.6938
 4259SOL    HW224237   0.858   3.449   8.744 -0.1863  0.4806  1.4493
 4260SOL     OW24238   0.809   3.217  10.963  0.2850 -0.0208  0.1470
 4260SOL    HW124239   0.812   3.286  10.897  1.8934 -1.8391 -1.7273
 4260SOL    HW224240   0.854   3.147  10.916  1.2023 -0.2527  1.3747
 4261SOL     OW24241   0.142   4.694   5.159  0.1215  0.5798 -0.3615
 4261SOL    HW124242   0.138   0.024   5.077 -1.5345  0.1888 -0.5075
 4261SOL    HW224243   0.129   4.613   5.110  0.0968  0.5985 -0.3857
 4262SOL     OW24244   4.380   4.064   1.580 -0.1824  0.0426  0.0647
 4262SOL    HW124245   4.433   4.002   1.530 -0.8089 -0.3235 -0.1493
 4262SOL    HW224246   4.439   4.133   1.607 -0.1098  0.6039 -1.5420
 4263SOL     OW24247   2.580   3.205   8.974  0.2205 -0.0193 -0.3795
 4263SOL    HW124248   2.649   3.254   9.017 -1.4555 -0.1389  2.4293
 4263SOL    HW224249   2.515   3.190   9.042  0.1695  2.3975  0.1001
 4264SOL     OW24250   3.098   0.146   4.482 -0.0228  0.0629  0.4207
 4264SOL    HW124251   3.118   0.202   4.556 -2.9562  1.1053  0.4239
 4264SOL    HW224252   3.117   0.203   4.407  1.3030 -0.5280  0.2954
 4265SOL     OW24253   2.541   0.452   1.377 -0.7529 -0.5197 -0.3641
 4265SOL    HW124254   2.477   0.501   1.326 -1.4104  0.7193  1.6445
 4265SOL    HW224255   2.490   0.437   1.457 -3.6132 -0.6822 -2.2469
 4266SOL     OW24256   3.238   0.397   5.389 -0.3613  0.1913  0.5226
 4266SOL    HW124257   3.305   0.375   5.453 -0.1226 -1.2880 -0.2346
 4266SOL    HW224258   3.161   0.347   5.414  1.1110 -1.6354  1.3898
 4267SOL     OW24259   0.630   0.237   3.435  0.2336  0.2748  0.0161
 4267SOL    HW124260   0.573   0.313   3.430  0.6684  0.6913  1.2332
 4267SOL    HW224261   0.699   0.266   3.375 -0.8438  0.1809 -1.2557
 4268SOL     OW24262   4.019   1.592   7.728 -0.4052  0.0635 -0.1338
 4268SOL    HW124263   3.984   1.624   7.811  0.8003  0.9530  0.0383
 4268SOL    HW224264   4.112   1.617   7.730 -0.2232 -0.3807 -3.9404
 4269SOL     OW24265   4.041   3.671   7.976  0.1431 -0.0356  0.5968
 4269SOL    HW124266   3.982   3.700   7.907 -1.8428  0.0868  2.3647
 4269SOL    HW224267   3.979   3.602   8.000  0.6952 -0.5673  0.4895
 4270SOL     OW24268   3.114   3.604  16.319 -0.0981 -0.5370  0.0340
 4270SOL    HW124269   3.053   3.655  16.372 -2.8347 -1.4140 -2.2688
 4270SOL    HW224270   3.171   3.561  16.383  1.5527 -0.5704 -1.4938
 4271SOL     OW24271   0.081   2.237   2.882  0.2067 -0.7346 -0.2266
 4271SOL    HW124272   0.036   2.250   2.966 -2.4861 -1.1070 -1.5992
 4271SOL    HW224273   0.017   2.203   2.820 -0.4386  0.8932 -0.4544
 4272SOL     OW24274   0.925   0.414   5.253  0.1709  0.6683  0.1891
 4272SOL    HW124275   0.858   0.400   5.185 -1.0869  2.7565  1.0109
 4272SOL    HW224276   0.977   0.483   5.213  2.6953 -2.2703 -1.6739
 4273SOL     OW24277   4.284   0.177   6.778 -0.1440 -0.2173  0.2042
 4273SOL    HW124278   4.371   0.144   6.757 -0.2867 -0.3189 -0.2244
 4273SOL    HW224279   4.241   0.092   6.782 -0.8774  0.0953 -1.0962
 4274SOL     OW24280   4.298   1.764   7.965 -0.5167  0.4299  0.2493
 4274SOL    HW124281   4.335   1.850   7.947 -0.5831  1.0859  3.2342
 4274SOL    HW224282   4.265   1.738   7.879 -0.7426  0.0059  0.4610
 4275SOL     OW24283   4.385   3.911   7.674  0.4481  0.7010 -0.3025
 4275SOL    HW124284   4.316   3.908   7.608  0.4272 -0.2611 -0.2361
 4275SOL    HW224285   4.445   3.845   7.638  0.7904  1.1704 -0.5870
 4276SOL     OW24286   2.981   2.004  13.525  0.3119  0.0746 -0.6141
 4276SOL    HW124287   2.903   2.057  13.542 -1.2088 -2.1471 -0.6836
 4276SOL    HW224288   2.972   1.974  13.434 -2.3912 -0.5439 -0.1601
 4277SOL     OW24289   2.976   4.314  17.113  0.3862 -0.1440 -0.0013
 4277SOL    HW124290   3.027   4.395  17.110 -2.9282  1.9460 -0.8074
 4277SOL    HW224291   2.910   4.331  17.045  0.4120  1.0935  0.2730
 4278SOL     OW24292   2.983   3.534   2.190  0.1515  0.4071 -0.5974
 4278SOL    HW124293   2.953   3.592   2.261 -0.4431  0.3626 -0.8131
 4278SOL    HW224294   2.934   3.579   2.121 -1.7530  1.7373  1.6088
 4279SOL     OW24295   0.024   2.277   8.012  0.2909 -0.3844  0.7440
 4279SOL    HW124296   0.119   2.272   8.003  0.3391 -0.3402  1.2459
 4279SOL    HW224297   4.719   2.334   8.085  1.5874  0.7182  0.3357
 4280SOL     OW24298   1.085   1.953   6.026 -0.4262 -0.1776  0.6182
 4280SOL    HW124299   1.181   1.959   6.024 -0.4613  0.9259  2.6392
 4280SOL    HW224300   1.070   2.038   6.067 -1.7018 -0.0298 -0.1924
 4281SOL     OW24301   4.054   2.304   7.983  0.2317 -0.4084  0.0876
 4281SOL    HW124302   3.965   2.271   7.969 -0.6237  1.6657  0.6182
 4281SOL    HW224303   4.087   2.272   7.900  0.8048  0.3032  0.0466
 4282SOL     OW24304   4.578   4.657   3.914 -0.7559 -0.2327  0.1317
 4282SOL    HW124305   4.636   4.683   3.843  0.1186  1.5975  1.5353
 4282SOL    HW224306   4.515   4.603   3.865  1.7706  0.9961 -4.3528
 4283SOL     OW24307   4.394   0.184   4.742 -0.1123  0.6160 -0.2138
 4283SOL    HW124308   4.467   0.190   4.682  0.8020 -0.4101  0.8082
 4283SOL    HW224309   4.321   0.202   4.683  0.5333  0.4158 -1.0586
 4284SOL     OW24310   2.793   1.160   7.741 -0.2303  0.8083 -0.2708
 4284SOL    HW124311   2.868   1.187   7.688 -0.4988  1.2695 -0.4104
 4284SOL    HW224312   2.772   1.242   7.785 -3.4279 -0.2823  0.2371
 4285SOL     OW24313   4.671   2.022   9.284 -0.2450  0.7172 -0.1472
 4285SOL    HW124314   4.698   1.930   9.278  2.1323  1.3477  1.2084
 4285SOL    HW224315   4.685   2.034   9.378 -0.9959 -2.1843  0.3459
 4286SOL     OW24316   0.238   2.775   5.642  0.2281  0.4595  0.2467
 4286SOL    HW124317   0.250   2.868   5.661  0.7424  0.3503  0.4308
 4286SOL    HW224318   0.322   2.744   5.675  0.6784 -2.0068 -3.2060
 4287SOL     OW24319   2.463   1.695   9.087  0.3699 -0.3635  0.5469
 4287SOL    HW124320   2.551   1.733   9.097  0.2748 -0.2239  0.8430
 4287SOL    HW224321   2.432   1.707   9.177 -0.3729 -1.6943  0.4635
 4288SOL     OW24322   2.939   4.291  15.828  0.0414  0.3062  0.7139
 4288SOL    HW124323   2.943   4.364  15.890 -0.3920  0.4493  0.5766
 4288SOL    HW224324   2.964   4.217  15.884 -0.6801 -0.5545 -0.1076
 4289SOL     OW24325   4.559   2.690   7.087 -0.1680  0.3673  0.4501
 4289SOL    HW124326   4.626   2.748   7.051  1.8848 -2.3057  0.0096
 4289SOL    HW224327   4.482   2.740   7.058 -0.2032 -0.7269 -1.3926
 4290SOL     OW24328   2.086   1.308   6.873  0.1952 -0.4965 -0.2494
 4290SOL    HW124329   2.015   1.258   6.911 -0.5199  1.0050  0.4109
 4290SOL    HW224330   2.054   1.393   6.904 -2.7362 -1.3283 -1.0292
 4291SOL     OW24331   4.447   1.362   0.172 -0.0955  0.2568 -0.3599
 4291SOL    HW124332   4.451   1.421   0.247  1.6793 -1.4506  0.8919
 4291SOL    HW224333   4.512   1.392   0.109 -1.2541 -1.0726 -2.2093
 4292SOL     OW24334   4.161   2.633   4.268 -0.2860 -0.0054 -0.1647
 4292SOL    HW124335   4.169   2.720   4.230  1.2461 -0.8193 -1.7072
 4292SOL    HW224336   4.254   2.612   4.272 -0.4064 -0.8598 -2.0623
 4293SOL     OW24337   2.791   0.530  13.644  0.1655 -0.2909  0.8148
 4293SOL    HW124338   2.838   0.496  13.721 -0.1373  2.3420  2.1705
 4293SOL    HW224339   2.707   0.562  13.676  0.1577  1.4253 -0.9806
 4294SOL     OW24340   0.181   2.637   7.835 -0.3970  0.1008  0.0473
 4294SOL    HW124341   0.244   2.621   7.764 -1.5381  0.7538 -1.1118
 4294SOL    HW224342   0.098   2.620   7.791 -0.5925  0.7216  0.1866
 4295SOL     OW24343   3.957   4.463   3.730  0.3506 -0.2851  0.0718
 4295SOL    HW124344   4.044   4.473   3.768  1.3736  2.3191 -2.9708
 4295SOL    HW224345   3.968   4.464   3.635 -2.5486 -0.7294 -0.2934
 4296SOL     OW24346   3.060   1.549   3.676  0.3389  0.1335  0.0540
 4296SOL    HW124347   3.112   1.627   3.694  1.4935 -0.2120 -1.7184
 4296SOL    HW224348   3.118   1.475   3.693 -1.6858 -1.5739 -0.3925
 4297SOL     OW24349   4.040   3.124   2.481  0.2368  0.0289 -0.0129
 4297SOL    HW124350   4.099   3.109   2.555 -1.1683  0.4648  1.2125
 4297SOL    HW224351   4.074   3.071   2.409  2.3341  0.0924  0.9517
 4298SOL     OW24352   4.208   1.294   7.088  0.3808 -0.2164  0.2237
 4298SOL    HW124353   4.155   1.215   7.092 -0.2037  0.1619 -0.0865
 4298SOL    HW224354   4.192   1.322   7.178  3.5511 -0.8947  1.0095
 4299SOL     OW24355   2.324   2.634   5.813 -0.1937 -0.9345 -0.3213
 4299SOL    HW124356   2.387   2.562   5.805  1.2534  0.2651  0.1040
 4299SOL    HW224357   2.393   2.698   5.796  0.5551 -1.4524  0.7152
 4300SOL     OW24358   1.659   0.192   8.845 -0.3521  0.1843 -0.0800
 4300SOL    HW124359   1.703   0.273   8.822 -0.4019  0.0541 -0.6299
 4300SOL    HW224360   1.605   0.166   8.770 -0.7796  0.2269  0.2134
 4301SOL     OW24361   2.592   4.460   2.238  0.4851 -0.4729 -0.2688
 4301SOL    HW124362   2.500   4.462   2.210  0.5405 -0.3051 -0.4337
 4301SOL    HW224363   2.594   4.543   2.286 -0.4392 -0.9520  0.6029
 4302SOL     OW24364   1.575   0.378   2.759 -0.2073 -0.5663 -0.6110
 4302SOL    HW124365   1.597   0.412   2.846 -1.8299  0.1406 -0.4631
 4302SOL    HW224366   1.644   0.419   2.708  0.4419  0.2031  0.8725
 4303SOL     OW24367   4.479   3.941   7.077 -0.8494  0.1818 -0.1996
 4303SOL    HW124368   4.504   3.890   7.154 -1.2944 -0.5130 -0.5137
 4303SOL    HW224369   4.550   4.005   7.079  0.4245 -1.1810 -1.2047
 4304SOL     OW24370   2.933   0.909   3.825  0.0066 -0.7869 -0.3831
 4304SOL    HW124371   2.978   0.831   3.792  1.6696  0.4260 -0.9568
 4304SOL    HW224372   2.988   0.916   3.903 -1.3532 -1.2565  0.6200
 4305SOL     OW24373   2.617   1.418   4.850 -0.9709  0.4967  0.8201
 4305SOL    HW124374   2.699   1.446   4.890 -0.6443  0.5210  0.1339
 4305SOL    HW224375   2.583   1.502   4.820 -1.5433 -0.2445 -0.6073
 4306SOL     OW24376   1.839   0.890   5.560 -0.3363 -0.0586  0.0894
 4306SOL    HW124377   1.763   0.943   5.584 -0.5310  0.5189 -1.7999
 4306SOL    HW224378   1.885   0.960   5.513  0.3660 -0.5123  0.0964
 4307SOL     OW24379   1.617   2.580   5.813  0.4710 -0.2457 -0.4990
 4307SOL    HW124380   1.645   2.511   5.873  3.5722  0.9693 -0.5637
 4307SOL    HW224381   1.674   2.646   5.851  0.0925 -0.6270  0.7049
 4308SOL     OW24382   3.516   1.180   5.132  0.1538 -0.2288 -0.1817
 4308SOL    HW124383   3.603   1.198   5.167 -0.4589  2.3288  0.0444
 4308SOL    HW224384   3.475   1.148   5.212  0.3176  1.3113  0.5139
 4309SOL     OW24385   3.985   3.274   1.526  0.1210  0.9742  0.6550
 4309SOL    HW124386   3.942   3.359   1.534 -2.0764  0.1878 -2.9365
 4309SOL    HW224387   4.075   3.305   1.516 -0.2028  1.8645  0.5583
 4310SOL     OW24388   0.660   3.768   1.801  0.6798  0.4872 -0.1958
 4310SOL    HW124389   0.572   3.740   1.777  0.5225  0.6108  0.2310
 4310SOL    HW224390   0.678   3.715   1.879 -2.7484  0.8641  0.8527
 4311SOL     OW24391   1.452   4.422   4.959 -0.1511 -0.4470  0.4434
 4311SOL    HW124392   1.444   4.408   5.054 -2.0781 -2.3947 -0.0174
 4311SOL    HW224393   1.361   4.404   4.935 -0.2034 -2.0785  1.8598
 4312SOL     OW24394   2.579   3.684   5.911  0.2796 -0.0522  0.7034
 4312SOL    HW124395   2.612   3.769   5.881 -2.0540  0.4133 -0.5094
 4312SOL    HW224396   2.659   3.642   5.941  0.7280 -1.0291 -1.8449
 4313SOL     OW24397   2.555   4.144   9.321 -0.2090 -0.1911  0.0673
 4313SOL    HW124398   2.541   4.224   9.372 -2.2108  0.3695 -1.3891
 4313SOL    HW224399   2.617   4.185   9.260  0.3137 -0.0388  0.6987
 4314SOL     OW24400   3.557   0.776   3.315  0.0247 -0.2285  0.6120
 4314SOL    HW124401   3.533   0.770   3.407 -1.3310 -2.0776  0.1406
 4314SOL    HW224402   3.597   0.863   3.308  1.5729 -0.6554  4.5284
 4315SOL     OW24403   3.993   3.494  15.618 -0.1747 -0.4158  0.0479
 4315SOL    HW124404   4.052   3.422  15.636  1.0311  0.2057 -1.4052
 4315SOL    HW224405   3.956   3.462  15.535 -2.2093  0.7882  0.4915
 4316SOL     OW24406   4.398   1.291  12.270 -0.4829 -0.3101 -0.5084
 4316SOL    HW124407   4.426   1.238  12.344  2.2606 -0.5985 -1.7515
 4316SOL    HW224408   4.457   1.366  12.272 -0.8387 -0.1499  3.4720
 4317SOL     OW24409   1.133   4.704   8.831  0.1990 -0.5402  0.1998
 4317SOL    HW124410   1.224   4.711   8.858  0.3262 -0.1382 -0.3219
 4317SOL    HW224411   1.140   4.687   8.737  0.3316 -0.2323  0.1556
 4318SOL     OW24412   1.969   2.638   6.826 -0.2164 -0.3268  0.7392
 4318SOL    HW124413   2.008   2.570   6.880 -0.7914  0.9176  2.7218
 4318SOL    HW224414   1.969   2.592   6.742 -1.0328  1.7551 -0.4163
 4319SOL     OW24415   2.371   1.621  11.818  0.1947  0.4955  0.1401
 4319SOL    HW124416   2.334   1.571  11.890 -0.7668 -0.3924 -0.9541
 4319SOL    HW224417   2.381   1.559  11.746  0.4923 -0.9284  1.4144
 4320SOL     OW24418   3.533   3.171  12.820 -0.1843 -0.4983  0.2089
 4320SOL    HW124419   3.595   3.147  12.752 -0.0048 -1.8468  0.8596
 4320SOL    HW224420   3.577   3.141  12.900  0.1037 -0.8771 -0.0952
 4321SOL     OW24421   3.540   4.657   6.439  0.0523 -0.2130 -0.5696
 4321SOL    HW124422   3.592   4.711   6.498 -0.3450  0.4672 -0.8307
 4321SOL    HW224423   3.596   4.580   6.437 -0.1594 -0.3804  0.1675
 4322SOL     OW24424   0.642   1.835   2.224 -0.3407  0.1194  0.0391
 4322SOL    HW124425   0.680   1.919   2.197  3.2082 -0.9015  1.9238
 4322SOL    HW224426   0.708   1.774   2.191 -0.5200  0.1824 -0.4422
 4323SOL     OW24427   1.774   2.069   4.224 -0.2557 -0.0216 -0.0156
 4323SOL    HW124428   1.760   2.162   4.210 -0.0395  0.0714  0.3707
 4323SOL    HW224429   1.731   2.024   4.151  0.1802 -1.8412  0.8285
 4324SOL     OW24430   2.343   3.537   8.225  0.1297 -0.0684 -0.3926
 4324SOL    HW124431   2.310   3.560   8.312  3.2465  2.1122  0.2130
 4324SOL    HW224432   2.270   3.511   8.170 -0.2416  1.9316 -0.8410
 4325SOL     OW24433   0.998   3.280   8.388 -0.2347 -0.4599  0.0179
 4325SOL    HW124434   1.024   3.199   8.344  1.2211  0.3004 -0.5265
 4325SOL    HW224435   0.975   3.236   8.470 -0.0691 -0.7218 -0.0777
 4326SOL     OW24436   3.989   4.292  16.329  0.4516 -0.1583 -0.2075
 4326SOL    HW124437   3.968   4.354  16.399 -1.3627  1.2328 -1.9785
 4326SOL    HW224438   3.962   4.211  16.373  0.0557 -1.2156 -2.4286
 4327SOL     OW24439   3.520   1.936   3.316 -0.3459  0.0304  0.2487
 4327SOL    HW124440   3.591   1.970   3.263 -1.1277  0.6946 -0.3830
 4327SOL    HW224441   3.577   1.889   3.377  0.5285  1.0475  0.2110
 4328SOL     OW24442   0.993   3.462   8.123 -0.0041 -0.0524  0.6690
 4328SOL    HW124443   0.978   3.402   8.050 -0.0659 -1.0470  1.5071
 4328SOL    HW224444   1.011   3.396   8.189 -0.3010  0.7958  1.5919
 4329SOL     OW24445   0.803   1.344  17.241 -0.1493 -0.3711  0.3123
 4329SOL    HW124446   0.894   1.349  17.271  0.5269 -0.9817 -1.6535
 4329SOL    HW224447   0.766   1.426  17.274 -0.4281 -1.1238  1.8383
 4330SOL     OW24448   3.225   3.358  16.226 -0.4036 -0.1991 -0.2507
 4330SOL    HW124449   3.146   3.305  16.233 -0.0505 -0.5447  1.1835
 4330SOL    HW224450   3.208   3.444  16.263  0.5112 -0.2580  0.3136
 4331SOL     OW24451   4.640   4.687   9.714 -0.5182  0.5934  0.1317
 4331SOL    HW124452   4.595   0.000   9.791 -1.5701  0.1739 -0.2988
 4331SOL    HW224453   4.665   4.603   9.752 -4.1928 -0.5775  0.0203
 4332SOL     OW24454   0.100   0.460  10.830 -0.1111  0.1889  0.2198
 4332SOL    HW124455   0.108   0.497  10.917 -0.9093  0.0029  0.3777
 4332SOL    HW224456   0.085   0.543  10.784  0.6626 -0.4927 -1.2637
 4333SOL     OW24457   2.668   3.003   6.503 -0.0324 -0.3314 -0.5039
 4333SOL    HW124458   2.749   2.971   6.463 -0.3823 -1.4083 -0.3593
 4333SOL    HW224459   2.647   3.086   6.460 -1.1324  0.5699  1.7870
 4334SOL     OW24460   3.204   1.438  14.815  0.0426 -0.0237  0.0405
 4334SOL    HW124461   3.285   1.444  14.764 -0.0504  0.2079 -0.0794
 4334SOL    HW224462   3.233   1.480  14.896 -1.7366 -0.2270  0.7767
 4335SOL     OW24463   1.611   3.516   3.027 -0.4169  0.2013  0.0491
 4335SOL    HW124464   1.529   3.472   3.049 -0.9143  0.9378 -0.3580
 4335SOL    HW224465   1.591   3.524   2.934 -1.5056 -1.1079  0.1598
 4336SOL     OW24466   0.801   3.233  13.423 -0.2481 -0.0783 -0.1209
 4336SOL    HW124467   0.816   3.266  13.512 -0.6999 -1.3238  0.4265
 4336SOL    HW224468   0.888   3.204  13.398  0.5048  0.3167  2.0265
 4337SOL     OW24469   2.401   4.655  14.199 -0.3353  0.2102 -0.0560
 4337SOL    HW124470   2.417   4.563  14.180 -0.6876 -0.0113  0.6963
 4337SOL    HW224471   2.315   4.674  14.162 -0.8720 -0.2386  0.9586
 4338SOL     OW24472   3.241   3.641   8.922 -0.3483  0.1611 -0.0426
 4338SOL    HW124473   3.248   3.603   9.010  0.7289 -1.2248 -0.7395
 4338SOL    HW224474   3.149   3.623   8.901 -0.2504  0.2361 -0.5280
 4339SOL     OW24475   3.140   1.036   7.060  0.2520 -0.3815 -0.4075
 4339SOL    HW124476   3.063   1.043   7.116  0.4029  1.0195 -0.3946
 4339SOL    HW224477   3.201   1.102   7.090  0.8943 -1.3976  0.5229
 4340SOL     OW24478   3.172   2.616   9.023  0.2646  0.0628 -0.0974
 4340SOL    HW124479   3.215   2.546   9.071 -0.7404 -0.5749 -0.1151
 4340SOL    HW224480   3.083   2.587   9.045  0.6583  0.4796  2.0117
 4341SOL     OW24481   2.779   0.185   0.214  0.1014 -0.0832 -0.3927
 4341SOL    HW124482   2.760   0.192   0.120 -0.5230 -0.4017 -0.2925
 4341SOL    HW224483   2.693   0.154   0.244  0.8125 -1.8202 -0.1663
 4342SOL     OW24484   0.733   2.355  16.678 -0.0359 -0.0694 -0.7226
 4342SOL    HW124485   0.800   2.423  16.683 -0.6451  0.2869  2.2759
 4342SOL    HW224486   0.765   2.283  16.733  0.7589  0.6949 -0.1929
 4343SOL     OW24487   3.482   3.461   3.464 -0.1065 -0.0836  0.0363
 4343SOL    HW124488   3.406   3.420   3.423 -0.3822 -1.8688  2.3190
 4343SOL    HW224489   3.448   3.548   3.483 -0.3654  0.4089 -2.6863
 4344SOL     OW24490   4.408   4.024   3.177 -0.0400 -0.1265 -0.2560
 4344SOL    HW124491   4.481   4.082   3.197 -1.9501  0.9785  3.5780
 4344SOL    HW224492   4.391   4.051   3.087  2.7633  3.3285  0.2507
 4345SOL     OW24493   4.480   1.900  10.674 -0.2787  0.6841 -0.0832
 4345SOL    HW124494   4.434   1.827  10.716 -0.0779  0.6800  0.1276
 4345SOL    HW224495   4.562   1.859  10.648  0.1815  1.9029 -0.5367
 4346SOL     OW24496   4.367   3.318   4.046  0.3231  0.5543 -0.1162
 4346SOL    HW124497   4.352   3.285   3.957 -1.1662  0.5712  0.1253
 4346SOL    HW224498   4.458   3.294   4.065 -0.5586 -3.0021 -0.4961
 4347SOL     OW24499   1.345   3.194  14.062 -0.3292  0.0194 -0.4424
 4347SOL    HW124500   1.280   3.139  14.105 -0.1180 -1.0715 -1.5321
 4347SOL    HW224501   1.283   3.265  14.041 -0.4214 -0.0397 -0.3683
 4348SOL     OW24502   2.467   1.820   4.530  0.0091  0.0108  0.1011
 4348SOL    HW124503   2.441   1.859   4.446 -0.6457 -0.0915  0.2555
 4348SOL    HW224504   2.551   1.781   4.505  0.5600  1.5718 -0.4669
 4349SOL     OW24505   4.300   0.432   6.891  0.1423 -0.5304 -0.0114
 4349SOL    HW124506   4.217   0.448   6.936  0.6677 -1.4514  1.2435
 4349SOL    HW224507   4.273   0.361   6.833  0.6414 -1.3108  0.7295
 4350SOL     OW24508   1.348   1.942   9.293  0.4375 -0.0050  0.4920
 4350SOL    HW124509   1.321   1.909   9.378  0.5508 -0.2035  0.4497
 4350SOL    HW224510   1.292   1.892   9.233  1.6426 -0.5242 -0.1861
 4351SOL     OW24511   3.538   4.377  15.483 -0.3475 -0.0651 -0.6381
 4351SOL    HW124512   3.521   4.313  15.414 -1.3937  0.1216 -0.5492
 4351SOL    HW224513   3.576   4.321  15.551  1.5047  0.1999 -1.4550
 4352SOL     OW24514   2.750   0.609   0.903 -0.8567  0.7225  0.2144
 4352SOL    HW124515   2.715   0.583   0.817  1.6742 -1.5039 -0.1455
 4352SOL    HW224516   2.675   0.662   0.930 -1.0889  1.6261 -2.1501
 4353SOL     OW24517   3.585   3.019   5.080 -0.0372  0.1740  0.6756
 4353SOL    HW124518   3.645   3.079   5.125  1.3339 -0.5307 -0.2203
 4353SOL    HW224519   3.559   3.077   5.008 -2.9473 -3.4321 -1.1632
 4354SOL     OW24520   0.687   4.088   7.853  0.2485 -0.3680  0.0443
 4354SOL    HW124521   0.703   4.155   7.786  1.3909  0.0703  0.7656
 4354SOL    HW224522   0.724   4.015   7.804  2.3314  0.1324  0.8801
 4355SOL     OW24523   3.126   2.712  11.315 -0.5708 -0.1208 -0.6652
 4355SOL    HW124524   3.113   2.651  11.242 -0.9622  0.3476 -0.9892
 4355SOL    HW224525   3.218   2.738  11.308 -0.9956  1.9976  1.8410
 4356SOL     OW24526   0.356   2.132  17.571 -0.1092 -0.1013  0.5603
 4356SOL    HW124527   0.398   2.198  17.516 -1.4076 -0.4885 -0.9001
 4356SOL    HW224528   0.343   2.184  17.650 -1.0685  0.3682  0.0861
 4357SOL     OW24529   2.096   3.579  14.639  0.4264  0.1333  0.3680
 4357SOL    HW124530   2.042   3.558  14.563  1.6998  0.9497 -0.7578
 4357SOL    HW224531   2.029   3.579  14.708 -0.8343 -1.0512 -0.8596
 4358SOL     OW24532   2.836   0.806   4.713  0.0105  0.2791  0.1282
 4358SOL    HW124533   2.924   0.834   4.740  1.6577 -0.8056 -4.0536
 4358SOL    HW224534   2.864   0.746   4.644  0.5827 -0.0793  0.6709
 4359SOL     OW24535   2.492   4.635   6.202 -0.4385 -0.2531  0.0351
 4359SOL    HW124536   2.509   4.703   6.137 -0.6606  0.8143  1.0919
 4359SOL    HW224537   2.564   4.575   6.182 -0.7363 -0.9170  0.9551
 4360SOL     OW24538   0.023   2.330   4.209 -0.1193 -0.0450 -0.6592
 4360SOL    HW124539   4.652   2.343   4.183 -0.2158 -1.7877 -1.1600
 4360SOL    HW224540   0.046   2.406   4.263  0.7692 -0.6243 -0.2375
 4361SOL     OW24541   0.617   4.280  17.556  0.0988 -0.1739  0.0025
 4361SOL    HW124542   0.591   4.286  17.464 -2.5219  2.3943  0.8772
 4361SOL    HW224543   0.675   4.355  17.567 -0.5968  0.3364  0.2218
 4362SOL     OW24544   3.945   3.555  14.810  0.7252 -0.1104  0.1778
 4362SOL    HW124545   3.978   3.494  14.744  2.2147  1.5378 -0.6056
 4362SOL    HW224546   4.021   3.611  14.826  1.6182 -1.0720 -0.7543
 4363SOL     OW24547   2.061   0.488   5.706 -0.0865  0.2393  0.7101
 4363SOL    HW124548   2.116   0.486   5.628 -0.2968  0.8320  0.5482
 4363SOL    HW224549   1.976   0.517   5.673 -1.3392 -3.2137  0.7988
 4364SOL     OW24550   3.137   4.145   2.672  0.3003  0.6759 -0.1924
 4364SOL    HW124551   3.102   4.062   2.705  0.3925 -0.0780 -1.9595
 4364SOL    HW224552   3.123   4.201   2.748  0.9624 -1.1993  1.3146
 4365SOL     OW24553   4.134   3.516   9.321  0.4806  0.5212  0.5891
 4365SOL    HW124554   4.211   3.528   9.265  0.8353 -1.0936  0.7445
 4365SOL    HW224555   4.081   3.587   9.283 -0.8632 -0.7628  0.0481
 4366SOL     OW24556   4.531   0.187  11.834 -0.2788 -0.4998 -0.4004
 4366SOL    HW124557   4.580   0.243  11.894 -2.1556 -1.8885  2.4253
 4366SOL    HW224558   4.446   0.174  11.877 -0.2574 -0.6522 -0.4045
 4367SOL     OW24559   4.190   2.918   4.715  0.0738  0.3255  0.1134
 4367SOL    HW124560   4.094   2.917   4.718  0.1295  0.0963  1.5135
 4367SOL    HW224561   4.201   2.882   4.627  1.3251 -0.0075  0.4063
 4368SOL     OW24562   1.883   3.808  13.757 -0.5036 -0.1779  0.1689
 4368SOL    HW124563   1.880   3.830  13.850  1.9811  3.4975 -0.6075
 4368SOL    HW224564   1.893   3.894  13.716  0.3423 -1.4956 -2.3981
 4369SOL     OW24565   0.628   0.043   6.730  0.0452  0.1085 -0.0670
 4369SOL    HW124566   0.614   4.709   6.652 -0.7300 -2.8427  2.1094
 4369SOL    HW224567   0.713   0.080   6.706  0.7673 -0.7998  1.1002
 4370SOL     OW24568   1.780   3.093   5.561 -0.0553 -0.3027 -0.4343
 4370SOL    HW124569   1.809   3.022   5.618  0.0788 -0.5060 -0.7579
 4370SOL    HW224570   1.725   3.148   5.618  1.3399  0.1476  0.4791
 4371SOL     OW24571   3.822   1.636   3.932  0.4756  0.2403  0.0940
 4371SOL    HW124572   3.791   1.724   3.909  0.0122  0.0624  0.0280
 4371SOL    HW224573   3.896   1.666   3.985  0.8579  0.1793 -0.4058
 4372SOL     OW24574   2.103   4.038   8.339  0.5911 -0.2343 -0.1645
 4372SOL    HW124575   2.145   3.986   8.271  0.9163  0.9545 -0.8612
 4372SOL    HW224576   2.019   3.995   8.359  1.2111 -0.8898  1.0253
 4373SOL     OW24577   4.674   1.817   6.475 -0.1585  0.6563 -0.2542
 4373SOL    HW124578   0.024   1.762   6.509 -0.5895 -0.9685 -2.0016
 4373SOL    HW224579   4.621   1.745   6.440 -0.4312  0.4477  0.5895
 4374SOL     OW24580   3.969   0.897   1.326 -0.1641  0.4127  0.2293
 4374SOL    HW124581   3.923   0.819   1.294 -0.6167  0.4154  0.8737
 4374SOL    HW224582   4.023   0.930   1.254 -3.4383  3.0821 -1.0273
 4375SOL     OW24583   2.212   0.425   8.567 -0.3262 -0.2267 -0.2063
 4375SOL    HW124584   2.122   0.393   8.559  0.3057 -1.8415 -0.8539
 4375SOL    HW224585   2.220   0.476   8.648  0.9501 -0.0649 -0.4341
 4376SOL     OW24586   4.428   1.560   8.096  0.0614 -0.1384 -0.1283
 4376SOL    HW124587   4.382   1.634   8.057  2.0929 -0.1052 -2.4306
 4376SOL    HW224588   4.505   1.552   8.041 -0.7915 -0.5507 -1.2732
 4377SOL     OW24589   3.823   0.158   6.955 -0.0438 -0.6558 -0.9517
 4377SOL    HW124590   3.903   0.156   7.007 -0.7905  0.2519  0.2361
 4377SOL    HW224591   3.765   0.189   7.024 -0.0350  0.5440 -1.4800
 4378SOL     OW24592   4.296   1.472  12.057 -0.3656  0.0738 -0.1034
 4378SOL    HW124593   4.201   1.478  12.046 -0.3579  0.7801  0.1772
 4378SOL    HW224594   4.303   1.418  12.135  0.9941 -1.8953 -1.6037
 4379SOL     OW24595   1.485   1.949  12.760 -0.0747 -0.0479 -0.7122
 4379SOL    HW124596   1.510   1.885  12.826 -1.0738 -0.4528 -0.7312
 4379SOL    HW224597   1.560   1.946  12.701 -0.1372 -1.2588 -0.7233
 4380SOL     OW24598   2.158   0.054   9.121  0.4439  0.1200  0.4801
 4380SOL    HW124599   2.089   4.708   9.119  1.0934 -0.5748  1.1142
 4380SOL    HW224600   2.206   4.715   9.179  0.1909 -0.0199  0.5484
 4381SOL     OW24601   0.045   3.693   0.777 -0.1506 -0.0556  0.0870
 4381SOL    HW124602   0.027   3.634   0.851  0.7660  1.3697  1.4706
 4381SOL    HW224603   0.119   3.734   0.823  1.9263 -2.1125 -1.4345
 4382SOL     OW24604   1.187   1.636   6.934  0.0439 -0.1381  0.3687
 4382SOL    HW124605   1.278   1.609   6.919  0.2320  0.4646  0.3890
 4382SOL    HW224606   1.174   1.692   6.857  0.1475 -1.0898 -0.3478
 4383SOL     OW24607   2.623   4.696   9.466 -0.6139 -0.2560 -0.3274
 4383SOL    HW124608   2.645   0.047   9.406  0.3178 -1.0026 -0.8820
 4383SOL    HW224609   2.693   4.709   9.529 -0.5241 -1.5344 -0.1679
 4384SOL     OW24610   2.023   0.658   6.934 -0.3411 -0.6928  0.0860
 4384SOL    HW124611   1.950   0.604   6.905 -0.2430  0.2275 -1.8284
 4384SOL    HW224612   2.055   0.604   7.007 -2.0568 -1.5192  0.2308
 4385SOL     OW24613   2.855   3.851   2.320 -0.1060 -0.1888 -0.0262
 4385SOL    HW124614   2.772   3.804   2.318  0.3208 -0.9653  0.7858
 4385SOL    HW224615   2.863   3.854   2.225 -0.0108 -1.7330 -0.0549
 4386SOL     OW24616   4.569   2.913   4.653  0.0630  0.1731 -0.1914
 4386SOL    HW124617   4.508   2.929   4.725  1.7330  1.2709  0.9815
 4386SOL    HW224618   4.517   2.868   4.587  2.4363 -0.9249 -1.3160
 4387SOL     OW24619   0.160   3.294   7.133 -0.4276  0.7501  0.4837
 4387SOL    HW124620   0.108   3.223   7.170 -1.7668  1.6615  0.3717
 4387SOL    HW224621   0.240   3.243   7.140 -0.7870  0.0247 -0.6567
 4388SOL     OW24622   3.902   3.524   6.494 -0.0606  0.4720  0.3603
 4388SOL    HW124623   3.808   3.517   6.510 -0.6215  1.2627 -2.6118
 4388SOL    HW224624   3.928   3.605   6.538 -0.8016  0.1383  1.4195
 4389SOL     OW24625   3.063   3.454   6.404  0.7708 -0.2593 -0.0177
 4389SOL    HW124626   3.064   3.377   6.461 -1.5462  0.8747  1.5668
 4389SOL    HW224627   3.154   3.483   6.396  0.8796 -0.9525 -1.2895
 4390SOL     OW24628   2.680   3.536   6.185 -0.0774 -0.5183 -0.0049
 4390SOL    HW124629   2.717   3.623   6.169  0.8011 -1.0564 -0.8629
 4390SOL    HW224630   2.701   3.525   6.277  0.7175 -0.4774 -0.1799
 4391SOL     OW24631   1.987   0.782   8.707  0.3267  0.1509  0.2157
 4391SOL    HW124632   1.975   0.874   8.684 -1.0421  0.4937  2.2808
 4391SOL    HW224633   1.930   0.771   8.783  0.9700 -0.5301  0.5953
 4392SOL     OW24634   2.471   3.867   2.814 -0.0045 -0.2253 -0.0880
 4392SOL    HW124635   2.430   3.830   2.892 -2.4969 -0.5398 -1.5613
 4392SOL    HW224636   2.560   3.847   2.842 -0.0662  1.9549  1.7126
 4393SOL     OW24637   4.073   3.266   9.523 -0.1534 -0.1242 -0.4179
 4393SOL    HW124638   4.097   3.231   9.437 -5.2674  0.8867 -2.2357
 4393SOL    HW224639   4.122   3.348   9.530 -4.2806  2.3047 -0.3351
 4394SOL     OW24640   0.289   4.096   6.129 -0.3161  0.2495 -0.0946
 4394SOL    HW124641   0.369   4.148   6.123 -1.7748  2.4176 -0.8237
 4394SOL    HW224642   0.322   4.030   6.190 -0.4450  1.7421  1.6112
 4395SOL     OW24643   0.008   1.455  10.688  0.2687 -0.1269 -0.4434
 4395SOL    HW124644   0.104   1.452  10.688  0.3861  4.4497 -1.2153
 4395SOL    HW224645   4.708   1.361  10.684 -1.8667  0.3564 -0.8640
 4396SOL     OW24646   3.845   2.408   0.266  0.3894 -0.4774 -0.2581
 4396SOL    HW124647   3.856   2.337   0.202 -0.3727 -1.2905  0.5087
 4396SOL    HW224648   3.818   2.479   0.208 -1.5193  1.6763  3.2619
 4397SOL     OW24649   4.613   1.353   9.278  0.4948 -0.3823 -0.2402
 4397SOL    HW124650   4.544   1.290   9.303 -0.9130  1.3035  0.1282
 4397SOL    HW224651   4.566   1.405   9.213 -0.2765 -2.2391 -1.1902
 4398SOL     OW24652   0.543   4.690   5.750 -0.1921 -0.2750  0.6053
 4398SOL    HW124653   0.503   0.041   5.699  2.0994  1.8633  1.7808
 4398SOL    HW224654   0.591   0.014   5.820  1.4416  0.6994 -1.1203
 4399SOL     OW24655   4.065   2.023   8.765  0.2234  0.0246  0.4589
 4399SOL    HW124656   4.147   1.973   8.767  0.9883  1.3139  1.5974
 4399SOL    HW224657   4.072   2.070   8.848  1.8070  0.0991  0.2937
 4400SOL     OW24658   0.366   1.931   7.393 -0.6298 -1.0198  0.4577
 4400SOL    HW124659   0.438   1.989   7.419 -1.7013 -0.0422  1.2519
 4400SOL    HW224660   0.397   1.862   7.334  1.0134 -0.9316  1.2009
 4401SOL     OW24661   4.679   1.718   8.895  0.2430 -0.0748  0.1033
 4401SOL    HW124662   0.032   1.734   8.955  0.3621 -1.6917  0.3669
 4401SOL    HW224663   4.718   1.693   8.812 -0.5514 -0.4446 -0.1537
 4402SOL     OW24664   3.136   1.583  14.135  0.0052  0.3811 -0.3656
 4402SOL    HW124665   3.143   1.559  14.228  2.3935  2.1479 -0.1043
 4402SOL    HW224666   3.196   1.522  14.091  3.3032  2.9482  0.6278
 4403SOL     OW24667   4.421   0.880   6.638 -0.4653  0.4002  0.2960
 4403SOL    HW124668   4.498   0.884   6.695  0.6324 -0.2362 -1.1560
 4403SOL    HW224669   4.395   0.788   6.651  0.4558 -0.0196 -0.8413
 4404SOL     OW24670   0.150   4.210   9.759  0.0244 -0.1205 -0.0496
 4404SOL    HW124671   0.139   4.258   9.677 -1.0770 -1.8111 -0.8822
 4404SOL    HW224672   0.069   4.160   9.767  0.3854 -0.7543 -0.3556
 4405SOL     OW24673   3.161   4.494   2.748 -0.4470 -0.1878 -0.6520
 4405SOL    HW124674   3.082   4.544   2.728 -0.2182 -0.2217 -1.6446
 4405SOL    HW224675   3.207   4.503   2.665  1.7713  3.9139  1.0043
 4406SOL     OW24676   3.146   2.130   2.083 -0.4023  0.0476  0.4801
 4406SOL    HW124677   3.172   2.100   2.170  1.7785 -0.1098 -0.2345
 4406SOL    HW224678   3.229   2.160   2.046 -0.9850  0.2214 -0.6828
 4407SOL     OW24679   2.131   1.095   8.887  0.2784  0.1476 -0.1829
 4407SOL    HW124680   2.209   1.138   8.922 -2.1568  3.1706  1.4361
 4407SOL    HW224681   2.132   1.006   8.921  0.8232  0.0201 -0.5313
 4408SOL     OW24682   1.501   1.517   3.180  0.2276 -0.0468 -0.0576
 4408SOL    HW124683   1.471   1.443   3.127 -0.1771  0.6382 -0.7864
 4408SOL    HW224684   1.567   1.462   3.223  0.4433 -0.1527 -0.5207
 4409SOL     OW24685   4.556   2.027   2.728  0.6304 -0.1803  0.2304
 4409SOL    HW124686   4.625   1.961   2.718  1.9485  0.9776  1.6363
 4409SOL    HW224687   4.568   2.068   2.642 -0.1023  2.1259  1.2454
 4410SOL     OW24688   2.065   3.978   5.097  0.6241 -0.0991  0.1255
 4410SOL    HW124689   2.062   3.892   5.056  1.1109  0.7368 -1.6363
 4410SOL    HW224690   1.998   3.974   5.166 -0.6168  1.9643 -0.9642
 4411SOL     OW24691   4.547   2.044   4.976  0.4804  0.1371  0.2058
 4411SOL    HW124692   4.516   1.976   4.916 -0.8555  0.1854  0.8407
 4411SOL    HW224693   4.589   2.101   4.912 -1.4067  0.6784 -0.5612
 4412SOL     OW24694   0.607   2.594   5.869  0.1199  0.6138  0.3722
 4412SOL    HW124695   0.640   2.512   5.833 -2.1055  0.5476 -1.4221
 4412SOL    HW224696   0.631   2.578   5.961 -0.0194  1.1341  0.4986
 4413SOL     OW24697   2.487   2.463   4.866  0.6306 -0.1827 -0.1577
 4413SOL    HW124698   2.419   2.501   4.811  2.5209 -1.4638 -3.3653
 4413SOL    HW224699   2.433   2.426   4.936  0.1101  1.6868  0.4207
 4414SOL     OW24700   1.637   2.509   4.476  0.7604  0.4177  0.3357
 4414SOL    HW124701   1.647   2.494   4.570 -0.0964 -0.5316  0.2800
 4414SOL    HW224702   1.542   2.523   4.468  0.7118 -1.2106 -1.7690
 4415SOL     OW24703   2.751   3.087   2.575  0.1232 -0.1396 -0.1271
 4415SOL    HW124704   2.780   3.096   2.485 -1.9517  1.7834 -0.5795
 4415SOL    HW224705   2.682   3.153   2.577  0.4144  0.1283  1.2916
 4416SOL     OW24706   3.482   0.354   8.835  0.1725  0.4288  0.6676
 4416SOL    HW124707   3.387   0.355   8.845  0.1951 -0.2057  0.8947
 4416SOL    HW224708   3.483   0.328   8.742  2.8334  1.0421  0.5253
 4417SOL     OW24709   2.054   3.132  15.678 -0.2509  0.0981 -0.4842
 4417SOL    HW124710   1.965   3.096  15.672 -0.4076  0.4196 -0.1617
 4417SOL    HW224711   2.060   3.159  15.770 -1.7482  1.2089 -0.6966
 4418SOL     OW24712   4.119   1.092   9.037 -0.6001 -0.1210 -0.0602
 4418SOL    HW124713   4.113   1.187   9.043 -3.4915 -0.3340  0.1378
 4418SOL    HW224714   4.199   1.073   9.086 -0.8002  0.5085  0.5092
 4419SOL     OW24715   2.525   0.073   4.548  0.3538 -0.0694 -0.9280
 4419SOL    HW124716   2.610   0.076   4.593  0.3366 -0.9193 -0.8458
 4419SOL    HW224717   2.520   0.165   4.521 -1.1406  0.3093  0.7028
 4420SOL     OW24718   0.269   0.867   3.562  0.1840 -0.3456 -0.2308
 4420SOL    HW124719   0.319   0.938   3.603 -1.2421 -0.2529  1.3586
 4420SOL    HW224720   0.336   0.829   3.506 -0.6324 -2.0037 -0.0779
 4421SOL     OW24721   3.787   4.642   8.830 -0.0196 -0.5285  0.5634
 4421SOL    HW124722   3.701   4.684   8.833  0.2686  0.2045 -1.1010
 4421SOL    HW224723   3.799   4.643   8.735  0.0519  3.9565  0.6205
 4422SOL     OW24724   2.094   3.585   3.253  0.2695 -0.2159 -0.1140
 4422SOL    HW124725   2.024   3.529   3.288 -1.3146  1.5745 -0.3623
 4422SOL    HW224726   2.063   3.591   3.163 -0.7509  1.4729  0.3240
 4423SOL     OW24727   3.109   2.628   8.495 -0.2513 -0.1390  0.5370
 4423SOL    HW124728   3.069   2.656   8.412 -2.1000 -1.9080  0.8417
 4423SOL    HW224729   3.175   2.692   8.521 -0.8580  1.0783 -0.8352
 4424SOL     OW24730   3.162   2.325   4.280 -0.0183 -0.2358  0.3979
 4424SOL    HW124731   3.209   2.291   4.356 -1.1414  0.5214  1.4449
 4424SOL    HW224732   3.126   2.247   4.238 -3.8671  0.9560  1.4001
 4425SOL     OW24733   2.762   1.603   0.712 -0.1987  0.2752 -0.1154
 4425SOL    HW124734   2.784   1.670   0.647  1.4307 -0.6607 -0.5266
 4425SOL    HW224735   2.750   1.661   0.788 -3.5003 -0.7226  0.1209
 4426SOL     OW24736   2.502   4.043   3.367 -0.3976  0.0743  0.0951
 4426SOL    HW124737   2.440   4.039   3.294 -1.0118 -2.1414  0.7323
 4426SOL    HW224738   2.439   4.078   3.430  0.9001  0.3552  1.2331
 4427SOL     OW24739   2.991   1.812   2.422  0.2677 -0.5782  0.3426
 4427SOL    HW124740   3.007   1.788   2.513  0.7164  0.1333  0.4547
 4427SOL    HW224741   2.975   1.728   2.379  1.2200 -0.7612  0.3376
 4428SOL     OW24742   2.343   1.166   9.394 -0.0798  0.0434 -0.2076
 4428SOL    HW124743   2.415   1.220   9.362  0.6970 -0.2788  0.9724
 4428SOL    HW224744   2.299   1.132   9.317 -1.5300  1.0160  0.1872
 4429SOL     OW24745   0.434   2.695  16.821  0.0793  0.1340 -0.3372
 4429SOL    HW124746   0.525   2.727  16.819 -0.2597  1.1330  0.0754
 4429SOL    HW224747   0.448   2.602  16.837 -0.3244  0.0139 -0.7066
 4430SOL     OW24748   2.302   1.343   4.137  0.3012  0.1672 -0.0483
 4430SOL    HW124749   2.335   1.415   4.083 -0.6788  0.3841 -0.3766
 4430SOL    HW224750   2.302   1.274   4.070 -1.8547  2.6094 -2.6029
 4431SOL     OW24751   2.561   0.492   5.768 -0.2211 -0.2859 -0.2837
 4431SOL    HW124752   2.626   0.439   5.723 -0.7137  0.8433 -2.3034
 4431SOL    HW224753   2.508   0.532   5.699  0.7470 -0.1322 -0.9354
 4432SOL     OW24754   3.243   3.318   3.418 -0.4580 -0.9549  0.5222
 4432SOL    HW124755   3.173   3.285   3.360 -2.5140  0.9539  1.8893
 4432SOL    HW224756   3.211   3.314   3.508  2.5494 -0.4594  1.6034
 4433SOL     OW24757   1.182   4.017   6.762  1.0059  0.0334 -0.3330
 4433SOL    HW124758   1.212   4.054   6.679  0.8269 -0.6585 -0.7093
 4433SOL    HW224759   1.237   4.052   6.832  1.5778 -1.0853 -0.2325
 4434SOL     OW24760   1.998   3.915   2.020  0.4141  0.3556 -0.2195
 4434SOL    HW124761   1.954   3.830   2.016 -1.0916  1.1379 -0.5301
 4434SOL    HW224762   1.930   3.975   1.990  2.2151  2.6749  0.3580
 4435SOL     OW24763   0.579   4.345  17.301 -0.5760 -0.6084  0.4338
 4435SOL    HW124764   0.641   4.412  17.332 -0.9919 -0.9637  2.0387
 4435SOL    HW224765   0.505   4.401  17.279 -0.1517  0.3139  1.3616
 4436SOL     OW24766   4.668   3.869   4.862 -0.0663  0.0510  0.5000
 4436SOL    HW124767   0.008   3.822   4.920 -2.4976 -3.1934  0.4018
 4436SOL    HW224768   4.699   3.960   4.862 -1.0892  0.3859 -2.0452
 4437SOL     OW24769   0.053   3.516   0.976 -0.1428 -0.0913 -0.3437
 4437SOL    HW124770   0.098   3.554   1.052 -0.7908  3.1076 -1.5683
 4437SOL    HW224771   0.126   3.470   0.936  1.0001 -0.4790  2.1816
 4438SOL     OW24772   4.114   1.507   0.377 -0.0760  0.4597 -0.0899
 4438SOL    HW124773   4.129   1.434   0.438 -1.2296 -0.1122 -0.5054
 4438SOL    HW224774   4.089   1.454   0.302 -2.1071  1.2449  0.0419
 4439SOL     OW24775   1.335   1.532  10.523 -0.0466  0.3617  0.2891
 4439SOL    HW124776   1.370   1.491  10.444 -0.4186  0.0833  0.2683
 4439SOL    HW224777   1.417   1.541  10.571 -1.2169  0.5068  2.3077
 4440SOL     OW24778   0.915   0.730  15.927 -0.3986  0.3229  0.0475
 4440SOL    HW124779   0.890   0.803  15.869  0.7376  0.1534 -0.6415
 4440SOL    HW224780   0.898   0.650  15.878 -1.0231  0.4018  0.1342
 4441SOL     OW24781   3.423   1.876   2.516  0.7459  0.0415 -0.1671
 4441SOL    HW124782   3.396   1.788   2.492  1.3869 -0.8864  2.6026
 4441SOL    HW224783   3.362   1.925   2.460  0.0528 -0.2101  0.3728
 4442SOL     OW24784   2.122   0.865   9.039  0.2120  0.8909  0.0501
 4442SOL    HW124785   2.105   0.774   9.017 -2.0622  0.8094  2.1768
 4442SOL    HW224786   2.104   0.867   9.133  0.6216 -0.0947  0.1452
 4443SOL     OW24787   3.730   4.689  11.634 -0.2964 -0.2661 -0.5805
 4443SOL    HW124788   3.771   0.054  11.620  0.2007 -0.2616  0.9304
 4443SOL    HW224789   3.781   4.630  11.578  1.6701  0.3865  0.5255
 4444SOL     OW24790   4.083   0.698   4.141 -0.5762  0.3819 -0.3454
 4444SOL    HW124791   4.167   0.656   4.124 -0.5022 -0.3643  1.7728
 4444SOL    HW224792   4.038   0.619   4.172 -0.2006 -0.7931 -2.8086
 4445SOL     OW24793   3.624   3.394  15.818  0.3755  0.0583  0.6785
 4445SOL    HW124794   3.558   3.449  15.861  1.5763  1.8163  0.2695
 4445SOL    HW224795   3.572   3.327  15.776  3.0496 -0.6984 -1.4149
 4446SOL     OW24796   0.846   0.671  12.024  0.0990 -0.2657  0.6497
 4446SOL    HW124797   0.933   0.697  12.055  0.6280  0.8596 -1.7184
 4446SOL    HW224798   0.791   0.737  12.065 -0.0524 -0.4561  0.7533
 4447SOL     OW24799   4.126   3.554   2.517 -0.0110  0.0192 -0.4510
 4447SOL    HW124800   4.067   3.530   2.589  0.8722 -1.5962 -0.2756
 4447SOL    HW224801   4.126   3.649   2.531  2.2755 -0.3416  1.9475
 4448SOL     OW24802   2.060   3.620  15.185  0.1861  0.4268 -0.4296
 4448SOL    HW124803   2.000   3.656  15.250  1.0720 -0.2321  0.7546
 4448SOL    HW224804   2.135   3.675  15.208  1.0052 -1.4267  1.3491
 4449SOL     OW24805   1.505   0.861   3.057  0.3507  0.2270  0.0955
 4449SOL    HW124806   1.412   0.847   3.044  0.5946 -2.4602  1.2494
 4449SOL    HW224807   1.532   0.820   2.975 -1.6594 -1.0206  0.0718
 4450SOL     OW24808   4.230   1.309   3.126  0.5872  0.2146  0.0595
 4450SOL    HW124809   4.295   1.370   3.093 -0.5281  2.3244  1.7862
 4450SOL    HW224810   4.159   1.318   3.063  1.9971  3.4194 -1.0638
 4451SOL     OW24811   3.116   2.031   6.292  0.3825  0.0454  0.8022
 4451SOL    HW124812   3.066   2.053   6.371 -0.1974 -1.1918  0.7734
 4451SOL    HW224813   3.044   1.990   6.246 -1.0714  4.1296 -0.4973
 4452SOL     OW24814   4.702   0.317   3.705 -0.4318  0.0277  0.4333
 4452SOL    HW124815   4.667   0.311   3.794 -1.2886 -1.0290  0.0229
 4452SOL    HW224816   0.046   0.246   3.714  0.7404  1.4335  3.3474
 4453SOL     OW24817   0.304   0.389  13.747  0.0013 -0.8218  0.4120
 4453SOL    HW124818   0.335   0.417  13.833 -1.0769 -0.4637  0.6841
 4453SOL    HW224819   0.209   0.393  13.762  0.6674  0.6697  4.3784
 4454SOL     OW24820   1.788   3.751   1.342 -0.8641 -0.6099 -0.1259
 4454SOL    HW124821   1.732   3.819   1.380  1.3367  1.3227 -0.3564
 4454SOL    HW224822   1.759   3.674   1.389 -0.9816 -0.6462 -0.2580
 4455SOL     OW24823   2.407   0.273   8.144  0.0704 -0.1478 -0.3811
 4455SOL    HW124824   2.359   0.346   8.181 -0.7410 -0.2526 -1.2308
 4455SOL    HW224825   2.368   0.202   8.195 -0.5535 -0.8161 -1.7905
 4456SOL     OW24826   3.547   3.100  11.495 -0.1065  0.5678  0.1000
 4456SOL    HW124827   3.598   3.155  11.437 -0.6055  0.7258 -0.1903
 4456SOL    HW224828   3.464   3.084  11.450  1.0981  0.0901 -1.9423
 4457SOL     OW24829   1.449   1.001   6.718  0.2010 -0.0156  0.2066
 4457SOL    HW124830   1.516   0.957   6.771  0.1493  0.8392  0.9889
 4457SOL    HW224831   1.490   1.086   6.731 -2.5048  1.4242 -0.7438
 4458SOL     OW24832   3.533   3.658  12.824 -0.1288  0.1049  0.4655
 4458SOL    HW124833   3.588   3.697  12.757 -0.3902  2.1931  1.4468
 4458SOL    HW224834   3.541   3.563  12.821  1.2199  0.2254  0.2524
 4459SOL     OW24835   3.346   4.076   6.010 -0.4116  0.0766  0.0695
 4459SOL    HW124836   3.331   4.166   5.979  1.8841  0.6932  0.7816
 4459SOL    HW224837   3.316   4.092   6.099 -2.3590  2.8710 -1.0774
 4460SOL     OW24838   0.600   2.817   8.439  1.1636 -0.0460  0.9129
 4460SOL    HW124839   0.673   2.871   8.470  1.3145 -0.5705  1.4533
 4460SOL    HW224840   0.600   2.763   8.518  2.1824  1.6341  2.0675
 4461SOL     OW24841   1.911   3.695   9.928  0.2129 -0.0765 -0.3819
 4461SOL    HW124842   1.848   3.668   9.995 -0.3690 -0.6138 -1.1442
 4461SOL    HW224843   1.966   3.748   9.985 -0.0748 -0.0939 -0.0835
 4462SOL     OW24844   1.192   3.619   6.643 -0.7710  0.1621  0.1769
 4462SOL    HW124845   1.238   3.648   6.722 -0.9093  0.0353  0.3055
 4462SOL    HW224846   1.243   3.657   6.572  0.0083 -0.9207  0.1634
 4463SOL     OW24847   4.331   3.237  12.544 -0.0135 -0.2422  0.0935
 4463SOL    HW124848   4.361   3.233  12.453  1.5115  0.7860  0.5669
 4463SOL    HW224849   4.247   3.282  12.532 -0.6373 -0.9536  1.7390
 4464SOL     OW24850   0.641   2.634   7.568 -0.0619  0.1778 -0.8140
 4464SOL    HW124851   0.719   2.612   7.619 -0.6570 -2.8876 -1.2284
 4464SOL    HW224852   0.637   2.559   7.508  0.4460 -3.0910  3.2235
 4465SOL     OW24853   3.143   0.479   3.496  0.2473  0.4336 -0.0547
 4465SOL    HW124854   3.061   0.489   3.448 -0.5374 -0.4038  1.1054
 4465SOL    HW224855   3.148   0.556   3.552 -0.3075  0.9552 -0.7376
 4466SOL     OW24856   0.105   3.592  14.464 -0.1826  0.0993  1.0612
 4466SOL    HW124857   0.189   3.584  14.510  0.5414  0.9204 -0.1150
 4466SOL    HW224858   0.100   3.683  14.433 -0.5594  0.4809  2.2586
 4467SOL     OW24859   1.808   4.230   2.765  0.1325  0.3367  0.0963
 4467SOL    HW124860   1.857   4.311   2.753  0.1993  0.7021  2.8182
 4467SOL    HW224861   1.720   4.251   2.732 -0.1937 -1.3050 -0.0965
 4468SOL     OW24862   4.420   4.273  17.442  0.1155 -0.3192 -0.1743
 4468SOL    HW124863   4.388   4.198  17.392  3.7206 -3.3519  2.0296
 4468SOL    HW224864   4.479   4.232  17.505  1.1560 -1.1523 -1.7128
 4469SOL     OW24865   0.591   0.467   5.691  0.1431  0.0110  0.5189
 4469SOL    HW124866   0.642   0.473   5.771  0.2760  2.3548  0.2549
 4469SOL    HW224867   0.657   0.489   5.625  0.3053  0.8323  0.9570
 4470SOL     OW24868   0.694   2.035   1.556 -0.3149 -0.2860 -0.4415
 4470SOL    HW124869   0.661   1.964   1.611 -0.8812  0.9001  0.7803
 4470SOL    HW224870   0.784   2.038   1.588 -0.0938  0.5871 -1.1343
 4471SOL     OW24871   3.153   0.134   1.410 -0.4678 -0.7722  0.1346
 4471SOL    HW124872   3.231   0.096   1.371 -0.7262  1.2674 -2.4092
 4471SOL    HW224873   3.134   0.200   1.343 -2.0587 -1.2345  0.1358
 4472SOL     OW24874   1.207   0.068   4.331 -0.0585 -0.7257  0.3398
 4472SOL    HW124875   1.240   0.113   4.254  0.5732  0.9105  1.5557
 4472SOL    HW224876   1.280   0.076   4.392 -1.9883  2.6673  2.2250
 4473SOL     OW24877   3.210   4.284   8.798  0.4366  0.5575  0.0130
 4473SOL    HW124878   3.121   4.251   8.782 -0.1092  2.5740 -1.1399
 4473SOL    HW224879   3.222   4.320   8.710 -3.0139  0.6847 -0.4189
 4474SOL     OW24880   0.514   4.307   8.058  0.1988 -0.5606  0.2050
 4474SOL    HW124881   0.488   4.387   8.010  2.1405  1.1716  2.0508
 4474SOL    HW224882   0.518   4.348   8.144 -1.2917 -0.8565  0.4224
 4475SOL     OW24883   4.234   1.586   6.903  0.3067 -0.5057 -0.2758
 4475SOL    HW124884   4.245   1.659   6.964 -0.3006 -1.3521  0.8539
 4475SOL    HW224885   4.225   1.640   6.825  0.1538 -1.2090 -0.7404
 4476SOL     OW24886   2.802   0.313  15.359 -0.1185 -0.0345  0.5870
 4476SOL    HW124887   2.820   0.407  15.368 -0.0942  0.0034  0.1384
 4476SOL    HW224888   2.821   0.299  15.266  0.3181 -1.1422  0.8450
 4477SOL     OW24889   0.078   0.610   2.240 -0.2263  0.4659 -0.3192
 4477SOL    HW124890   0.052   0.677   2.304 -0.8510  2.1630 -2.3384
 4477SOL    HW224891   0.027   0.536   2.274  1.0710  0.1223  0.8430
 4478SOL     OW24892   1.163   1.544   2.227  0.0090  0.6246  0.3976
 4478SOL    HW124893   1.254   1.514   2.236  0.2552  1.0633 -0.6261
 4478SOL    HW224894   1.173   1.639   2.221 -0.5736  0.6788  0.3077
 4479SOL     OW24895   3.912   0.174   5.967  0.9338 -0.1401 -0.6372
 4479SOL    HW124896   3.951   0.135   6.045  0.2007 -0.9532 -0.6775
 4479SOL    HW224897   3.843   0.225   6.009  2.4454  0.6298  0.8760
 4480SOL     OW24898   2.905   1.771   4.985 -0.4244  0.7400 -0.1941
 4480SOL    HW124899   2.885   1.805   4.898 -0.6888 -0.0121 -0.4252
 4480SOL    HW224900   2.973   1.834   5.010  1.9525 -1.3942 -1.2757
 4481SOL     OW24901   1.129   1.292   2.822  1.1350  0.5413 -0.8287
 4481SOL    HW124902   1.052   1.237   2.812  1.7183 -1.1376  3.8965
 4481SOL    HW224903   1.191   1.236   2.777  0.8457  0.5554 -1.2487
 4482SOL     OW24904   2.975   2.752   5.664 -0.1419 -0.0660 -0.0872
 4482SOL    HW124905   3.030   2.819   5.703  0.5759 -0.4180 -0.4898
 4482SOL    HW224906   3.042   2.690   5.633 -1.0798 -1.4972  0.7364
 4483SOL     OW24907   3.235   3.925   7.347  0.0530  0.1075 -0.3997
 4483SOL    HW124908   3.313   3.881   7.379  1.1942  1.6974 -1.0049
 4483SOL    HW224909   3.244   4.007   7.396 -1.9807  0.4006 -0.4944
 4484SOL     OW24910   1.247   0.870   5.881 -0.4874  0.0207 -0.4617
 4484SOL    HW124911   1.291   0.954   5.867  0.3059 -0.0034  1.8157
 4484SOL    HW224912   1.210   0.858   5.794 -1.5119  0.5960 -0.1133
 4485SOL     OW24913   0.507   3.818   9.607 -0.4758  0.1886 -0.9923
 4485SOL    HW124914   0.546   3.802   9.522  0.6174 -1.5887 -0.1527
 4485SOL    HW224915   0.429   3.764   9.597  0.3883 -1.3741  0.5832
 4486SOL     OW24916   2.189   4.338   8.019  0.0583  0.4346  0.2410
 4486SOL    HW124917   2.107   4.331   8.067  0.1327  4.3019  0.8772
 4486SOL    HW224918   2.172   4.272   7.951  0.8875  1.8422 -1.3289
 4487SOL     OW24919   1.451   4.360   6.810  0.0116 -0.4014  0.7336
 4487SOL    HW124920   1.540   4.360   6.774  0.3967  0.1160  1.6833
 4487SOL    HW224921   1.412   4.427   6.755 -1.6540 -0.7576  1.4698
 4488SOL     OW24922   4.500   1.933   9.973  0.0974  0.6891  0.3893
 4488SOL    HW124923   4.467   1.969   9.891 -1.4028  0.1184  0.7290
 4488SOL    HW224924   4.410   1.919  10.004  0.0401  0.8168  0.2777
 4489SOL     OW24925   4.259   4.493  17.463 -0.0174 -0.2213  0.1892
 4489SOL    HW124926   4.296   4.404  17.462  0.0764 -0.1886  0.8107
 4489SOL    HW224927   4.226   4.506  17.374 -0.1687 -3.4779 -0.2593
 4490SOL     OW24928   3.672   3.347   3.602 -0.3934  0.4455 -0.5369
 4490SOL    HW124929   3.653   3.254   3.616 -0.2046  0.5030  0.0973
 4490SOL    HW224930   3.593   3.390   3.568 -0.0016 -0.0475 -2.0559
 4491SOL     OW24931   1.974   3.069   7.245  0.1050  0.2579  0.4494
 4491SOL    HW124932   2.058   3.092   7.203  0.3610 -2.8542 -0.7542
 4491SOL    HW224933   1.917   3.032   7.177  2.9744  0.3638 -2.0251
 4492SOL     OW24934   3.450   3.400   7.657 -0.5477 -0.5177  0.3391
 4492SOL    HW124935   3.414   3.487   7.642 -3.0249 -1.4592  0.8241
 4492SOL    HW224936   3.369   3.352   7.642  0.4289 -2.3297  0.8708
 4493SOL     OW24937   3.124   0.865   9.051 -0.1377 -0.0375  0.6847
 4493SOL    HW124938   3.050   0.848   9.111  0.5290 -2.6548  0.7886
 4493SOL    HW224939   3.126   0.960   9.050 -0.5118 -0.0424 -1.5128
 4494SOL     OW24940   0.536   4.685  11.164  0.2200  0.2733  0.6061
 4494SOL    HW124941   0.554   0.044  11.115  0.8403 -0.6806 -0.7033
 4494SOL    HW224942   0.541   4.619  11.095  2.6522 -0.4477  1.4923
 4495SOL     OW24943   4.230   4.583  11.848 -0.4585  0.5797  0.3423
 4495SOL    HW124944   4.259   4.633  11.924  0.3419  1.9299 -0.8356
 4495SOL    HW224945   4.313   4.563  11.804 -2.3667 -1.4729 -2.3980
 4496SOL     OW24946   1.740   3.660   6.250  0.1903 -0.0205  0.0062
 4496SOL    HW124947   1.777   3.583   6.293 -2.0393 -1.3664 -0.4928
 4496SOL    HW224948   1.815   3.717   6.235 -0.2930  1.3566  2.7647
 4497SOL     OW24949   3.557   4.410   8.128 -0.1429 -0.3236  0.2935
 4497SOL    HW124950   3.640   4.441   8.092  0.0859 -0.7880  0.4279
 4497SOL    HW224951   3.528   4.353   8.058 -1.1144  0.4111  0.0889
 4498SOL     OW24952   0.402   3.702   0.856 -0.5321  0.2874  0.1808
 4498SOL    HW124953   0.331   3.638   0.846  0.6648 -0.7397 -1.6582
 4498SOL    HW224954   0.350   3.781   0.871  1.7936  1.8982 -0.1692
 4499SOL     OW24955   3.837   0.891  11.866 -0.0955  0.1699 -0.7836
 4499SOL    HW124956   3.757   0.920  11.823 -0.9798  1.7522  1.9455
 4499SOL    HW224957   3.884   0.842  11.798 -1.8243 -1.7041 -0.6295
 4500SOL     OW24958   1.709   2.622   4.050  0.1596  0.3774  0.3045
 4500SOL    HW124959   1.715   2.693   3.986  0.6185 -0.7390 -0.8714
 4500SOL    HW224960   1.686   2.678   4.125  0.6856 -0.4988  1.1173
 4501SOL     OW24961   0.211   1.758   4.499 -0.3518  0.4507  0.1930
 4501SOL    HW124962   0.291   1.784   4.454  0.1633  0.3043  1.0370
 4501SOL    HW224963   0.153   1.826   4.464 -0.5560 -0.0274 -0.4025
 4502SOL     OW24964   4.543   3.385   7.921 -0.4332 -0.4726 -0.2320
 4502SOL    HW124965   4.480   3.315   7.937 -3.0546  1.6797 -1.0763
 4502SOL    HW224966   4.567   3.403   8.012  0.4532 -0.5214 -0.4563
 4503SOL     OW24967   2.928   1.195  15.911  0.0696 -0.4293 -0.3542
 4503SOL    HW124968   2.956   1.127  15.850  0.7140 -2.1529  1.8236
 4503SOL    HW224969   2.870   1.245  15.855  1.3918 -0.5799 -1.8562
 4504SOL     OW24970   0.387   4.143   6.676 -0.3423 -0.4410 -0.7632
 4504SOL    HW124971   0.393   4.052   6.644  1.8393 -0.9732  1.1390
 4504SOL    HW224972   0.420   4.182   6.595 -0.1083  1.6345  0.3474
 4505SOL     OW24973   4.500   2.079   4.612  0.6195 -0.0464 -0.1570
 4505SOL    HW124974   4.464   2.012   4.671  1.9780 -1.7014 -1.2290
 4505SOL    HW224975   4.545   2.137   4.673  2.0489 -1.1463 -0.1785
 4506SOL     OW24976   0.561   1.916   3.751  0.3032 -0.3057  0.4757
 4506SOL    HW124977   0.599   1.829   3.737  0.5116 -0.0435 -0.5892
 4506SOL    HW224978   0.558   1.944   3.660 -1.1798 -0.5347  0.4661
 4507SOL     OW24979   2.183   0.405  10.501  0.1037 -0.2303  0.8046
 4507SOL    HW124980   2.261   0.360  10.471 -0.0159  0.0228  0.1151
 4507SOL    HW224981   2.208   0.495  10.521  1.0556  0.3146 -2.8462
 4508SOL     OW24982   2.657   3.870   8.163  0.1718  0.2875  0.4557
 4508SOL    HW124983   2.589   3.901   8.103 -0.1357  1.3328  1.3619
 4508SOL    HW224984   2.729   3.910   8.115  0.9789 -0.2425  1.2250
 4509SOL     OW24985   1.601   0.805   6.878  0.4646 -0.3116 -0.7548
 4509SOL    HW124986   1.659   0.853   6.937  0.3128  1.4404 -2.0236
 4509SOL    HW224987   1.666   0.762   6.822 -0.7375 -1.4242 -1.3051
 4510SOL     OW24988   2.756   3.085   3.778 -0.2656 -0.3564  0.0497
 4510SOL    HW124989   2.741   3.179   3.778  0.8276 -0.1801 -0.5152
 4510SOL    HW224990   2.702   3.066   3.701 -0.0160  0.8556 -0.4240
 4511SOL     OW24991   0.425   3.522  17.585 -0.0311  0.7411 -0.3220
 4511SOL    HW124992   0.379   3.579  17.646  1.8439  0.3525  1.4832
 4511SOL    HW224993   0.467   3.588  17.530 -2.7287  0.2782 -2.9090
 4512SOL     OW24994   3.476   0.286   0.661 -0.2839  0.4136  0.0924
 4512SOL    HW124995   3.420   0.363   0.676  1.3280  1.7942 -0.8911
 4512SOL    HW224996   3.434   0.239   0.589 -0.8705  0.3823  0.4515
 4513SOL     OW24997   1.573   4.498  17.636  0.8381  0.1590 -0.0176
 4513SOL    HW124998   1.631   4.452  17.575 -0.3183  0.3863 -1.2959
 4513SOL    HW224999   1.594   4.591  17.634 -0.0329  0.3874  1.5191
 4514SOL     OW25000   1.483   0.221   6.382  0.2442 -0.5315 -0.4104
 4514SOL    HW125001   1.526   0.261   6.458  0.3146 -2.8285  0.7479
 4514SOL    HW225002   1.462   0.297   6.328 -0.1856 -0.9307 -0.8060
 4515SOL     OW25003   2.681   0.178   7.794 -0.2734  0.0286 -0.1792
 4515SOL    HW125004   2.627   0.255   7.777 -2.6874 -1.3269  1.3925
 4515SOL    HW225005   2.631   0.138   7.864 -1.6349 -0.9927 -1.7306
 4516SOL     OW25006   1.575   2.234   7.864  0.4543  0.2218 -0.4002
 4516SOL    HW125007   1.609   2.146   7.882 -0.7786 -0.7156 -2.6482
 4516SOL    HW225008   1.591   2.233   7.770  0.1091  0.4960 -0.4598
 4517SOL     OW25009   2.357   3.450   2.202  0.1841  0.3839 -0.5628
 4517SOL    HW125010   2.409   3.374   2.230  1.8932  0.5313 -3.3212
 4517SOL    HW225011   2.360   3.447   2.106  0.5787  0.8037 -0.5615
 4518SOL     OW25012   1.438   3.215  11.044 -0.1028 -0.6456 -0.4074
 4518SOL    HW125013   1.434   3.121  11.058  2.3766 -0.9803 -1.8795
 4518SOL    HW225014   1.468   3.227  10.954  0.4581 -1.2343 -0.3012
 4519SOL     OW25015   0.033   3.692  11.102  0.2796 -0.2647  0.0730
 4519SOL    HW125016   0.052   3.654  11.188 -1.1092 -2.0363 -0.4096
 4519SOL    HW225017   4.667   3.731  11.113  0.0296 -0.4114 -1.3742
 4520SOL     OW25018   1.569   1.316   1.532  0.4264  0.0998  0.1104
 4520SOL    HW125019   1.517   1.244   1.567 -0.0708  0.6966  0.5875
 4520SOL    HW225020   1.661   1.303   1.555  0.3530  0.5167  0.6193
 4521SOL     OW25021   1.857   2.736   3.072  0.1584  0.2043 -0.5099
 4521SOL    HW125022   1.848   2.831   3.079  1.6378  0.2372  1.0550
 4521SOL    HW225023   1.891   2.712   3.158  0.1612  1.3221 -0.1900
 4522SOL     OW25024   3.402   2.983   8.269 -0.2185  0.1093  0.0171
 4522SOL    HW125025   3.335   3.023   8.214  0.2591  0.9105  0.0245
 4522SOL    HW225026   3.454   3.062   8.283  0.5039 -0.4616  0.5529
 4523SOL     OW25027   0.362   3.030   7.779 -0.3698  0.1609 -0.0377
 4523SOL    HW125028   0.434   3.004   7.721  0.6649  0.4278  1.1374
 4523SOL    HW225029   0.290   3.028   7.716 -1.2124 -0.9262  0.9677
 4524SOL     OW25030   2.863   2.056   3.597  0.2313 -0.5034  0.1651
 4524SOL    HW125031   2.915   2.136   3.605  3.9483 -2.9168  0.5599
 4524SOL    HW225032   2.772   2.083   3.610 -0.4342 -1.7194 -1.8978
 4525SOL     OW25033   4.504   2.405   9.507  0.0967 -0.2530  0.2329
 4525SOL    HW125034   4.596   2.425   9.491 -0.1908  0.1235 -0.9544
 4525SOL    HW225035   4.481   2.398   9.415  0.2801  2.0343  0.0139
 4526SOL     OW25036   2.784   4.650   5.099  0.0109  0.8746  0.2076
 4526SOL    HW125037   2.701   4.603   5.090  0.1479  0.5582  0.6257
 4526SOL    HW225038   2.833   4.599   5.034 -3.0672 -2.4573  0.5121
 4527SOL     OW25039   2.422   0.896   0.698 -0.2952 -0.2375 -0.1825
 4527SOL    HW125040   2.430   0.978   0.748  0.2917  1.2654 -2.7660
 4527SOL    HW225041   2.483   0.906   0.625  0.6041  2.1738  0.9063
 4528SOL     OW25042   4.595   3.367  15.464 -0.4380  0.0265 -0.1876
 4528SOL    HW125043   4.509   3.389  15.499  0.8042  1.7765  1.7788
 4528SOL    HW225044   4.632   3.327  15.542  2.3342 -1.5060 -2.2691
 4529SOL     OW25045   0.727   3.671  12.527  0.0199 -0.0713  0.2123
 4529SOL    HW125046   0.719   3.766  12.523 -2.7028 -0.3110 -0.3780
 4529SOL    HW225047   0.779   3.652  12.605 -1.2435 -2.0463  0.5842
 4530SOL     OW25048   0.182   2.428   3.421  0.1994  0.3410 -0.8076
 4530SOL    HW125049   0.268   2.410   3.381  1.4679  3.8142  0.3884
 4530SOL    HW225050   0.212   2.402   3.508 -0.8681 -0.4060 -0.6662
 4531SOL     OW25051   2.357   4.715   6.940 -0.0055  0.2736 -0.3941
 4531SOL    HW125052   2.262   4.709   6.943  0.0091  0.9034  1.0417
 4531SOL    HW225053   2.374   4.672   7.023 -4.4172 -1.4145 -0.3786
 4532SOL     OW25054   3.688   1.643   4.312 -0.1768 -0.1279 -0.4673
 4532SOL    HW125055   3.621   1.615   4.250 -2.0555  1.7221  0.7588
 4532SOL    HW225056   3.750   1.690   4.256 -0.2678  0.6977  0.1343
 4533SOL     OW25057   4.386   1.622  13.979 -0.1494 -0.3965 -0.2063
 4533SOL    HW125058   4.457   1.621  14.043  0.2344 -2.4907 -0.6644
 4533SOL    HW225059   4.418   1.576  13.901  1.2249  1.0434 -0.4965
 4534SOL     OW25060   2.511   2.459  11.501  0.1710 -0.0449  0.4004
 4534SOL    HW125061   2.568   2.431  11.430 -0.2385 -0.3898  0.2118
 4534SOL    HW225062   2.570   2.520  11.547  0.9693  0.1122 -0.8172
 4535SOL     OW25063   2.010   3.298   3.381  0.2159 -0.2504 -0.2121
 4535SOL    HW125064   1.925   3.331   3.350  0.8208  0.5554 -1.0139
 4535SOL    HW225065   1.982   3.277   3.470  1.1087  0.9702  0.3438
 4536SOL     OW25066   3.777   3.859   1.070  0.0243  0.1124 -0.3686
 4536SOL    HW125067   3.768   3.954   1.062  3.2151  0.4548 -0.0755
 4536SOL    HW225068   3.869   3.864   1.098  0.1590 -1.8923 -0.4304
 4537SOL     OW25069   0.036   4.561  15.280  0.2040  0.1265 -0.1192
 4537SOL    HW125070   4.707   4.493  15.235  0.8223 -0.9593  0.8128
 4537SOL    HW225071   0.084   4.508  15.345 -0.3385 -0.7417 -0.4280
 4538SOL     OW25072   1.248   0.912   2.130  0.3734 -0.1745 -0.3513
 4538SOL    HW125073   1.202   0.859   2.065 -0.2796  0.2000 -0.1990
 4538SOL    HW225074   1.262   0.848   2.199 -2.2785 -0.7243 -0.3003
 4539SOL     OW25075   2.372   0.717  17.679 -0.1421  0.3569  0.3466
 4539SOL    HW125076   2.333   0.663  17.610  2.2590 -1.1554  0.1584
 4539SOL    HW225077   2.364   0.662   0.072  3.4112 -0.7664 -0.0640
 4540SOL     OW25078   0.465   1.874   6.657  0.2156  0.2868  0.0794
 4540SOL    HW125079   0.529   1.857   6.588 -1.6143 -0.4506 -1.4412
 4540SOL    HW225080   0.393   1.917   6.611  0.4294  0.1138 -0.4173
 4541SOL     OW25081   2.983   4.358  17.602  0.3861  0.1840 -0.7082
 4541SOL    HW125082   3.079   4.354  17.610 -0.0005  0.6388  3.6808
 4541SOL    HW225083   2.978   4.295  17.530 -0.6816  0.2540 -0.6923
 4542SOL     OW25084   2.760   3.288   3.114  0.0262 -0.0492  0.2649
 4542SOL    HW125085   2.820   3.328   3.052  0.7290 -2.0689 -0.3494
 4542SOL    HW225086   2.817   3.282   3.191  0.1905  1.0985  0.2450
 4543SOL     OW25087   1.918   3.885  14.014  0.2769  0.1252 -0.2939
 4543SOL    HW125088   1.902   3.975  14.041 -1.4150  0.1270 -1.3340
 4543SOL    HW225089   2.004   3.869  14.054  0.4738  1.2528 -0.2607
 4544SOL     OW25090   2.933   1.818   3.471  0.3704 -0.2287  0.6772
 4544SOL    HW125091   2.903   1.837   3.382  0.7754 -0.5990  0.4654
 4544SOL    HW225092   2.900   1.892   3.523  2.0224  1.8037 -1.1343
 4545SOL     OW25093   3.941   2.378  10.400  0.6364 -0.0731 -0.1053
 4545SOL    HW125094   3.858   2.405  10.439  1.3711 -0.0223  1.4089
 4545SOL    HW225095   3.962   2.323  10.476 -1.6308 -1.1989 -0.2816
 4546SOL     OW25096   3.920   4.437   7.749 -0.0857  0.2373  0.4033
 4546SOL    HW125097   3.867   4.512   7.774 -0.2445  0.1499  0.3334
 4546SOL    HW225098   3.948   4.475   7.665 -0.6103  0.6702  0.4297
 4547SOL     OW25099   3.598   3.693   5.372  0.1622 -0.2926 -0.2716
 4547SOL    HW125100   3.626   3.694   5.280  0.1028 -1.2234 -0.3020
 4547SOL    HW225101   3.509   3.658   5.363  0.2015 -0.3638 -0.3941
 4548SOL     OW25102   0.686   2.095   2.182  0.7943 -0.4482  0.0199
 4548SOL    HW125103   0.698   2.149   2.260  2.5235  1.4597 -1.5734
 4548SOL    HW225104   0.757   2.130   2.128  0.9813  0.4113  0.8230
 4549SOL     OW25105   4.016   4.238   4.599  0.2769 -0.0321  0.1892
 4549SOL    HW125106   4.030   4.191   4.681  0.1347  0.3337  0.4242
 4549SOL    HW225107   4.098   4.218   4.554 -0.2526  1.9651 -1.6668
 4550SOL     OW25108   1.927   1.311   9.917  0.5459  1.0264 -0.8770
 4550SOL    HW125109   1.997   1.248   9.899 -0.2193 -0.9165  2.8580
 4550SOL    HW225110   1.925   1.354   9.832 -2.2032 -0.4691 -1.5691
 4551SOL     OW25111   2.034   0.764   4.192 -0.2548 -0.1498 -0.2106
 4551SOL    HW125112   1.944   0.765   4.227 -0.1165  2.0009  0.1274
 4551SOL    HW225113   2.023   0.803   4.106 -1.3836  0.8119  0.3604
 4552SOL     OW25114   0.427   3.991  16.154  0.0360 -0.2315 -0.2979
 4552SOL    HW125115   0.360   3.922  16.158  0.7929 -0.8975  0.9232
 4552SOL    HW225116   0.461   3.964  16.069  0.4498 -2.0228  0.4341
 4553SOL     OW25117   3.824   0.258   1.134 -0.3881  0.1949 -0.4538
 4553SOL    HW125118   3.884   0.193   1.172 -1.0825  0.2644  0.7493
 4553SOL    HW225119   3.868   0.331   1.178  0.1422 -1.4060  1.6643
 4554SOL     OW25120   0.190   4.648   4.113 -0.3080 -0.0657  0.3079
 4554SOL    HW125121   0.169   0.010   4.069 -0.7635 -0.7202 -0.6968
 4554SOL    HW225122   0.118   4.630   4.174 -0.9519 -2.2536 -1.1255
 4555SOL     OW25123   2.854   1.788   1.666  0.4216  0.7426  0.3343
 4555SOL    HW125124   2.919   1.790   1.596 -0.2515  1.3944 -0.2683
 4555SOL    HW225125   2.770   1.781   1.622  0.9394 -0.5245 -0.4245
 4556SOL     OW25126   4.396   1.593   2.704 -0.1136 -0.1701  0.1808
 4556SOL    HW125127   4.315   1.557   2.668  1.0313 -2.5283 -0.0229
 4556SOL    HW225128   4.406   1.681   2.668  0.7955 -0.4993 -0.3643
 4557SOL     OW25129   1.484   0.109   6.731 -0.6256 -0.4830 -0.4952
 4557SOL    HW125130   1.464   0.146   6.817  3.1177  0.3181  0.0254
 4557SOL    HW225131   1.397   0.082   6.701 -0.6814  1.9998 -2.5590
 4558SOL     OW25132   2.073   1.800  10.561 -0.1732 -0.6956  0.0589
 4558SOL    HW125133   2.108   1.878  10.518 -4.3271  0.9710 -0.3725
 4558SOL    HW225134   2.147   1.742  10.579  0.2436 -0.5253 -1.0629
 4559SOL     OW25135   1.179   1.699   9.719 -0.0193  0.1701  0.2282
 4559SOL    HW125136   1.228   1.635   9.769 -2.5528  0.2847  2.8580
 4559SOL    HW225137   1.086   1.682   9.738  0.1867 -2.5312 -1.2620
 4560SOL     OW25138   4.599   2.550   8.466 -0.2051 -0.1855  0.5069
 4560SOL    HW125139   4.653   2.606   8.521 -0.4529  0.1959  0.3550
 4560SOL    HW225140   4.557   2.496   8.533  2.5269 -1.7941  0.9583
 4561SOL     OW25141   1.218   3.299   2.632 -0.0834 -0.4246 -0.5325
 4561SOL    HW125142   1.177   3.336   2.554 -3.3292 -1.0930  0.8438
 4561SOL    HW225143   1.274   3.231   2.596 -1.4224 -0.3725 -2.7512
 4562SOL     OW25144   0.365   0.594   6.281 -0.5187 -0.1584 -0.1828
 4562SOL    HW125145   0.300   0.610   6.349 -3.1346 -1.2325 -2.4158
 4562SOL    HW225146   0.351   0.500   6.276 -0.3350 -0.2741  1.6323
 4563SOL     OW25147   3.682   0.550   3.243 -0.6800  0.0877  0.2264
 4563SOL    HW125148   3.648   0.640   3.244  0.6907  0.6224 -0.2848
 4563SOL    HW225149   3.645   0.514   3.323 -1.4675  2.0515  0.7442
 4564SOL     OW25150   0.621   3.700   0.668 -0.6258  0.2677  0.2364
 4564SOL    HW125151   0.559   3.685   0.739 -1.1163  0.6920 -0.1011
 4564SOL    HW225152   0.576   3.762   0.610  3.5502  4.5074  1.5552
 4565SOL     OW25153   3.580   3.948   3.880 -0.3427 -0.0058 -0.7860
 4565SOL    HW125154   3.627   4.021   3.919 -2.3298 -0.1003  1.8214
 4565SOL    HW225155   3.634   3.930   3.804 -0.2019 -2.7033 -0.0660
 4566SOL     OW25156   2.463   3.477  10.505  0.1043 -0.6001  0.3481
 4566SOL    HW125157   2.418   3.556  10.533 -0.1316 -0.7663  0.4354
 4566SOL    HW225158   2.550   3.517  10.503  0.3791 -1.2168  0.1278
 4567SOL     OW25159   1.563   4.655   5.671 -0.3688 -0.1753 -0.0045
 4567SOL    HW125160   1.579   0.016   5.624  1.8135 -0.8347 -0.4036
 4567SOL    HW225161   1.550   4.589   5.603 -0.6265 -0.0689 -0.0578
 4568SOL     OW25162   3.252   3.480   1.770 -1.0699  0.1101 -0.2081
 4568SOL    HW125163   3.208   3.395   1.765 -0.0544 -0.5043  1.0939
 4568SOL    HW225164   3.254   3.508   1.679  1.2845  0.8056  0.0526
 4569SOL     OW25165   4.491   3.552   9.268  0.6801 -0.5858  0.6870
 4569SOL    HW125166   4.547   3.521   9.339  0.5264 -0.2491  0.9558
 4569SOL    HW225167   4.520   3.502   9.191  0.2962  0.2831 -0.0225
 4570SOL     OW25168   1.947   1.098   5.419  0.0980  0.0867 -0.0724
 4570SOL    HW125169   2.028   1.115   5.371  0.1876  0.4303  0.1999
 4570SOL    HW225170   1.889   1.164   5.383 -1.4009 -1.6163 -0.7840
 4571SOL     OW25171   1.746   2.090  15.681  0.0749 -0.6647  0.0789
 4571SOL    HW125172   1.772   2.111  15.771 -0.8140 -3.3594  0.9644
 4571SOL    HW225173   1.652   2.084  15.694 -0.3437 -0.9066 -3.0861
 4572SOL     OW25174   0.269   4.305   4.358 -0.2182 -0.1570 -0.2665
 4572SOL    HW125175   0.257   4.219   4.318  2.7328 -0.6877  0.0202
 4572SOL    HW225176   0.176   4.331   4.358 -0.5607 -1.4219  1.8383
 4573SOL     OW25177   4.499   0.470  17.588 -0.4882 -0.2233  0.1496
 4573SOL    HW125178   4.472   0.392  17.638 -1.8345 -1.1672 -2.0441
 4573SOL    HW225179   4.548   0.517  17.655 -1.3548  1.2950 -0.2797
 4574SOL     OW25180   1.364   1.227   7.174  0.2230  0.0990 -0.5154
 4574SOL    HW125181   1.272   1.201   7.181  1.3141 -2.5198  4.3178
 4574SOL    HW225182   1.406   1.229   7.260 -1.7476 -1.6164  0.4872
 4575SOL     OW25183   1.628   4.344   3.836  0.4154 -0.2156 -0.5860
 4575SOL    HW125184   1.656   4.429   3.800 -0.4092  0.0978 -0.4870
 4575SOL    HW225185   1.533   4.357   3.829  0.2333 -0.7568  1.0506
 4576SOL     OW25186   2.072   4.713   0.124 -0.1625 -0.0795  0.2158
 4576SOL    HW125187   1.977   4.712   0.111 -0.2693  3.0962  0.7993
 4576SOL    HW225188   2.108   0.048   0.056 -0.9410  1.3655  0.9886
 4577SOL     OW25189   0.949   2.906  15.049  0.4987 -0.6412 -0.1568
 4577SOL    HW125190   1.014   2.910  15.119 -0.2933  0.5784  0.4992
 4577SOL    HW225191   0.963   2.824  15.001 -0.9146  0.5151 -2.5412
 4578SOL     OW25192   0.200   1.502  13.617 -0.5648  0.3474  0.3205
 4578SOL    HW125193   0.292   1.484  13.634 -0.0884  0.0799 -2.5406
 4578SOL    HW225194   0.173   1.420  13.577 -0.4561 -1.0186  3.0860
 4579SOL     OW25195   0.316   0.195   8.697 -0.0801 -0.5531  0.1250
 4579SOL    HW125196   0.317   0.156   8.609 -0.7974 -0.3916  0.0449
 4579SOL    HW225197   0.352   0.126   8.752 -1.4101 -1.5215 -0.2331
 4580SOL     OW25198   4.630   2.012   2.065 -0.3217  0.1313  0.2602
 4580SOL    HW125199   4.678   2.038   2.144 -1.0391  1.0953  0.3680
 4580SOL    HW225200   4.567   2.083   2.071  0.9037  1.4054 -2.3522
 4581SOL     OW25201   1.884   0.849   3.664 -0.3625 -0.2264 -0.9508
 4581SOL    HW125202   1.843   0.766   3.640  1.2024 -0.5830 -2.3831
 4581SOL    HW225203   1.952   0.855   3.597  1.3025  1.2304  0.8659
 4582SOL     OW25204   0.662   4.468   7.321  0.5149 -0.0590  0.1912
 4582SOL    HW125205   0.721   4.449   7.393  0.8858 -1.8568 -0.6034
 4582SOL    HW225206   0.674   4.562   7.310  1.0760 -0.3778 -1.8801
 4583SOL     OW25207   0.203   3.610   1.171 -0.0623  0.2398  0.5700
 4583SOL    HW125208   0.285   3.655   1.154  1.4863 -2.9137 -0.2966
 4583SOL    HW225209   0.237   3.547   1.234  0.9542 -1.0621 -1.2712
 4584SOL     OW25210   2.369   3.046  16.255  0.1730 -0.1705  0.7440
 4584SOL    HW125211   2.387   3.012  16.343 -0.6877 -0.3868  0.8416
 4584SOL    HW225212   2.454   3.081  16.229  0.5808 -2.2310 -0.6637
 4585SOL     OW25213   0.365   2.660   4.411 -0.3533 -0.0659  0.3192
 4585SOL    HW125214   0.452   2.623   4.394 -0.3346  0.5952 -1.0366
 4585SOL    HW225215   0.351   2.700   4.325  1.8417  0.2652  0.1187
 4586SOL     OW25216   4.016   3.998  14.924 -0.1712  0.0470 -0.2333
 4586SOL    HW125217   4.085   4.064  14.933 -0.2934  0.2817 -1.0570
 4586SOL    HW225218   4.038   3.975  14.834 -0.9786  0.9367 -0.6560
 4587SOL     OW25219   0.838   3.960   7.656 -0.0236 -0.4121  0.4205
 4587SOL    HW125220   0.882   3.876   7.670 -0.1727 -0.3632  1.2225
 4587SOL    HW225221   0.806   3.950   7.567  1.9608  3.9428 -0.7721
 4588SOL     OW25222   2.834   3.762   8.909 -0.3044 -0.3737  0.0382
 4588SOL    HW125223   2.808   3.785   8.820  0.8080 -0.6118 -0.3379
 4588SOL    HW225224   2.766   3.797   8.968 -0.6272 -0.2736 -0.3940
 4589SOL     OW25225   1.329   0.688   5.148 -1.1611  0.2593  0.0859
 4589SOL    HW125226   1.331   0.736   5.230 -1.9894  1.4252 -0.5768
 4589SOL    HW225227   1.393   0.741   5.100  0.1368 -3.1224 -1.9377
 4590SOL     OW25228   3.152   3.728   0.838 -0.3436 -0.1382 -0.5308
 4590SOL    HW125229   3.077   3.700   0.890 -2.2473  0.5977 -2.8786
 4590SOL    HW225230   3.133   3.699   0.749  0.0202  0.2255 -0.7250
 4591SOL     OW25231   1.122   3.919   5.135 -0.1572  0.4695  0.6655
 4591SOL    HW125232   1.053   3.888   5.193  1.1460 -1.5588  1.1058
 4591SOL    HW225233   1.133   3.851   5.068  2.5503  1.5534  0.0250
 4592SOL     OW25234   0.124   2.760   4.683  0.1702  0.5549  0.0917
 4592SOL    HW125235   0.135   2.773   4.778  1.5182 -2.8801  0.4055
 4592SOL    HW225236   0.035   2.790   4.670  0.2223  1.2911  1.4275
 4593SOL     OW25237   2.237   2.767   8.786 -0.1669 -0.6328 -0.4714
 4593SOL    HW125238   2.305   2.827   8.755  1.7423 -2.8941 -0.5955
 4593SOL    HW225239   2.254   2.691   8.731  2.0375 -0.3377 -0.2107
 4594SOL     OW25240   2.429   0.629  13.952 -0.0473  0.2031  0.1768
 4594SOL    HW125241   2.396   0.548  13.990 -1.4244  0.5015 -0.3585
 4594SOL    HW225242   2.349   0.662  13.911  0.8816  2.9852  0.5896
 4595SOL     OW25243   2.743   1.573   6.221 -0.2360  0.2650  0.0590
 4595SOL    HW125244   2.717   1.612   6.138 -2.8384 -1.5840  0.0384
 4595SOL    HW225245   2.724   1.480   6.225 -1.1045  0.4343 -0.2699
 4596SOL     OW25246   0.926   3.489  12.397 -0.4488  0.8856 -0.4126
 4596SOL    HW125247   0.998   3.502  12.335  1.4573 -0.6361  1.4943
 4596SOL    HW225248   0.966   3.441  12.469  0.7510  3.0406  0.3602
 4597SOL     OW25249   3.411   0.358   7.801 -0.2893 -0.1953 -0.2838
 4597SOL    HW125250   3.432   0.404   7.882  1.3493  0.5651 -1.1245
 4597SOL    HW225251   3.472   0.396   7.738 -1.3124  0.9981 -0.5502
 4598SOL     OW25252   1.760   0.972   3.127  0.5648 -0.2738  0.4177
 4598SOL    HW125253   1.811   0.965   3.046  1.2392 -1.0701  0.9142
 4598SOL    HW225254   1.689   0.908   3.122 -0.1292  0.5462 -0.2706
 4599SOL     OW25255   2.359   2.703   4.311  0.3753  0.0819  0.0119
 4599SOL    HW125256   2.364   2.648   4.389 -0.4078  1.4158  1.0105
 4599SOL    HW225257   2.449   2.737   4.305  0.0827  0.8441 -0.1388
 4600SOL     OW25258   1.166   2.628  16.163  0.1770  0.7531 -0.2869
 4600SOL    HW125259   1.177   2.633  16.068  1.7242 -0.5525 -0.1781
 4600SOL    HW225260   1.079   2.589  16.173  0.8637 -0.9184 -0.6922
 4601SOL     OW25261   2.217   4.414   9.198 -0.0785 -0.5122 -0.8403
 4601SOL    HW125262   2.136   4.466   9.198 -0.1149 -0.5698 -1.1648
 4601SOL    HW225263   2.186   4.329   9.168 -1.9002 -0.8245  1.9197
 4602SOL     OW25264   2.713   1.958   6.808  0.1807 -0.4646 -0.1624
 4602SOL    HW125265   2.763   2.005   6.742  0.0666  0.4758  0.4284
 4602SOL    HW225266   2.776   1.959   6.880  0.4526  3.0683 -0.4737
 4603SOL     OW25267   0.039   2.273   9.206  0.3900 -0.8153 -0.2296
 4603SOL    HW125268   4.694   2.209   9.233  1.2872 -1.4543  0.4390
 4603SOL    HW225269   0.102   2.270   9.278 -1.1189 -1.0218  1.0720
 4604SOL     OW25270   0.404   1.103   1.938 -0.3223 -0.4777  0.1123
 4604SOL    HW125271   0.365   1.033   1.991 -1.8132 -1.4826 -2.3215
 4604SOL    HW225272   0.375   1.182   1.984  2.2526 -0.3616  1.5130
 4605SOL     OW25273   0.257   4.113   7.595 -0.1887  0.4264  0.5360
 4605SOL    HW125274   0.255   4.030   7.547 -1.1878 -0.2932  1.8387
 4605SOL    HW225275   0.174   4.146   7.561  0.6541  1.8934 -0.1203
 4606SOL     OW25276   2.106   2.867  15.339  0.5979 -0.2634 -0.0048
 4606SOL    HW125277   2.154   2.882  15.421  0.2750  2.8106 -0.3916
 4606SOL    HW225278   2.026   2.829  15.378  0.1024 -1.8546 -2.5776
 4607SOL     OW25279   1.886   2.314   8.005  0.7514 -0.0499 -0.5741
 4607SOL    HW125280   1.931   2.250   8.060  0.3276 -0.1641 -0.3595
 4607SOL    HW225281   1.792   2.307   8.023  0.9058 -1.1657 -0.1829
 4608SOL     OW25282   3.464   2.034   1.717 -0.7958  0.6228  1.0165
 4608SOL    HW125283   3.384   2.082   1.693 -1.2701  0.5221  2.3980
 4608SOL    HW225284   3.530   2.103   1.716  0.1272 -0.2914 -1.5999
 4609SOL     OW25285   0.878   3.261   6.173 -0.1381 -0.3756  1.0124
 4609SOL    HW125286   0.898   3.173   6.139  3.1888  0.3231  1.1422
 4609SOL    HW225287   0.912   3.313   6.100 -1.7203 -1.9554 -0.8534
 4610SOL     OW25288   1.220   4.658  13.816  0.2988 -0.2016 -0.1227
 4610SOL    HW125289   1.259   0.019  13.783  0.5727  0.5614  2.0726
 4610SOL    HW225290   1.126   4.666  13.802  0.7042  1.0526 -2.0797
 4611SOL     OW25291   2.228   1.529   2.458 -0.4850  0.2980  0.4341
 4611SOL    HW125292   2.173   1.507   2.533  0.1234  0.9829  1.0912
 4611SOL    HW225293   2.312   1.558   2.496 -0.4782 -0.0733  0.7028
 4612SOL     OW25294   1.663   2.240  16.598 -0.3696 -0.0459  0.5837
 4612SOL    HW125295   1.690   2.273  16.512 -0.0884 -0.5068  0.4917
 4612SOL    HW225296   1.592   2.183  16.567 -0.5262  0.0052  0.8528
 4613SOL     OW25297   3.677   3.168  11.068  0.2604 -0.1027 -0.6735
 4613SOL    HW125298   3.761   3.201  11.036  1.2471 -1.1915  0.8039
 4613SOL    HW225299   3.620   3.244  11.076  1.1504  0.4982  0.0498
 4614SOL     OW25300   1.188   2.817   4.482  0.2818 -0.0969 -0.1069
 4614SOL    HW125301   1.106   2.772   4.460  0.5090 -0.0845 -0.9698
 4614SOL    HW225302   1.163   2.908   4.496  0.0368 -0.4911  2.1769
 4615SOL     OW25303   4.218   1.923   3.320 -0.6971 -0.5383  0.8838
 4615SOL    HW125304   4.222   2.011   3.281 -1.5805  0.0008  2.0128
 4615SOL    HW225305   4.310   1.905   3.340 -0.7392  0.5690  2.0646
 4616SOL     OW25306   1.943   1.230  12.644 -0.9384 -0.3859 -0.8749
 4616SOL    HW125307   2.020   1.192  12.686  0.6359  1.0275 -2.4978
 4616SOL    HW225308   1.962   1.246  12.552  3.1249  2.0174  0.3978
 4617SOL     OW25309   3.974   3.284   8.029  0.7962 -0.3145  0.2984
 4617SOL    HW125310   3.938   3.366   8.064 -0.3956 -0.3498 -0.8854
 4617SOL    HW225311   4.016   3.256   8.111 -1.1822 -0.9454  1.0869
 4618SOL     OW25312   3.186   3.363  15.834 -0.0866 -0.7453  0.7827
 4618SOL    HW125313   3.107   3.354  15.887  0.0875 -0.2889  1.1205
 4618SOL    HW225314   3.209   3.453  15.859 -0.2432 -0.0753 -1.4688
 4619SOL     OW25315   4.449   2.148   7.355 -0.7304 -0.3468 -0.0033
 4619SOL    HW125316   4.377   2.209   7.336  0.0044  0.6081  0.2673
 4619SOL    HW225317   4.511   2.161   7.283  1.5384 -1.0038  1.8693
 4620SOL     OW25318   2.136   0.463   4.605  0.0679 -0.6253 -0.3078
 4620SOL    HW125319   2.149   0.481   4.512 -0.4002 -0.0470 -0.2630
 4620SOL    HW225320   2.042   0.479   4.613 -0.0125 -1.2227 -0.0269
 4621SOL     OW25321   1.253   2.137  13.052  0.2411  0.2407 -1.0100
 4621SOL    HW125322   1.200   2.192  13.110 -0.0317 -0.8819 -0.2159
 4621SOL    HW225323   1.227   2.165  12.965  1.4752  0.7032 -1.2380
 4622SOL     OW25324   3.971   2.462   2.768  0.2786 -0.3616 -0.7525
 4622SOL    HW125325   4.033   2.531   2.789 -0.8254  0.0763  1.0597
 4622SOL    HW225326   3.887   2.484   2.809  1.4397  0.0055  1.4109
 4623SOL     OW25327   2.514   1.467  11.628  0.2397  0.3484  0.1505
 4623SOL    HW125328   2.498   1.373  11.633 -1.0866  0.6123  0.9824
 4623SOL    HW225329   2.459   1.488  11.552  2.0264 -0.2038 -1.3039
 4624SOL     OW25330   1.770   2.848   6.317 -0.5781 -0.0632 -0.1914
 4624SOL    HW125331   1.807   2.898   6.245  0.6014  3.2667  2.7182
 4624SOL    HW225332   1.850   2.837   6.369  0.7302 -0.4720 -2.2876
 4625SOL     OW25333   0.538   2.584  12.953 -0.1445  0.3439  0.8351
 4625SOL    HW125334   0.486   2.657  12.986  0.8724  0.8516  1.3084
 4625SOL    HW225335   0.565   2.619  12.868 -1.2650  0.3111  0.4596
 4626SOL     OW25336   1.304   2.866   7.376 -0.3851 -0.0285  0.0560
 4626SOL    HW125337   1.372   2.872   7.443  0.1365 -0.1426 -0.4710
 4626SOL    HW225338   1.268   2.779   7.393 -1.3572 -0.0723 -2.2153
 4627SOL     OW25339   1.858   2.428   3.342  0.5275  0.3728  0.3039
 4627SOL    HW125340   1.939   2.442   3.392 -0.5508 -0.3407  2.2080
 4627SOL    HW225341   1.819   2.514   3.327  0.2564  0.2681  0.4111
 4628SOL     OW25342   0.261   3.475  15.488 -0.0631  0.0051 -0.4201
 4628SOL    HW125343   0.233   3.480  15.396 -1.6480  2.4445  0.1948
 4628SOL    HW225344   0.353   3.451  15.488 -0.3912 -1.3114 -2.7479
 4629SOL     OW25345   3.109   1.558   1.380 -0.0640 -0.0367 -0.1470
 4629SOL    HW125346   3.135   1.499   1.451 -0.7399  0.2260  0.3173
 4629SOL    HW225347   3.192   1.553   1.331 -0.0422  0.6614 -0.1785
 4630SOL     OW25348   3.450   4.065   1.160  0.4474  0.3429 -0.0586
 4630SOL    HW125349   3.383   4.073   1.228 -0.5734 -0.1312 -1.0101
 4630SOL    HW225350   3.518   4.106   1.214 -0.2513  1.7121 -0.2298
 4631SOL     OW25351   3.235   4.492   0.591 -0.1444 -0.1764  0.0604
 4631SOL    HW125352   3.246   4.454   0.678  0.6700 -0.6525 -0.2535
 4631SOL    HW225353   3.315   4.545   0.589  1.5004 -2.6526 -0.0048
 4632SOL     OW25354   2.517   1.635   5.306 -0.0723 -0.4022 -0.0159
 4632SOL    HW125355   2.583   1.644   5.237  1.8450  1.3916  2.0538
 4632SOL    HW225356   2.566   1.599   5.380  1.1194  0.9149 -0.1723
 4633SOL     OW25357   3.930   3.950  16.747  0.4011  0.2892 -0.8134
 4633SOL    HW125358   3.932   3.898  16.667 -3.0534  1.4597 -1.6601
 4633SOL    HW225359   3.924   3.876  16.807 -1.5824  0.6752 -0.5137
 4634SOL     OW25360   0.794   4.572   3.159 -0.4239 -0.4750 -0.5667
 4634SOL    HW125361   0.873   4.540   3.203 -0.5034  0.1567  0.0370
 4634SOL    HW225362   0.825   4.661   3.143 -1.4300 -0.1548 -0.6764
 4635SOL     OW25363   4.134   1.260   4.348  0.2436 -0.8345 -0.2224
 4635SOL    HW125364   4.099   1.207   4.277 -1.1763 -1.3891  0.9035
 4635SOL    HW225365   4.055   1.296   4.388 -0.8041 -0.2420 -2.8271
 4636SOL     OW25366   1.047   0.214   4.715  0.1924 -0.4538 -0.2886
 4636SOL    HW125367   0.956   0.239   4.732  0.1388 -2.2096  1.8966
 4636SOL    HW225368   1.086   0.301   4.709 -0.1564 -0.3343 -0.8294
 4637SOL     OW25369   0.335   2.378   7.332 -0.1009 -0.0081 -0.0376
 4637SOL    HW125370   0.409   2.342   7.283 -0.6818 -1.8038  0.4365
 4637SOL    HW225371   0.343   2.332   7.416  0.4084  1.2199  0.5914
 4638SOL     OW25372   3.196   1.176  14.957  0.5117 -0.2430 -0.4743
 4638SOL    HW125373   3.146   1.255  14.937  2.1859  0.6388 -1.1957
 4638SOL    HW225374   3.270   1.198  14.900 -0.3659  0.5779 -1.2965
 4639SOL     OW25375   0.784   4.075   0.459 -0.2863 -0.0401 -0.2528
 4639SOL    HW125376   0.703   4.029   0.439  0.2145 -0.4230 -1.3932
 4639SOL    HW225377   0.825   4.003   0.507 -1.7242  0.0005  1.0477
 4640SOL     OW25378   2.530   2.534  12.847 -0.2358 -0.1422  0.1128
 4640SOL    HW125379   2.469   2.463  12.866  1.1776 -0.5955  2.9522
 4640SOL    HW225380   2.487   2.583  12.776  1.1321 -1.0394 -1.3343
 4641SOL     OW25381   1.359   3.746   3.020 -0.1597  0.2643  0.4354
 4641SOL    HW125382   1.277   3.701   3.040  0.8231 -0.9771  1.7324
 4641SOL    HW225383   1.418   3.686   3.067  1.8135  3.1252  1.5791
 4642SOL     OW25384   2.782   2.376  15.680  1.2556  0.3561  0.2275
 4642SOL    HW125385   2.795   2.445  15.745 -0.9455  0.9505  0.0322
 4642SOL    HW225386   2.723   2.415  15.616  0.4201 -0.7629  0.3085
 4643SOL     OW25387   2.540   2.170   7.898  0.0105  0.6089  0.5395
 4643SOL    HW125388   2.545   2.167   7.994 -0.1935 -0.8232  0.4934
 4643SOL    HW225389   2.522   2.078   7.883  1.1121  0.6918 -1.2008
 4644SOL     OW25390   3.148   3.446   9.109  0.0866  0.4249 -0.2603
 4644SOL    HW125391   3.211   3.470   9.177 -0.9287  1.5896  0.2663
 4644SOL    HW225392   3.065   3.460   9.155  0.9144  1.1636  0.9967
 4645SOL     OW25393   4.253   3.813   4.945 -0.2204 -0.3717 -0.1166
 4645SOL    HW125394   4.331   3.757   4.954 -0.0341 -0.1064 -0.0841
 4645SOL    HW225395   4.215   3.809   4.857 -1.9925  1.2354  0.5740
 4646SOL     OW25396   1.718   2.023   6.795  0.2436  0.0797 -0.0054
 4646SOL    HW125397   1.754   2.009   6.883  1.7573  0.5375 -0.5528
 4646SOL    HW225398   1.747   1.949   6.742 -0.4677  0.7460 -1.3188
 4647SOL     OW25399   4.170   0.063  10.935 -0.3673 -0.8224  0.0356
 4647SOL    HW125400   4.165   4.689  10.917 -1.4327 -1.2276  2.4371
 4647SOL    HW225401   4.159   0.064  11.030  1.4474  1.6166  0.2117
 4648SOL     OW25402   0.688   1.814   8.960  0.2047  0.3278 -0.4006
 4648SOL    HW125403   0.664   1.755   9.032 -0.2235  0.5869 -0.3282
 4648SOL    HW225404   0.660   1.898   8.995  1.0449 -0.1180  1.3372
 4649SOL     OW25405   2.830   1.521  10.595  0.1716 -0.1345 -0.1509
 4649SOL    HW125406   2.765   1.591  10.592 -0.1673 -0.5287 -1.9047
 4649SOL    HW225407   2.902   1.568  10.635 -0.9269 -0.2898  1.9815
 4650SOL     OW25408   3.210   0.191   5.695  0.4684 -0.0131  0.0427
 4650SOL    HW125409   3.237   0.119   5.637  1.4072  2.9373 -3.2013
 4650SOL    HW225410   3.274   0.257   5.670 -1.1386  0.7103 -2.1857
 4651SOL     OW25411   2.040   2.030   7.447  0.3065  0.2270  0.6848
 4651SOL    HW125412   2.089   1.948   7.454 -0.7710 -0.6286 -1.8454
 4651SOL    HW225413   2.000   2.041   7.533  1.6700 -1.8999  1.5839
 4652SOL     OW25414   1.594   1.909  17.200 -0.1572  0.1028 -0.1418
 4652SOL    HW125415   1.556   1.932  17.285 -0.4261  0.0886 -0.2585
 4652SOL    HW225416   1.562   1.981  17.145  1.8296  1.2095  0.1461
 4653SOL     OW25417   3.613   0.397   1.946  0.3822 -0.3825 -0.3709
 4653SOL    HW125418   3.695   0.410   1.899  0.3674 -1.0462 -0.5728
 4653SOL    HW225419   3.583   0.485   1.970 -1.6665 -0.0353 -4.2626
 4654SOL     OW25420   3.783   0.936   2.367 -0.2422 -0.2544 -0.0092
 4654SOL    HW125421   3.797   0.962   2.275  1.0751 -0.1063  0.2310
 4654SOL    HW225422   3.835   0.857   2.377  2.1237  1.3649  0.4914
 4655SOL     OW25423   3.379   3.752   2.320 -0.3232 -0.0081  0.2858
 4655SOL    HW125424   3.348   3.699   2.246 -0.2258 -0.1722  0.3641
 4655SOL    HW225425   3.353   3.842   2.298 -0.9668  0.0327  1.2408
 4656SOL     OW25426   0.313   0.671  12.211  0.5574  0.2631 -0.2803
 4656SOL    HW125427   0.374   0.727  12.162  1.5479 -0.6970 -0.1409
 4656SOL    HW225428   0.379   0.636  12.271 -0.9486 -2.1977 -0.0953
 4657SOL     OW25429   2.769   3.696  11.048  0.2692 -0.7471 -0.6884
 4657SOL    HW125430   2.697   3.637  11.072 -0.4512  0.4217  0.0058
 4657SOL    HW225431   2.726   3.779  11.070  1.7519 -0.3405  0.6822
 4658SOL     OW25432   3.471   2.360   0.556  0.0387  0.3807 -0.0915
 4658SOL    HW125433   3.495   2.307   0.481 -1.6315 -0.8332  0.2239
 4658SOL    HW225434   3.379   2.375   0.531 -0.1375 -2.1286 -0.9028
 4659SOL     OW25435   2.153   2.371   3.587 -0.2461 -0.3151  0.0495
 4659SOL    HW125436   2.138   2.464   3.568  0.4008 -0.0863  0.6435
 4659SOL    HW225437   2.064   2.345   3.611  0.1989 -1.4645  0.4308
 4660SOL     OW25438   1.737   4.188  15.591  0.8587 -0.0450 -0.0904
 4660SOL    HW125439   1.654   4.216  15.553  0.5111 -1.0535 -0.0773
 4660SOL    HW225440   1.729   4.216  15.682 -1.7832 -3.9132  0.8788
 4661SOL     OW25441   2.977   2.859   3.809  0.4567  0.2894 -0.2952
 4661SOL    HW125442   2.922   2.937   3.801 -0.4765 -0.4063 -0.7142
 4661SOL    HW225443   3.060   2.880   3.767  0.1803  1.0181 -0.4754
 4662SOL     OW25444   1.721   0.278  11.682 -0.3445 -0.2548  0.5405
 4662SOL    HW125445   1.781   0.311  11.749  0.5255  2.7606 -1.7443
 4662SOL    HW225446   1.649   0.341  11.689  0.4022  0.6326  0.2626
 4663SOL     OW25447   2.136   1.021   0.655  0.6099  0.4651 -0.1300
 4663SOL    HW125448   2.205   0.961   0.682 -0.2717 -0.1675  0.7309
 4663SOL    HW225449   2.147   1.090   0.720 -0.1734 -0.0874  0.5841
 4664SOL     OW25450   3.375   0.158  11.045 -0.5235  0.9949 -0.0794
 4664SOL    HW125451   3.333   0.074  11.062  0.2122  0.8178  0.8796
 4664SOL    HW225452   3.291   0.203  11.046  0.0432  2.0207  1.7760
 4665SOL     OW25453   4.069   1.091   5.238  0.3005 -0.1017  0.1992
 4665SOL    HW125454   4.135   1.023   5.233 -0.3051 -0.8246  1.8571
 4665SOL    HW225455   4.041   1.081   5.329 -1.4024  2.6110 -0.0013
 4666SOL     OW25456   0.158   1.841  10.943  0.1813 -0.4621 -0.0511
 4666SOL    HW125457   0.242   1.839  10.899 -1.0716 -1.0762 -2.4071
 4666SOL    HW225458   0.184   1.853  11.034 -0.6772  1.0955 -0.0001
 4667SOL     OW25459   4.000   3.708   1.879  0.4166 -0.3032  0.0715
 4667SOL    HW125460   3.916   3.736   1.842  0.5137 -0.9289 -0.6278
 4667SOL    HW225461   3.994   3.743   1.968  0.4680  0.8144 -0.3594
 4668SOL     OW25462   4.083   0.271  11.439 -0.0879 -0.4514  0.2438
 4668SOL    HW125463   4.001   0.311  11.410  0.3099  1.3138  1.5094
 4668SOL    HW225464   4.091   0.202  11.374  3.0065  0.0051  0.1351
 4669SOL     OW25465   0.555   1.721   1.051 -0.2580 -0.6923 -0.1420
 4669SOL    HW125466   0.580   1.653   0.990  0.9688  1.0097 -1.5240
 4669SOL    HW225467   0.511   1.785   0.996  1.6987  1.2477  0.5554
 4670SOL     OW25468   3.300   4.205   6.259 -0.4107 -0.2217 -0.0268
 4670SOL    HW125469   3.281   4.204   6.353 -1.3928  1.4814 -0.2020
 4670SOL    HW225470   3.232   4.268   6.234 -0.5646 -0.1106  0.6640
 4671SOL     OW25471   0.524   0.510   7.006 -0.3053 -0.9322 -0.0615
 4671SOL    HW125472   0.577   0.504   6.926  0.1047  3.4225 -0.1215
 4671SOL    HW225473   0.514   0.417   7.028  0.6687 -0.9839  0.1849
 4672SOL     OW25474   1.681   2.373  13.071  0.0043 -0.4540  0.2024
 4672SOL    HW125475   1.623   2.310  13.029 -1.2087  0.9992 -0.3243
 4672SOL    HW225476   1.685   2.336  13.159  1.3179  3.2594  1.7231
 4673SOL     OW25477   4.597   4.620  12.541  0.1350 -0.1175  0.1253
 4673SOL    HW125478   4.609   4.714  12.551  1.4114 -0.1487 -1.1126
 4673SOL    HW225479   4.638   4.597  12.458 -0.2835 -0.8948  0.1340
 4674SOL     OW25480   4.112   2.592   8.007  0.3379  0.3660 -0.0665
 4674SOL    HW125481   4.078   2.503   8.002 -2.0459  1.2821  0.1128
 4674SOL    HW225482   4.048   2.643   8.056 -0.0470  1.7380 -1.9819
 4675SOL     OW25483   0.409   4.413  10.800 -0.2667 -0.1776  0.4256
 4675SOL    HW125484   0.404   4.354  10.725 -3.5195  1.1276 -0.3792
 4675SOL    HW225485   0.401   4.354  10.876  1.9024  0.3484  1.0494
 4676SOL     OW25486   4.362   4.416   8.170 -0.3441 -0.5051  0.0003
 4676SOL    HW125487   4.407   4.365   8.103 -1.0291 -1.8258  0.5572
 4676SOL    HW225488   4.427   4.424   8.240 -0.4301  1.9403 -0.1963
 4677SOL     OW25489   1.072   2.821   3.160 -0.1872  0.1752  0.2187
 4677SOL    HW125490   1.102   2.866   3.239  0.5395 -0.4832  0.3109
 4677SOL    HW225491   1.103   2.875   3.088  1.2747 -0.2689  0.5187
 4678SOL     OW25492   1.827   3.417  14.613 -0.5374 -0.0547  0.5173
 4678SOL    HW125493   1.862   3.482  14.672 -1.4677  2.1093 -1.3152
 4678SOL    HW225494   1.788   3.474  14.547  1.4757  1.5704  0.7735
 4679SOL     OW25495   1.165   0.067   2.677  0.0067 -0.6741  0.1913
 4679SOL    HW125496   1.214   4.708   2.699  2.0957 -0.0633 -2.2919
 4679SOL    HW225497   1.207   0.144   2.714  0.4224 -1.2565  0.9434
 4680SOL     OW25498   4.437   1.997   7.923 -0.0343 -0.0526  0.7231
 4680SOL    HW125499   4.479   2.004   8.009  0.6108  1.0772  0.3109
 4680SOL    HW225500   4.449   2.087   7.894 -0.4155 -0.2878 -0.1765
 4681SOL     OW25501   3.764   4.062   1.721 -0.2881 -0.3837 -0.6288
 4681SOL    HW125502   3.694   3.997   1.725 -0.3552 -0.4562 -2.8917
 4681SOL    HW225503   3.774   4.073   1.815  1.6032 -0.5378 -0.8107
 4682SOL     OW25504   4.005   4.361   1.510  0.2788 -0.0972  0.1258
 4682SOL    HW125505   3.971   4.394   1.594  0.1859  0.6397 -0.1986
 4682SOL    HW225506   4.099   4.362   1.525  0.1577 -0.6367  0.9185
 4683SOL     OW25507   2.314   1.872  11.474  0.0965 -0.5758 -0.0876
 4683SOL    HW125508   2.396   1.823  11.466 -0.1257 -1.0312  0.4591
 4683SOL    HW225509   2.329   1.944  11.535 -0.0029 -1.0716  0.5261
 4684SOL     OW25510   4.648   3.603   3.579 -0.5597 -0.4407  0.3172
 4684SOL    HW125511   4.640   3.574   3.488 -4.1922  1.1061  0.1205
 4684SOL    HW225512   4.561   3.642   3.588 -1.5774 -2.7323  0.2926
 4685SOL     OW25513   4.593   4.290   9.864  0.3196 -0.3380  0.1861
 4685SOL    HW125514   4.509   4.305   9.821  1.1167 -0.5233 -1.4693
 4685SOL    HW225515   4.596   4.202   9.903 -1.0479 -0.7779 -0.6921
 4686SOL     OW25516   0.860   4.720  16.805  0.4864  0.1432  0.0427
 4686SOL    HW125517   0.776   4.704  16.848 -0.3020 -2.5802 -2.5059
 4686SOL    HW225518   0.921   4.713  16.879 -0.4375 -0.4811  0.7433
 4687SOL     OW25519   2.482   1.739  16.451  0.2912  0.7595 -0.0474
 4687SOL    HW125520   2.512   1.781  16.371  0.2121 -2.8195 -1.9598
 4687SOL    HW225521   2.560   1.687  16.471  0.3727  0.1080 -2.0588
 4688SOL     OW25522   0.365   4.708   8.863 -0.1807  0.0827  0.1376
 4688SOL    HW125523   0.459   4.697   8.855  0.2909  3.0622  1.2551
 4688SOL    HW225524   0.351   4.643   8.932  0.4282  0.2420  0.4107
 4689SOL     OW25525   1.549   2.947   2.135  1.2766 -0.0152  0.5492
 4689SOL    HW125526   1.541   2.924   2.043  0.4010  1.8882  0.1393
 4689SOL    HW225527   1.533   2.869   2.188 -2.4741  2.0391  2.4179
 4690SOL     OW25528   2.039   4.122   3.351  0.0585  0.6182 -0.7295
 4690SOL    HW125529   1.983   4.045   3.360  0.1247  0.4057 -2.2840
 4690SOL    HW225530   1.977   4.171   3.298 -0.9860  0.4959  0.3652
 4691SOL     OW25531   2.733   3.426   7.113  0.0073  0.2654  0.1770
 4691SOL    HW125532   2.657   3.444   7.058  1.1634  0.1342 -1.4556
 4691SOL    HW225533   2.690   3.395   7.193  0.4494  0.8527  0.6451
 4692SOL     OW25534   2.010   1.572   4.392 -0.6585 -0.1344 -0.5375
 4692SOL    HW125535   1.973   1.639   4.335 -0.6935  0.1835 -0.1410
 4692SOL    HW225536   2.086   1.614   4.433 -0.2562  1.0800 -2.5093
 4693SOL     OW25537   0.587   2.593  13.561 -0.4520  0.1900 -0.6143
 4693SOL    HW125538   0.573   2.633  13.475  0.9314 -0.0221 -0.9329
 4693SOL    HW225539   0.499   2.573  13.592 -0.4262 -0.4307 -0.9448
 4694SOL     OW25540   1.440   3.094   6.948 -0.1250 -0.1524  0.4317
 4694SOL    HW125541   1.347   3.111   6.958 -0.2038 -1.1439  1.4475
 4694SOL    HW225542   1.474   3.183   6.939  2.4962 -1.0676  1.1850
 4695SOL     OW25543   2.605   3.824   4.382  0.0465 -0.0542  0.2739
 4695SOL    HW125544   2.527   3.806   4.331  0.7680  0.8181 -1.1398
 4695SOL    HW225545   2.650   3.740   4.383  0.7554  0.3394  1.6083
 4696SOL     OW25546   0.340   3.607  16.119 -0.4388  0.5637  0.1631
 4696SOL    HW125547   0.315   3.649  16.200 -2.1435 -1.1624  0.5424
 4696SOL    HW225548   0.374   3.526  16.157 -0.0894  0.2648 -0.7905
 4697SOL     OW25549   2.238   1.654   4.492  0.3001  0.0139  0.1501
 4697SOL    HW125550   2.297   1.719   4.530  0.1687  0.7654 -0.9430
 4697SOL    HW225551   2.287   1.631   4.413  0.8073 -2.9177  1.3122
 4698SOL     OW25552   2.475   0.317  12.058 -0.3002  0.8118  0.0183
 4698SOL    HW125553   2.518   0.358  11.982  0.7184 -0.7203 -0.2325
 4698SOL    HW225554   2.403   0.262  12.029 -0.8685  0.7645  1.5601
 4699SOL     OW25555   1.193   1.779  17.410  0.3702 -0.5685 -0.0541
 4699SOL    HW125556   1.125   1.742  17.467  0.8967 -0.3834  0.6889
 4699SOL    HW225557   1.220   1.697  17.369  3.3555 -0.1310  1.0848
 4700SOL     OW25558   3.379   4.398   0.779 -0.4915  0.2199  0.2783
 4700SOL    HW125559   3.388   4.325   0.839 -0.0700 -0.9747 -1.2385
 4700SOL    HW225560   3.451   4.449   0.815  0.3745 -2.3998  2.1677
 4701SOL     OW25561   1.407   1.203   9.052 -0.0122 -0.1751  0.2092
 4701SOL    HW125562   1.366   1.117   9.057 -0.3686 -0.0206 -0.0920
 4701SOL    HW225563   1.500   1.180   9.041 -0.0853 -0.9339  1.1444
 4702SOL     OW25564   3.545   2.623   8.367 -0.3599  0.1474 -0.0074
 4702SOL    HW125565   3.453   2.604   8.385 -1.0981  3.2156 -0.6459
 4702SOL    HW225566   3.552   2.713   8.398  0.7714  0.0668 -0.0069
 4703SOL     OW25567   0.281   3.286   8.196  0.4245 -0.1023 -0.6291
 4703SOL    HW125568   0.299   3.378   8.177  1.0682  0.0453  0.6544
 4703SOL    HW225569   0.318   3.245   8.118 -1.0992 -2.8546  0.1069
 4704SOL     OW25570   1.815   4.438   5.217  0.2410 -0.1583 -0.0595
 4704SOL    HW125571   1.783   4.389   5.292  0.7245 -0.2627  0.0798
 4704SOL    HW225572   1.800   4.373   5.148  0.2801  0.1079 -0.3176
 4705SOL     OW25573   1.790   0.221   6.969  0.2132 -0.0388 -0.2060
 4705SOL    HW125574   1.814   0.172   7.047 -2.6658 -0.3983  0.4630
 4705SOL    HW225575   1.852   0.187   6.903 -1.4968 -0.5811 -1.5404
 4706SOL     OW25576   0.904   0.924   3.032 -0.3038 -0.0386  0.0227
 4706SOL    HW125577   0.929   0.835   3.056 -0.2212 -0.1164 -0.3535
 4706SOL    HW225578   0.872   0.953   3.118  1.3281  2.7650 -0.2922
 4707SOL     OW25579   4.051   4.047  10.621  0.0081 -0.0458 -0.1933
 4707SOL    HW125580   3.967   4.065  10.579  0.1541 -0.8694 -0.8389
 4707SOL    HW225581   4.086   3.977  10.565 -1.6303 -0.8942 -0.1508
 4708SOL     OW25582   2.580   1.746   2.905  0.9522  0.1849  0.1776
 4708SOL    HW125583   2.502   1.718   2.953  1.0279  0.9131  0.7188
 4708SOL    HW225584   2.580   1.840   2.922 -0.5380  0.0681  0.8145
 4709SOL     OW25585   1.649   0.146   7.907  0.4768 -0.2210  0.1547
 4709SOL    HW125586   1.662   0.168   7.814  0.0334  0.4138  0.2393
 4709SOL    HW225587   1.572   0.090   7.893  1.4839 -1.1110 -1.8643
 4710SOL     OW25588   4.279   1.651   3.655 -0.1127  0.1989 -0.0385
 4710SOL    HW125589   4.329   1.730   3.673  2.0620 -1.4002  0.9087
 4710SOL    HW225590   4.258   1.668   3.563 -5.0233  1.6048  1.3474
 4711SOL     OW25591   0.246   2.395   3.147  0.0887 -0.3979  0.2257
 4711SOL    HW125592   0.175   2.456   3.163  2.2452  2.3915 -0.7529
 4711SOL    HW225593   0.274   2.424   3.060  0.6908 -1.5599  0.0260
 4712SOL     OW25594   1.497   3.562   7.356  0.4003 -0.1700  0.2956
 4712SOL    HW125595   1.558   3.606   7.416  0.7228 -1.5035  0.9391
 4712SOL    HW225596   1.553   3.489   7.330  0.7149 -0.1324  0.8717
 4713SOL     OW25597   0.582   0.560   4.367  0.3927 -0.4583  0.3491
 4713SOL    HW125598   0.503   0.553   4.312  0.3306 -1.1122  0.5199
 4713SOL    HW225599   0.647   0.596   4.308  0.6726 -3.5368 -1.2488
 4714SOL     OW25600   1.769   2.714   8.574 -0.0286 -0.0767  0.0846
 4714SOL    HW125601   1.695   2.760   8.614  1.5812  2.1275  0.5379
 4714SOL    HW225602   1.837   2.777   8.600  0.8196 -0.8346 -0.3237
 4715SOL     OW25603   0.624   4.351   3.050 -0.0232 -0.4658 -0.3463
 4715SOL    HW125604   0.667   4.436   3.057 -0.6788 -0.1868  0.3404
 4715SOL    HW225605   0.550   4.359   3.110  0.4415 -1.6318  0.3883
 4716SOL     OW25606   2.873   1.532   1.252  0.1147  0.8212 -0.4671
 4716SOL    HW125607   2.921   1.494   1.179  2.2912 -1.7502  2.2904
 4716SOL    HW225608   2.954   1.552   1.298 -0.9758 -0.6729  2.1149
 4717SOL     OW25609   2.087   1.158   8.040 -0.0766  0.7929  0.1999
 4717SOL    HW125610   2.032   1.090   8.079 -0.4306  1.1961  0.4113
 4717SOL    HW225611   2.165   1.145   8.093 -0.2047  1.5298  0.5691
 4718SOL     OW25612   0.864   0.754  12.387  0.4157 -0.1694 -0.1030
 4718SOL    HW125613   0.934   0.690  12.372  2.2586  1.8142 -0.0677
 4718SOL    HW225614   0.841   0.731  12.477 -0.6779 -2.3523 -0.9429
 4719SOL     OW25615   3.526   0.287   5.829 -0.2675 -0.1096  0.2092
 4719SOL    HW125616   3.471   0.357   5.863  0.6521  0.4478  0.5413
 4719SOL    HW225617   3.589   0.284   5.901  1.5873 -0.0589 -1.4257
 4720SOL     OW25618   2.857   1.684   6.877  0.5809 -0.1819  0.5272
 4720SOL    HW125619   2.850   1.755   6.941 -1.7480  2.6403 -2.7828
 4720SOL    HW225620   2.940   1.707   6.835 -0.5509  0.2797 -1.4935
 4721SOL     OW25621   0.828   3.199   8.919 -0.6201  0.4926 -0.4695
 4721SOL    HW125622   0.856   3.141   8.989  0.3460  2.4480  0.7593
 4721SOL    HW225623   0.737   3.215   8.945 -0.9387  2.8769 -3.0723
 4722SOL     OW25624   3.152   4.604  10.079  0.3751 -0.3704 -0.1381
 4722SOL    HW125625   3.121   4.646  10.159 -0.5467  1.0288 -1.2356
 4722SOL    HW225626   3.137   4.512  10.101  0.7163 -0.2248  0.6903
 4723SOL     OW25627   1.156   2.314   5.470  0.2172 -0.4098  0.5935
 4723SOL    HW125628   1.204   2.231   5.462  0.5139 -0.0397 -1.4745
 4723SOL    HW225629   1.189   2.343   5.555 -2.0723  2.1342  0.6133
 4724SOL     OW25630   1.452   0.405   3.986 -0.1114  0.2410  0.2011
 4724SOL    HW125631   1.393   0.470   3.949  2.7556  2.9696  0.5051
 4724SOL    HW225632   1.451   0.336   3.919 -1.3545  1.1909 -0.7464
 4725SOL     OW25633   0.988   1.559   0.989 -0.3838  0.1621  0.2375
 4725SOL    HW125634   0.989   1.619   0.914 -0.5435 -0.9591 -0.6539
 4725SOL    HW225635   0.989   1.617   1.065 -1.9076 -1.9335  1.8492
 4726SOL     OW25636   3.454   2.038   4.871 -0.6018  0.1387  0.2709
 4726SOL    HW125637   3.424   2.039   4.962  0.8465  2.3220  0.7069
 4726SOL    HW225638   3.403   2.106   4.827 -0.8094 -1.0309 -1.2979
 4727SOL     OW25639   2.343   2.838  10.595 -0.2824  0.6436 -0.0343
 4727SOL    HW125640   2.259   2.838  10.641 -0.2312  1.1013  0.0648
 4727SOL    HW225641   2.338   2.780  10.519 -1.8892  0.7310  0.0188
 4728SOL     OW25642   3.877   0.906   4.116  0.2225  0.1648 -0.3550
 4728SOL    HW125643   3.814   0.859   4.061 -1.1748  0.1596  1.2474
 4728SOL    HW225644   3.948   0.842   4.111 -0.1675 -0.1433 -1.8547
 4729SOL     OW25645   2.414   4.188   2.229 -0.0321 -0.4155 -0.3745
 4729SOL    HW125646   2.447   4.263   2.277 -0.0306  0.1266 -1.2378
 4729SOL    HW225647   2.412   4.233   2.145 -0.7494 -0.3216 -0.3106
 4730SOL     OW25648   2.316   1.458   9.120 -0.7264 -0.8816  0.2514
 4730SOL    HW125649   2.249   1.470   9.053  0.7287 -0.1768 -1.0961
 4730SOL    HW225650   2.368   1.536   9.099 -0.9284 -0.7185  0.3579
 4731SOL     OW25651   0.569   2.295   4.289 -0.4006  0.2611 -0.0666
 4731SOL    HW125652   0.563   2.204   4.319  2.2115 -0.1254 -0.7148
 4731SOL    HW225653   0.476   2.311   4.271 -1.1420 -0.9705  2.7269
 4732SOL     OW25654   0.874   0.730   8.800  0.9512 -0.0898 -0.2143
 4732SOL    HW125655   0.919   0.796   8.748  3.2975 -3.1441 -2.0477
 4732SOL    HW225656   0.794   0.715   8.749  0.2732  0.2731  0.7513
 4733SOL     OW25657   4.307   0.129   1.334 -0.5912 -0.4608  0.0320
 4733SOL    HW125658   4.357   0.048   1.342 -0.0362  0.0433  1.7985
 4733SOL    HW225659   4.316   0.151   1.242  3.3424  1.7865  0.9535
 4734SOL     OW25660   2.811   2.658   3.830 -0.4839  0.3369  0.4095
 4734SOL    HW125661   2.740   2.660   3.767 -0.3090 -0.9267  0.1661
 4734SOL    HW225662   2.866   2.735   3.813  0.5513 -0.6657 -0.7458
 4735SOL     OW25663   4.511   2.340   3.177  0.3828  0.2424  0.1569
 4735SOL    HW125664   4.561   2.259   3.189  0.6299  0.3173 -0.3785
 4735SOL    HW225665   4.431   2.316   3.224 -0.5495  2.3843 -0.3461
 4736SOL     OW25666   0.581   1.968   3.176 -0.1601 -0.2849  0.1112
 4736SOL    HW125667   0.619   1.996   3.260 -2.0149 -1.3257  1.2876
 4736SOL    HW225668   0.635   1.892   3.155  1.4542  1.3600 -1.7111
 4737SOL     OW25669   4.270   0.783  11.514 -0.1920 -0.3126  0.4223
 4737SOL    HW125670   4.274   0.689  11.534  0.3787 -0.3880 -0.0515
 4737SOL    HW225671   4.234   0.781  11.426 -0.6523 -0.0456  0.6047
 4738SOL     OW25672   0.396   1.549   4.587  0.0769 -0.1492 -0.3781
 4738SOL    HW125673   0.320   1.603   4.569  0.7066  1.8180  2.9032
 4738SOL    HW225674   0.368   1.494   4.659  3.9870 -1.6937 -0.0126
 4739SOL     OW25675   3.364   0.138   8.532  0.8487 -0.4212  0.3083
 4739SOL    HW125676   3.291   0.107   8.479  0.9603 -0.6939  0.3143
 4739SOL    HW225677   3.310   0.202   8.579 -0.3262 -0.7105 -0.6237
 4740SOL     OW25678   0.227   2.581   9.921 -0.2719 -0.1988 -0.3857
 4740SOL    HW125679   0.271   2.556  10.002 -1.0594  0.2724  0.1914
 4740SOL    HW225680   0.171   2.503   9.916  0.2704 -0.6458  0.4897
 4741SOL     OW25681   0.364   3.138  12.538  0.0896  0.0841 -0.1164
 4741SOL    HW125682   0.300   3.091  12.484  1.2952 -0.5021 -1.0189
 4741SOL    HW225683   0.349   3.229  12.511  2.3947  0.1117 -1.2698
 4742SOL     OW25684   1.869   2.986   1.397  0.2171  0.0507 -0.5243
 4742SOL    HW125685   1.935   3.030   1.342 -2.1247  2.2926 -1.5303
 4742SOL    HW225686   1.921   2.967   1.475  1.4515  1.3502 -1.0378
 4743SOL     OW25687   3.693   3.857   0.130  0.4175  0.5201  0.1570
 4743SOL    HW125688   3.786   3.878   0.139  1.3042 -3.0285 -0.4347
 4743SOL    HW225689   3.701   3.770   0.090  0.6583  0.5724  0.0889
 4744SOL     OW25690   2.582   4.557  11.614  0.0866 -1.1506  0.0927
 4744SOL    HW125691   2.551   4.607  11.690 -0.6778 -1.4319 -0.0418
 4744SOL    HW225692   2.595   4.473  11.658 -2.0489 -1.2759  0.4693
 4745SOL     OW25693   2.223   3.562  12.339 -0.1074 -0.6015  0.1893
 4745SOL    HW125694   2.202   3.557  12.432 -0.9308  1.3928  0.1268
 4745SOL    HW225695   2.304   3.511  12.343  0.2398  0.0010  0.8894
 4746SOL     OW25696   2.155   1.227   1.805 -0.2477  0.4669  0.8367
 4746SOL    HW125697   2.201   1.311   1.809  0.7564 -0.0674  0.3774
 4746SOL    HW225698   2.076   1.263   1.763  1.7238  0.9127 -2.4743
 4747SOL     OW25699   2.763   4.422   2.890 -0.1660 -0.2401  0.1885
 4747SOL    HW125700   2.731   4.509   2.870 -0.6184  0.0594  2.2257
 4747SOL    HW225701   2.713   4.407   2.970  0.1960 -1.4489  0.2001
 4748SOL     OW25702   1.974   0.797   7.515  0.0956  0.0120  0.0140
 4748SOL    HW125703   2.012   0.741   7.582  0.5772 -0.4330 -0.6267
 4748SOL    HW225704   1.952   0.735   7.445 -1.8984  1.7138 -0.8582
 4749SOL     OW25705   1.509   2.796   4.463  0.2184 -0.0920 -0.3101
 4749SOL    HW125706   1.538   2.776   4.374 -2.0832  3.0026 -1.7423
 4749SOL    HW225707   1.414   2.802   4.450  0.2938  1.1721 -0.2896
 4750SOL     OW25708   1.845   2.807  12.003 -0.1656  0.8084  0.4550
 4750SOL    HW125709   1.801   2.863  12.067  1.1005 -1.2392  3.0875
 4750SOL    HW225710   1.915   2.858  11.963  0.5066  0.6524  1.4539
 4751SOL     OW25711   4.170   2.781  14.110 -0.1697 -0.9097  0.4571
 4751SOL    HW125712   4.251   2.803  14.157 -0.3927 -2.1265  1.4028
 4751SOL    HW225713   4.110   2.855  14.120 -1.1851 -1.6288 -0.3629
 4752SOL     OW25714   3.382   1.898   4.482 -0.5027 -0.4209  0.2440
 4752SOL    HW125715   3.419   1.870   4.566  2.7351 -0.2020 -1.1122
 4752SOL    HW225716   3.460   1.923   4.432 -0.1639 -1.0674  0.4516
 4753SOL     OW25717   2.174   4.369   3.850 -0.4745  0.3099 -0.5889
 4753SOL    HW125718   2.151   4.306   3.781  0.0917 -0.4368 -0.0984
 4753SOL    HW225719   2.082   4.387   3.867 -1.4938 -0.9027 -4.5921
 4754SOL     OW25720   0.608   0.428   2.049  0.2180  0.3465  0.1361
 4754SOL    HW125721   0.633   0.504   2.102 -4.6922  1.1241  1.3277
 4754SOL    HW225722   0.688   0.421   1.997  0.6160 -1.5121  1.0049
 4755SOL     OW25723   2.102   2.762   9.487  0.3868  0.1128  0.3203
 4755SOL    HW125724   2.190   2.786   9.514  0.1933  0.9379  0.2174
 4755SOL    HW225725   2.079   2.727   9.573  1.1974 -0.5781  0.2493
 4756SOL     OW25726   1.102   0.453   8.340  0.0811 -0.2495 -0.2202
 4756SOL    HW125727   1.196   0.467   8.351  0.2022 -0.6366 -0.7620
 4756SOL    HW225728   1.065   0.506   8.411  1.9354  0.2381  0.3823
 4757SOL     OW25729   4.717   2.042   8.657  0.2404  0.3029 -0.0697
 4757SOL    HW125730   4.686   2.098   8.729  2.2949  1.0520  0.2601
 4757SOL    HW225731   4.690   1.952   8.674  1.4774  0.1821  1.3256
 4758SOL     OW25732   2.543   3.939  10.789  0.1628  0.0774  0.0942
 4758SOL    HW125733   2.553   3.930  10.694 -1.6387 -0.1614 -0.0710
 4758SOL    HW225734   2.480   4.011  10.785  0.0124  0.0040  1.1456
 4759SOL     OW25735   4.516   1.817   2.320  0.5033  0.0146 -0.0641
 4759SOL    HW125736   4.534   1.801   2.227 -0.2627 -1.0881 -0.0175
 4759SOL    HW225737   4.599   1.851   2.354 -0.6771  1.8864  0.9563
 4760SOL     OW25738   3.139   3.428  10.104  0.1344 -0.5727 -0.3150
 4760SOL    HW125739   3.062   3.392  10.147 -0.0839 -1.2662 -1.2831
 4760SOL    HW225740   3.165   3.352  10.052  3.1748 -0.9989  1.8190
 4761SOL     OW25741   3.724   3.578   0.084 -0.1741 -0.0863 -0.5559
 4761SOL    HW125742   3.750   3.555   0.173  2.0855  0.7126 -1.0063
 4761SOL    HW225743   3.775   3.513   0.035  0.4655 -0.3873  0.5013
 4762SOL     OW25744   0.941   0.609   5.747  0.2542 -0.5164 -0.1808
 4762SOL    HW125745   1.010   0.591   5.683  2.0699  0.9988  1.3259
 4762SOL    HW225746   0.894   0.682   5.707  0.9670  1.7560  3.0757
 4763SOL     OW25747   1.717   0.128  10.261 -0.4978 -0.0145 -0.6568
 4763SOL    HW125748   1.799   0.160  10.296 -0.9393 -0.8835  1.1873
 4763SOL    HW225749   1.746   0.037  10.272 -1.5820 -0.2879 -0.0201
 4764SOL     OW25750   3.411   2.875   1.521 -0.8954  0.4521 -0.4637
 4764SOL    HW125751   3.490   2.920   1.490 -0.0364  0.4858  1.7814
 4764SOL    HW225752   3.418   2.886   1.615 -0.3030 -0.6275 -0.3870
 4765SOL     OW25753   2.843   4.182   9.599 -0.8276 -0.2403  0.4062
 4765SOL    HW125754   2.891   4.265   9.598  2.5078 -2.1968  0.0487
 4765SOL    HW225755   2.915   4.132   9.561 -1.4324 -0.9717  0.2226
 4766SOL     OW25756   3.693   1.393   1.146  0.2470 -0.1906  0.1862
 4766SOL    HW125757   3.673   1.363   1.235 -0.1271  0.3872  0.3000
 4766SOL    HW225758   3.781   1.357   1.134  0.8632  0.8666  1.5576
 4767SOL     OW25759   0.312   4.539   0.174  0.1045  0.0771  0.3459
 4767SOL    HW125760   0.353   4.545   0.260 -1.0540  2.4106  0.7306
 4767SOL    HW225761   0.220   4.534   0.197 -0.3309  0.4043 -1.3180
 4768SOL     OW25762   3.849   0.990  15.205 -0.4566  0.2278 -0.5772
 4768SOL    HW125763   3.904   1.063  15.235  0.8357  0.0527 -2.5133
 4768SOL    HW225764   3.904   0.912  15.198 -1.6420 -0.5673 -0.9088
 4769SOL     OW25765   4.190   0.928   5.053  0.0964  0.1211 -0.4467
 4769SOL    HW125766   4.163   0.981   4.978 -1.0287  0.1306 -0.0310
 4769SOL    HW225767   4.253   0.990   5.091  0.6769 -1.7654  1.6799
 4770SOL     OW25768   2.184   3.261  10.053  0.3613 -0.3918 -0.1123
 4770SOL    HW125769   2.230   3.191  10.100 -0.5030 -0.1347  1.1004
 4770SOL    HW225770   2.260   3.313  10.027  0.2142  0.4726  1.2354
 4771SOL     OW25771   4.457   0.848   7.556  0.0108 -0.5106 -0.1495
 4771SOL    HW125772   4.528   0.785   7.564  1.1331  0.7286 -0.4271
 4771SOL    HW225773   4.379   0.799   7.583 -0.3588  0.0912 -0.1150
 4772SOL     OW25774   3.199   0.016   3.471 -0.5509  0.1052  0.1675
 4772SOL    HW125775   3.220   0.108   3.483  0.5502 -0.1597  0.3301
 4772SOL    HW225776   3.181   0.006   3.377 -2.0415  1.9043  0.2778
 4773SOL     OW25777   3.012   1.931   4.297  0.3704 -0.1885  0.6613
 4773SOL    HW125778   2.941   1.981   4.339 -1.1387 -0.6235 -1.3655
 4773SOL    HW225779   3.032   1.867   4.365 -0.7236 -0.2853  0.8929
 4774SOL     OW25780   0.482   3.004   4.209  0.0272  0.5722 -0.2588
 4774SOL    HW125781   0.534   2.924   4.202 -0.3493  0.1185  2.0451
 4774SOL    HW225782   0.409   2.990   4.269 -0.0282 -2.8528 -1.1272
 4775SOL     OW25783   3.483   4.665   0.435 -0.0518 -0.5408  0.3891
 4775SOL    HW125784   3.432   0.021   0.410 -0.3292 -0.8880 -0.1033
 4775SOL    HW225785   3.447   4.607   0.368  1.2623 -1.3447  0.3835
 4776SOL     OW25786   1.075   0.938   8.319 -0.2406 -0.2004 -0.0856
 4776SOL    HW125787   1.018   0.861   8.326 -0.5055 -0.0115 -0.1777
 4776SOL    HW225788   1.023   1.009   8.356 -0.1125 -0.4229  0.5269
 4777SOL     OW25789   2.768   0.651  10.362  0.3860  0.0376  0.0111
 4777SOL    HW125790   2.733   0.579  10.414 -0.2489 -0.6838 -1.4515
 4777SOL    HW225791   2.860   0.626  10.358  0.5798  0.9683 -1.2487
 4778SOL     OW25792   2.580   1.752   3.949 -0.3535  0.6548 -0.3707
 4778SOL    HW125793   2.613   1.794   4.029  1.8921 -2.0348  0.1134
 4778SOL    HW225794   2.523   1.819   3.913  0.4902  0.3431 -2.3197
 4779SOL     OW25795   2.272   3.238   1.186  0.2814 -0.5654 -0.7282
 4779SOL    HW125796   2.319   3.272   1.262 -1.5119  0.7849 -0.2309
 4779SOL    HW225797   2.277   3.317   1.133 -1.2623 -1.4660 -2.2172
 4780SOL     OW25798   2.099   0.299   9.903  0.1978  0.7413  0.2903
 4780SOL    HW125799   2.020   0.288   9.851 -0.1789 -0.8305  1.1955
 4780SOL    HW225800   2.136   0.215   9.876  0.5099  0.5224  1.3702
 4781SOL     OW25801   3.648   2.435   5.450 -0.7058  0.0001 -0.5453
 4781SOL    HW125802   3.574   2.495   5.453 -0.9265 -0.2341 -1.2482
 4781SOL    HW225803   3.715   2.490   5.410  1.4916 -2.1609  0.1496
 4782SOL     OW25804   1.204   3.886   5.838  0.1952  0.6226  0.4033
 4782SOL    HW125805   1.146   3.958   5.814  2.7508  2.2395 -0.9075
 4782SOL    HW225806   1.253   3.870   5.758 -1.9807 -2.3067 -0.3766
 4783SOL     OW25807   4.425   3.991   9.057 -0.0271  0.1763  0.1188
 4783SOL    HW125808   4.420   4.077   9.099  0.6444  0.6642 -0.8006
 4783SOL    HW225809   4.446   3.936   9.132  3.4866 -1.1089 -1.8120
 4784SOL     OW25810   2.915   3.453   3.560 -0.1567 -0.0346  0.1597
 4784SOL    HW125811   2.990   3.448   3.620 -1.5993  2.1797  2.1307
 4784SOL    HW225812   2.929   3.536   3.515 -2.4151  0.3812  0.2364
 4785SOL     OW25813   3.247   4.014  16.514 -0.1281  0.2427  0.1209
 4785SOL    HW125814   3.310   4.008  16.585  1.0710 -0.1614 -0.9774
 4785SOL    HW225815   3.298   4.013  16.433  0.0219  3.4316  0.1974
 4786SOL     OW25816   2.521   2.446   7.518  0.4152  0.3775 -0.6077
 4786SOL    HW125817   2.485   2.358   7.529 -0.2447  0.6472 -0.6253
 4786SOL    HW225818   2.476   2.494   7.588 -1.0108 -2.4294  0.3713
 4787SOL     OW25819   1.032   1.059  15.940 -0.2089  0.2692 -0.7280
 4787SOL    HW125820   1.103   1.016  15.892  0.1632  1.0358 -0.8527
 4787SOL    HW225821   0.952   1.029  15.896 -0.0268  0.9398 -1.5065
 4788SOL     OW25822   4.540   0.979   1.951  0.2912 -0.0594 -0.2240
 4788SOL    HW125823   4.548   1.058   1.898 -1.4928 -0.0111 -0.3969
 4788SOL    HW225824   4.518   0.920   1.879 -1.2796 -0.5240  0.6526
 4789SOL     OW25825   3.923   1.211   0.762 -0.7456  0.6144 -0.1425
 4789SOL    HW125826   3.843   1.158   0.772  0.3073 -0.8956  0.2444
 4789SOL    HW225827   3.893   1.295   0.796  1.9681  1.1659  0.8769
 4790SOL     OW25828   4.610   4.494  14.338  0.0549  0.0908 -0.1257
 4790SOL    HW125829   4.620   4.471  14.246 -0.3042  1.7376 -0.5760
 4790SOL    HW225830   4.701   4.521  14.353 -0.0639  1.0903 -1.2646
 4791SOL     OW25831   1.289   1.645   6.119 -0.2909 -0.5063  0.1965
 4791SOL    HW125832   1.292   1.737   6.093  1.7437 -0.3760  0.8832
 4791SOL    HW225833   1.371   1.657   6.167  0.6023 -0.3098 -1.3959
 4792SOL     OW25834   4.149   0.796  17.097 -0.1715  0.1080 -0.1748
 4792SOL    HW125835   4.133   0.796  17.192 -0.2710 -2.2798 -0.2116
 4792SOL    HW225836   4.244   0.809  17.100 -0.1863 -0.9542  4.5628
 4793SOL     OW25837   1.423   0.528   2.080 -0.0147  0.2140  0.5468
 4793SOL    HW125838   1.469   0.486   2.153  0.4798 -2.0219 -1.0521
 4793SOL    HW225839   1.494   0.571   2.032 -0.1936 -0.8961 -0.7213
 4794SOL     OW25840   3.766   0.471   5.615  0.0957 -0.4751  0.2147
 4794SOL    HW125841   3.856   0.445   5.595  1.0512  1.4809  1.8902
 4794SOL    HW225842   3.778   0.548   5.671 -1.7108  0.0371 -0.1144
 4795SOL     OW25843   1.294   2.010  15.329  0.1054  0.3114  0.5208
 4795SOL    HW125844   1.383   1.984  15.350  1.0547  1.0586 -2.6681
 4795SOL    HW225845   1.241   1.945  15.376  0.2072 -1.9688 -2.5382
 4796SOL     OW25846   2.654   2.958  15.882  0.2918  0.4653  0.0760
 4796SOL    HW125847   2.662   3.046  15.918  0.4587  1.3090 -1.9944
 4796SOL    HW225848   2.668   2.905  15.960 -1.4684  1.3754  1.0014
 4797SOL     OW25849   2.069   3.402   6.621 -0.2475 -0.0450 -0.1280
 4797SOL    HW125850   2.147   3.438   6.664 -0.8371  1.0069  0.0520
 4797SOL    HW225851   2.060   3.319   6.668  1.5594 -1.1387 -1.7081
 4798SOL     OW25852   1.805   0.613   3.196  0.6247  0.1467  0.1993
 4798SOL    HW125853   1.823   0.658   3.113 -0.0564 -2.0424 -1.1602
 4798SOL    HW225854   1.881   0.554   3.201  1.6070  1.3383 -0.6214
 4799SOL     OW25855   1.935   1.628  11.112 -0.2343  0.8617 -0.1806
 4799SOL    HW125856   1.972   1.541  11.093 -1.1139  0.3456  0.4468
 4799SOL    HW225857   1.978   1.677  11.043 -2.8887 -0.2046 -2.6112
 4800SOL     OW25858   2.853   4.480   4.911 -0.2428 -0.8042 -0.3737
 4800SOL    HW125859   2.872   4.391   4.880  0.2417 -0.2000 -1.8417
 4800SOL    HW225860   2.909   4.538   4.859  1.9444 -1.7983  0.8635
 4801SOL     OW25861   3.205   2.970   6.443  0.1621  0.1596  0.2850
 4801SOL    HW125862   3.118   2.948   6.478  0.3427 -0.3913  0.3893
 4801SOL    HW225863   3.270   2.921   6.493 -0.9143 -0.6277  0.9266
 4802SOL     OW25864   2.335   0.871   7.909 -0.8682 -0.3067  0.0547
 4802SOL    HW125865   2.421   0.869   7.950 -1.2514  0.9372  0.8932
 4802SOL    HW225866   2.330   0.960   7.876  0.6063 -0.7118 -1.3125
 4803SOL     OW25867   1.056   3.593   5.629  0.1683 -0.3543 -0.2186
 4803SOL    HW125868   0.963   3.602   5.648  0.3297  1.2656 -0.1816
 4803SOL    HW225869   1.083   3.567   5.718 -0.2295 -0.1119 -0.0263
 4804SOL     OW25870   4.394   2.577   9.672  0.2124 -0.0539 -0.0908
 4804SOL    HW125871   4.404   2.523   9.751  1.4864  2.8175  1.7059
 4804SOL    HW225872   4.410   2.510   9.605  0.8967  0.9322 -0.9067
 4805SOL     OW25873   2.384   4.609   9.170  0.2056  0.2657 -0.8453
 4805SOL    HW125874   2.337   4.528   9.187 -1.4253  1.2559 -0.6835
 4805SOL    HW225875   2.434   4.584   9.092 -1.4235 -4.3522 -0.3734
 4806SOL     OW25876   0.879   1.505  10.545  0.0152 -0.4511 -0.5066
 4806SOL    HW125877   0.876   1.599  10.524  3.9133  0.3514  2.4692
 4806SOL    HW225878   0.813   1.467  10.487 -0.8323 -0.1937  0.3057
 4807SOL     OW25879   2.602   4.406   9.419 -0.2075  0.1754 -0.4371
 4807SOL    HW125880   2.606   4.498   9.445 -1.6343  0.2251 -0.4216
 4807SOL    HW225881   2.592   4.378   9.510 -1.3195  1.1797 -0.2569
 4808SOL     OW25882   3.901   2.519  15.656  0.5700  0.5188 -1.0193
 4808SOL    HW125883   3.897   2.551  15.566 -0.0499  0.3432 -1.0555
 4808SOL    HW225884   3.811   2.500  15.681  0.8524 -0.7991 -1.0330
 4809SOL     OW25885   2.117   2.144   8.262  0.7393 -0.2164 -0.1094
 4809SOL    HW125886   2.098   2.085   8.335  3.2583  0.4803  1.1208
 4809SOL    HW225887   2.201   2.109   8.231  0.5694  1.5883 -2.5280
 4810SOL     OW25888   1.795   1.290   5.294 -0.2163 -0.4912 -0.0005
 4810SOL    HW125889   1.707   1.255   5.279 -0.8410  0.8763  0.5049
 4810SOL    HW225890   1.795   1.356   5.224  0.3026 -2.7960 -2.1540
 4811SOL     OW25891   0.270   1.785  15.457  0.3228 -0.6186  0.2276
 4811SOL    HW125892   0.356   1.828  15.453 -0.3424  0.5118 -2.1623
 4811SOL    HW225893   0.254   1.767  15.364 -1.1564 -1.2907  0.6126
 4812SOL     OW25894   3.246   1.389  12.339  0.3688  0.2292  0.0873
 4812SOL    HW125895   3.187   1.419  12.409 -0.4222  1.0139 -0.9080
 4812SOL    HW225896   3.326   1.384  12.391  0.3811  1.5813  0.2127
 4813SOL     OW25897   1.118   2.876   9.229 -0.1833  0.1897 -0.4111
 4813SOL    HW125898   1.189   2.919   9.277  0.0088 -1.4953  0.7898
 4813SOL    HW225899   1.162   2.854   9.146  1.0503  0.0280  0.2880
 4814SOL     OW25900   3.637   3.387   3.269 -0.1520  0.1551 -0.1932
 4814SOL    HW125901   3.585   3.416   3.344  0.8408  0.3666  0.4206
 4814SOL    HW225902   3.567   3.379   3.204 -0.5754  2.1643  0.0255
 4815SOL     OW25903   4.666   1.038   3.151 -0.0458  0.3059 -0.0690
 4815SOL    HW125904   0.006   0.998   3.088  0.3013  1.0165 -0.1875
 4815SOL    HW225905   4.714   1.119   3.171  0.4026  0.3743 -1.3639
 4816SOL     OW25906   1.651   2.265  16.988  0.2101 -0.1608 -0.0837
 4816SOL    HW125907   1.562   2.299  17.000 -0.5550 -2.9261  2.2360
 4816SOL    HW225908   1.639   2.172  16.969 -3.5211  0.4190 -0.6005
 4817SOL     OW25909   3.954   4.441   3.476 -0.2219 -0.1674  0.2205
 4817SOL    HW125910   4.021   4.384   3.438 -0.1364  1.0760 -1.4723
 4817SOL    HW225911   3.943   4.505   3.405  2.5172  1.0491  0.8884
 4818SOL     OW25912   3.866   2.228  17.677 -0.4547 -0.0210  0.0923
 4818SOL    HW125913   3.790   2.179  17.646 -0.9862  0.6316  0.3612
 4818SOL    HW225914   3.850   2.302  17.618  1.7276  0.2845 -0.1097
 4819SOL     OW25915   1.097   4.311   1.099 -0.5069 -0.0311 -0.1559
 4819SOL    HW125916   1.080   4.241   1.162 -1.2120 -0.7990 -1.1944
 4819SOL    HW225917   1.183   4.282   1.069 -0.3718  2.6816 -2.3772
 4820SOL     OW25918   3.678   0.071   1.811  0.2825 -0.3844  0.2967
 4820SOL    HW125919   3.751   0.132   1.797 -1.1972  1.3603  0.1003
 4820SOL    HW225920   3.729   4.712   1.827 -2.6955 -3.0345 -3.5789
 4821SOL     OW25921   3.756   2.458   1.086 -0.0855 -0.5789  0.3240
 4821SOL    HW125922   3.691   2.425   1.024 -0.9842  1.1391  0.3607
 4821SOL    HW225923   3.822   2.489   1.024 -0.2636 -1.0644 -0.1101
 4822SOL     OW25924   4.073   3.446   3.764 -0.0784 -0.4857  0.6288
 4822SOL    HW125925   4.156   3.398   3.754  0.4567  0.7776 -0.9811
 4822SOL    HW225926   4.021   3.396   3.700  0.9545  0.9523 -1.3380
 4823SOL     OW25927   1.364   2.536   5.730  0.0506 -0.3530  0.3415
 4823SOL    HW125928   1.332   2.473   5.795 -1.5698  0.7704  0.6332
 4823SOL    HW225929   1.459   2.535   5.743 -0.0251 -0.8941  0.8698
 4824SOL     OW25930   1.722   0.190   5.600  0.6995  0.2518 -0.1687
 4824SOL    HW125931   1.752   0.251   5.532 -1.4067 -1.1493 -2.3482
 4824SOL    HW225932   1.733   0.241   5.680  2.9597  2.8044 -2.1086
 4825SOL     OW25933   2.743   0.823   6.972  0.1448  0.9853  0.5235
 4825SOL    HW125934   2.649   0.816   6.987 -0.0091 -1.8734 -1.7970
 4825SOL    HW225935   2.762   0.769   7.048 -1.1137 -0.5625 -0.2655
 4826SOL     OW25936   1.113   0.853   3.477  1.2088 -0.0921  0.0927
 4826SOL    HW125937   1.146   0.939   3.454  2.0291 -0.6965 -0.9826
 4826SOL    HW225938   1.177   0.792   3.440  0.1816 -1.9430  1.3444
 4827SOL     OW25939   2.106   2.180   6.626  0.6528  0.1964 -0.3509
 4827SOL    HW125940   2.102   2.093   6.666 -0.0828  0.3694 -0.0568
 4827SOL    HW225941   2.190   2.181   6.578  0.2543  0.9087 -1.0351
 4828SOL     OW25942   1.670   0.897   2.432 -0.0720  0.0592 -0.1848
 4828SOL    HW125943   1.757   0.870   2.461  1.4490  3.5511 -1.5373
 4828SOL    HW225944   1.632   0.923   2.516  0.0268  2.1991 -0.7998
 4829SOL     OW25945   1.342   0.187  13.768 -0.8515  0.1960 -0.0628
 4829SOL    HW125946   1.335   0.215  13.676 -1.5237 -1.6930 -0.5907
 4829SOL    HW225947   1.405   0.247  13.807 -0.2249  0.7049 -1.8443
 4830SOL     OW25948   4.613   4.041   5.285 -0.7070 -0.1859  0.5809
 4830SOL    HW125949   4.530   4.012   5.322 -1.1016  3.0138  2.2629
 4830SOL    HW225950   4.672   3.998   5.346  0.4916 -1.7918 -1.6959
 4831SOL     OW25951   2.561   2.722  10.047  0.8793  0.5453 -0.3265
 4831SOL    HW125952   2.615   2.740   9.970  0.3350 -0.8293 -1.0353
 4831SOL    HW225953   2.539   2.628  10.051 -1.4985  1.1826  1.6614
 4832SOL     OW25954   3.666   3.901   4.826 -0.5756  0.3815 -0.0632
 4832SOL    HW125955   3.582   3.854   4.830 -1.2535  1.7526  2.1865
 4832SOL    HW225956   3.673   3.911   4.731  0.5487  0.1384 -0.0076
 4833SOL     OW25957   2.830   2.379   6.864 -0.0764  0.6571 -0.0752
 4833SOL    HW125958   2.842   2.397   6.958 -0.3309 -0.5439  0.1812
 4833SOL    HW225959   2.873   2.462   6.842  1.9128 -0.5767 -0.8579
 4834SOL     OW25960   2.368   3.958  16.981  0.6411  0.7303  0.3932
 4834SOL    HW125961   2.303   4.020  17.013  0.2197 -0.1587  1.2327
 4834SOL    HW225962   2.426   3.962  17.056  1.8255  1.6683 -0.5585
 4835SOL     OW25963   2.972   0.903   5.009  0.5925  0.4589 -0.1837
 4835SOL    HW125964   3.005   0.989   5.034 -1.0762  1.0363  0.0618
 4835SOL    HW225965   3.046   0.844   5.025  0.7341  0.8425  0.5817
 4836SOL     OW25966   3.916   2.164   6.566 -0.0602 -0.6464 -0.5206
 4836SOL    HW125967   3.843   2.198   6.514  0.7879 -1.4845 -2.2580
 4836SOL    HW225968   3.874   2.156   6.652 -2.2542  0.3969 -1.4976
 4837SOL     OW25969   0.050   1.248   2.619  0.1520 -0.6535 -0.5784
 4837SOL    HW125970   0.016   1.313   2.681  1.8214 -2.3131  2.0556
 4837SOL    HW225971   0.066   1.304   2.543 -1.7704  1.3888  0.5169
 4838SOL     OW25972   3.018   3.887  16.214  0.4146  0.5999 -0.4608
 4838SOL    HW125973   3.092   3.885  16.274 -0.1305  0.1797  0.1929
 4838SOL    HW225974   3.056   3.866  16.129  0.4315 -1.1783 -0.0194
 4839SOL     OW25975   1.609   2.612   1.466 -0.2462 -0.0958  0.0895
 4839SOL    HW125976   1.606   2.625   1.561  0.1147 -1.4979  0.2995
 4839SOL    HW225977   1.688   2.661   1.445 -0.5012 -0.0951 -0.8466
 4840SOL     OW25978   2.047   4.063   3.044 -0.2444 -0.4128  0.1484
 4840SOL    HW125979   1.984   3.998   3.074 -2.2678  0.2852 -2.5853
 4840SOL    HW225980   1.998   4.143   3.059 -2.3171 -1.4367 -1.0816
 4841SOL     OW25981   3.143   4.290  15.160 -0.4040 -0.2709  0.7897
 4841SOL    HW125982   3.238   4.295  15.172 -0.3069 -0.8449  0.2049
 4841SOL    HW225983   3.112   4.227  15.225 -1.7976 -2.2648 -1.8405
 4842SOL     OW25984   2.121   1.942   3.595 -0.2802 -0.0585 -0.1916
 4842SOL    HW125985   2.062   1.970   3.525 -2.6543 -2.0380  0.9987
 4842SOL    HW225986   2.096   2.003   3.665  1.2182  0.5671 -0.2153
 4843SOL     OW25987   1.743   1.119   4.612  0.1044 -0.5169  0.1342
 4843SOL    HW125988   1.811   1.185   4.603  1.5437 -2.0269  0.0046
 4843SOL    HW225989   1.775   1.035   4.579 -3.2693 -1.0805 -1.7731
 4844SOL     OW25990   4.052   1.105   4.141 -0.0666  0.0152 -0.2993
 4844SOL    HW125991   3.989   1.034   4.132  1.3140 -1.1651 -0.6393
 4844SOL    HW225992   4.119   1.092   4.074  0.4629  0.1095  0.2113
 4845SOL     OW25993   3.757   2.650  17.226 -0.2209 -0.0404  0.4192
 4845SOL    HW125994   3.811   2.709  17.278  1.3700 -0.0529 -1.2045
 4845SOL    HW225995   3.702   2.718  17.187  0.4708  0.5954  0.5656
 4846SOL     OW25996   4.192   3.588   9.803  0.0427  0.0961  0.6738
 4846SOL    HW125997   4.098   3.603   9.810 -0.7207 -4.0605 -0.5627
 4846SOL    HW225998   4.203   3.535   9.883 -0.5277 -0.2033  0.5571
 4847SOL     OW25999   4.688   3.859   9.323 -0.2635  0.0010 -0.4667
 4847SOL    HW126000   4.608   3.828   9.279 -2.0202  1.2788  1.7905
 4847SOL    HW226001   4.672   3.952   9.309  2.0272  0.4921  0.1843
 4848SOL     OW26002   1.646   1.490  11.938  0.6615  0.0952  0.3213
 4848SOL    HW126003   1.581   1.552  11.905  1.4896  0.0567 -1.3894
 4848SOL    HW226004   1.716   1.542  11.899  0.2134  0.1182 -0.4407
 4849SOL     OW26005   1.279   0.101   6.540 -0.7982  0.1900 -0.3020
 4849SOL    HW126006   1.234   0.184   6.557  1.5064  1.1599  1.1053
 4849SOL    HW226007   1.322   0.127   6.458  0.7504  0.9400  0.7379
 4850SOL     OW26008   3.057   2.274   7.937  0.7343  0.6349  0.0158
 4850SOL    HW126009   3.086   2.204   7.879 -3.2220 -1.6451  0.8225
 4850SOL    HW226010   3.044   2.221   8.016  1.6728  0.3189 -0.0410
 4851SOL     OW26011   0.892   4.164   2.521  0.3235 -0.3896  0.0072
 4851SOL    HW126012   0.808   4.118   2.524  0.1399  0.1925  3.9441
 4851SOL    HW226013   0.870   4.254   2.547  1.4373 -0.5672  1.5842
 4852SOL     OW26014   1.076   3.774  14.353  0.2320  0.2807  0.2238
 4852SOL    HW126015   1.107   3.853  14.309  0.7415  0.2570  0.5434
 4852SOL    HW226016   1.010   3.814  14.410 -1.3822  1.6769 -2.6163
 4853SOL     OW26017   2.867   2.978   5.905  0.9624  0.2225 -0.1101
 4853SOL    HW126018   2.901   3.067   5.896  0.8363  0.3821  1.0720
 4853SOL    HW226019   2.953   2.937   5.903  0.0850 -1.5614 -1.5739
 4854SOL     OW26020   4.656   1.991   7.414  0.1867 -0.2050 -0.7889
 4854SOL    HW126021   4.594   2.061   7.394  1.7012  0.6532 -2.3732
 4854SOL    HW226022   4.622   1.951   7.494  0.5974  2.3953  0.6727
 4855SOL     OW26023   4.161   3.435   8.697  0.6122 -0.0677 -0.0704
 4855SOL    HW126024   4.222   3.362   8.706 -0.4058 -0.7325  1.4653
 4855SOL    HW226025   4.119   3.430   8.783 -0.9283 -1.2575 -0.8730
 4856SOL     OW26026   1.731   2.799   4.628 -0.2026  0.1989  0.4419
 4856SOL    HW126027   1.662   2.793   4.562 -0.2007  3.3960  0.1374
 4856SOL    HW226028   1.796   2.736   4.597  0.0984  1.6097 -1.7967
 4857SOL     OW26029   3.199   1.066   0.933  0.0653  0.1753 -0.1406
 4857SOL    HW126030   3.223   1.142   0.986 -1.0826 -0.2864  1.0265
 4857SOL    HW226031   3.205   1.109   0.848 -0.3162  3.3135  1.3963
 4858SOL     OW26032   0.609   0.419  12.304  0.1394 -0.4142  0.8253
 4858SOL    HW126033   0.610   0.513  12.325 -1.3132  0.3671 -2.6392
 4858SOL    HW226034   0.625   0.385  12.392 -0.7141  3.1070  2.3620
 4859SOL     OW26035   2.187   0.846   6.338 -0.7399  0.5814  0.4274
 4859SOL    HW126036   2.281   0.828   6.338 -0.7186  0.6191 -1.5684
 4859SOL    HW226037   2.172   0.916   6.275  1.5036 -0.5128 -1.3221
 4860SOL     OW26038   0.594   1.912   9.459  0.0943  0.1851  0.1252
 4860SOL    HW126039   0.662   1.877   9.401 -0.4547  0.7807 -0.8831
 4860SOL    HW226040   0.637   1.958   9.531  0.9528 -2.1240  1.1102
 4861SOL     OW26041   3.396   4.133   8.917 -0.1070 -0.0902  0.6350
 4861SOL    HW126042   3.337   4.194   8.873 -3.2397 -3.0241  0.7825
 4861SOL    HW226043   3.325   4.069   8.915 -1.2138  1.1094  1.3805
 4862SOL     OW26044   3.141   3.578   5.032 -0.3675  1.0668 -0.3770
 4862SOL    HW126045   3.073   3.519   5.065  1.0775  0.6467  1.8064
 4862SOL    HW226046   3.162   3.532   4.951 -0.6737 -0.8428  0.6206
 4863SOL     OW26047   3.354   3.056   3.511  0.1394 -0.1847  0.3497
 4863SOL    HW126048   3.356   3.146   3.477  2.0635 -0.7199 -0.9684
 4863SOL    HW226049   3.263   3.028   3.501  0.3299 -0.7176  0.1587
 4864SOL     OW26050   2.594   1.479   0.946  0.1413  0.3380 -0.0286
 4864SOL    HW126051   2.634   1.453   0.863 -1.2354 -0.3226 -0.4933
 4864SOL    HW226052   2.635   1.562   0.969  1.3016  0.3263 -2.0967
 4865SOL     OW26053   3.884   4.135   2.501  0.7300  0.2590  0.2627
 4865SOL    HW126054   3.920   4.224   2.494 -0.5477  0.7934  0.4486
 4865SOL    HW226055   3.794   4.155   2.527 -0.1629 -1.5104 -1.4284
 4866SOL     OW26056   1.071   1.415   7.387  0.0699 -0.0555  0.2754
 4866SOL    HW126057   1.066   1.483   7.319 -1.1688  0.0147  0.4488
 4866SOL    HW226058   1.071   1.326   7.353 -0.5582 -0.1867  0.6319
 4867SOL     OW26059   0.545   4.108   1.860 -0.3511 -0.2941 -0.3222
 4867SOL    HW126060   0.510   4.059   1.934  1.0443 -2.1782 -0.9106
 4867SOL    HW226061   0.633   4.071   1.851 -1.9991 -4.1703 -0.4062
 4868SOL     OW26062   0.182   4.435   2.625 -0.1774 -0.1081  0.4878
 4868SOL    HW126063   0.262   4.413   2.673  2.2099  2.6111 -2.2678
 4868SOL    HW226064   0.117   4.405   2.689  1.3599 -0.5090  1.8668
 4869SOL     OW26065   0.511   4.493   2.076 -0.3064 -0.0201  0.4015
 4869SOL    HW126066   0.472   4.487   1.989  0.0072 -0.4362  0.2870
 4869SOL    HW226067   0.444   4.552   2.110 -0.4449  0.1263 -0.1273
 4870SOL     OW26068   4.408   0.794  17.186  0.4156 -0.1357 -0.7958
 4870SOL    HW126069   4.416   0.842  17.268 -1.0067 -0.1620 -0.6538
 4870SOL    HW226070   4.482   0.734  17.201 -0.6248 -1.2873 -0.2606
 4871SOL     OW26071   2.647   3.567   9.816 -0.1365  0.6173 -0.1025
 4871SOL    HW126072   2.722   3.586   9.873 -0.3904  3.3269 -0.6669
 4871SOL    HW226073   2.618   3.505   9.883  0.5028 -2.1724 -2.4258
 4872SOL     OW26074   3.492   3.387  12.951 -0.3918 -0.0975 -0.1427
 4872SOL    HW126075   3.501   3.309  12.896  0.9453 -0.2846  0.3389
 4872SOL    HW226076   3.396   3.395  12.950 -0.1714  2.4556 -0.1937
 4873SOL     OW26077   0.673   0.460   2.591  0.2425  0.1656 -0.5691
 4873SOL    HW126078   0.656   0.376   2.632  0.5326 -0.0755 -0.9495
 4873SOL    HW226079   0.676   0.513   2.671  1.3680  0.8858 -1.0829
 4874SOL     OW26080   0.726   2.825   2.229 -0.4061 -0.9103 -0.2722
 4874SOL    HW126081   0.777   2.866   2.159 -3.0137  0.6614 -1.2285
 4874SOL    HW226082   0.644   2.819   2.181 -1.1278  1.5128  0.6954
 4875SOL     OW26083   1.585   2.574   7.796  0.2044 -0.4949 -0.3326
 4875SOL    HW126084   1.536   2.647   7.833  1.9406  0.3637  0.3052
 4875SOL    HW226085   1.531   2.497   7.808 -0.7890  0.2454 -0.0545
 4876SOL     OW26086   1.951   0.754   6.445  0.2047 -0.5030 -0.0927
 4876SOL    HW126087   2.036   0.780   6.412 -0.4130  1.5450 -0.0517
 4876SOL    HW226088   1.901   0.761   6.363 -0.7075  0.9434  0.5900
 4877SOL     OW26089   1.748   3.671   1.819 -0.4811  0.2420  0.0155
 4877SOL    HW126090   1.763   3.700   1.908  0.6261  1.9076 -0.7210
 4877SOL    HW226091   1.794   3.740   1.771 -1.4746  0.8174 -0.1000
 4878SOL     OW26092   3.898   3.917   5.688  0.2457  0.3566 -0.4157
 4878SOL    HW126093   3.803   3.920   5.705 -0.1333 -1.2548 -2.2968
 4878SOL    HW226094   3.925   3.826   5.680 -1.0624 -0.2770  2.1868
 4879SOL     OW26095   4.562   1.771  17.261 -0.3334  0.0457  0.1741
 4879SOL    HW126096   4.524   1.814  17.185  2.2114  1.7270 -0.1679
 4879SOL    HW226097   4.656   1.765  17.242  0.0844  2.1238  1.5449
 4880SOL     OW26098   4.050   3.863   6.005  0.1879 -0.2320  0.3278
 4880SOL    HW126099   4.102   3.864   5.925  0.0845  0.5366  0.2662
 4880SOL    HW226100   4.090   3.935   6.054 -0.9083  0.9443 -0.4883
 4881SOL     OW26101   2.241   1.652   7.681  0.0869 -0.0392 -0.1994
 4881SOL    HW126102   2.168   1.710   7.703  1.6679  1.2398  1.7141
 4881SOL    HW226103   2.256   1.603   7.761 -1.2960 -0.9250 -0.4860
 4882SOL     OW26104   0.350   1.667   2.649 -0.6732 -0.4268 -0.2140
 4882SOL    HW126105   0.343   1.583   2.695 -1.8294  0.2889  0.9194
 4882SOL    HW226106   0.359   1.632   2.560  0.0280 -0.6317 -0.0636
 4883SOL     OW26107   0.545   4.581   3.864  0.1092 -0.1244  0.2671
 4883SOL    HW126108   0.575   4.575   3.773  1.7314 -1.0845  0.8457
 4883SOL    HW226109   0.587   4.664   3.885  1.2402 -0.3859 -0.9652
 4884SOL     OW26110   1.212   2.059   3.904  0.0352  0.0004 -0.4818
 4884SOL    HW126111   1.296   2.101   3.884 -0.1448  0.5680 -0.0749
 4884SOL    HW226112   1.206   1.985   3.844  1.7362 -0.0433 -0.6092
 4885SOL     OW26113   2.906   4.719   9.355 -0.2178 -0.3695  0.3469
 4885SOL    HW126114   2.871   4.685   9.273 -0.9770  1.2473  0.0212
 4885SOL    HW226115   2.987   0.034   9.318 -0.6549 -1.7747 -1.9585
 4886SOL     OW26116   4.519   2.408   3.528 -0.7222  0.0088 -0.3071
 4886SOL    HW126117   4.594   2.392   3.470 -1.7815 -2.6769 -0.9388
 4886SOL    HW226118   4.545   2.391   3.619  1.8402  0.4169 -0.9669
 4887SOL     OW26119   3.813   1.606   6.847 -0.2338  0.2472  0.1875
 4887SOL    HW126120   3.854   1.533   6.894 -0.9552  0.3545  0.9849
 4887SOL    HW226121   3.753   1.553   6.795  2.0723 -0.8830 -1.3569
 4888SOL     OW26122   2.642   1.168   6.589  0.0665  0.0548  0.4431
 4888SOL    HW126123   2.558   1.123   6.587  0.8454 -1.5124  2.7383
 4888SOL    HW226124   2.673   1.122   6.667  1.9872  2.0405  0.8620
 4889SOL     OW26125   4.550   0.265   5.050  0.3612 -0.4212 -0.1976
 4889SOL    HW126126   4.584   0.176   5.034  1.2412 -0.2899  0.9174
 4889SOL    HW226127   4.456   0.249   5.049  0.6711 -2.3242  0.0975
 4890SOL     OW26128   1.124   4.405   8.636 -0.7124 -0.2385 -0.2681
 4890SOL    HW126129   1.040   4.367   8.612 -0.6860 -1.1666  1.0826
 4890SOL    HW226130   1.119   4.494   8.601 -2.9910 -0.2816 -0.0422
 4891SOL     OW26131   2.982   4.713  12.624 -0.7507 -0.2275  0.4735
 4891SOL    HW126132   2.934   0.028  12.550 -1.0924  0.7784  1.1784
 4891SOL    HW226133   3.006   4.623  12.600  1.9657  1.0396 -1.4954
 4892SOL     OW26134   2.242   1.055   5.567  0.3211 -0.1761  0.3763
 4892SOL    HW126135   2.180   1.121   5.599 -0.9755 -0.0812 -2.3861
 4892SOL    HW226136   2.313   1.057   5.631  1.0329 -3.1848 -0.3137
 4893SOL     OW26137   0.424   1.949   5.791  0.1056  0.8805 -0.2300
 4893SOL    HW126138   0.415   1.877   5.728  0.1963  0.0648  0.6802
 4893SOL    HW226139   0.336   1.957   5.829  0.2522  2.1726 -0.1687
 4894SOL     OW26140   0.175   1.994   7.915 -0.0886  0.0924  0.5727
 4894SOL    HW126141   0.110   2.028   7.853  0.1688  3.0899  1.9703
 4894SOL    HW226142   0.219   2.070   7.953 -1.6213  0.9585  0.5894
 4895SOL     OW26143   0.915   0.686   7.772  0.0347  0.3350  0.2904
 4895SOL    HW126144   0.973   0.627   7.725  1.5299  1.5788  0.5626
 4895SOL    HW226145   0.835   0.666   7.724 -0.1436 -0.4525  0.9150
 4896SOL     OW26146   3.904   1.139  17.509 -0.2329 -0.1831  0.3649
 4896SOL    HW126147   3.837   1.202  17.535  0.2205  0.7052 -0.6466
 4896SOL    HW226148   3.975   1.203  17.508 -2.6082  2.4928  1.4365
 4897SOL     OW26149   4.488   3.678   4.963  0.1050  0.2827  0.0728
 4897SOL    HW126150   4.559   3.734   4.931 -0.1036  1.0947  1.0343
 4897SOL    HW226151   4.478   3.639   4.876 -0.3099  0.8684 -0.1488
 4898SOL     OW26152   3.419   2.240  14.455 -0.3480 -0.0131 -0.0457
 4898SOL    HW126153   3.332   2.281  14.460  0.0561  0.8767 -0.4149
 4898SOL    HW226154   3.475   2.312  14.484 -0.3756 -0.2346  0.5646
 4899SOL     OW26155   2.887   0.058   5.316 -0.1528  0.4480 -0.2866
 4899SOL    HW126156   2.822   0.011   5.369  0.7420 -0.0747  0.3416
 4899SOL    HW226157   2.876   0.008   5.235  1.5794  1.4343 -1.1137
 4900SOL     OW26158   3.389   0.548   8.090 -0.4884 -0.2991 -0.6159
 4900SOL    HW126159   3.319   0.610   8.106 -1.2020 -1.0216 -0.9270
 4900SOL    HW226160   3.371   0.479   8.155  0.8387 -1.0594 -1.0377
 4901SOL     OW26161   4.317   3.307   3.757 -0.2341 -0.0052 -0.2571
 4901SOL    HW126162   4.319   3.262   3.672 -1.4223  0.7058 -0.6513
 4901SOL    HW226163   4.406   3.343   3.757 -0.1990 -0.0875 -0.7749
 4902SOL     OW26164   2.999   3.920   3.975  0.8804  0.1987  0.7260
 4902SOL    HW126165   2.944   3.951   4.047  0.7509 -0.4363  0.8992
 4902SOL    HW226166   2.933   3.898   3.908  1.4368  0.3297  0.1347
 4903SOL     OW26167   2.766   1.178  12.305  0.0095 -0.2088  0.2421
 4903SOL    HW126168   2.755   1.140  12.217  0.7047  0.3594 -0.0893
 4903SOL    HW226169   2.778   1.273  12.298  1.6458 -0.4123  0.3835
 4904SOL     OW26170   1.317   4.643  14.798  0.1694  0.1108 -0.6563
 4904SOL    HW126171   1.288   4.717  14.852 -0.5045 -1.5050  1.1885
 4904SOL    HW226172   1.294   4.674  14.710  1.1609  0.8702 -0.6466
 4905SOL     OW26173   0.080   0.968  16.235  0.2166 -0.1146  0.3309
 4905SOL    HW126174   0.000   1.015  16.259  0.2181  0.0217  0.0631
 4905SOL    HW226175   0.110   0.939  16.321 -1.5573 -0.2138  0.9289
 4906SOL     OW26176   2.336   3.547   8.491 -0.1347 -0.1107 -0.1176
 4906SOL    HW126177   2.248   3.559   8.527 -0.6675 -1.9025 -0.8031
 4906SOL    HW226178   2.385   3.520   8.569 -0.6047  0.3688  0.3344
 4907SOL     OW26179   4.622   3.221   5.694  0.9179  0.2195 -0.7376
 4907SOL    HW126180   4.541   3.272   5.690  0.8384  0.1704  0.3013
 4907SOL    HW226181   4.589   3.140   5.734  2.4147  0.7930  1.6036
 4908SOL     OW26182   4.207   0.130   2.486 -0.1925 -0.2529  0.0723
 4908SOL    HW126183   4.223   0.108   2.578 -0.1571  0.6341  0.2826
 4908SOL    HW226184   4.178   0.046   2.452  0.0524  0.0188 -0.7987
 4909SOL     OW26185   2.649   3.335   5.491  0.0553 -0.6602 -0.3975
 4909SOL    HW126186   2.655   3.246   5.455  0.3413 -0.4648 -0.8290
 4909SOL    HW226187   2.636   3.300   5.579 -0.7966 -0.8716 -0.6001
 4910SOL     OW26188   3.219   1.876   7.415  0.0838 -0.1187  0.1678
 4910SOL    HW126189   3.139   1.871   7.468 -0.6342 -0.0190 -0.9101
 4910SOL    HW226190   3.186   1.930   7.344  0.6216 -2.8986 -2.1759
 4911SOL     OW26191   4.312   2.598   5.235 -0.8747 -0.4515  0.5300
 4911SOL    HW126192   4.270   2.675   5.196  1.9124  0.3244 -0.9941
 4911SOL    HW226193   4.338   2.553   5.154 -0.0461 -0.9217  1.0596
 4912SOL     OW26194   4.158   1.712  15.603  0.2576 -0.6566  0.1181
 4912SOL    HW126195   4.087   1.774  15.619 -0.7513 -1.2751 -1.9299
 4912SOL    HW226196   4.135   1.685  15.515 -1.6593 -0.3629  0.5356
 4913SOL     OW26197   1.754   1.937   7.047  0.2205  0.3215 -0.1161
 4913SOL    HW126198   1.750   1.968   7.137  0.3382  1.6673 -0.5674
 4913SOL    HW226199   1.710   1.854   7.065  0.8948  0.3091  1.4283
 4914SOL     OW26200   1.803   0.237   4.255 -0.1202  0.3181  0.1518
 4914SOL    HW126201   1.893   0.234   4.223 -0.8509  4.0953 -2.2752
 4914SOL    HW226202   1.771   0.309   4.201 -0.8290  0.0434  0.2071
 4915SOL     OW26203   0.380   0.572   2.122  0.1468  0.2154  0.2849
 4915SOL    HW126204   0.431   0.644   2.084 -1.2851  0.0130 -1.9973
 4915SOL    HW226205   0.437   0.498   2.105 -2.0775 -1.4839  0.2898
 4916SOL     OW26206   4.191   2.827   8.661  0.5564 -0.3296  0.0083
 4916SOL    HW126207   4.287   2.822   8.652  0.8000 -0.3567  2.6532
 4916SOL    HW226208   4.178   2.824   8.756  0.8714  1.4308  0.1162
 4917SOL     OW26209   4.498   4.306  10.606  0.7409 -0.1358  0.4797
 4917SOL    HW126210   4.427   4.282  10.547  0.6783  0.9364  0.1084
 4917SOL    HW226211   4.538   4.384  10.567  1.9432 -0.8278  0.3203
 4918SOL     OW26212   2.544   1.768   8.545 -0.0210  0.1604 -0.1799
 4918SOL    HW126213   2.578   1.807   8.626  1.1400  0.0885 -0.6311
 4918SOL    HW226214   2.572   1.679   8.566  3.7490  1.2059 -0.6032
 4919SOL     OW26215   1.226   1.131   4.492 -0.4534  0.1165 -0.2963
 4919SOL    HW126216   1.158   1.147   4.556 -1.7404 -3.0616 -0.8847
 4919SOL    HW226217   1.300   1.107   4.548  0.7001  0.1186 -1.8078
 4920SOL     OW26218   1.331   0.546  11.960  0.0895 -0.5088 -0.2926
 4920SOL    HW126219   1.424   0.549  11.981 -0.2877 -0.3257  1.3054
 4920SOL    HW226220   1.303   0.454  11.964 -1.6585  0.0188 -0.5155
 4921SOL     OW26221   0.568   2.594   7.876 -0.3287  0.0646 -0.1406
 4921SOL    HW126222   0.536   2.505   7.864  2.9795 -0.9505 -1.6862
 4921SOL    HW226223   0.523   2.620   7.956  0.0451 -0.8398  0.3680
 4922SOL     OW26224   4.184   0.685  11.867 -0.6312  0.2806  0.0983
 4922SOL    HW126225   4.254   0.643  11.918  0.0916  2.3058  0.7649
 4922SOL    HW226226   4.142   0.605  11.834 -2.6298  2.1529 -1.8932
 4923SOL     OW26227   3.037   0.638  16.170 -0.2684 -0.6624 -0.0417
 4923SOL    HW126228   2.959   0.597  16.134  0.5647 -2.8157  0.6141
 4923SOL    HW226229   3.098   0.610  16.102 -0.1132  2.8197 -1.3241
 4924SOL     OW26230   1.488   0.217   9.189 -0.7136  0.3579 -0.5159
 4924SOL    HW126231   1.584   0.214   9.190 -0.7339  0.3934  1.0166
 4924SOL    HW226232   1.492   0.305   9.227 -1.5903 -0.0262  0.4699
 4925SOL     OW26233   4.346   2.438   5.021 -0.0151 -0.3148 -0.1079
 4925SOL    HW126234   4.363   2.376   5.092 -3.8860 -1.8941 -0.5134
 4925SOL    HW226235   4.319   2.375   4.954 -0.8274  0.1638 -0.2294
 4926SOL     OW26236   1.385   0.282   7.838  0.0616  0.0948  0.2437
 4926SOL    HW126237   1.452   0.288   7.769  2.5626 -0.3686  2.6049
 4926SOL    HW226238   1.422   0.348   7.897  1.2210 -0.6939  0.3921
 4927SOL     OW26239   0.761   2.291  17.238  0.4885  0.2269  0.9229
 4927SOL    HW126240   0.703   2.367  17.241  1.2627  0.8181  0.7381
 4927SOL    HW226241   0.842   2.342  17.236  0.2306  0.6333  0.8542
 4928SOL     OW26242   1.036   3.290  17.082 -0.2579 -0.4519  0.0374
 4928SOL    HW126243   1.098   3.241  17.135 -0.7754 -0.2707  0.8096
 4928SOL    HW226244   1.014   3.351  17.153  1.3936  0.0448  0.1180
 4929SOL     OW26245   0.911   3.968  12.802  0.2957  0.1785 -0.3862
 4929SOL    HW126246   0.935   3.929  12.886  0.1408 -0.3892 -0.6096
 4929SOL    HW226247   0.817   3.951  12.802  0.9149 -3.2378 -3.7380
 4930SOL     OW26248   0.289   3.513  10.143 -0.6482  0.6496 -0.4596
 4930SOL    HW126249   0.231   3.449  10.101 -1.1278  1.5698 -1.1929
 4930SOL    HW226250   0.250   3.494  10.228  1.7410  0.6656  0.6330
 4931SOL     OW26251   4.627   1.334   7.095  0.2769 -0.0558  0.2238
 4931SOL    HW126252   4.706   1.389   7.091  0.8053 -0.7105  1.4688
 4931SOL    HW226253   4.560   1.395   7.125 -0.6876 -2.4524  2.9420
 4932SOL     OW26254   4.438   2.455   7.657  0.4626 -0.2301 -0.1362
 4932SOL    HW126255   4.372   2.402   7.611  1.5560 -0.5285 -1.3838
 4932SOL    HW226256   4.457   2.406   7.736 -0.5601  0.0199  0.2591
 4933SOL     OW26257   3.565   1.643   2.357 -0.1342 -0.0027 -0.2514
 4933SOL    HW126258   3.523   1.562   2.384 -0.8599  0.3629 -0.2955
 4933SOL    HW226259   3.509   1.680   2.289  2.4439  0.4331 -2.1549
 4934SOL     OW26260   3.697   0.623  14.106  0.1744 -0.2547  0.3289
 4934SOL    HW126261   3.660   0.710  14.121  1.7972  0.5556 -0.3402
 4934SOL    HW226262   3.644   0.601  14.029 -0.1134  3.1090 -0.4306
 4935SOL     OW26263   0.680   3.688   5.537 -0.0066 -0.1240  0.0004
 4935SOL    HW126264   0.622   3.708   5.611  0.1758  0.1455  0.0702
 4935SOL    HW226265   0.710   3.778   5.521  2.5932 -1.2593 -1.3958
 4936SOL     OW26266   3.316   0.130   4.759 -0.2904  0.0024  0.0940
 4936SOL    HW126267   3.273   0.205   4.716  0.5003  0.1935 -0.3577
 4936SOL    HW226268   3.309   0.154   4.852 -2.0008  0.6338 -0.1816
 4937SOL     OW26269   3.392   2.586  15.880 -0.1794  0.1845  0.2999
 4937SOL    HW126270   3.352   2.668  15.911 -0.1873 -0.6120  2.4287
 4937SOL    HW226271   3.313   2.534  15.867 -1.4634  1.7596  1.7115
 4938SOL     OW26272   4.456   3.082   2.981  0.0738  0.2995 -0.2671
 4938SOL    HW126273   4.487   3.119   2.899  1.4952 -1.1363 -0.3708
 4938SOL    HW226274   4.440   3.160   3.034  0.7377 -0.3240  0.8689
 4939SOL     OW26275   4.027   1.800   1.851  0.3734  0.3059 -0.5593
 4939SOL    HW126276   3.947   1.851   1.857  1.4598  1.9209  0.1682
 4939SOL    HW226277   4.031   1.774   1.759 -0.5194 -0.2573 -0.4420
 4940SOL     OW26278   2.763   3.086   8.467 -1.2445 -0.5462  0.3222
 4940SOL    HW126279   2.674   3.100   8.500 -0.2302  3.0802  1.5623
 4940SOL    HW226280   2.791   3.007   8.514 -0.8058 -0.5186  0.1047
 4941SOL     OW26281   4.390   3.966   2.668 -0.0533 -0.9301  0.5610
 4941SOL    HW126282   4.320   4.017   2.628  0.6961  0.6369  1.2420
 4941SOL    HW226283   4.456   3.946   2.602  0.1999  0.2836  0.4519
 4942SOL     OW26284   1.563   1.565  10.018  0.5509 -0.8355  0.6871
 4942SOL    HW126285   1.641   1.620  10.023 -1.1017  1.6109 -0.1275
 4942SOL    HW226286   1.602   1.489   9.976  1.8490  0.7143 -0.9036
 4943SOL     OW26287   1.869   3.921   6.903  0.0571  0.9729  0.1717
 4943SOL    HW126288   1.857   4.014   6.924  0.3970  0.9352  0.5370
 4943SOL    HW226289   1.798   3.871   6.942  1.8085 -0.2515  1.7796
 4944SOL     OW26290   2.328   2.924  10.133  0.3923  0.1396  0.0008
 4944SOL    HW126291   2.387   3.000  10.131  0.5523  0.0154  0.0333
 4944SOL    HW226292   2.385   2.855  10.100  0.8486  1.3823 -1.8359
 4945SOL     OW26293   3.769   2.022   3.213  0.5920  0.2492 -0.8179
 4945SOL    HW126294   3.771   2.116   3.228  0.9667  0.0969  0.1074
 4945SOL    HW226295   3.808   2.029   3.125  3.6508  1.7846  0.6704
 4946SOL     OW26296   1.487   1.482   4.167  0.3901  0.7089 -0.0448
 4946SOL    HW126297   1.462   1.423   4.238 -0.5038  1.0817 -0.0552
 4946SOL    HW226298   1.541   1.549   4.208 -0.2676  0.5536  1.0549
 4947SOL     OW26299   3.815   1.963   1.827  0.3895  0.1556  0.1623
 4947SOL    HW126300   3.748   2.019   1.866  0.6520  0.1544  0.6194
 4947SOL    HW226301   3.763   1.917   1.761 -0.6748  1.1510  0.3140
 4948SOL     OW26302   1.358   1.346   4.374 -0.0509 -0.1996  0.5863
 4948SOL    HW126303   1.280   1.372   4.324  0.7084 -0.7119 -0.8668
 4948SOL    HW226304   1.324   1.267   4.416 -0.4690 -0.0304  0.5710
 4949SOL     OW26305   3.314   3.972  13.053 -0.5347  0.0695 -0.1154
 4949SOL    HW126306   3.255   3.931  12.990  0.4370  0.9217 -1.5849
 4949SOL    HW226307   3.360   3.902  13.099  1.3787  0.5037 -1.3918
 4950SOL     OW26308   2.724   4.253   2.339 -0.1234  0.2596  0.6233
 4950SOL    HW126309   2.692   4.339   2.314 -2.3062 -0.2150  1.7473
 4950SOL    HW226310   2.717   4.267   2.434  1.9390  2.0203  0.4967
 4951SOL     OW26311   2.055   3.281   9.476  0.2692 -0.3563  0.1495
 4951SOL    HW126312   2.000   3.223   9.423  1.0784  0.1473 -1.2375
 4951SOL    HW226313   2.054   3.232   9.558 -0.4848 -2.6896 -1.2353
 4952SOL     OW26314   0.090   1.733   4.878  0.0847 -0.0818 -0.3423
 4952SOL    HW126315   0.115   1.722   4.970  0.3154 -0.4738 -0.4501
 4952SOL    HW226316   0.164   1.788   4.854 -0.7059  0.5632 -1.2872
 4953SOL     OW26317   3.650   0.757  12.097  0.1909 -0.7140  0.6090
 4953SOL    HW126318   3.619   0.831  12.150  0.6991  0.1849 -0.3403
 4953SOL    HW226319   3.742   0.776  12.079 -0.1693  1.6101  1.1428
 4954SOL     OW26320   4.512   1.121   2.549  0.5137  0.3518 -0.1556
 4954SOL    HW126321   4.592   1.163   2.582  1.1905 -0.0136 -1.3174
 4954SOL    HW226322   4.524   1.137   2.456 -1.4585  0.1750 -0.4300
 4955SOL     OW26323   4.551   1.708  13.630  0.0424 -0.1629 -0.0426
 4955SOL    HW126324   4.479   1.769  13.616  0.5928  0.9829  2.0825
 4955SOL    HW226325   4.622   1.756  13.588  0.6558  0.3276  1.5287
 4956SOL     OW26326   1.837   0.742   6.705  0.0441 -0.2304  0.3262
 4956SOL    HW126327   1.872   0.654   6.719 -1.2933 -0.9821 -1.1470
 4956SOL    HW226328   1.890   0.757   6.627  0.2332 -1.0410  0.3007
 4957SOL     OW26329   2.595   3.076   5.433  0.6033  0.1419 -0.0043
 4957SOL    HW126330   2.504   3.048   5.432  0.4599  0.6130 -0.3453
 4957SOL    HW226331   2.638   3.005   5.481 -2.7233 -1.6103  0.3852
 4958SOL     OW26332   2.980   2.377   2.992  0.6124  0.1881 -0.6618
 4958SOL    HW126333   3.006   2.469   2.990 -0.0967  0.4080  0.4348
 4958SOL    HW226334   3.048   2.332   3.042  0.6283 -0.6557 -1.4497
 4959SOL     OW26335   4.217   4.323   7.750  0.0467  0.2950  0.4669
 4959SOL    HW126336   4.258   4.398   7.794  2.0589 -1.9483  2.4406
 4959SOL    HW226337   4.206   4.366   7.665 -4.4557 -0.8646  0.4939
 4960SOL     OW26338   4.623   1.083   6.194 -0.4693 -0.5475 -0.5786
 4960SOL    HW126339   4.697   1.130   6.233 -1.7899 -1.0475  2.4855
 4960SOL    HW226340   4.581   1.061   6.277  0.7783  1.6329  0.6313
 4961SOL     OW26341   3.383   1.763   7.008  0.1506  0.7670 -0.0116
 4961SOL    HW126342   3.359   1.675   7.036 -0.9995  1.8018  2.1964
 4961SOL    HW226343   3.343   1.765   6.921 -0.9746  1.8702  0.5473
 4962SOL     OW26344   0.368   4.426  13.538 -0.2210 -0.1265 -0.2069
 4962SOL    HW126345   0.280   4.389  13.539 -0.8144  1.3178 -0.0061
 4962SOL    HW226346   0.348   4.487  13.608 -0.3386 -0.0448 -0.3117
 4963SOL     OW26347   3.916   0.685   7.513  0.4805  0.3226 -0.2175
 4963SOL    HW126348   3.961   0.605   7.540  0.6346  0.5063  0.0644
 4963SOL    HW226349   3.884   0.727   7.593 -2.9073 -0.4915 -1.1413
 4964SOL     OW26350   3.961   3.644   6.113 -0.3897 -0.2007 -0.0652
 4964SOL    HW126351   4.038   3.608   6.155  0.8900  0.1556 -2.1147
 4964SOL    HW226352   3.995   3.722   6.069  1.3235  0.3718  2.2735
 4965SOL     OW26353   3.036   0.255   5.441 -0.0782  0.0084  0.5365
 4965SOL    HW126354   2.981   0.200   5.386  0.9195 -2.2254  1.7821
 4965SOL    HW226355   2.998   0.233   5.526 -0.6370 -0.6038  0.1278
 4966SOL     OW26356   0.204   2.146   4.837  0.2906  0.3160  0.2314
 4966SOL    HW126357   0.109   2.143   4.820  0.1256 -1.5722  1.4824
 4966SOL    HW226358   0.211   2.233   4.874  0.4406 -0.8161  2.8774
 4967SOL     OW26359   4.692   0.707   5.944  0.1473  0.0187  0.4530
 4967SOL    HW126360   4.671   0.695   6.036 -0.5871  1.4788  0.4611
 4967SOL    HW226361   4.674   0.800   5.937 -0.9318 -0.1744  0.6924
 4968SOL     OW26362   4.195   0.946  11.901  0.4039  0.0500 -0.8214
 4968SOL    HW126363   4.173   0.855  11.882 -2.1057  0.5442 -0.2816
 4968SOL    HW226364   4.190   0.937  11.996 -3.5356 -0.2523 -1.0397
 4969SOL     OW26365   1.166   0.091   3.031  0.2202  0.0475 -0.5620
 4969SOL    HW126366   1.242   0.038   3.007  1.5053  2.2849 -1.4786
 4969SOL    HW226367   1.098   0.034   2.997 -1.0923  0.0239  2.0733
 4970SOL     OW26368   0.839   3.484   3.470  0.2478  0.0038  0.3825
 4970SOL    HW126369   0.812   3.457   3.382  1.0838  0.9384 -0.1516
 4970SOL    HW226370   0.760   3.456   3.517  1.4206  0.8641  2.8284
 4971SOL     OW26371   3.537   1.732   6.541 -0.1857 -0.1184 -0.1635
 4971SOL    HW126372   3.583   1.815   6.538 -0.4720  0.0262 -0.5912
 4971SOL    HW226373   3.614   1.681   6.517 -0.4695 -0.0240 -1.2849
 4972SOL     OW26374   0.539   3.002   8.133 -0.5624  0.1696 -0.4044
 4972SOL    HW126375   0.476   3.074   8.131  0.2934  0.9703  1.1920
 4972SOL    HW226376   0.556   2.985   8.040  1.6064 -1.2109  0.2302
 4973SOL     OW26377   4.311   0.919   1.466 -0.2427  0.2515 -0.1298
 4973SOL    HW126378   4.334   1.008   1.441  2.8121 -0.4363  0.2489
 4973SOL    HW226379   4.397   0.878   1.469 -1.2199 -1.6782  1.3850
 4974SOL     OW26380   3.762   0.431   2.224 -0.3482  0.1800 -0.7489
 4974SOL    HW126381   3.809   0.348   2.227 -0.6377 -0.0226 -2.0612
 4974SOL    HW226382   3.695   0.411   2.159 -0.4093 -0.6554 -0.4188
 4975SOL     OW26383   4.420   2.237   2.883  0.0824  0.2470 -0.4837
 4975SOL    HW126384   4.363   2.222   2.958 -0.2953  0.1060 -0.8006
 4975SOL    HW226385   4.437   2.150   2.846  0.8017  0.9804 -1.9156
 4976SOL     OW26386   4.170   0.085   5.259 -0.2368 -0.1595 -0.1020
 4976SOL    HW126387   4.150   0.124   5.344  1.4644 -0.4661  0.4371
 4976SOL    HW226388   4.096   0.024   5.266 -0.0477 -0.4347 -0.5006
 4977SOL     OW26389   0.008   3.270   7.674  0.1625  0.0088 -0.4705
 4977SOL    HW126390   4.663   3.339   7.675  0.3539  0.1630  1.7270
 4977SOL    HW226391   4.677   3.196   7.707  0.5472 -0.0669 -0.0351
 4978SOL     OW26392   3.264   3.541   2.144  0.5459 -0.4520 -0.3946
 4978SOL    HW126393   3.216   3.580   2.071 -1.7993 -1.8827  0.3384
 4978SOL    HW226394   3.199   3.491   2.193  0.6781  1.0635  1.3071
 4979SOL     OW26395   4.329   1.030  12.185 -0.0448 -0.2406  0.2110
 4979SOL    HW126396   4.412   1.018  12.138  0.1383  0.5225  0.3488
 4979SOL    HW226397   4.345   1.116  12.224  1.6027 -0.1340 -0.7071
 4980SOL     OW26398   0.798   3.488   5.676 -0.5375  0.5051 -0.1234
 4980SOL    HW126399   0.818   3.423   5.608  1.6594  1.2449 -0.1763
 4980SOL    HW226400   0.741   3.545   5.624 -0.6913 -0.0151 -0.5337
 4981SOL     OW26401   4.294   1.939   7.491  0.4492  0.5727 -0.1548
 4981SOL    HW126402   4.292   1.881   7.415 -0.0979  1.0707 -0.5205
 4981SOL    HW226403   4.339   2.017   7.458  0.8497  0.1433 -0.6234
 4982SOL     OW26404   2.355   0.867   4.823  0.0868 -0.0628  0.4254
 4982SOL    HW126405   2.307   0.787   4.801 -0.7514  0.1714  1.4269
 4982SOL    HW226406   2.444   0.843   4.796 -0.3455  0.2213 -1.2544
 4983SOL     OW26407   0.082   2.187  15.997 -0.5046 -0.0966 -0.1471
 4983SOL    HW126408   0.118   2.179  15.909  0.3235 -0.4128  0.2223
 4983SOL    HW226409   4.708   2.191  15.981 -0.9229  0.9493  2.5819
 4984SOL     OW26410   4.178   3.937   5.782  0.0741  0.0387  0.5778
 4984SOL    HW126411   4.090   3.965   5.755  0.9669  0.9974 -1.3797
 4984SOL    HW226412   4.190   3.859   5.729 -1.1448  1.0008 -1.1117
 4985SOL     OW26413   2.530   0.261   2.056 -0.2870 -0.1225  0.2507
 4985SOL    HW126414   2.595   0.277   1.988 -1.5059  0.9547 -0.6559
 4985SOL    HW226415   2.549   0.333   2.116  0.1661 -0.3627  0.3946
 4986SOL     OW26416   2.695   4.199   1.867 -0.9534 -0.2661 -0.1044
 4986SOL    HW126417   2.735   4.243   1.942 -3.6532  1.4015  0.3344
 4986SOL    HW226418   2.615   4.246   1.847 -0.8409 -0.7090 -1.6308
 4987SOL     OW26419   2.770   3.547   8.505 -0.4820  0.2072  0.2604
 4987SOL    HW126420   2.726   3.472   8.545 -1.6708  1.1686  0.7812
 4987SOL    HW226421   2.707   3.565   8.435 -0.6760 -2.2873 -0.1951
 4988SOL     OW26422   3.360   4.193   7.424  0.3956 -0.3342 -0.4295
 4988SOL    HW126423   3.449   4.200   7.460  0.0340 -0.2537  0.4256
 4988SOL    HW226424   3.327   4.282   7.414  1.4212 -0.0881 -1.7355
 4989SOL     OW26425   0.690   1.974   8.078  0.0285  0.2633  0.1496
 4989SOL    HW126426   0.750   2.012   8.014 -1.4970  1.6715 -0.4362
 4989SOL    HW226427   0.723   2.018   8.156  1.7114  0.0726 -0.4513
 4990SOL     OW26428   1.096   3.539   3.551 -0.3688  0.8076 -0.1260
 4990SOL    HW126429   1.006   3.518   3.526 -1.3194  3.1637  1.2338
 4990SOL    HW226430   1.099   3.491   3.634  0.3321 -0.8989 -1.1426
 4991SOL     OW26431   4.140   2.948   5.872  0.1866 -0.1568  0.0239
 4991SOL    HW126432   4.143   2.932   5.967 -1.5341 -0.5314  0.0135
 4991SOL    HW226433   4.088   2.875   5.838 -2.2662  1.1807  0.9310
 4992SOL     OW26434   3.708   4.260  10.194  0.3325  0.3544  0.1693
 4992SOL    HW126435   3.619   4.230  10.177 -0.3013  1.8796  0.7884
 4992SOL    HW226436   3.700   4.305  10.278 -1.9603 -0.2363  0.2709
 4993SOL     OW26437   4.605   1.393   2.770 -0.2121 -0.1673  0.0856
 4993SOL    HW126438   4.614   1.394   2.865 -1.7757 -0.1038  0.2287
 4993SOL    HW226439   4.520   1.348   2.765  0.0741 -0.8002  1.0676
 4994SOL     OW26440   1.979   4.203  13.271  0.2370 -0.6963 -0.3188
 4994SOL    HW126441   2.067   4.192  13.307  0.5678  0.1525 -0.8530
 4994SOL    HW226442   1.993   4.245  13.186 -0.5971 -1.9476 -1.0651
 4995SOL     OW26443   0.561   0.308  16.133 -0.2365  0.6703  0.6232
 4995SOL    HW126444   0.496   0.333  16.066  0.2742  2.0928  0.6648
 4995SOL    HW226445   0.551   0.213  16.129  1.6243  0.4783  0.4936
 4996SOL     OW26446   4.167   2.626   6.912 -0.3689 -0.3523  0.3083
 4996SOL    HW126447   4.241   2.683   6.934 -1.2360  1.2309 -0.8223
 4996SOL    HW226448   4.142   2.668   6.829  1.6819  1.1675  0.4480
 4997SOL     OW26449   3.451   4.200   4.813 -0.1808 -0.1661 -0.3885
 4997SOL    HW126450   3.412   4.119   4.780  2.3098 -1.6179  0.2265
 4997SOL    HW226451   3.521   4.205   4.748 -0.1478 -0.5215 -0.3844
 4998SOL     OW26452   0.843   2.177   4.023 -0.0558 -0.3470 -0.4219
 4998SOL    HW126453   0.788   2.128   4.084 -0.4415  4.4146  3.0176
 4998SOL    HW226454   0.933   2.162   4.054 -0.1258  0.7348  0.2854
 4999SOL     OW26455   3.390   3.451   6.130  0.0190  0.0605 -0.0818
 4999SOL    HW126456   3.418   3.536   6.096  1.5398 -0.0935  0.8176
 4999SOL    HW226457   3.363   3.478   6.218 -0.1003  0.9220 -0.3858
 5000SOL     OW26458   3.933   2.404   0.562 -1.0349 -0.0292 -0.6999
 5000SOL    HW126459   3.882   2.468   0.611 -0.1713 -0.5138  0.8234
 5000SOL    HW226460   3.887   2.399   0.478 -1.6451  3.4585 -0.5917
 5001SOL     OW26461   0.973   2.954   7.990 -0.0078 -0.2309 -1.0233
 5001SOL    HW126462   0.885   2.934   8.021 -0.5665  2.7953 -0.7370
 5001SOL    HW226463   0.944   3.007   7.916  0.5064 -0.0231 -1.0716
 5002SOL     OW26464   0.638   3.496   1.920  0.1257 -0.1941 -0.4795
 5002SOL    HW126465   0.688   3.414   1.920 -0.9090 -0.8166 -2.1328
 5002SOL    HW226466   0.659   3.521   2.010  1.9353 -2.9923 -0.1266
 5003SOL     OW26467   2.661   0.459   7.360  0.6740 -0.3186 -0.2605
 5003SOL    HW126468   2.638   0.366   7.363 -0.4733 -0.0515 -0.8181
 5003SOL    HW226469   2.659   0.490   7.450 -0.2110  0.2973 -0.4994
 5004SOL     OW26470   1.841   2.810   9.379  0.0332  0.6048  0.3242
 5004SOL    HW126471   1.864   2.850   9.295 -0.0919  1.4527  0.6937
 5004SOL    HW226472   1.930   2.791   9.406 -0.2612 -0.7990  0.3362
 5005SOL     OW26473   2.046   0.446   3.255 -0.2150  0.5570  0.0185
 5005SOL    HW126474   2.119   0.399   3.213 -0.6132 -0.6452  0.6747
 5005SOL    HW226475   2.074   0.433   3.345 -0.8529  1.7431  0.3817
 5006SOL     OW26476   4.686   1.338   3.738  0.2473 -0.2364  0.0590
 5006SOL    HW126477   4.610   1.294   3.776 -1.4628  2.3152 -0.5054
 5006SOL    HW226478   4.640   1.389   3.672  1.7148  3.1460  1.6444
 5007SOL     OW26479   3.346   1.610   1.259 -0.2658 -0.3648  0.3826
 5007SOL    HW126480   3.335   1.704   1.244 -1.0293 -0.5457 -0.2113
 5007SOL    HW226481   3.387   1.571   1.181 -1.0351  1.5319 -0.9776
 5008SOL     OW26482   2.079   3.399  15.621 -0.3570 -0.1070  0.1627
 5008SOL    HW126483   2.019   3.422  15.692 -1.2702  0.7409 -0.8767
 5008SOL    HW226484   2.113   3.317  15.657 -0.5048 -0.0285  0.4841
 5009SOL     OW26485   3.499   0.712   5.173 -0.9356  0.3919  0.8508
 5009SOL    HW126486   3.514   0.649   5.244 -0.9419  0.6005  1.0375
 5009SOL    HW226487   3.553   0.787   5.199 -1.3875  0.7492  0.7712
 5010SOL     OW26488   4.438   2.540   5.910 -0.0994 -0.1170 -0.2815
 5010SOL    HW126489   4.456   2.589   5.829  1.0375 -0.1807 -0.0687
 5010SOL    HW226490   4.346   2.518   5.891 -0.7765  0.8457  1.9411
 5011SOL     OW26491   3.582   0.440  13.731 -0.3091 -0.6414 -0.1137
 5011SOL    HW126492   3.570   0.502  13.804 -2.0197 -1.6900  0.5078
 5011SOL    HW226493   3.511   0.380  13.752 -0.5486 -0.0654  0.7691
 5012SOL     OW26494   3.103   0.176  17.307  0.5051  0.0104 -0.1182
 5012SOL    HW126495   3.170   0.125  17.352 -1.5548 -2.3335  0.3409
 5012SOL    HW226496   3.140   0.259  17.335  0.9917 -0.7247  1.4360
 5013SOL     OW26497   0.874   4.316   8.558 -0.0569 -0.1291  0.7809
 5013SOL    HW126498   0.840   4.228   8.574  1.9449 -1.0166  0.0582
 5013SOL    HW226499   0.916   4.294   8.475 -0.9577  1.3141 -0.0543
 5014SOL     OW26500   0.964   4.492  15.513 -0.4335 -0.2223  0.3139
 5014SOL    HW126501   0.917   4.537  15.442 -0.7410 -2.1345 -0.6767
 5014SOL    HW226502   1.000   4.417  15.467  1.2654  2.3410 -2.5604
 5015SOL     OW26503   2.638   4.677   5.460  0.6446  0.1212  0.3023
 5015SOL    HW126504   2.586   4.630   5.394  0.8199  1.2068 -0.5962
 5015SOL    HW226505   2.632   4.628   5.543 -0.2289 -0.3107 -0.0154
 5016SOL     OW26506   2.177   4.473   3.439  0.3408 -0.6731 -0.2371
 5016SOL    HW126507   2.149   4.439   3.524 -0.3923 -1.5554 -0.8362
 5016SOL    HW226508   2.101   4.472   3.382  0.1386 -0.3762  0.0283
 5017SOL     OW26509   4.293   0.777   5.394  0.5247 -0.4880 -0.7492
 5017SOL    HW126510   4.268   0.705   5.337  1.4178 -0.7261 -0.8399
 5017SOL    HW226511   4.358   0.730   5.446 -0.9226  0.3573  1.8357
 5018SOL     OW26512   0.873   1.063  10.243  0.1733 -0.1661 -0.3932
 5018SOL    HW126513   0.798   1.041  10.298 -0.8396 -0.1586 -1.7621
 5018SOL    HW226514   0.866   0.998  10.174 -0.6480 -2.8035  2.1926
 5019SOL     OW26515   1.115   4.008   2.463  0.2590  0.7819 -0.4241
 5019SOL    HW126516   1.035   4.059   2.469 -1.0030 -1.0378 -1.5555
 5019SOL    HW226517   1.092   3.949   2.391 -0.8309  1.7820 -0.8885
 5020SOL     OW26518   0.047   0.983  15.968  0.6160  0.8318 -0.5860
 5020SOL    HW126519   0.053   0.976  16.063  1.3489  3.6583 -0.4483
 5020SOL    HW226520   0.056   1.077  15.954 -3.0868  1.1653 -0.8147
 5021SOL     OW26521   0.041   4.470   4.580  0.5398  0.1874  0.0149
 5021SOL    HW126522   0.007   4.418   4.507 -1.5097  0.3024  0.8845
 5021SOL    HW226523   4.717   4.432   4.656  0.8247 -1.6298 -0.7225
 5022SOL     OW26524   4.173   4.361   6.814  0.6161 -0.4324  0.0653
 5022SOL    HW126525   4.107   4.411   6.765  1.8577  0.4066 -0.7608
 5022SOL    HW226526   4.147   4.353   6.905  1.2790 -3.1223  0.0252
 5023SOL     OW26527   2.335   0.512   0.223  0.3740 -0.2464 -0.2483
 5023SOL    HW126528   2.240   0.512   0.231 -0.0574  1.4177 -5.5813
 5023SOL    HW226529   2.361   0.423   0.198 -0.9218 -0.5579 -0.4890
 5024SOL     OW26530   3.622   4.594   4.011 -0.0493 -0.1298 -0.1542
 5024SOL    HW126531   3.634   4.564   3.921 -1.5057  1.1857 -0.7874
 5024SOL    HW226532   3.684   4.666   4.005 -1.3883  1.0354 -0.0060
 5025SOL     OW26533   2.517   1.349  10.453  0.0066  0.2718 -0.6602
 5025SOL    HW126534   2.431   1.358  10.412 -0.2308 -1.4612 -0.5642
 5025SOL    HW226535   2.518   1.415  10.522 -0.2058  0.5318 -0.9068
 5026SOL     OW26536   3.585   2.014   6.594  0.1342 -0.0084  0.0387
 5026SOL    HW126537   3.659   2.018   6.655  1.8114  0.2233 -1.9770
 5026SOL    HW226538   3.513   2.026   6.655 -0.7164  0.0410 -0.9843
 5027SOL     OW26539   3.421   0.830   4.334  0.0572 -0.3978  0.9166
 5027SOL    HW126540   3.487   0.793   4.275 -2.3762  0.1154 -2.0686
 5027SOL    HW226541   3.457   0.789   4.414  0.9994 -0.0056  0.6915
 5028SOL     OW26542   2.963   4.033   6.509 -0.7159  0.4170  0.1745
 5028SOL    HW126543   3.052   4.069   6.508 -0.7974  0.5338 -2.0628
 5028SOL    HW226544   2.908   4.111   6.509 -0.2069  0.7761  0.1768
 5029SOL     OW26545   3.818   0.634   2.400 -0.2797 -0.0125 -0.4729
 5029SOL    HW126546   3.739   0.621   2.451 -0.2645  1.5532 -0.0395
 5029SOL    HW226547   3.810   0.555   2.347  1.3477 -0.5492  0.0650
 5030SOL     OW26548   3.629   0.048   6.773 -0.4767 -0.9165 -0.5373
 5030SOL    HW126549   3.710   0.080   6.813  0.3995 -1.0828 -2.1722
 5030SOL    HW226550   3.660   4.697   6.718  1.6895 -0.7849  0.5348
 5031SOL     OW26551   3.074   3.297   1.917 -0.6850 -0.0140  0.0743
 5031SOL    HW126552   3.044   3.252   1.838 -0.6347  2.0488 -1.0870
 5031SOL    HW226553   2.994   3.324   1.962 -0.6243  3.0239 -1.6991
 5032SOL     OW26554   0.180   0.107   7.576 -0.4798 -0.8394 -0.0526
 5032SOL    HW126555   0.185   0.051   7.498  0.6971 -2.1713  0.9915
 5032SOL    HW226556   0.172   0.193   7.533 -0.8459  0.6626  2.9925
 5033SOL     OW26557   3.819   0.936  13.972  0.0534 -0.4645 -0.6022
 5033SOL    HW126558   3.857   0.987  14.043 -0.3115 -2.4669  1.0337
 5033SOL    HW226559   3.749   0.890  14.018 -0.4030 -0.3769 -1.2086
 5034SOL     OW26560   4.180   1.329   9.495 -0.6326  0.4145 -0.7692
 5034SOL    HW126561   4.135   1.413   9.484 -1.8118  0.1653  2.1937
 5034SOL    HW226562   4.211   1.310   9.407 -1.1467 -2.6307 -0.2726
 5035SOL     OW26563   1.177   3.379  14.002 -0.4020  0.4453  0.2300
 5035SOL    HW126564   1.154   3.360  13.911  2.1568 -0.9644 -0.1211
 5035SOL    HW226565   1.098   3.367  14.054  0.7756 -1.3392  1.6177
 5036SOL     OW26566   4.522   1.772   0.780 -0.0221  0.2334  0.4674
 5036SOL    HW126567   4.501   1.863   0.800 -0.4393  0.0743  0.7638
 5036SOL    HW226568   4.614   1.769   0.807  0.3961  0.0929 -0.9849
 5037SOL     OW26569   2.099   2.886   4.007  0.0828  0.0585 -0.2576
 5037SOL    HW126570   2.068   2.862   4.095  2.6599 -2.0365  0.0479
 5037SOL    HW226571   2.025   2.938   3.974  0.5776  0.9798  0.0645
 5038SOL     OW26572   3.071   2.107   1.701 -0.6111  0.1072  0.1317
 5038SOL    HW126573   3.108   2.060   1.627 -3.0004  0.7377 -1.4598
 5038SOL    HW226574   2.984   2.113   1.661 -0.3187  3.3880 -0.0056
 5039SOL     OW26575   0.250   2.421   4.862 -0.0110 -0.2833  0.6190
 5039SOL    HW126576   0.286   2.488   4.804 -0.6051 -0.6114 -0.1308
 5039SOL    HW226577   0.171   2.470   4.888  0.2540 -0.1186  1.1168
 5040SOL     OW26578   0.932   1.124   8.987 -0.5843  0.4205  0.1667
 5040SOL    HW126579   0.868   1.088   8.926 -0.3214  2.4290 -1.2737
 5040SOL    HW226580   1.005   1.068   8.960 -0.8632  0.8541 -1.4654
 5041SOL     OW26581   1.290   2.254   6.346  0.1767  0.2987 -0.2945
 5041SOL    HW126582   1.243   2.197   6.407 -1.3653  2.4221  0.4825
 5041SOL    HW226583   1.234   2.245   6.269 -0.8539 -2.9150  0.8262
 5042SOL     OW26584   4.078   4.095   6.165 -0.0967 -0.4733  0.6738
 5042SOL    HW126585   4.066   4.181   6.126  0.6207 -1.6841 -2.1980
 5042SOL    HW226586   3.989   4.077   6.195 -0.6610 -0.7874 -1.1477
 5043SOL     OW26587   2.331   4.659   9.420  0.5169 -0.3135 -0.1977
 5043SOL    HW126588   2.419   4.668   9.457  0.8616 -0.8937 -0.8770
 5043SOL    HW226589   2.357   4.645   9.329 -2.6884 -0.1687 -1.1205
 5044SOL     OW26590   3.810   4.048   8.168  0.0707  0.4566 -0.5738
 5044SOL    HW126591   3.802   4.085   8.256 -1.9708 -3.5094  0.9042
 5044SOL    HW226592   3.904   4.056   8.154  0.1918  2.1132  1.0558
 5045SOL     OW26593   4.452   3.897   5.850 -0.2521  0.5005 -0.3188
 5045SOL    HW126594   4.368   3.921   5.812 -0.0165  0.3803 -0.9090
 5045SOL    HW226595   4.422   3.893   5.941  0.7985 -1.0945 -0.0472
 5046SOL     OW26596   4.162   3.363  16.858 -0.2395  0.5489  0.0397
 5046SOL    HW126597   4.124   3.277  16.842 -2.0790  1.2969  0.3704
 5046SOL    HW226598   4.243   3.362  16.808  0.2268  1.8127  0.7699
 5047SOL     OW26599   2.596   0.820  17.537  0.2073  0.0445 -0.1697
 5047SOL    HW126600   2.522   0.828  17.597  0.4964 -3.1804  0.6401
 5047SOL    HW226601   2.543   0.804  17.458  1.7099  3.3087 -1.8013
 5048SOL     OW26602   1.740   1.808   0.350 -0.2265  0.7110  0.3193
 5048SOL    HW126603   1.683   1.791   0.425  0.4265  3.0626  1.3624
 5048SOL    HW226604   1.695   1.772   0.274  4.2782  0.7951 -2.3938
 5049SOL     OW26605   1.572   0.869  10.072 -0.3394 -0.1022  0.1915
 5049SOL    HW126606   1.546   0.780  10.051 -2.2650  0.3702  0.5419
 5049SOL    HW226607   1.642   0.845  10.133 -0.7071  0.2079  0.7398
 5050SOL     OW26608   0.591   1.364   8.172 -0.3516 -0.4985  0.2195
 5050SOL    HW126609   0.549   1.399   8.093 -2.1303  0.6189  1.6369
 5050SOL    HW226610   0.644   1.439   8.199 -0.6563 -0.2795  0.2076
 5051SOL     OW26611   1.342   2.314  14.229  0.0248  0.0576  0.3183
 5051SOL    HW126612   1.265   2.265  14.258 -0.3792 -0.0748 -1.0011
 5051SOL    HW226613   1.334   2.311  14.134 -0.8861 -1.4228  0.4355
 5052SOL     OW26614   1.791   0.256  10.569 -0.6015  1.1131 -0.5799
 5052SOL    HW126615   1.810   0.163  10.580  0.2547  1.5259  1.3986
 5052SOL    HW226616   1.771   0.283  10.659  1.0372  0.7930 -0.1109
 5053SOL     OW26617   2.703   1.888  11.843  0.0079  0.1493 -0.3053
 5053SOL    HW126618   2.673   1.975  11.867  0.6871  0.8760 -2.0679
 5053SOL    HW226619   2.744   1.859  11.925  0.7389  4.3404  0.7791
 5054SOL     OW26620   3.614   3.993   6.019  0.0532 -0.1720 -0.6992
 5054SOL    HW126621   3.631   4.077   5.977 -0.8402  0.8353  0.9863
 5054SOL    HW226622   3.519   3.990   6.017  0.0344 -0.2838  0.8116
 5055SOL     OW26623   1.898   1.546   7.679 -0.0352 -0.1923  0.0705
 5055SOL    HW126624   1.919   1.629   7.722 -2.1474 -0.3881  1.4964
 5055SOL    HW226625   1.861   1.501   7.755  0.8694  0.1832  0.7385
 5056SOL     OW26626   2.672   2.143   9.692 -0.2779 -0.2151 -0.4666
 5056SOL    HW126627   2.617   2.065   9.700 -1.2959  0.7921  2.0982
 5056SOL    HW226628   2.684   2.169   9.783  0.4038 -1.5369 -0.1641
 5057SOL     OW26629   1.599   2.661   4.906 -0.2461 -0.3020  0.3959
 5057SOL    HW126630   1.547   2.626   4.978 -0.8831 -2.2450 -1.0219
 5057SOL    HW226631   1.630   2.580   4.865 -2.8841 -0.9997 -0.2248
 5058SOL     OW26632   4.061   3.942  16.010  0.0039 -0.0991  0.2187
 5058SOL    HW126633   4.048   3.860  16.058 -1.8008 -0.6171 -1.1385
 5058SOL    HW226634   4.094   4.006  16.074 -1.4795  0.0340  0.8480
 5059SOL     OW26635   1.660   4.575   4.865 -0.4728 -0.2473 -0.2238
 5059SOL    HW126636   1.591   4.525   4.908  1.1516 -0.3650  2.2691
 5059SOL    HW226637   1.694   4.515   4.798 -0.7633 -0.5577 -0.0952
 5060SOL     OW26638   4.555   4.244   1.671  0.3220  0.9943  0.6239
 5060SOL    HW126639   4.538   4.245   1.765  0.1329 -1.5944  0.6132
 5060SOL    HW226640   4.650   4.228   1.674  0.2335  0.0436 -1.4669
 5061SOL     OW26641   0.952   1.687   6.041  0.2054  0.6110 -0.0488
 5061SOL    HW126642   0.992   1.773   6.046  0.7588  0.2420  1.9187
 5061SOL    HW226643   0.878   1.678   6.102 -0.4318  0.6975 -0.8133
 5062SOL     OW26644   2.517   3.487  10.801 -0.0329 -0.5639 -0.2747
 5062SOL    HW126645   2.444   3.548  10.814 -1.7582 -2.3863 -1.3379
 5062SOL    HW226646   2.586   3.548  10.775  0.3163 -0.6389  0.4822
 5063SOL     OW26647   0.927   2.966  13.561  0.1164  0.3534 -0.2926
 5063SOL    HW126648   0.866   2.958  13.488 -0.1311 -0.4180 -0.0044
 5063SOL    HW226649   0.866   2.982  13.634  0.1272  1.2662 -0.4790
 5064SOL     OW26650   0.652   1.579   5.269  0.3646  0.1385 -0.1829
 5064SOL    HW126651   0.716   1.528   5.319 -1.9513 -2.6187 -0.0455
 5064SOL    HW226652   0.695   1.654   5.227 -1.9648  1.8007  0.3912
 5065SOL     OW26653   0.965   3.347  13.775  0.7372 -0.2450 -0.8432
 5065SOL    HW126654   0.890   3.364  13.717  0.6880  0.6892 -0.5082
 5065SOL    HW226655   0.943   3.408  13.845 -1.8121  0.8226 -2.5877
 5066SOL     OW26656   3.516   3.487   1.341 -0.0976 -0.4886  0.0670
 5066SOL    HW126657   3.465   3.490   1.423  1.1774  0.3859  0.8367
 5066SOL    HW226658   3.579   3.557   1.356 -3.0082  2.2737 -0.4185
 5067SOL     OW26659   3.556   1.653   3.164 -0.0709  0.4544 -0.3638
 5067SOL    HW126660   3.581   1.569   3.126  0.8795 -0.1669  1.6513
 5067SOL    HW226661   3.623   1.663   3.232 -0.4274 -3.1416  0.5141
 5068SOL     OW26662   3.998   3.346   4.449  0.2650  0.0519  0.1035
 5068SOL    HW126663   4.087   3.335   4.414  0.4067  2.5362 -0.3568
 5068SOL    HW226664   3.977   3.269   4.502 -0.3257 -1.3294 -2.1559
 5069SOL     OW26665   2.146   3.106   8.789  0.5363  0.1822  0.4022
 5069SOL    HW126666   2.217   3.054   8.752 -0.2483 -0.1830 -0.6094
 5069SOL    HW226667   2.153   3.079   8.881  1.7474 -1.2408 -0.1052
 5070SOL     OW26668   2.453   2.249  11.243 -0.0683 -0.5968  0.3818
 5070SOL    HW126669   2.375   2.194  11.252 -1.7545  1.3299 -2.3325
 5070SOL    HW226670   2.506   2.226  11.319  2.6177 -1.1353 -1.6660
 5071SOL     OW26671   4.252   0.477   1.965 -0.0777  0.2592 -0.3051
 5071SOL    HW126672   4.161   0.462   1.990 -0.7938  2.6829 -1.4221
 5071SOL    HW226673   4.247   0.448   1.874  1.2454  0.1602 -0.3514
 5072SOL     OW26674   1.813   2.628   8.263  0.1227  0.2753 -0.1601
 5072SOL    HW126675   1.726   2.641   8.226  0.4865  2.0213 -0.3918
 5072SOL    HW226676   1.798   2.667   8.349 -0.3421 -0.2607 -0.0018
 5073SOL     OW26677   2.883   2.036   8.456  0.2885 -0.0692 -0.8563
 5073SOL    HW126678   2.788   2.041   8.459  0.4482  1.8615  0.9327
 5073SOL    HW226679   2.889   1.940   8.462  2.5200  0.0289 -1.4204
 5074SOL     OW26680   2.774   1.766   9.679  0.7826 -0.0855 -0.0176
 5074SOL    HW126681   2.801   1.850   9.640  0.0816 -0.1446 -0.6264
 5074SOL    HW226682   2.855   1.720   9.701  1.0649  0.2859 -0.2595
 5075SOL     OW26683   4.463   1.320   1.057 -0.4505  0.5870  0.0056
 5075SOL    HW126684   4.424   1.251   1.003 -0.3154 -0.0076  0.6688
 5075SOL    HW226685   4.452   1.397   1.002 -0.4189 -0.0235 -0.8699
 5076SOL     OW26686   3.684   0.452   4.296  0.4884  0.0625 -0.6132
 5076SOL    HW126687   3.734   0.468   4.376 -0.4048 -0.1940 -0.0056
 5076SOL    HW226688   3.731   0.378   4.257  1.8457  0.9560 -0.6523
 5077SOL     OW26689   4.541   1.610   4.455  0.5093  0.3071 -0.3330
 5077SOL    HW126690   4.521   1.672   4.525 -0.9618 -0.1248 -0.3575
 5077SOL    HW226691   4.461   1.556   4.462  0.6497  0.2266  0.6729
 5078SOL     OW26692   1.826   0.055  12.770  0.3632  0.6835  0.2134
 5078SOL    HW126693   1.810   4.717  12.697 -2.8909  2.7774 -0.7544
 5078SOL    HW226694   1.917   0.033  12.786 -0.2195 -0.6549  1.6701
 5079SOL     OW26695   0.851   2.162   7.920 -0.2505 -0.4441 -0.4515
 5079SOL    HW126696   0.860   2.213   7.840 -0.8135  0.7901  0.2559
 5079SOL    HW226697   0.942   2.139   7.941 -0.5180  0.2651  1.5638
 5080SOL     OW26698   2.036   3.956  10.241  0.0416  0.4026  0.3118
 5080SOL    HW126699   2.060   3.876  10.194  0.1853 -0.0926  1.2232
 5080SOL    HW226700   1.984   3.929  10.316 -1.6277 -0.1237 -1.0438
 5081SOL     OW26701   3.564   1.235   5.736  0.0888 -0.0328 -0.1509
 5081SOL    HW126702   3.616   1.167   5.779 -1.0048 -1.9645 -1.8993
 5081SOL    HW226703   3.507   1.273   5.803 -1.1157  1.7154 -2.1605
 5082SOL     OW26704   1.691   3.016   4.936  0.3852 -0.3604  0.1157
 5082SOL    HW126705   1.609   2.978   4.903 -0.6557  0.7676  1.3879
 5082SOL    HW226706   1.677   3.009   5.030  2.8146 -0.3811  0.4530
 5083SOL     OW26707   1.577   2.124   2.092  0.2175  0.1809 -0.3927
 5083SOL    HW126708   1.523   2.058   2.049  1.2945  0.9335 -2.8824
 5083SOL    HW226709   1.597   2.081   2.176  3.7273 -0.4997 -1.5630
 5084SOL     OW26710   4.482   3.413  14.999 -0.1715 -0.2197 -0.1412
 5084SOL    HW126711   4.571   3.428  15.029 -0.2166 -2.1459  0.9795
 5084SOL    HW226712   4.433   3.388  15.077  1.5527 -0.5631  0.8337
 5085SOL     OW26713   0.972   2.067   1.615 -0.1819 -0.6723 -0.1238
 5085SOL    HW126714   1.024   2.037   1.541 -2.4837  0.0815 -2.0396
 5085SOL    HW226715   1.003   2.157   1.618  0.8317 -0.9503 -2.8693
 5086SOL     OW26716   0.026   0.870   7.246 -0.1077 -0.3918 -0.0259
 5086SOL    HW126717   4.715   0.958   7.267  1.9316 -0.1443  1.9978
 5086SOL    HW226718   0.042   0.832   7.332  1.1773 -0.0788 -0.1251
 5087SOL     OW26719   1.725   2.293   6.779 -0.1623  0.6500 -0.3606
 5087SOL    HW126720   1.704   2.200   6.773  2.6740 -0.0541  0.4904
 5087SOL    HW226721   1.815   2.294   6.811 -0.3108  0.4356  0.0667
 5088SOL     OW26722   1.630   1.201   7.862  0.0643 -0.0220  0.5020
 5088SOL    HW126723   1.661   1.286   7.830  1.1074 -0.3811  0.5571
 5088SOL    HW226724   1.716   1.159   7.860  0.0236 -0.0667 -0.2932
 5089SOL     OW26725   2.014   4.090   8.771  0.4146  0.1993  0.6921
 5089SOL    HW126726   1.919   4.079   8.772  0.3066  1.0543  0.3473
 5089SOL    HW226727   2.042   3.999   8.763  1.6608  0.8405 -2.4114
 5090SOL     OW26728   3.853   3.084   1.840  0.5169 -0.8617  0.0178
 5090SOL    HW126729   3.814   3.145   1.776  0.5340 -0.0946  0.7351
 5090SOL    HW226730   3.861   3.136   1.920  0.6281 -0.3044 -0.3525
 5091SOL     OW26731   0.183   2.136   7.456  0.3872 -0.1893  0.4319
 5091SOL    HW126732   0.237   2.059   7.442  1.0312 -0.0419  2.1510
 5091SOL    HW226733   0.130   2.124   7.535  1.1985  2.5106  1.3737
 5092SOL     OW26734   3.758   3.953  16.389 -0.4536  0.3011  0.3370
 5092SOL    HW126735   3.717   3.912  16.465  0.7628  1.1808  1.4714
 5092SOL    HW226736   3.804   4.025  16.432  1.7535  0.2283 -1.9775
 5093SOL     OW26737   1.543   0.662  17.427 -0.9289  0.3299  0.0221
 5093SOL    HW126738   1.499   0.653  17.512  3.5797 -2.6086  2.0169
 5093SOL    HW226739   1.632   0.644  17.458 -0.9357 -1.6711 -1.1261
 5094SOL     OW26740   3.071   1.302  13.361  0.6126 -0.0220  0.2072
 5094SOL    HW126741   3.125   1.381  13.352 -0.1722  0.0895 -3.6514
 5094SOL    HW226742   3.135   1.231  13.358  0.3748 -0.3318  2.6754
 5095SOL     OW26743   2.037   0.907   4.894  0.1649  0.3558  0.6375
 5095SOL    HW126744   2.069   0.817   4.881 -0.8148  0.0267  0.4679
 5095SOL    HW226745   2.099   0.968   4.855 -1.3894  0.2297 -2.0793
 5096SOL     OW26746   3.355   0.827   1.852  0.7890 -0.5851 -0.5292
 5096SOL    HW126747   3.407   0.887   1.798 -1.3491  0.5668 -1.3277
 5096SOL    HW226748   3.292   0.883   1.897  0.7964  0.3286 -1.6569
 5097SOL     OW26749   0.425   2.240  14.494 -0.0624  0.4287  0.5701
 5097SOL    HW126750   0.337   2.237  14.532 -0.6987 -1.0597 -1.0302
 5097SOL    HW226751   0.477   2.211  14.569 -0.0772  2.0335  1.2164
 5098SOL     OW26752   2.033   1.163  10.927 -0.0502  0.7882  0.3570
 5098SOL    HW126753   2.004   1.096  10.989  0.9289 -0.2127 -0.2672
 5098SOL    HW226754   2.119   1.127  10.903 -0.2934  0.7331 -0.4067
 5099SOL     OW26755   3.559   0.186  11.508 -0.4990 -0.5880 -0.0589
 5099SOL    HW126756   3.581   0.136  11.429 -1.3267 -1.1086  0.0395
 5099SOL    HW226757   3.643   0.223  11.535 -0.1311 -0.1000 -1.8391
 5100SOL     OW26758   3.516   3.632   2.539  0.2845 -0.0588  0.0681
 5100SOL    HW126759   3.588   3.596   2.486 -1.8399 -1.9137 -1.5707
 5100SOL    HW226760   3.468   3.689   2.479  0.2493 -0.3956 -0.2285
 5101SOL     OW26761   3.308   0.418   3.271  0.5409  0.2304 -0.3697
 5101SOL    HW126762   3.370   0.420   3.344 -1.5151 -1.2840  1.4340
 5101SOL    HW226763   3.224   0.427   3.317  1.5375  0.2693  1.4264
 5102SOL     OW26764   1.674   1.943   3.997  0.9466 -0.8598 -0.2690
 5102SOL    HW126765   1.586   1.928   3.963  1.3819 -0.4284 -1.5667
 5102SOL    HW226766   1.715   1.860   3.972  3.0408  0.0113  0.2430
 5103SOL     OW26767   3.859   2.874   5.041  0.1145  0.1230 -0.6287
 5103SOL    HW126768   3.838   2.947   5.100 -0.0727 -1.7647  1.6543
 5103SOL    HW226769   3.769   2.867   5.007 -0.0367 -0.3914 -0.1270
 5104SOL     OW26770   2.063   0.784   7.849  0.3501  0.3401 -0.0516
 5104SOL    HW126771   2.086   0.726   7.776 -2.3465 -0.2024 -0.4900
 5104SOL    HW226772   2.148   0.809   7.884  0.6878  0.4411 -0.9384
 5105SOL     OW26773   0.417   3.981   1.146 -0.0388 -0.1782  0.1378
 5105SOL    HW126774   0.367   4.026   1.214 -0.7187 -0.0342 -0.4576
 5105SOL    HW226775   0.366   3.900   1.140 -1.5665  0.8621 -0.8325
 5106SOL     OW26776   1.942   2.791   2.129  0.1299 -0.5013  0.1531
 5106SOL    HW126777   1.938   2.728   2.201 -0.8227 -1.4981 -0.7629
 5106SOL    HW226778   1.973   2.733   2.060  1.2203 -1.5862  1.5467
 5107SOL     OW26779   0.209   3.273  15.023 -0.9167  0.7021  0.7188
 5107SOL    HW126780   0.171   3.307  15.103 -2.1178 -1.1989  0.9668
 5107SOL    HW226781   0.127   3.240  14.985  0.7204  0.3789 -2.5506
 5108SOL     OW26782   0.757   2.499   6.099 -0.2704 -0.2033  0.1845
 5108SOL    HW126783   0.757   2.406   6.079  3.6713 -0.6558  2.2647
 5108SOL    HW226784   0.837   2.522   6.052 -0.2174  3.0151  1.8207
 5109SOL     OW26785   1.093   2.595   3.592 -0.1153  0.6825 -0.1582
 5109SOL    HW126786   1.148   2.628   3.522  0.1902  1.6615  0.5480
 5109SOL    HW226787   1.054   2.522   3.543  1.2758 -0.2222  0.0879
 5110SOL     OW26788   3.646   1.368  13.199  0.1321 -0.6462 -0.3473
 5110SOL    HW126789   3.697   1.306  13.148  1.4825  1.5086 -1.5917
 5110SOL    HW226790   3.703   1.371  13.276  1.7338 -3.2804 -1.4422
 5111SOL     OW26791   2.547   3.187   3.315  0.6020 -0.0551  0.6459
 5111SOL    HW126792   2.546   3.217   3.224 -1.5208  1.2606  1.1119
 5111SOL    HW226793   2.579   3.269   3.353  2.9939 -0.8421  0.3255
 5112SOL     OW26794   2.326   4.067   5.205  0.0524 -0.2409 -0.7388
 5112SOL    HW126795   2.248   4.016   5.181  0.2528 -1.6013  1.5278
 5112SOL    HW226796   2.292   4.127   5.271  1.1897 -0.4247  0.0125
 5113SOL     OW26797   3.807   4.056   5.154  0.2161 -0.0831 -0.0255
 5113SOL    HW126798   3.825   3.963   5.149 -3.0583 -0.6721 -1.1170
 5113SOL    HW226799   3.751   4.065   5.232 -1.7147 -0.9012 -1.3072
 5114SOL     OW26800   3.859   3.525   8.139 -0.0044 -0.4077  0.7708
 5114SOL    HW126801   3.833   3.617   8.141 -0.7558 -0.5758 -1.3954
 5114SOL    HW226802   3.858   3.499   8.231 -0.0610  0.8202  1.1057
 5115SOL     OW26803   3.508   1.404   6.360 -0.8777 -0.3670 -0.0486
 5115SOL    HW126804   3.457   1.441   6.432  0.5083 -2.1411  1.8175
 5115SOL    HW226805   3.514   1.482   6.304  1.2471 -0.2511  0.3283
 5116SOL     OW26806   4.711   0.331   6.106 -0.0209  0.0911 -0.2890
 5116SOL    HW126807   4.620   0.313   6.081 -0.1726  0.4087  0.0368
 5116SOL    HW226808   4.693   0.418   6.142  2.7134  0.7099 -0.3941
 5117SOL     OW26809   0.145   3.746   8.202 -0.0217  0.2156  0.1905
 5117SOL    HW126810   0.121   3.839   8.199  0.3545  0.2168 -2.6421
 5117SOL    HW226811   0.058   3.712   8.223 -0.2999 -0.2906 -1.7673
 5118SOL     OW26812   0.834   4.547  11.803  0.1392  0.0467 -0.3222
 5118SOL    HW126813   0.863   4.612  11.867 -1.2098  1.1043 -0.7606
 5118SOL    HW226814   0.743   4.525  11.826  0.3036 -0.5676 -0.2695
 5119SOL     OW26815   3.053   2.077   6.878 -0.0488  0.4036 -0.3058
 5119SOL    HW126816   2.983   2.097   6.815  1.8690  1.6336 -2.0630
 5119SOL    HW226817   3.010   2.108   6.957  1.5554 -0.0236  0.7246
 5120SOL     OW26818   2.481   4.424   5.591 -0.3490  0.1536 -0.2566
 5120SOL    HW126819   2.460   4.416   5.498 -1.0107  0.3610 -0.1221
 5120SOL    HW226820   2.395   4.454   5.621 -0.5305 -0.0099 -0.6068
 5121SOL     OW26821   2.232   3.856   4.427  0.8319 -0.0925 -0.2444
 5121SOL    HW126822   2.260   3.947   4.439 -0.5676  0.4255 -0.9580
 5121SOL    HW226823   2.269   3.830   4.343 -0.2069 -5.2399  0.9045
 5122SOL     OW26824   2.580   1.404   7.903 -0.0072  0.5751  0.1738
 5122SOL    HW126825   2.569   1.480   7.961 -0.0170  1.6621 -1.2575
 5122SOL    HW226826   2.663   1.370   7.938  0.4607  0.2396 -1.2625
 5123SOL     OW26827   3.687   4.587   5.201  0.3103  0.5007 -0.4342
 5123SOL    HW126828   3.655   4.501   5.173  0.5470  0.9204 -1.9892
 5123SOL    HW226829   3.663   4.643   5.127 -2.7823 -2.3988 -1.6391
 5124SOL     OW26830   1.307   4.243  12.279 -0.6873 -0.4528  0.3916
 5124SOL    HW126831   1.400   4.244  12.256 -0.2461 -1.0026  2.1875
 5124SOL    HW226832   1.288   4.161  12.233 -0.4274 -0.4310  0.2478
 5125SOL     OW26833   3.532   0.101  17.528 -0.7820  0.1204 -0.5777
 5125SOL    HW126834   3.556   0.063  17.613 -1.1486  0.6855 -0.2205
 5125SOL    HW226835   3.603   0.165  17.534  0.1930 -1.1424  1.5351
 5126SOL     OW26836   3.717   0.406   9.041 -0.4294 -0.3099  0.1177
 5126SOL    HW126837   3.660   0.416   8.964  1.3634  1.8743 -0.9175
 5126SOL    HW226838   3.657   0.373   9.108 -1.4013 -0.7568 -0.9722
 5127SOL     OW26839   3.451   4.242  11.803 -0.4324  0.1803 -0.0168
 5127SOL    HW126840   3.466   4.333  11.779  0.3076  0.5079  1.6608
 5127SOL    HW226841   3.535   4.201  11.787 -0.8421 -1.3056  1.5320
 5128SOL     OW26842   2.601   0.815   5.437  0.3750  0.1942  0.7503
 5128SOL    HW126843   2.522   0.779   5.478  0.9321  2.3100  3.6290
 5128SOL    HW226844   2.572   0.847   5.351 -0.0962 -0.6884  0.5781
 5129SOL     OW26845   1.632   3.209   1.950 -0.5323  0.1964 -0.1707
 5129SOL    HW126846   1.696   3.141   1.973 -0.8768 -0.4365 -1.0649
 5129SOL    HW226847   1.688   3.265   1.895  0.4226 -1.0296 -0.4484
 5130SOL     OW26848   2.183   4.212  10.248  0.2264  0.6633  0.0586
 5130SOL    HW126849   2.130   4.135  10.271  1.9860 -1.0888 -1.7840
 5130SOL    HW226850   2.244   4.199  10.320  1.2765  0.4758 -0.8595
 5131SOL     OW26851   3.121   3.161   3.645 -0.0453 -0.1789  0.3666
 5131SOL    HW126852   3.181   3.199   3.709  2.0830 -0.6473 -1.3660
 5131SOL    HW226853   3.034   3.176   3.682 -0.8158 -2.3989 -0.5390
 5132SOL     OW26854   0.455   2.223   3.191 -0.2264 -0.0147  0.1053
 5132SOL    HW126855   0.399   2.301   3.192 -1.3084 -0.7726 -1.5889
 5132SOL    HW226856   0.494   2.222   3.278  1.6691  0.4045 -0.7368
 5133SOL     OW26857   4.584   0.428   4.138  0.4755 -0.4310 -0.4722
 5133SOL    HW126858   4.630   0.359   4.185 -1.6825 -1.5602 -0.0180
 5133SOL    HW226859   4.571   0.494   4.207 -3.2821 -1.0794 -0.5254
 5134SOL     OW26860   3.087   4.633   1.007  0.1943  0.0736  0.0169
 5134SOL    HW126861   3.143   4.709   0.998 -0.2760  0.7044  2.3939
 5134SOL    HW226862   3.149   4.575   1.051 -0.2280  0.5013  1.1801
 5135SOL     OW26863   1.396   1.977   4.201  0.1418 -0.0457  0.1652
 5135SOL    HW126864   1.391   1.921   4.124 -1.6251  1.2769 -0.6741
 5135SOL    HW226865   1.387   1.909   4.268 -1.6922 -0.3734 -0.4140
 5136SOL     OW26866   3.281   1.823   8.259 -0.1174  0.0116  0.3111
 5136SOL    HW126867   3.315   1.864   8.180  1.3781  0.0928  1.0036
 5136SOL    HW226868   3.320   1.890   8.315 -3.9089  2.2031  0.3691
 5137SOL     OW26869   3.021   3.649   3.142  0.0831  0.4977 -0.7484
 5137SOL    HW126870   3.042   3.595   3.066  2.1433  1.0580 -0.5696
 5137SOL    HW226871   3.104   3.638   3.189  0.3997 -0.4869 -1.5474
 5138SOL     OW26872   4.241   1.552   3.323  0.8040  0.4468 -0.1605
 5138SOL    HW126873   4.330   1.552   3.287 -0.0679  1.4371 -2.2957
 5138SOL    HW226874   4.205   1.476   3.276 -1.9788  2.1177 -0.7035
 5139SOL     OW26875   1.804   4.716   0.156 -0.2530 -0.2466  0.6297
 5139SOL    HW126876   1.785   4.703   0.063  0.1550 -0.6095  0.5999
 5139SOL    HW226877   1.758   0.079   0.172  1.3694  0.8642 -0.5348
 5140SOL     OW26878   3.395   0.429   4.696  0.0569 -0.0356 -0.0622
 5140SOL    HW126879   3.461   0.437   4.765 -0.8591  0.4209  0.7704
 5140SOL    HW226880   3.439   0.364   4.642 -1.2165 -0.3873 -0.6611
 5141SOL     OW26881   3.346   3.908   0.869 -0.2164  0.6559 -0.3891
 5141SOL    HW126882   3.395   3.861   0.936  0.0326  3.4356  1.3337
 5141SOL    HW226883   3.270   3.850   0.861  0.8743 -0.3726 -3.4393
 5142SOL     OW26884   0.965   3.168  14.876  0.2097  0.2229  0.0453
 5142SOL    HW126885   0.875   3.181  14.845 -0.4354 -1.4119  1.2186
 5142SOL    HW226886   0.967   3.104  14.948 -2.3971  2.7521  2.3724
 5143SOL     OW26887   3.732   1.485   4.874 -0.5168  0.5708  0.3172
 5143SOL    HW126888   3.716   1.393   4.894  0.4565  0.0525 -1.3359
 5143SOL    HW226889   3.706   1.495   4.783  0.2415  0.3828  0.0852
 5144SOL     OW26890   3.102   4.201   4.263 -0.1398  0.1574 -0.2463
 5144SOL    HW126891   3.057   4.283   4.243  0.5329  0.4969 -0.3733
 5144SOL    HW226892   3.168   4.235   4.322 -0.2111  0.0671 -0.1136
 5145SOL     OW26893   0.778   0.548   4.551 -0.1514  0.8541 -0.2177
 5145SOL    HW126894   0.701   0.523   4.500 -0.5934  0.8365  0.4518
 5145SOL    HW226895   0.793   0.640   4.529  0.9830  1.2554  2.2657
 5146SOL     OW26896   3.376   3.095   4.101  0.2375  0.2472 -0.6867
 5146SOL    HW126897   3.349   3.115   4.012  0.0546  1.7100 -0.2923
 5146SOL    HW226898   3.414   3.179   4.128  0.1610  0.6600 -1.8712
 5147SOL     OW26899   1.450   2.101  14.022 -0.1965 -0.1000  0.4079
 5147SOL    HW126900   1.505   2.055  13.958  1.4423 -1.3182  2.6972
 5147SOL    HW226901   1.419   2.029  14.077  2.4360 -0.1040  1.9194
 5148SOL     OW26902   1.888   1.041  13.803 -0.0984  0.0323  0.1821
 5148SOL    HW126903   1.924   0.952  13.798  0.1638 -0.0011  2.8342
 5148SOL    HW226904   1.807   1.021  13.848  0.0642  1.2978  1.0446
 5149SOL     OW26905   1.687   2.240   7.526 -0.5645 -0.3288 -0.1701
 5149SOL    HW126906   1.666   2.333   7.514 -1.4971 -0.4887  0.2595
 5149SOL    HW226907   1.695   2.214   7.435  1.5791  0.1553 -0.1407
 5150SOL     OW26908   3.605   4.248   5.950  0.4701 -0.2878 -0.3110
 5150SOL    HW126909   3.653   4.323   5.913 -0.2659 -0.5060 -1.7375
 5150SOL    HW226910   3.522   4.287   5.923  0.6528 -0.0892 -0.5860
 5151SOL     OW26911   0.612   2.377   0.248 -0.7343 -0.7391 -0.0896
 5151SOL    HW126912   0.586   2.399   0.338 -1.3867 -1.9578  0.0228
 5151SOL    HW226913   0.704   2.352   0.252 -0.3836  0.6596  0.8952
 5152SOL     OW26914   4.041   1.981   8.470  0.4302 -0.7894  0.4410
 5152SOL    HW126915   4.055   2.036   8.394 -1.9682  0.6314  1.0158
 5152SOL    HW226916   4.125   1.999   8.512 -1.0507 -0.6647  3.4112
 5153SOL     OW26917   3.852   4.180   4.204  0.0595  0.3358  0.2402
 5153SOL    HW126918   3.842   4.268   4.168 -1.6067  0.4917  1.0967
 5153SOL    HW226919   3.922   4.146   4.148  1.6544  1.9070  1.2949
 5154SOL     OW26920   2.170   1.728   7.386  0.1678 -0.1565 -0.1135
 5154SOL    HW126921   2.091   1.734   7.333 -0.7832  0.7524  1.4085
 5154SOL    HW226922   2.153   1.651   7.440  3.1218 -1.4235 -0.9703
 5155SOL     OW26923   0.913   1.415   3.502 -0.6799  0.0773 -0.3413
 5155SOL    HW126924   0.953   1.402   3.416 -2.0265 -1.4585 -0.7298
 5155SOL    HW226925   0.923   1.329   3.542  2.2679 -0.0542 -1.3969
 5156SOL     OW26926   0.526   2.147   7.882 -0.4563 -0.3823 -0.7912
 5156SOL    HW126927   0.612   2.114   7.907  0.0023  0.1868 -1.6163
 5156SOL    HW226928   0.467   2.073   7.866  0.4072 -1.0315 -0.9195
 5157SOL     OW26929   4.027   0.853   2.614  0.5180  0.4769 -0.0486
 5157SOL    HW126930   3.953   0.802   2.646  0.0533 -0.0624 -2.0152
 5157SOL    HW226931   4.096   0.790   2.637  0.1094  0.2120  0.4611
 5158SOL     OW26932   3.897   2.668   3.189  0.1876 -0.5677  0.0885
 5158SOL    HW126933   3.922   2.711   3.107  2.0750  0.1606  1.0489
 5158SOL    HW226934   3.850   2.588   3.166  0.9241 -1.1886  0.7533
 5159SOL     OW26935   0.917   4.198  10.985  0.0878  0.3204 -0.6126
 5159SOL    HW126936   1.009   4.182  11.006 -0.2343  0.9101  1.2176
 5159SOL    HW226937   0.892   4.265  11.048  2.6302  0.8259 -0.1312
 5160SOL     OW26938   1.646   1.324   3.994 -0.4000 -0.0377  0.1867
 5160SOL    HW126939   1.666   1.233   4.018 -2.1697  0.0275  1.8828
 5160SOL    HW226940   1.585   1.331   4.067  0.5429 -0.6357  1.0204
 5161SOL     OW26941   0.537   3.643   2.365 -0.6002 -0.1234 -0.1459
 5161SOL    HW126942   0.626   3.613   2.388 -0.2592  2.3921  1.8350
 5161SOL    HW226943   0.512   3.674   2.452 -1.7836 -0.6877 -0.2883
 5162SOL     OW26944   2.173   1.887   5.670  0.3076 -0.2173 -0.5037
 5162SOL    HW126945   2.136   1.872   5.583 -1.3372  2.5026 -0.2784
 5162SOL    HW226946   2.126   1.829   5.731  0.0282 -0.3194 -0.8144
 5163SOL     OW26947   0.656   4.475   4.162 -0.1027  0.4136  0.6200
 5163SOL    HW126948   0.632   4.498   4.252 -0.6726 -0.0757  0.5979
 5163SOL    HW226949   0.609   4.547   4.121  0.6264 -1.1302 -2.9258
 5164SOL     OW26950   2.381   0.311  13.694  0.2103 -0.3743  0.2296
 5164SOL    HW126951   2.321   0.243  13.724 -3.0603  1.4946 -2.0223
 5164SOL    HW226952   2.439   0.264  13.634  0.6781  2.5789 -1.6498
 5165SOL     OW26953   2.357   2.961   3.646  0.1600  0.3458  0.7958
 5165SOL    HW126954   2.453   2.968   3.644  0.1295  0.3851 -0.4556
 5165SOL    HW226955   2.343   2.983   3.738 -2.0053 -2.1647  1.0498
 5166SOL     OW26956   0.166   2.682  17.669  0.0795  0.0810 -0.1823
 5166SOL    HW126957   0.128   2.670   0.072 -1.1789 -0.9842 -0.8782
 5166SOL    HW226958   0.090   2.707  17.616  0.9677  1.5001 -0.8022
 5167SOL     OW26959   3.975   4.006   6.632 -0.1547 -0.0359 -0.3131
 5167SOL    HW126960   4.017   4.041   6.553 -0.9630  0.5711 -0.4775
 5167SOL    HW226961   4.042   4.032   6.695  1.9057 -3.0805 -1.2890
 5168SOL     OW26962   1.467   0.985  10.697  0.0146 -0.3153  0.2125
 5168SOL    HW126963   1.376   1.009  10.682  0.1100 -1.1025 -1.6094
 5168SOL    HW226964   1.508   0.997  10.611 -0.7973  0.4529 -0.0730
 5169SOL     OW26965   2.997   3.074   4.219  0.3733  0.3374 -0.1833
 5169SOL    HW126966   2.998   2.985   4.254  1.8754  0.4253 -0.0092
 5169SOL    HW226967   3.088   3.102   4.227  0.1119  1.1172  0.0487
 5170SOL     OW26968   4.651   3.793  11.581 -0.5446 -0.1263 -0.0753
 5170SOL    HW126969   4.692   3.777  11.666  0.7996 -0.9321 -0.8924
 5170SOL    HW226970   4.685   3.878  11.554  1.0588 -0.3735  1.1714
 5171SOL     OW26971   1.073   0.622   5.156  0.0271 -0.1815  0.0030
 5171SOL    HW126972   1.071   0.662   5.069 -2.1708 -0.5152 -0.1146
 5171SOL    HW226973   1.167   0.629   5.170  0.2159 -1.2533 -0.7815
 5172SOL     OW26974   0.137   2.190   4.487 -0.0656 -0.1882  0.2062
 5172SOL    HW126975   0.056   2.236   4.512  0.0810  0.9272 -1.3289
 5172SOL    HW226976   0.108   2.099   4.488  0.2423 -0.2913 -0.4847
 5173SOL     OW26977   0.021   2.629   9.082  0.1808 -0.1136  0.0109
 5173SOL    HW126978   0.017   2.718   9.117  1.3341  0.0571 -0.2604
 5173SOL    HW226979   0.106   2.630   9.036  0.1929 -0.3613  0.0292
 5174SOL     OW26980   2.786   1.020   6.792  0.3898  0.0351 -0.1581
 5174SOL    HW126981   2.826   0.954   6.734 -2.0001 -0.4743 -1.2258
 5174SOL    HW226982   2.761   0.962   6.864  1.0306  0.0487  0.0812
 5175SOL     OW26983   3.593   1.170   6.952 -0.1863 -0.3630 -0.4423
 5175SOL    HW126984   3.547   1.110   7.011  2.3793 -3.8857 -2.0117
 5175SOL    HW226985   3.668   1.193   7.006 -1.2285  1.7007  0.1482
 5176SOL     OW26986   4.705   2.467   4.927 -0.4028  0.1062 -0.8202
 5176SOL    HW126987   4.708   2.455   5.022  0.8706 -1.0410 -0.9998
 5176SOL    HW226988   4.695   2.562   4.924  2.3657  0.4605  1.1861
 5177SOL     OW26989   0.423   0.220   2.177  0.1419 -0.1534  0.0713
 5177SOL    HW126990   0.342   0.271   2.169  0.3032 -0.0193 -0.7774
 5177SOL    HW226991   0.476   0.277   2.121  2.2435 -0.4831  1.7209
 5178SOL     OW26992   1.521   0.896   3.323  0.2011  0.7717 -0.4733
 5178SOL    HW126993   1.553   0.806   3.333  0.1555  0.7314 -0.6796
 5178SOL    HW226994   1.512   0.900   3.227  1.6429  2.1515 -0.5481
 5179SOL     OW26995   1.830   2.337   4.361  0.1585  0.0595  0.7254
 5179SOL    HW126996   1.758   2.397   4.380  0.9069  1.2607 -0.2150
 5179SOL    HW226997   1.866   2.312   4.446  2.8279  0.3945 -0.3161
 5180SOL     OW26998   3.816   2.179   8.812  0.0595 -0.4735 -0.6721
 5180SOL    HW126999   3.851   2.173   8.900  2.4203  1.5990 -1.4655
 5180SOL    HW227000   3.806   2.273   8.799 -0.0998 -0.3130  0.7102
 5181SOL     OW27001   2.244   3.545   6.763  0.1034 -0.6589  0.3587
 5181SOL    HW127002   2.248   3.639   6.778  0.2371 -0.2747 -1.9950
 5181SOL    HW227003   2.284   3.538   6.676  1.8477 -1.6108  1.2283
 5182SOL     OW27004   1.510   1.645   9.335 -0.4515  0.0037  0.2431
 5182SOL    HW127005   1.415   1.644   9.322 -0.5855  2.9203  1.0646
 5182SOL    HW227006   1.516   1.677   9.425 -2.1168 -0.6955  0.6117
 5183SOL     OW27007   3.382   3.754   3.822 -0.0803 -0.0717  0.2140
 5183SOL    HW127008   3.318   3.820   3.846 -0.4248  0.3952 -1.9402
 5183SOL    HW227009   3.455   3.811   3.844 -0.0277  0.9828 -2.6736
 5184SOL     OW27010   4.469   3.393   4.482  0.0652  0.5002 -0.0198
 5184SOL    HW127011   4.561   3.370   4.470 -0.2916 -0.3901 -1.1366
 5184SOL    HW227012   4.479   3.486   4.465 -0.7427  0.2985 -1.6428
 5185SOL     OW27013   1.959   3.577   5.338 -0.4925  0.1757  0.4266
 5185SOL    HW127014   1.904   3.642   5.382 -1.7356 -0.4197 -0.2441
 5185SOL    HW227015   1.937   3.507   5.399 -1.3028  0.2982  0.2837
 5186SOL     OW27016   2.208   1.500   8.497 -0.0480 -0.3281  0.1739
 5186SOL    HW127017   2.173   1.589   8.507  0.5737 -0.0271 -0.2863
 5186SOL    HW227018   2.250   1.491   8.583  1.1136 -0.0191 -0.3541
 5187SOL     OW27019   3.422   3.439   3.106  0.3730  0.5317  0.1153
 5187SOL    HW127020   3.381   3.379   3.044  1.4224 -0.0854  0.0339
 5187SOL    HW227021   3.339   3.479   3.134 -1.7295 -3.3030 -0.6854
 5188SOL     OW27022   0.526   4.412   5.761 -0.2541 -0.2280 -0.1709
 5188SOL    HW127023   0.570   4.407   5.676  0.1564 -0.4869  0.0543
 5188SOL    HW227024   0.536   4.505   5.780  0.4078 -0.4340  0.4815
 5189SOL     OW27025   4.021   0.521   2.678 -1.1866 -0.6329  0.0774
 5189SOL    HW127026   4.105   0.545   2.639 -0.4111 -2.6387  0.5184
 5189SOL    HW227027   4.020   0.572   2.759 -1.9016 -0.1296 -0.2465
 5190SOL     OW27028   0.832   0.967  15.768  0.1566  0.0416 -0.3671
 5190SOL    HW127029   0.739   0.987  15.777  1.0935  2.7750  3.0318
 5190SOL    HW227030   0.840   0.970  15.672 -0.0871 -0.6267 -0.4100
 5191SOL     OW27031   2.581   4.328  10.720  0.1216  0.7567  0.7131
 5191SOL    HW127032   2.596   4.328  10.625  1.0471 -0.1246  0.8575
 5191SOL    HW227033   2.633   4.400  10.753 -1.7048  2.0443  0.7935
 5192SOL     OW27034   0.875   4.394  11.586 -0.0533  0.1432 -1.1176
 5192SOL    HW127035   0.971   4.388  11.586 -0.1164 -0.8393 -2.8680
 5192SOL    HW227036   0.862   4.433  11.672 -2.1142 -1.2744 -0.8001
 5193SOL     OW27037   0.341   2.113   2.926  0.2956 -0.0769  0.3118
 5193SOL    HW127038   0.322   2.026   2.889 -0.4513  0.5452 -0.7732
 5193SOL    HW227039   0.257   2.158   2.920 -0.3882 -1.1775  1.5385
 5194SOL     OW27040   3.717   3.163   8.040 -0.1337  0.2851  0.2127
 5194SOL    HW127041   3.723   3.068   8.044  1.9600  0.3696 -0.8941
 5194SOL    HW227042   3.811   3.181   8.040 -0.0444 -0.2142 -2.1182
 5195SOL     OW27043   0.111   1.021   0.992 -0.9477 -0.3495 -0.0088
 5195SOL    HW127044   0.137   1.046   0.903  0.7546 -4.1661 -0.5740
 5195SOL    HW227045   0.175   0.955   1.019  0.1421  0.2802 -1.0337
 5196SOL     OW27046   1.649   2.630   9.436 -0.7150  0.3941 -0.6154
 5196SOL    HW127047   1.725   2.683   9.415 -0.6837  0.3145 -0.7038
 5196SOL    HW227048   1.629   2.666   9.523  2.8006  0.5927  0.1096
 5197SOL     OW27049   2.787   2.767   7.320  0.1664  0.0516  0.1367
 5197SOL    HW127050   2.842   2.765   7.399  1.6758  1.1694 -0.9022
 5197SOL    HW227051   2.750   2.679   7.321 -1.4727  0.7238 -2.2280
 5198SOL     OW27052   2.998   2.943  11.982  0.1727 -0.3582  0.4978
 5198SOL    HW127053   2.984   2.950  12.076 -2.7463 -1.6872  0.1568
 5198SOL    HW227054   3.074   3.001  11.975  0.7289 -1.2548 -0.7169
 5199SOL     OW27055   3.100   1.360   4.892 -0.5522  0.0022 -0.1031
 5199SOL    HW127056   3.142   1.324   4.971 -1.5707 -3.5967 -1.1748
 5199SOL    HW227057   3.174   1.397   4.843 -0.7936  1.8927  0.9716
 5200SOL     OW27058   2.662   4.693   4.038 -0.0334 -0.1908 -0.5643
 5200SOL    HW127059   2.590   4.701   4.100 -0.7692 -1.4243 -1.2656
 5200SOL    HW227060   2.680   4.599   4.042 -1.9179 -0.6235 -2.5778
 5201SOL     OW27061   3.400   4.110  11.562  0.1017  0.3075 -0.0791
 5201SOL    HW127062   3.485   4.110  11.518 -0.1864  0.2669 -0.6390
 5201SOL    HW227063   3.408   4.165  11.640 -0.8894 -0.4671  0.5721
 5202SOL     OW27064   3.157   0.566   0.197 -0.6840  0.1149 -0.3401
 5202SOL    HW127065   3.192   0.623   0.127  0.7069 -0.9481 -0.5035
 5202SOL    HW227066   3.077   0.609   0.227  1.1385  2.8828  0.5233
 5203SOL     OW27067   3.012   3.225   3.251  0.2717 -0.3826  0.3891
 5203SOL    HW127068   2.956   3.153   3.279 -0.1589 -1.4224 -3.1394
 5203SOL    HW227069   3.082   3.165   3.225  0.1745 -0.8672  1.2581
 5204SOL     OW27070   2.308   1.353   1.522 -0.7243  0.2191  0.5080
 5204SOL    HW127071   2.364   1.429   1.510 -0.9582  0.2805 -0.2116
 5204SOL    HW227072   2.256   1.358   1.441 -0.0807 -1.1878  0.0041
 5205SOL     OW27073   1.673   2.144   4.624  0.1152  0.5109 -0.2349
 5205SOL    HW127074   1.622   2.072   4.660  1.8744 -0.5579  0.1379
 5205SOL    HW227075   1.610   2.208   4.591 -1.1436 -0.1686  0.8349
 5206SOL     OW27076   2.036   1.498   6.570 -0.0668  0.7425 -0.6216
 5206SOL    HW127077   2.061   1.576   6.520  0.9446  0.7977 -0.0406
 5206SOL    HW227078   2.114   1.493   6.625 -0.3840  2.5142 -0.0161
 5207SOL     OW27079   2.194   1.920   0.676 -0.4385  0.5113 -0.1280
 5207SOL    HW127080   2.275   1.907   0.627 -1.3630  2.2575 -2.1311
 5207SOL    HW227081   2.131   1.860   0.637 -1.6269  1.6889 -0.0235
 5208SOL     OW27082   0.197   1.246   4.534  0.2401  0.1592 -0.0234
 5208SOL    HW127083   0.141   1.310   4.489 -0.6760  0.0026  0.8947
 5208SOL    HW227084   0.166   1.156   4.521  1.1094  0.0172 -1.1895
 5209SOL     OW27085   1.155   3.669   2.149 -0.0707  0.0775 -1.1521
 5209SOL    HW127086   1.106   3.588   2.137 -1.4744  0.7948 -0.2765
 5209SOL    HW227087   1.232   3.622   2.182  0.9464  2.0691 -0.6678
 5210SOL     OW27088   3.896   4.614  10.880 -0.0407  0.3006 -0.5807
 5210SOL    HW127089   3.929   4.677  10.816  2.1530 -0.5592 -0.2696
 5210SOL    HW227090   3.979   4.574  10.904 -1.3249 -1.5783  0.7456
 5211SOL     OW27091   3.967   3.656   4.891 -0.2339  0.2033 -0.2471
 5211SOL    HW127092   4.007   3.725   4.838 -1.0643  0.5918 -0.3528
 5211SOL    HW227093   3.949   3.590   4.824 -1.2659 -1.2275  1.4345
 5212SOL     OW27094   4.445   1.124   5.548  0.4662  0.7929 -0.1172
 5212SOL    HW127095   4.519   1.121   5.486  0.3759  0.5540 -0.2138
 5212SOL    HW227096   4.472   1.196   5.605  0.8922 -0.0513  0.7458
 5213SOL     OW27097   2.685   2.130   2.500 -0.0851 -0.2658  0.2296
 5213SOL    HW127098   2.729   2.215   2.489 -0.1791 -0.1545  0.7453
 5213SOL    HW227099   2.637   2.146   2.581  0.6428  0.4540  0.5177
 5214SOL     OW27100   2.119   1.102   7.299 -0.2993  0.3240  0.3478
 5214SOL    HW127101   2.046   1.155   7.330 -0.1239  1.9123 -1.9105
 5214SOL    HW227102   2.172   1.111   7.378  3.0558  0.9648 -1.9546
 5215SOL     OW27103   1.563   0.378   8.009  0.1529  0.0496 -0.0038
 5215SOL    HW127104   1.577   0.287   7.983  3.9312 -0.2114  2.9161
 5215SOL    HW227105   1.521   0.358   8.093  1.0668 -3.1560 -0.3232
 5216SOL     OW27106   1.594   0.810   8.892  0.0961 -0.1622 -0.1196
 5216SOL    HW127107   1.548   0.726   8.889 -0.7232  0.2834  0.1650
 5216SOL    HW227108   1.616   0.828   8.801  1.9767 -1.7818  0.0021
 5217SOL     OW27109   2.362   3.117  16.699  0.3322  0.7990  0.2008
 5217SOL    HW127110   2.288   3.152  16.649 -0.1096  1.0118  1.0024
 5217SOL    HW227111   2.339   3.115  16.792  1.2532 -0.6675  0.3818
 5218SOL     OW27112   1.691   3.883   3.583  0.0218 -0.4489  0.6997
 5218SOL    HW127113   1.645   3.962   3.612 -1.1732 -0.7825 -0.2804
 5218SOL    HW227114   1.775   3.884   3.629 -0.2765 -0.6475  1.2471
 5219SOL     OW27115   3.234   0.910   0.128  0.7664  0.0561  0.5735
 5219SOL    HW127116   3.198   0.881   0.045 -0.4776  0.6282  0.9214
 5219SOL    HW227117   3.322   0.871   0.124  2.2079  2.9267  3.5985
 5220SOL     OW27118   3.043   1.810   1.472  0.1733 -0.1364  0.1689
 5220SOL    HW127119   3.121   1.858   1.498  0.3398  0.6370 -1.7686
 5220SOL    HW227120   3.082   1.729   1.438  0.0085 -0.2897  0.3411
 5221SOL     OW27121   1.393   4.521   2.065 -0.1958 -0.7487  0.2729
 5221SOL    HW127122   1.478   4.556   2.039 -0.1137 -1.3360 -0.2496
 5221SOL    HW227123   1.345   4.602   2.082 -1.2547 -1.5996  1.3893
 5222SOL     OW27124   0.694   2.979   6.262  0.2749  0.3433  0.5016
 5222SOL    HW127125   0.733   3.062   6.292  1.6059  0.4393 -1.5251
 5222SOL    HW227126   0.712   2.921   6.337 -0.4504  0.8152  1.0337
 5223SOL     OW27127   3.272   4.044   9.333  0.5863 -0.5457 -0.0948
 5223SOL    HW127128   3.225   4.006   9.258 -1.3563  0.5677  0.5834
 5223SOL    HW227129   3.366   4.025   9.331  0.9057  1.0490  0.4163
 5224SOL     OW27130   2.047   2.533   1.622 -0.0041  0.3135 -0.2538
 5224SOL    HW127131   2.112   2.502   1.560 -1.5434 -0.4212 -1.4769
 5224SOL    HW227132   2.016   2.446   1.647  0.1667  0.4535  0.4556
 5225SOL     OW27133   1.687   1.338   3.306 -0.5681  0.0482 -0.3070
 5225SOL    HW127134   1.705   1.270   3.371 -0.1622  1.0702  0.6512
 5225SOL    HW227135   1.740   1.308   3.232 -1.2064 -0.8686 -0.4023
 5226SOL     OW27136   0.036   3.400   9.340  0.5525 -0.1302  0.0415
 5226SOL    HW127137   0.053   3.486   9.378 -0.5494 -0.0117  0.2647
 5226SOL    HW227138   0.110   3.372   9.286 -0.1468  0.0844 -1.0164
 5227SOL     OW27139   0.021   2.504   9.353  0.1910  0.6381  0.3303
 5227SOL    HW127140   0.011   2.421   9.305 -0.3665  0.6600  0.4107
 5227SOL    HW227141   0.013   2.564   9.279 -1.7033 -2.4142 -1.9574
 5228SOL     OW27142   1.274   0.097   4.859  0.9555  0.4517 -0.4612
 5228SOL    HW127143   1.211   0.111   4.788 -0.3019 -2.5915  0.0398
 5228SOL    HW227144   1.353   0.087   4.807 -0.8018 -2.4485 -2.5877
 5229SOL     OW27145   3.424   1.161   7.627  0.5051 -0.4831 -0.0829
 5229SOL    HW127146   3.406   1.125   7.714 -0.6281 -0.3042 -0.2400
 5229SOL    HW227147   3.398   1.252   7.643  0.5108 -0.4938 -0.0106
 5230SOL     OW27148   4.365   0.501  15.945 -0.7955 -0.3564 -0.4750
 5230SOL    HW127149   4.417   0.449  15.884 -1.2255  1.0975 -2.0543
 5230SOL    HW227150   4.306   0.549  15.887 -0.1044 -0.4806 -1.2738
 5231SOL     OW27151   2.784   2.563  15.883  0.2597 -0.2517 -0.1070
 5231SOL    HW127152   2.695   2.564  15.917 -0.0342  0.2612 -0.9030
 5231SOL    HW227153   2.820   2.648  15.908 -1.6612  0.2584  0.9168
 5232SOL     OW27154   3.793   1.685  15.717 -0.7501  0.5311 -0.3012
 5232SOL    HW127155   3.809   1.618  15.784 -0.1185  0.3999 -0.5887
 5232SOL    HW227156   3.713   1.652  15.677 -1.3357  2.0835 -0.4125
 5233SOL     OW27157   1.035   1.911   6.365  0.1386  0.0024 -0.0586
 5233SOL    HW127158   1.096   1.846   6.400  0.3311 -0.7069 -1.6813
 5233SOL    HW227159   1.042   1.988   6.421 -1.2557 -1.1640  1.7156
 5234SOL     OW27160   0.248   2.920   1.890 -0.0057 -0.5824  1.3316
 5234SOL    HW127161   0.166   2.874   1.904 -1.5317  1.3951 -0.9541
 5234SOL    HW227162   0.223   2.965   1.809 -0.0769 -0.2097  1.5587
 5235SOL     OW27163   0.533   3.863   7.210  0.2630  0.2833 -0.5643
 5235SOL    HW127164   0.582   3.790   7.171 -2.0828 -1.6366  0.0815
 5235SOL    HW227165   0.440   3.847   7.196  0.0463  1.3080 -0.2355
 5236SOL     OW27166   3.872   0.340   3.501 -0.1111 -0.0041  0.1869
 5236SOL    HW127167   3.868   0.421   3.450 -0.0516  1.1188  1.9564
 5236SOL    HW227168   3.953   0.309   3.461  0.4377  0.4859  0.9176
 5237SOL     OW27169   4.241   1.491   0.704  0.0629  0.0808  0.0300
 5237SOL    HW127170   4.170   1.545   0.737  2.0327  2.6731  0.0727
 5237SOL    HW227171   4.197   1.406   0.706  0.2555  0.0493  3.1205
 5238SOL     OW27172   1.778   0.382  12.902  0.2062  0.7009  0.2515
 5238SOL    HW127173   1.727   0.302  12.915 -0.3469  0.9369 -0.4825
 5238SOL    HW227174   1.718   0.439  12.854 -1.1082 -0.9186 -0.0179
 5239SOL     OW27175   1.879   2.734   1.616 -0.4576  0.0579  0.6702
 5239SOL    HW127176   1.937   2.800   1.580  0.6404 -1.4588 -0.3285
 5239SOL    HW227177   1.936   2.658   1.627  2.2343  1.8544 -1.1565
 5240SOL     OW27178   2.837   3.459   2.907 -0.3707  0.6428  0.0488
 5240SOL    HW127179   2.927   3.477   2.935 -0.3102  0.8579 -0.2899
 5240SOL    HW227180   2.856   3.383   2.852 -0.3966  0.3306  0.4683
 5241SOL     OW27181   3.687   2.235   3.931 -0.1700 -0.2488 -0.4884
 5241SOL    HW127182   3.747   2.297   3.887 -1.0078  1.7693  1.1929
 5241SOL    HW227183   3.664   2.198   3.846  1.7412 -2.7247  0.0700
 5242SOL     OW27184   3.996   3.983   7.663 -0.0448  1.0425  0.3354
 5242SOL    HW127185   3.925   4.048   7.664 -1.1460 -0.2002  2.3277
 5242SOL    HW227186   3.955   3.910   7.708  0.0595  0.7709 -0.0093
 5243SOL     OW27187   0.855   1.539   2.846  0.4536  0.1469 -0.3672
 5243SOL    HW127188   0.892   1.580   2.768 -1.5784 -0.5603 -1.7218
 5243SOL    HW227189   0.790   1.487   2.800 -1.0430  1.2300  0.5037
 5244SOL     OW27190   2.870   2.180   6.703  0.4539  0.9444 -0.5129
 5244SOL    HW127191   2.828   2.214   6.624 -0.0374  0.6835 -0.3671
 5244SOL    HW227192   2.860   2.254   6.763 -0.1757  1.1403 -0.8629
 5245SOL     OW27193   0.054   0.945   2.075 -0.6185  0.5078 -0.3414
 5245SOL    HW127194   4.680   0.930   2.062 -0.3945 -0.4964 -0.8290
 5245SOL    HW227195   0.082   0.902   1.995  0.3482 -1.0505  0.8412
 5246SOL     OW27196   0.717   2.366   8.576 -0.2306 -0.0367 -0.0972
 5246SOL    HW127197   0.782   2.296   8.572  0.5767  0.5171  2.8030
 5246SOL    HW227198   0.765   2.435   8.530 -1.4467  0.0257 -1.2407
 5247SOL     OW27199   1.955   1.165   3.274  0.4498 -0.5209 -0.5139
 5247SOL    HW127200   1.894   1.099   3.240 -0.3665  0.3998 -0.8027
 5247SOL    HW227201   1.969   1.137   3.365  0.4694 -1.5899 -0.8369
 5248SOL     OW27202   0.109   2.059   1.915 -0.5195  0.1084  0.3133
 5248SOL    HW127203   0.035   2.053   1.976 -1.1441  2.0498 -0.2619
 5248SOL    HW227204   0.087   2.150   1.896  1.1839  0.8593  1.9093
 5249SOL     OW27205   3.743   2.192  15.772 -0.5420 -0.8995 -0.2700
 5249SOL    HW127206   3.687   2.243  15.714 -0.2163  2.8343  2.7146
 5249SOL    HW227207   3.710   2.207  15.861  0.6555  0.1911 -0.0234
 5250SOL     OW27208   4.279   4.146   4.531 -0.2511  0.0381 -0.3675
 5250SOL    HW127209   4.313   4.123   4.618 -2.6808 -2.5013 -0.1058
 5250SOL    HW227210   4.353   4.125   4.473 -0.3121 -0.7917 -0.1513
 5251SOL     OW27211   1.290   0.840  15.803  0.6608  0.4214 -0.1688
 5251SOL    HW127212   1.321   0.879  15.884 -0.3458 -0.5839  0.6954
 5251SOL    HW227213   1.259   0.921  15.762  0.3814  0.6806  0.5701
 5252SOL     OW27214   1.231   1.950   5.632 -0.0791  0.0957 -0.3280
 5252SOL    HW127215   1.256   2.042   5.632 -0.1689  0.1177  0.3450
 5252SOL    HW227216   1.222   1.928   5.539 -0.0721  2.6835 -0.9537
 5253SOL     OW27217   1.263   3.074   1.783 -0.4210  0.2967  0.1322
 5253SOL    HW127218   1.307   3.112   1.707 -0.0406 -0.5500 -0.0717
 5253SOL    HW227219   1.329   3.014   1.816  0.4042  0.7992 -0.6279
 5254SOL     OW27220   3.201   2.720  12.064 -0.4078 -0.3511  0.1197
 5254SOL    HW127221   3.181   2.809  12.034 -0.8511 -0.5961 -0.3010
 5254SOL    HW227222   3.155   2.678  11.991 -0.1705 -0.5384  0.0771
 5255SOL     OW27223   3.745   2.084   6.809  0.3076  0.0936  0.4299
 5255SOL    HW127224   3.730   2.029   6.886 -2.8616  0.5284  0.1201
 5255SOL    HW227225   3.721   2.165   6.855  0.7977  1.5323 -1.8790
 5256SOL     OW27226   0.494   3.988  17.295 -0.2473  0.1390  0.7851
 5256SOL    HW127227   0.584   3.975  17.265 -1.0414  0.6386 -1.7902
 5256SOL    HW227228   0.461   4.060  17.242 -1.0579 -2.1836 -1.8839
 5257SOL     OW27229   2.406   2.701   4.013 -0.5458  0.5604 -0.5265
 5257SOL    HW127230   2.367   2.725   4.097 -0.8636  1.4213 -0.9201
 5257SOL    HW227231   2.330   2.660   3.971  0.6722  0.0398 -2.2184
 5258SOL     OW27232   4.324   0.052  17.479  0.7376  0.1497  0.2653
 5258SOL    HW127233   4.230   0.061  17.496  1.0482  0.6366  1.7540
 5258SOL    HW227234   4.330   4.680  17.455  2.5659  0.5961 -0.9541
 5259SOL     OW27235   1.360   3.363  11.704  0.4695 -0.5360 -0.1520
 5259SOL    HW127236   1.304   3.304  11.755  1.9475 -0.3849  1.6627
 5259SOL    HW227237   1.291   3.415  11.662  1.9376 -1.2575 -3.4720
 5260SOL     OW27238   0.511   2.387  13.207 -0.1559  0.0462 -0.3738
 5260SOL    HW127239   0.511   2.381  13.112 -1.0560  1.2524 -0.4445
 5260SOL    HW227240   0.422   2.419  13.226  0.6116  1.7898  0.3464
 5261SOL     OW27241   2.737   4.147   6.142 -0.5635  0.4912  0.2379
 5261SOL    HW127242   2.763   4.070   6.192 -1.5869 -0.1571 -0.2254
 5261SOL    HW227243   2.715   4.110   6.056  2.0471  0.8883 -0.6055
 5262SOL     OW27244   0.858   4.146   4.522  0.0237  0.4303 -0.3529
 5262SOL    HW127245   0.936   4.143   4.577 -0.3147 -2.0264  0.0053
 5262SOL    HW227246   0.799   4.169   4.594 -0.6462 -1.4247 -0.2934
 5263SOL     OW27247   2.181   1.753  16.233  0.2173  0.2672  0.2491
 5263SOL    HW127248   2.139   1.668  16.244 -2.4030  1.4026 -1.0270
 5263SOL    HW227249   2.200   1.755  16.139 -2.0246 -0.9517 -0.2313
 5264SOL     OW27250   3.748   3.722   0.463  0.2605  0.1140 -0.0432
 5264SOL    HW127251   3.699   3.775   0.525  0.3796 -1.2249  1.1997
 5264SOL    HW227252   3.710   3.635   0.451 -2.4058  1.1327  1.1529
 5265SOL     OW27253   4.362   1.017   1.148 -0.0526  0.4246  0.4538
 5265SOL    HW127254   4.449   0.994   1.117 -0.1432  1.8303 -0.8447
 5265SOL    HW227255   4.377   1.076   1.222  0.4863 -0.4808  1.0599
 5266SOL     OW27256   0.479   3.721  17.108  0.0659  0.1788  0.4524
 5266SOL    HW127257   0.566   3.746  17.137  0.2218  1.7466 -1.3843
 5266SOL    HW227258   0.436   3.799  17.143  0.8165  0.4638  0.7195
 5267SOL     OW27259   3.026   3.599   8.709  0.5953  0.1952  0.4601
 5267SOL    HW127260   2.985   3.682   8.686  1.2474  0.0958 -1.0470
 5267SOL    HW227261   3.116   3.619   8.683  0.4440  0.6666  0.2940
 5268SOL     OW27262   0.148   0.702   1.551 -0.1495 -0.2548 -0.0919
 5268SOL    HW127263   0.131   0.733   1.462 -2.0813  0.0368  0.3988
 5268SOL    HW227264   0.240   0.683   1.529  0.1609  1.3849 -0.1641
 5269SOL     OW27265   1.151   3.053   1.169 -0.2830  0.2629  0.0723
 5269SOL    HW127266   1.199   3.042   1.251 -1.8892 -0.8348  0.8427
 5269SOL    HW227267   1.209   3.004   1.110 -0.2373 -0.2146  0.5117
 5270SOL     OW27268   3.273   0.690   4.618 -0.2587 -0.2251  0.0296
 5270SOL    HW127269   3.264   0.625   4.688 -1.2568  0.5815  0.6542
 5270SOL    HW227270   3.353   0.729   4.652 -1.0992  1.9502 -0.4363
 5271SOL     OW27271   2.977   2.605   6.782  0.1343  0.3553  0.2129
 5271SOL    HW127272   2.941   2.685   6.821  0.3469 -0.4691  2.0986
 5271SOL    HW227273   2.965   2.626   6.689 -0.6109 -2.0002 -0.2165
 5272SOL     OW27274   1.485   4.365   5.614  0.1673  0.4970  0.3121
 5272SOL    HW127275   1.446   4.404   5.693  1.5728  1.4715  0.5194
 5272SOL    HW227276   1.411   4.372   5.554  1.1010  2.1584 -0.6503
 5273SOL     OW27277   2.967   2.190   8.944  0.6783  0.3771 -1.0138
 5273SOL    HW127278   2.980   2.140   8.863  1.3208 -1.3895  0.1830
 5273SOL    HW227279   2.956   2.112   8.998 -0.2601  1.1118 -0.1482
 5274SOL     OW27280   2.726   1.310   4.565  0.5204 -0.2846  0.0058
 5274SOL    HW127281   2.690   1.314   4.654 -1.9667  0.1933 -1.0300
 5274SOL    HW227282   2.684   1.227   4.541 -0.1191 -0.3197  1.2416
 5275SOL     OW27283   2.954   0.538   7.658  0.2640  0.0814  0.0420
 5275SOL    HW127284   2.999   0.613   7.697  1.2245 -0.2930 -0.3552
 5275SOL    HW227285   2.863   0.566   7.668  0.3545  0.3694  0.0690
 5276SOL     OW27286   2.152   1.578   5.981 -0.2838  0.1819 -0.0923
 5276SOL    HW127287   2.074   1.573   6.036  0.2765  2.3715  0.8770
 5276SOL    HW227288   2.214   1.580   6.054 -0.1062 -0.7283 -0.2220
 5277SOL     OW27289   2.937   1.931   7.490 -0.3310  0.0276 -0.9300
 5277SOL    HW127290   2.902   2.020   7.479 -2.8570 -1.0435 -1.5955
 5277SOL    HW227291   2.922   1.923   7.584  2.1417 -1.9602 -0.7094
 5278SOL     OW27292   3.970   3.202   5.634  0.2529 -0.1375  0.4265
 5278SOL    HW127293   3.941   3.192   5.724 -0.1181 -2.8676  0.0238
 5278SOL    HW227294   3.982   3.114   5.597 -2.0292 -0.8136  1.2710
 5279SOL     OW27295   1.333   4.382   7.755 -0.2067  0.0701  0.1097
 5279SOL    HW127296   1.362   4.449   7.817  2.7657 -0.7905 -0.3587
 5279SOL    HW227297   1.382   4.305   7.785 -1.0983 -0.4591  0.2278
 5280SOL     OW27298   1.126   0.453   4.491  0.1288  0.6339  0.6760
 5280SOL    HW127299   1.206   0.464   4.441 -0.3464 -0.0223 -0.2184
 5280SOL    HW227300   1.133   0.522   4.557 -1.0422 -1.0385  2.5666
 5281SOL     OW27301   1.298   1.969   8.561 -0.2257 -0.2118  0.1315
 5281SOL    HW127302   1.300   1.957   8.466  0.1098 -0.3028  0.1517
 5281SOL    HW227303   1.297   1.880   8.598 -1.6306 -1.1096 -2.0315
 5282SOL     OW27304   3.486   4.301   0.538  0.2319 -0.3540  0.5329
 5282SOL    HW127305   3.456   4.332   0.623  1.4730  1.2122  0.4190
 5282SOL    HW227306   3.403   4.295   0.490  1.0703 -1.1336 -0.8437
 5283SOL     OW27307   1.967   0.937   5.176  0.4528 -0.3695 -0.0802
 5283SOL    HW127308   1.961   0.928   5.081 -3.1096  1.7115 -0.0327
 5283SOL    HW227309   1.883   0.900   5.201  0.1282  1.2006  1.1405
 5284SOL     OW27310   3.330   2.327   2.552 -0.3709 -0.3883  0.3744
 5284SOL    HW127311   3.371   2.281   2.625  0.5316  1.3407  0.9574
 5284SOL    HW227312   3.256   2.272   2.528 -1.5971  1.8794 -1.0857
 5285SOL     OW27313   4.497   4.304   6.527 -0.2300  0.0294  0.3042
 5285SOL    HW127314   4.454   4.293   6.443 -0.4727 -0.4267  0.4826
 5285SOL    HW227315   4.502   4.398   6.544 -0.7962  0.0882  0.1440
 5286SOL     OW27316   3.109   1.836   7.714  0.0358 -0.1489  0.0767
 5286SOL    HW127317   3.075   1.819   7.802  1.4882 -0.4992  0.5736
 5286SOL    HW227318   3.112   1.747   7.680  0.7893  0.8018 -2.3431
 5287SOL     OW27319   2.557   1.882  13.595 -0.0086  0.1338  0.0761
 5287SOL    HW127320   2.602   1.872  13.511 -0.6064  0.7554 -0.3163
 5287SOL    HW227321   2.474   1.836  13.582  0.9823 -1.8704  0.9036
 5288SOL     OW27322   3.132   1.047   1.851 -0.2338 -0.1764 -0.4839
 5288SOL    HW127323   3.186   1.123   1.830 -0.0035 -0.9359 -2.6538
 5288SOL    HW227324   3.049   1.084   1.820 -1.5508 -1.9740  0.8577
 5289SOL     OW27325   1.791   3.944   2.257  0.2029  0.7220  0.2784
 5289SOL    HW127326   1.726   3.873   2.256  0.9398  0.0154  2.0804
 5289SOL    HW227327   1.792   3.974   2.348  3.2154  0.9758  0.1443
 5290SOL     OW27328   2.880   3.677   0.878  0.3670 -0.4053  0.4832
 5290SOL    HW127329   2.792   3.671   0.842  1.0270 -0.2118 -1.1878
 5290SOL    HW227330   2.857   3.719   0.960  1.4299  0.8195  0.1474
 5291SOL     OW27331   2.537   2.512   4.152  0.0329 -0.1124  0.4518
 5291SOL    HW127332   2.467   2.461   4.191  1.4597 -1.5776  1.1039
 5291SOL    HW227333   2.491   2.573   4.094  0.0647  0.3367  0.8985
 5292SOL     OW27334   0.996   2.846   4.998 -0.6590  0.9739  0.2420
 5292SOL    HW127335   0.941   2.869   4.923  1.7993  0.8375 -1.5748
 5292SOL    HW227336   1.043   2.765   4.979  1.2762  1.5294  2.6632
 5293SOL     OW27337   0.317   1.364   7.085 -0.4684 -0.2692 -0.3950
 5293SOL    HW127338   0.302   1.285   7.033 -0.2740 -0.4695 -0.1483
 5293SOL    HW227339   0.228   1.382   7.115 -0.5262  0.4283 -0.9798
 5294SOL     OW27340   0.760   2.219   3.772  0.1856  0.3254 -0.0684
 5294SOL    HW127341   0.845   2.191   3.737 -0.2485 -0.4022 -0.5429
 5294SOL    HW227342   0.775   2.198   3.864  0.4853  1.9634  0.2388
 5295SOL     OW27343   3.215   0.470   6.394  0.7673  0.1420  0.3958
 5295SOL    HW127344   3.301   0.506   6.417  0.8228  0.6932 -0.7055
 5295SOL    HW227345   3.164   0.516   6.460 -0.5056 -0.1871 -0.3689
 5296SOL     OW27346   3.036   1.636  14.688 -0.8937  0.0371 -0.2134
 5296SOL    HW127347   3.114   1.585  14.710 -0.6472  0.4351 -0.1702
 5296SOL    HW227348   3.080   1.702  14.634  0.6068 -2.4511 -2.0442
 5297SOL     OW27349   2.213   1.546   5.717 -0.6150 -0.4493 -0.0210
 5297SOL    HW127350   2.303   1.572   5.734 -0.3510 -0.3373 -1.5985
 5297SOL    HW227351   2.173   1.545   5.803  0.5058 -0.0902  0.5039
 5298SOL     OW27352   2.815   3.910  12.004 -0.6171  0.0818  0.2689
 5298SOL    HW127353   2.838   3.936  12.093 -0.8697  4.1899 -0.8646
 5298SOL    HW227354   2.793   3.822  12.035  0.3750 -1.0560 -2.2297
 5299SOL     OW27355   4.654   2.743  10.047  0.0251  0.3435  0.0161
 5299SOL    HW127356   4.638   2.701   9.962 -0.4620  0.6532 -0.0429
 5299SOL    HW227357   0.003   2.804  10.020 -0.2457 -0.5396 -2.6728
 5300SOL     OW27358   3.554   3.340   4.620 -0.3955  0.2643  0.0169
 5300SOL    HW127359   3.636   3.346   4.571  0.7813  1.0796  2.0654
 5300SOL    HW227360   3.495   3.292   4.563 -0.4870 -0.0643  0.3848
 5301SOL     OW27361   0.096   1.694   6.979  0.8738 -0.5956  0.2822
 5301SOL    HW127362   0.182   1.729   6.954  1.9719 -2.5735  1.2814
 5301SOL    HW227363   0.068   1.767   7.035  1.6863  0.3318 -0.5154
 5302SOL     OW27364   2.899   4.087   3.391  0.1650 -0.6607 -0.2297
 5302SOL    HW127365   2.941   4.054   3.471  1.4869 -0.6035 -0.8971
 5302SOL    HW227366   2.895   4.180   3.412 -0.4302 -1.2296  2.1841
 5303SOL     OW27367   2.787   0.047   1.302 -0.0522 -0.5069 -0.5633
 5303SOL    HW127368   2.763   0.140   1.292 -1.3590 -0.8542 -0.6424
 5303SOL    HW227369   2.704   0.004   1.325  0.1575 -0.6062  0.0106
 5304SOL     OW27370   3.597   0.665  11.473 -0.4686  0.0755  0.3939
 5304SOL    HW127371   3.565   0.755  11.463  2.1226  0.9206 -0.5446
 5304SOL    HW227372   3.556   0.647  11.557 -1.1583 -0.0370  0.0262
 5305SOL     OW27373   2.121   1.102   4.182 -0.3947  0.0571 -0.0620
 5305SOL    HW127374   2.198   1.147   4.147  0.7325 -0.9913  1.0456
 5305SOL    HW227375   2.166   1.023   4.213  0.5972  0.4410 -0.5184
 5306SOL     OW27376   0.558   0.055  11.654  0.7551  0.4891 -0.0320
 5306SOL    HW127377   0.531   0.143  11.626  0.3438  0.4681  0.3076
 5306SOL    HW227378   0.532   0.008  11.575 -1.7555 -0.5462  1.4300
 5307SOL     OW27379   0.804   3.831   8.732  0.2936  0.0581 -0.6550
 5307SOL    HW127380   0.865   3.783   8.787 -1.0248 -0.6561  0.1830
 5307SOL    HW227381   0.744   3.757   8.719  1.5036 -0.9114 -0.7059
 5308SOL     OW27382   1.009   4.247   1.723  0.3081 -0.5997  0.1262
 5308SOL    HW127383   0.981   4.158   1.704 -0.7557 -0.6521  1.9368
 5308SOL    HW227384   1.076   4.237   1.791  0.6268  2.4871  0.2808
 5309SOL     OW27385   1.042   4.636   1.408 -0.1339  0.3534 -0.1950
 5309SOL    HW127386   1.113   4.629   1.344  0.1768 -0.3549  0.2274
 5309SOL    HW227387   1.087   4.652   1.491 -0.3565 -3.0562  0.5860
 5310SOL     OW27388   4.447   4.377   1.900  0.1396  0.2985 -0.6145
 5310SOL    HW127389   4.503   4.449   1.871 -2.0973  3.0675  1.8393
 5310SOL    HW227390   4.362   4.389   1.858  1.5251 -1.7962 -4.0026
 5311SOL     OW27391   4.330   1.962   8.459 -0.5529  0.0541  0.1992
 5311SOL    HW127392   4.328   1.907   8.538  2.9236 -0.0030  0.2610
 5311SOL    HW227393   4.424   1.979   8.448 -0.5385  0.3399  0.7266
 5312SOL     OW27394   0.294   2.921   4.418 -0.8048 -0.3878 -0.3982
 5312SOL    HW127395   0.199   2.919   4.431 -0.7069  2.5397  0.7186
 5312SOL    HW227396   0.311   2.828   4.433 -5.3582 -1.1378  0.1644
 5313SOL     OW27397   2.421   0.037   3.389  0.0146 -0.4983  0.0044
 5313SOL    HW127398   2.370   0.041   3.308  0.2843 -1.8281 -0.2301
 5313SOL    HW227399   2.507   0.074   3.369 -0.5551  0.7295 -0.2244
 5314SOL     OW27400   3.873   1.346  17.211  0.2965  0.9672  0.1695
 5314SOL    HW127401   3.886   1.424  17.264  0.4603  2.5134 -2.1670
 5314SOL    HW227402   3.795   1.309  17.253  0.5278  0.3298  0.0327
 5315SOL     OW27403   3.078   1.813   8.072  0.3442  0.1040  0.0470
 5315SOL    HW127404   3.152   1.790   8.129 -1.9403 -0.8568  2.6587
 5315SOL    HW227405   3.067   1.905   8.095  0.0881 -0.4040  2.0090
 5316SOL     OW27406   3.944   1.344   3.444  0.1290 -0.7002 -0.3025
 5316SOL    HW127407   4.034   1.378   3.441  0.8282 -2.4600  0.5324
 5316SOL    HW227408   3.966   1.256   3.414 -1.3496 -1.3338  0.4811
 5317SOL     OW27409   3.174   0.716  17.634 -0.5119  0.2616  0.1897
 5317SOL    HW127410   3.094   0.674  17.602 -0.5477 -0.6011  1.4114
 5317SOL    HW227411   3.242   0.664  17.590  0.3302  0.7502  0.9406
 5318SOL     OW27412   0.825   0.962   7.090  0.1397  0.1156  0.2219
 5318SOL    HW127413   0.756   0.895   7.094  0.0455  0.1183 -1.3002
 5318SOL    HW227414   0.845   0.983   6.999  0.5886  1.4519  0.6285
 5319SOL     OW27415   0.167   0.043   5.919  0.1488 -0.4680  0.0050
 5319SOL    HW127416   0.078   0.011   5.936  0.4975 -0.5679  1.6363
 5319SOL    HW227417   0.155   0.122   5.866  0.0558  0.7773  1.8787
 5320SOL     OW27418   3.522   3.297   6.919  0.1687  0.0122  0.8890
 5320SOL    HW127419   3.551   3.206   6.925 -0.9358 -0.2218  3.0314
 5320SOL    HW227420   3.498   3.306   7.012  0.6557 -1.2166  1.1319
 5321SOL     OW27421   2.786   2.913  15.117 -0.2099  0.0585  0.1036
 5321SOL    HW127422   2.691   2.923  15.120  0.2350  3.9442  1.5993
 5321SOL    HW227423   2.798   2.839  15.176 -0.2743 -1.2435 -1.5096
 5322SOL     OW27424   0.069   0.162   3.264 -0.1490  0.1079 -0.4393
 5322SOL    HW127425   0.051   0.122   3.180 -2.3920 -0.6213  0.3768
 5322SOL    HW227426   0.010   0.236   3.248  1.0272  1.2459  0.4770
 5323SOL     OW27427   1.585   2.476   7.498 -0.3372  0.6726 -0.5615
 5323SOL    HW127428   1.563   2.513   7.413  1.0432  0.0240 -1.2109
 5323SOL    HW227429   1.660   2.531   7.520  0.5028 -0.4258 -0.6718
 5324SOL     OW27430   0.142   3.735   5.014  0.7415 -0.5608 -0.0458
 5324SOL    HW127431   0.186   3.687   4.943 -2.5381 -2.9671 -0.4675
 5324SOL    HW227432   0.217   3.755   5.070 -0.5025 -0.3164  1.5203
 5325SOL     OW27433   2.667   0.092   8.551  0.0139 -0.0272  0.2502
 5325SOL    HW127434   2.581   0.133   8.547  0.1665  0.3045  0.3582
 5325SOL    HW227435   2.652   0.005   8.587 -0.9246 -0.8212 -2.1033
 5326SOL     OW27436   4.065   0.194   0.782  0.0294  0.7510  0.4369
 5326SOL    HW127437   4.100   0.193   0.692 -1.5434 -0.3905 -0.1673
 5326SOL    HW227438   3.980   0.153   0.767  0.2113 -0.0836  1.7633
 5327SOL     OW27439   4.571   4.648   2.015  0.0643 -0.2718  0.5038
 5327SOL    HW127440   4.609   4.616   1.933 -1.4050  0.5951 -0.5359
 5327SOL    HW227441   4.649   4.646   2.069  2.4250  0.6664 -2.8908
 5328SOL     OW27442   3.581   3.108   7.327 -0.1720  0.7363  0.1152
 5328SOL    HW127443   3.531   3.041   7.373 -0.7932 -0.2159 -1.9442
 5328SOL    HW227444   3.628   3.147   7.401 -0.7827  1.5083  0.0994
 5329SOL     OW27445   4.004   2.349   3.180  0.0361  0.0001  0.3599
 5329SOL    HW127446   3.910   2.351   3.164  0.1297 -0.3525 -0.2631
 5329SOL    HW227447   4.013   2.399   3.261  1.3163 -2.0822  1.4926
 5330SOL     OW27448   3.964   3.741   7.373  0.2318 -0.0512  0.2308
 5330SOL    HW127449   4.036   3.725   7.311 -0.3396  0.5119 -0.5662
 5330SOL    HW227450   3.903   3.792   7.321 -1.1351 -1.7829  0.1205
 5331SOL     OW27451   3.971   2.714   1.973 -0.0412  0.4626 -0.5636
 5331SOL    HW127452   3.947   2.624   1.951 -1.7960  1.2069 -1.6258
 5331SOL    HW227453   4.026   2.738   1.899  1.0936 -1.1462 -0.2593
 5332SOL     OW27454   3.962   2.734   3.447 -0.5964  0.1934  0.2258
 5332SOL    HW127455   3.947   2.703   3.358  1.8222 -1.6806  0.4754
 5332SOL    HW227456   4.023   2.807   3.432 -1.7490  1.3790  1.2984
 5333SOL     OW27457   3.404   0.285   6.675  0.7345  0.2047  0.0960
 5333SOL    HW127458   3.410   0.381   6.665  0.4009  0.1087 -1.0440
 5333SOL    HW227459   3.465   0.256   6.606  1.5826  2.3134 -0.0675
 5334SOL     OW27460   1.311   1.159   2.213 -0.0728  0.3834 -0.0967
 5334SOL    HW127461   1.288   1.068   2.197 -0.9175  0.6525 -0.4028
 5334SOL    HW227462   1.338   1.178   2.123 -1.6483  0.4568 -0.5390
 5335SOL     OW27463   0.802   1.372   6.173  0.0419  0.5304 -0.3622
 5335SOL    HW127464   0.840   1.373   6.086 -0.4382  0.5044 -0.5716
 5335SOL    HW227465   0.758   1.287   6.170  0.0927  0.5034 -0.3473
 5336SOL     OW27466   3.680   1.835  15.252  0.0055  0.1943  0.3512
 5336SOL    HW127467   3.730   1.881  15.320  1.4618 -0.0125 -0.5849
 5336SOL    HW227468   3.592   1.836  15.290  1.0995  1.2875  2.8462
 5337SOL     OW27469   4.164   0.778  12.469  0.2343  0.4850  0.2168
 5337SOL    HW127470   4.203   0.795  12.554 -1.0463 -0.7495  1.0563
 5337SOL    HW227471   4.071   0.754  12.479  0.6874 -0.7712  1.3249
 5338SOL     OW27472   4.418   4.705   8.125  0.4457  0.2189  0.8278
 5338SOL    HW127473   4.410   0.038   8.204  0.4371  0.1940  0.8439
 5338SOL    HW227474   4.401   4.617   8.160  2.1519  0.3197  1.9056
 5339SOL     OW27475   1.159   0.563   2.060  0.2149 -0.4834  0.0716
 5339SOL    HW127476   1.254   0.575   2.066  0.1147 -1.0515  2.6192
 5339SOL    HW227477   1.151   0.469   2.075  0.8724 -0.4516  0.6117
 5340SOL     OW27478   3.518   1.854  11.067 -0.1029  0.6544  0.2488
 5340SOL    HW127479   3.551   1.889  11.150  2.1582 -0.0490 -0.3767
 5340SOL    HW227480   3.597   1.815  11.033 -1.5028 -0.3131 -1.8712
 5341SOL     OW27481   0.292   2.288   4.260  0.3584  0.4169  0.0319
 5341SOL    HW127482   0.237   2.251   4.329  0.4547 -1.5189 -0.9221
 5341SOL    HW227483   0.241   2.291   4.179 -1.4670  1.2331  1.2260
 5342SOL     OW27484   0.708   2.086   6.778  0.0928 -0.2819 -0.2461
 5342SOL    HW127485   0.751   2.001   6.768  0.9495  0.3116 -1.6286
 5342SOL    HW227486   0.630   2.068   6.724  0.2820  0.4121 -0.7506
 5343SOL     OW27487   1.346   0.677  17.231  0.1189  0.1157  0.3679
 5343SOL    HW127488   1.280   0.739  17.264 -1.6814 -0.6279 -1.7889
 5343SOL    HW227489   1.413   0.716  17.287  1.8026 -1.8418 -0.3030
 5344SOL     OW27490   3.000   4.606   6.382  0.2517 -0.3569 -0.7522
 5344SOL    HW127491   3.056   4.546   6.432  0.0220  0.5856  0.6323
 5344SOL    HW227492   3.063   4.668   6.347 -0.6815  1.3647  0.6358
 5345SOL     OW27493   0.513   1.345   5.152  0.0097 -0.4070  1.0245
 5345SOL    HW127494   0.567   1.418   5.184  0.3965  0.6436 -2.0696
 5345SOL    HW227495   0.446   1.396   5.106  1.7981 -0.9015 -2.1366
 5346SOL     OW27496   1.929   3.882   4.022 -0.0054  0.1914 -0.3386
 5346SOL    HW127497   1.968   3.969   4.033  0.0830  0.1193 -0.0612
 5346SOL    HW227498   1.848   3.887   4.073 -1.4521 -0.1704 -2.6324
 5347SOL     OW27499   4.677   2.838   5.614  0.1162  0.2325 -0.3934
 5347SOL    HW127500   4.672   2.899   5.540  1.3831  2.2405  1.1805
 5347SOL    HW227501   0.045   2.807   5.596 -1.0689 -1.8170 -2.8012
 5348SOL     OW27502   3.255   2.891   8.466 -0.5481 -0.5941 -0.0884
 5348SOL    HW127503   3.312   2.922   8.395 -2.2648 -0.0367 -1.2230
 5348SOL    HW227504   3.201   2.969   8.473 -2.6715 -1.9908 -0.7956
 5349SOL     OW27505   0.016   1.746  10.651 -0.4464 -0.0838 -0.0776
 5349SOL    HW127506   4.713   1.655  10.665  0.7593 -0.6721 -1.9196
 5349SOL    HW227507   0.111   1.741  10.643 -0.4177  1.1371 -0.6582
 5350SOL     OW27508   0.185   3.931   6.517  0.6002 -0.0021  1.3091
 5350SOL    HW127509   0.145   3.846   6.537 -1.0027  0.4782  0.0918
 5350SOL    HW227510   0.127   3.967   6.451  0.1346  1.1118  2.3246
 5351SOL     OW27511   2.632   0.061   9.760  0.1463  0.3503 -0.4818
 5351SOL    HW127512   2.715   0.078   9.715  1.5657  0.4346  2.1357
 5351SOL    HW227513   2.650   0.091   9.849 -1.8298  2.7469 -0.8807
 5352SOL     OW27514   3.899   4.120  16.540  0.6026  0.0241 -0.1266
 5352SOL    HW127515   3.929   4.210  16.552  2.4090 -0.2983 -2.1664
 5352SOL    HW227516   3.915   4.085  16.627 -0.0999 -0.2897 -0.1267
 5353SOL     OW27517   0.421   3.415   5.614  0.8942  0.4408  0.1497
 5353SOL    HW127518   0.370   3.342   5.580  1.8429 -0.0794 -0.1616
 5353SOL    HW227519   0.505   3.385   5.649  0.9438  0.4177  0.0091
 5354SOL     OW27520   4.206   3.987   3.511 -0.6354 -0.2793 -0.0892
 5354SOL    HW127521   4.182   3.915   3.569  0.4015 -0.1985  0.4563
 5354SOL    HW227522   4.302   3.981   3.507 -0.9630 -3.6216 -2.2938
 5355SOL     OW27523   0.377   3.909   6.328 -0.0720 -0.1997 -0.1313
 5355SOL    HW127524   0.401   3.818   6.347 -1.6037 -0.4115  0.8208
 5355SOL    HW227525   0.293   3.925   6.372 -1.1084  0.2045 -2.2244
 5356SOL     OW27526   3.662   0.930   5.269 -0.1788  0.8189 -0.2372
 5356SOL    HW127527   3.713   0.948   5.190 -1.0158 -2.3965 -1.5323
 5356SOL    HW227528   3.733   0.891   5.320  1.6125  0.4897 -2.9837
 5357SOL     OW27529   0.422   3.854   5.456 -0.4098 -0.1684 -0.8529
 5357SOL    HW127530   0.380   3.770   5.439  0.1843 -0.4820 -0.7696
 5357SOL    HW227531   0.389   3.881   5.542 -2.7793 -0.1616 -1.7828
 5358SOL     OW27532   1.363   3.807   6.806  0.0478 -0.8471  0.3461
 5358SOL    HW127533   1.290   3.865   6.787  0.4289 -1.1242 -2.0504
 5358SOL    HW227534   1.430   3.866   6.841  1.5514 -0.9810 -2.2869
 5359SOL     OW27535   2.195   1.239  15.338 -0.5411 -0.0080  0.1787
 5359SOL    HW127536   2.208   1.328  15.306  0.7037 -0.0783  0.5175
 5359SOL    HW227537   2.240   1.248  15.422  1.4330 -2.8471 -0.5884
 5360SOL     OW27538   1.380   1.461  12.839 -0.3083  0.1050 -0.7609
 5360SOL    HW127539   1.309   1.400  12.857 -0.9556  1.2425  0.5800
 5360SOL    HW227540   1.336   1.530  12.790  0.4074  1.6540  0.7660
 5361SOL     OW27541   0.549   4.019   6.873  0.6224  0.0672 -0.1253
 5361SOL    HW127542   0.633   4.063   6.858  0.2118  0.4247 -1.3496
 5361SOL    HW227543   0.541   3.963   6.796 -1.7567 -1.5241  1.2820
 5362SOL     OW27544   2.486   3.948   7.981  0.7518  0.3837 -0.5764
 5362SOL    HW127545   2.501   3.922   7.891  0.2389 -1.9202  0.0025
 5362SOL    HW227546   2.504   4.042   7.986 -0.1916  0.5513 -0.4550
 5363SOL     OW27547   4.590   4.524   6.245 -0.8605 -0.0251  0.9230
 5363SOL    HW127548   4.573   4.560   6.333 -3.0134  1.9470 -0.3029
 5363SOL    HW227549   4.595   4.430   6.261  1.1033 -0.2779 -1.2369
 5364SOL     OW27550   4.408   1.396   1.764 -0.3739 -0.0025 -0.1339
 5364SOL    HW127551   4.342   1.396   1.695  1.7115  0.6610 -2.1320
 5364SOL    HW227552   4.358   1.462   1.812 -0.9439 -2.1790  2.3045
 5365SOL     OW27553   0.648   1.659   3.763 -0.3694 -0.6400  0.3522
 5365SOL    HW127554   0.681   1.640   3.675 -1.2894  1.3051 -0.4126
 5365SOL    HW227555   0.644   1.576   3.811  2.1306 -0.2792  1.1901
 5366SOL     OW27556   4.260   3.623   1.931 -0.2589 -0.2745  0.1504
 5366SOL    HW127557   4.187   3.686   1.930 -0.6007 -0.6639  0.4025
 5366SOL    HW227558   4.208   3.543   1.929 -1.4142  0.5215 -1.5067
 5367SOL     OW27559   2.163   4.708  14.094 -0.8787  0.4192 -0.2324
 5367SOL    HW127560   2.170   0.059  14.032  2.5923 -0.0503 -0.3707
 5367SOL    HW227561   2.138   0.032  14.175 -0.9846 -1.0795  0.5579
 5368SOL     OW27562   0.905   2.222  10.956 -0.1474  0.0769 -0.3040
 5368SOL    HW127563   0.935   2.148  11.009 -1.5343 -0.1297  0.1690
 5368SOL    HW227564   0.988   2.249  10.917  0.7077 -1.7204  0.2690
 5369SOL     OW27565   4.387   1.019  11.472  0.5337 -0.1369 -0.6400
 5369SOL    HW127566   4.359   1.013  11.381  3.8899 -1.6074 -1.5816
 5369SOL    HW227567   4.368   0.930  11.501 -0.7525  0.8690  1.6103
 5370SOL     OW27568   0.451   4.471   5.339  0.1010  0.2351 -0.2284
 5370SOL    HW127569   0.427   4.560   5.364  1.2108  0.7373 -0.9794
 5370SOL    HW227570   0.545   4.477   5.322  0.5194 -2.9224  0.9761
 5371SOL     OW27571   4.613   4.080   5.609 -0.2340  0.1104 -0.3289
 5371SOL    HW127572   4.554   4.034   5.549 -1.1402  0.6764  0.1256
 5371SOL    HW227573   4.568   4.083   5.693  0.3869 -4.4098  0.1659
 5372SOL     OW27574   0.806   1.742   6.305 -0.3061 -0.1067  0.0469
 5372SOL    HW127575   0.881   1.800   6.316 -1.3737  1.2652  0.0757
 5372SOL    HW227576   0.819   1.661   6.353 -2.1486 -0.9902 -0.9273
 5373SOL     OW27577   3.987   3.115  15.261  0.0279 -0.0695 -0.2118
 5373SOL    HW127578   3.906   3.127  15.212  0.1009  3.2954  0.5388
 5373SOL    HW227579   3.999   3.203  15.295 -0.8007 -0.3507  0.8128
 5374SOL     OW27580   2.551   1.757   2.304 -0.2495  0.3374 -0.0573
 5374SOL    HW127581   2.623   1.813   2.333 -1.8087  1.3036  1.9936
 5374SOL    HW227582   2.566   1.743   2.211 -0.6826 -0.4446 -0.0064
 5375SOL     OW27583   2.388   4.636  10.054  0.7557  0.3189  0.1703
 5375SOL    HW127584   2.336   4.562  10.088  0.5704  1.1287  1.6733
 5375SOL    HW227585   2.417   4.593   9.974 -0.0884  1.2960 -0.6581
 5376SOL     OW27586   4.334   1.152   5.888  0.4735 -0.4230 -0.1173
 5376SOL    HW127587   4.372   1.182   5.806  0.6100  0.6484  0.3457
 5376SOL    HW227588   4.390   1.196   5.951  0.0407  0.4008 -0.3014
 5377SOL     OW27589   4.473   0.517   3.695  0.0959 -0.3162  0.2374
 5377SOL    HW127590   4.519   0.588   3.739  2.0998 -0.1435 -2.1133
 5377SOL    HW227591   4.544   0.453   3.698 -0.3572 -0.8972 -1.6383
 5378SOL     OW27592   1.314   0.462   4.280  0.2268 -0.1219  0.5348
 5378SOL    HW127593   1.362   0.430   4.203 -1.3209 -0.7560 -0.1545
 5378SOL    HW227594   1.263   0.539   4.256  0.9061  0.3133  0.4571
 5379SOL     OW27595   4.702   2.939   6.304 -0.3719 -0.2873  0.0611
 5379SOL    HW127596   0.017   2.923   6.216 -2.0956 -2.1273 -0.3023
 5379SOL    HW227597   4.651   3.018   6.287 -0.4291 -0.7410 -1.9870
 5380SOL     OW27598   3.080   4.449   3.628 -0.0733  0.1216 -0.3244
 5380SOL    HW127599   3.168   4.451   3.591 -0.0251 -0.1503 -0.2230
 5380SOL    HW227600   3.082   4.501   3.709  0.4113  0.0311 -0.2776
 5381SOL     OW27601   0.584   2.147   5.662 -0.0479  0.1177 -0.1866
 5381SOL    HW127602   0.502   2.128   5.708  0.5862 -1.3785  0.3131
 5381SOL    HW227603   0.629   2.063   5.663 -1.0384 -0.4402 -1.9917
 5382SOL     OW27604   0.301   0.113   8.025 -0.2133  0.2095 -0.6035
 5382SOL    HW127605   0.252   0.060   7.962  2.5909 -1.5141 -1.3416
 5382SOL    HW227606   0.391   0.079   8.026 -0.3191 -0.0444  0.2743
 5383SOL     OW27607   1.272   1.603   5.797 -0.0317  0.1775 -0.2989
 5383SOL    HW127608   1.270   1.586   5.891  1.7694  1.1697 -0.0859
 5383SOL    HW227609   1.354   1.559   5.774  0.0789 -0.8703  2.0890
 5384SOL     OW27610   1.904   3.150   9.033  0.2015 -0.4281 -0.3226
 5384SOL    HW127611   1.853   3.189   8.961 -0.4141  0.7108  0.7444
 5384SOL    HW227612   1.986   3.200   9.027  0.0038 -0.1710 -1.0098
 5385SOL     OW27613   2.152   1.713   8.671 -0.0203  0.3553 -0.3539
 5385SOL    HW127614   2.173   1.732   8.763 -2.2752 -0.0650  0.2449
 5385SOL    HW227615   2.057   1.716   8.677  0.0922 -0.3453  1.7788
 5386SOL     OW27616   3.918   3.633   9.813 -0.1004 -0.8566 -0.2193
 5386SOL    HW127617   3.900   3.697   9.882 -0.4218 -2.9540  1.6536
 5386SOL    HW227618   3.829   3.621   9.780 -0.5253  1.3646  0.1071
 5387SOL     OW27619   1.586   0.966   5.753 -0.6411 -0.2387 -0.4539
 5387SOL    HW127620   1.529   1.003   5.821  0.1185  0.9516 -0.4749
 5387SOL    HW227621   1.515   0.945   5.692 -0.2276  2.2599 -1.7657
 5388SOL     OW27622   3.143   4.013  11.284  0.0297  0.3304  0.1077
 5388SOL    HW127623   3.116   4.017  11.376  0.4908  1.8904  0.1729
 5388SOL    HW227624   3.077   3.957  11.242  0.9149 -0.4737 -0.2195
 5389SOL     OW27625   2.843   0.807   7.953  0.5656  0.3367 -1.2100
 5389SOL    HW127626   2.791   0.752   7.894  1.0576 -1.1725 -0.2298
 5389SOL    HW227627   2.895   0.857   7.890 -0.6763  0.5837 -2.0330
 5390SOL     OW27628   4.077   4.626   5.864 -0.1315  0.1879 -0.0216
 5390SOL    HW127629   4.167   4.605   5.886  0.1735  0.3361 -1.1211
 5390SOL    HW227630   4.076   4.582   5.779 -1.8122  1.9530 -0.9091
 5391SOL     OW27631   0.038   3.597   2.278  0.0630  0.3735 -0.3541
 5391SOL    HW127632   4.680   3.555   2.244  1.0816 -1.1586 -0.8416
 5391SOL    HW227633   0.025   3.689   2.254  0.6079  0.5925  0.1794
 5392SOL     OW27634   3.030   4.268   3.848  0.5817  1.1836 -0.2196
 5392SOL    HW127635   3.112   4.296   3.807  0.0948  1.8550 -0.7442
 5392SOL    HW227636   3.010   4.350   3.894 -1.4136 -0.4727  1.8990
 5393SOL     OW27637   0.475   0.470   4.647 -0.3279 -0.2593 -0.1917
 5393SOL    HW127638   0.506   0.381   4.632 -0.2322 -0.3996  0.8380
 5393SOL    HW227639   0.454   0.506   4.561  2.0033 -0.3890 -0.8304
 5394SOL     OW27640   0.769   2.814   6.478  0.6593  0.1249  0.3451
 5394SOL    HW127641   0.715   2.747   6.438  1.2334 -0.7132  0.9848
 5394SOL    HW227642   0.840   2.770   6.525 -0.4699 -0.6458  1.3335
 5395SOL     OW27643   2.301   3.815   6.740  0.9613 -0.2497 -0.0198
 5395SOL    HW127644   2.334   3.822   6.651 -0.0171 -2.6067 -0.5708
 5395SOL    HW227645   2.367   3.850   6.800  2.1924 -0.4395 -1.2742
 5396SOL     OW27646   2.321   3.974   8.909  0.4104  0.2528  0.1433
 5396SOL    HW127647   2.307   3.901   8.970  0.8094 -0.0949 -0.1817
 5396SOL    HW227648   2.304   4.055   8.957 -0.3296 -0.8495  1.7258
 5397SOL     OW27649   4.448   1.636   5.424 -0.3811 -0.3041 -0.3822
 5397SOL    HW127650   4.415   1.721   5.453 -2.1242 -0.8933 -0.6339
 5397SOL    HW227651   4.367   1.597   5.390 -0.1597  0.7897 -2.1658
 5398SOL     OW27652   0.827   4.352   6.654  0.1755  0.8043 -0.2144
 5398SOL    HW127653   0.917   4.383   6.647  0.6410 -0.2541  1.0743
 5398SOL    HW227654   0.830   4.296   6.577  1.7187 -0.3775  0.7146
 5399SOL     OW27655   4.066   4.347   7.101  0.7366  0.1281  0.1008
 5399SOL    HW127656   3.993   4.343   7.040 -0.2466 -1.9470  1.4085
 5399SOL    HW227657   4.010   4.390   7.166 -0.3390 -1.3315  0.1287
 5400SOL     OW27658   0.713   1.409   9.212  0.0071 -0.3903 -0.1089
 5400SOL    HW127659   0.695   1.374   9.300 -1.5393  0.3735 -0.1215
 5400SOL    HW227660   0.626   1.383   9.182  0.1795 -3.0531  1.6110
 5401SOL     OW27661   2.424   3.445  15.183  0.4276 -0.6325 -0.8633
 5401SOL    HW127662   2.514   3.447  15.151  1.1713  2.8283  1.4213
 5401SOL    HW227663   2.426   3.409  15.271  0.2711  0.9671 -0.2000
 5402SOL     OW27664   1.316   1.112   3.960  0.3909 -0.1604 -0.5252
 5402SOL    HW127665   1.315   1.092   3.867  1.6523 -1.2673 -0.3039
 5402SOL    HW227666   1.222   1.121   3.976  0.6667 -1.9082  2.1278
 5403SOL     OW27667   0.049   1.310   5.756  0.2636 -0.0729 -0.1975
 5403SOL    HW127668   0.083   1.245   5.694 -2.7087 -0.3234 -1.6047
 5403SOL    HW227669   0.087   1.393   5.727  2.2464 -0.3100  1.7547
 5404SOL     OW27670   3.986   2.568   7.174  0.2237 -0.3035 -0.3702
 5404SOL    HW127671   4.020   2.484   7.205 -1.1486 -0.1467  1.5634
 5404SOL    HW227672   4.041   2.589   7.098 -1.1837 -1.1455 -1.6153
 5405SOL     OW27673   2.749   0.960   1.721  0.4882 -0.4621  0.5592
 5405SOL    HW127674   2.668   0.909   1.712 -0.2293  0.4828  1.6589
 5405SOL    HW227675   2.790   0.918   1.796 -0.1199 -0.3041  0.9784
 5406SOL     OW27676   0.644   4.378   1.642  0.6959  0.1514  0.3462
 5406SOL    HW127677   0.577   4.317   1.673  0.8406  0.3823  1.1118
 5406SOL    HW227678   0.686   4.321   1.577  0.7984 -1.7538  2.0994
 5407SOL     OW27679   1.879   0.295  16.710 -0.3131 -0.2647  0.6865
 5407SOL    HW127680   1.791   0.332  16.711 -0.1460  0.1149  1.2095
 5407SOL    HW227681   1.929   0.372  16.682  0.9074 -1.5936 -0.7941
 5408SOL     OW27682   0.212   1.973   6.549  0.2302 -0.3877  0.0653
 5408SOL    HW127683   0.255   2.020   6.477  1.6811 -0.3926  0.9253
 5408SOL    HW227684   0.144   1.926   6.501 -0.3191  0.2350  0.2468
 5409SOL     OW27685   2.172   0.459   6.267 -0.4892  0.0870 -0.6175
 5409SOL    HW127686   2.241   0.394   6.282 -0.7098 -0.1649 -0.6957
 5409SOL    HW227687   2.104   0.434   6.329  0.4604 -0.1846  0.3129
 5410SOL     OW27688   1.934   0.740   2.047  0.4722  0.2795 -0.3733
 5410SOL    HW127689   2.020   0.770   2.078  1.4936 -0.0903 -2.8733
 5410SOL    HW227690   1.925   0.657   2.094  0.9921  0.2748 -0.2777
 5411SOL     OW27691   1.993   0.591  14.769  0.4565 -0.2256 -0.2495
 5411SOL    HW127692   1.960   0.503  14.750  0.1054  0.2571 -1.9288
 5411SOL    HW227693   1.964   0.611  14.858 -0.2201 -0.8489 -0.3297
 5412SOL     OW27694   1.885   1.674  10.347  0.4337 -0.3448 -0.0606
 5412SOL    HW127695   1.980   1.676  10.361  0.2135 -1.6111  1.5787
 5412SOL    HW227696   1.880   1.696  10.254 -0.7266 -1.2801 -0.2179
 5413SOL     OW27697   1.986   2.799   8.676  0.1407 -0.0567 -0.0655
 5413SOL    HW127698   2.022   2.727   8.625 -0.7176 -0.6767  0.2029
 5413SOL    HW227699   2.054   2.813   8.742 -0.0766  2.3355 -0.3270
 5414SOL     OW27700   3.672   1.203   6.271 -0.6478 -0.1415 -0.2327
 5414SOL    HW127701   3.639   1.284   6.309  0.1630  0.1355 -0.1139
 5414SOL    HW227702   3.656   1.217   6.178  0.3648 -0.1796 -0.4209
 5415SOL     OW27703   2.307   1.765   0.990 -0.2402  0.1917 -0.1356
 5415SOL    HW127704   2.241   1.699   0.967 -0.2880 -0.3644  1.5698
 5415SOL    HW227705   2.361   1.777   0.912 -1.1510  1.7809 -0.5175
 5416SOL     OW27706   2.136   1.470  10.737 -0.4082  0.2532  0.0157
 5416SOL    HW127707   2.074   1.398  10.734  1.4842 -1.3982  0.0682
 5416SOL    HW227708   2.156   1.480  10.830 -0.7244 -2.1499  0.3413
 5417SOL     OW27709   0.941   1.465   8.038 -0.3987  0.7309  0.3658
 5417SOL    HW127710   0.964   1.515   8.117  0.5390  3.3487 -1.5595
 5417SOL    HW227711   0.909   1.381   8.072  0.8150 -0.7938 -2.2713
 5418SOL     OW27712   4.382   3.255  10.343 -0.5513 -0.5348  0.4006
 5418SOL    HW127713   4.403   3.215  10.427  0.0695  1.6375  1.2912
 5418SOL    HW227714   4.296   3.294  10.353  0.6172  2.1433  0.1741
 5419SOL     OW27715   2.548   0.767   1.615  0.5517  0.1196 -0.0629
 5419SOL    HW127716   2.538   0.779   1.521  0.0007 -0.9419 -0.1406
 5419SOL    HW227717   2.618   0.703   1.621  0.5672  0.0097 -1.3591
 5420SOL     OW27718   4.225   4.252   3.839 -0.1405 -0.2485 -0.6363
 5420SOL    HW127719   4.306   4.228   3.884 -1.2701 -2.1570  0.3515
 5420SOL    HW227720   4.244   4.258   3.745 -0.9928  0.6220 -0.7522
 5421SOL     OW27721   1.246   3.695   8.714 -0.6297  0.0242 -0.2697
 5421SOL    HW127722   1.272   3.608   8.684  2.8857  0.3492  1.9216
 5421SOL    HW227723   1.263   3.751   8.639  0.2558 -0.5951 -0.5363
 5422SOL     OW27724   0.235   2.005  12.518 -0.0102  0.3197  0.2008
 5422SOL    HW127725   0.159   1.955  12.489  0.1149 -0.3602  1.0266
 5422SOL    HW227726   0.292   1.948  12.570  1.0850  1.9922  0.8545
 5423SOL     OW27727   2.936   2.735   6.272  0.4286  0.7221 -0.0900
 5423SOL    HW127728   3.026   2.730   6.241 -0.0959 -2.5001 -1.1099
 5423SOL    HW227729   2.909   2.825   6.254 -0.0212  0.1682 -2.1939
 5424SOL     OW27730   3.136   3.222   8.934  0.7348  0.2164 -0.3905
 5424SOL    HW127731   3.144   3.308   8.975  0.7413 -0.9341  2.0002
 5424SOL    HW227732   3.204   3.237   8.868  1.9952 -2.0270  0.3960
 5425SOL     OW27733   3.809   3.727  12.988 -0.9727 -0.0513  0.2079
 5425SOL    HW127734   3.847   3.815  12.980  0.9109 -0.6559  2.7739
 5425SOL    HW227735   3.797   3.697  12.898 -0.0414 -1.2380  0.4822
 5426SOL     OW27736   2.599   1.210   2.986 -0.4123  0.1545  0.0146
 5426SOL    HW127737   2.680   1.224   3.035 -0.7016  0.9070  0.2815
 5426SOL    HW227738   2.604   1.284   2.925 -0.1950  2.5886  2.9666
 5427SOL     OW27739   0.116   2.472  16.100  0.3991 -0.2594  0.4387
 5427SOL    HW127740   0.144   2.381  16.089 -1.4574 -0.5960 -1.6206
 5427SOL    HW227741   0.125   2.476  16.195 -0.2657 -0.7449  0.5265
 5428SOL     OW27742   2.247   3.037   2.208 -0.0587 -0.5966 -0.6813
 5428SOL    HW127743   2.341   3.020   2.216  0.4331  1.3069 -2.4859
 5428SOL    HW227744   2.232   3.016   2.116  0.8074  1.5124 -1.2932
 5429SOL     OW27745   2.422   4.280   8.195 -0.3869  0.0809 -0.8681
 5429SOL    HW127746   2.354   4.324   8.144 -0.8357 -2.2373 -2.2545
 5429SOL    HW227747   2.379   4.238   8.270  2.3432  1.6914  1.5688
 5430SOL     OW27748   2.662   3.600   2.290 -0.0082 -0.1768  0.3854
 5430SOL    HW127749   2.572   3.627   2.309  0.1278 -0.0457  0.8614
 5430SOL    HW227750   2.657   3.582   2.196  0.4530  2.0637 -0.0829
 5431SOL     OW27751   3.731   3.750   5.989 -0.1008 -0.0778  0.1004
 5431SOL    HW127752   3.703   3.833   6.027 -0.1594  0.6259 -1.4912
 5431SOL    HW227753   3.815   3.734   6.033  0.3900  0.0999 -0.7529
 5432SOL     OW27754   1.232   0.536   2.572  0.2238 -0.1506 -0.0183
 5432SOL    HW127755   1.207   0.559   2.483  0.8099  0.1619 -0.1028
 5432SOL    HW227756   1.312   0.587   2.567  0.0772  0.0283 -0.4672
 5433SOL     OW27757   3.472   0.680  16.217 -0.4949  0.3254  0.2960
 5433SOL    HW127758   3.386   0.693  16.256  0.2346  1.1776  1.6068
 5433SOL    HW227759   3.484   0.767  16.179 -0.2513  1.2356  2.4900
 5434SOL     OW27760   4.470   3.563  15.875 -0.2289  0.1579 -0.4210
 5434SOL    HW127761   4.466   3.469  15.860 -0.0968 -0.0584  0.9219
 5434SOL    HW227762   4.411   3.574  15.949 -1.0418 -0.8581 -0.9249
 5435SOL     OW27763   4.074   3.670   0.044  0.0994  0.2073 -0.0406
 5435SOL    HW127764   4.013   3.598   0.029 -1.1468  1.2206  0.1457
 5435SOL    HW227765   4.120   3.633   0.120 -0.7646 -0.2309  0.2744
 5436SOL     OW27766   4.671   1.367   3.030  0.3670 -0.1610  0.6810
 5436SOL    HW127767   0.015   1.329   3.089 -1.7041 -2.0443  1.7434
 5436SOL    HW227768   4.649   1.444   3.082 -0.7747 -0.8384  1.1915
 5437SOL     OW27769   0.993   4.469   6.207  0.1801  0.1255 -0.8394
 5437SOL    HW127770   0.933   4.543   6.216 -0.9364 -0.5852 -2.3485
 5437SOL    HW227771   0.968   4.438   6.120  2.3879  0.5435 -1.6412
 5438SOL     OW27772   1.439   0.582  14.272  0.1455  0.0981  0.3367
 5438SOL    HW127773   1.377   0.512  14.292  1.3006 -1.2038 -0.6173
 5438SOL    HW227774   1.524   0.537  14.267  0.2462  0.0467  2.5472
 5439SOL     OW27775   3.260   3.468   3.737 -0.0475  0.4106  0.6207
 5439SOL    HW127776   3.199   3.523   3.786 -1.1364 -0.5944  0.3979
 5439SOL    HW227777   3.319   3.540   3.715 -0.7199  0.7121 -0.1660
 5440SOL     OW27778   3.777   0.833   3.596  0.2595  0.1495  0.6788
 5440SOL    HW127779   3.683   0.835   3.575 -0.2469  1.0842  2.9849
 5440SOL    HW227780   3.804   0.893   3.527  1.8768 -0.3709  0.8618
 5441SOL     OW27781   1.096   3.296   7.910  0.0923 -0.0173  0.0762
 5441SOL    HW127782   1.173   3.239   7.920  0.1070 -0.1884 -1.0233
 5441SOL    HW227783   1.114   3.325   7.820  0.8616  0.3810  0.3608
 5442SOL     OW27784   3.038   1.273   7.691 -0.2965  0.0004  0.2054
 5442SOL    HW127785   3.027   1.252   7.783  0.1842  1.2196  0.5427
 5442SOL    HW227786   3.123   1.314   7.707 -0.9553  1.1596  0.7562
 5443SOL     OW27787   1.417   2.611  11.085  0.3372  0.4059 -0.4472
 5443SOL    HW127788   1.329   2.595  11.053 -0.1432  2.6122 -0.2428
 5443SOL    HW227789   1.398   2.687  11.140 -0.6160 -0.4028  0.3441
 5444SOL     OW27790   3.095   3.500   2.927  0.0106  0.5345 -0.1842
 5444SOL    HW127791   3.096   3.535   2.838 -0.8749 -1.2986 -0.9092
 5444SOL    HW227792   3.163   3.433   2.915 -1.4678 -0.9497 -0.2879
 5445SOL     OW27793   4.485   0.102   3.671  0.3353 -0.2475 -0.3741
 5445SOL    HW127794   4.579   0.099   3.689  0.5300  1.1786 -1.1169
 5445SOL    HW227795   4.493   0.175   3.609 -0.4251 -0.4502 -0.7180
 5446SOL     OW27796   0.080   4.285   2.859 -0.2315  0.4044 -0.1718
 5446SOL    HW127797   4.714   4.244   2.866  0.6108 -1.8206 -2.5957
 5446SOL    HW227798   0.138   4.213   2.833  1.3370  1.0382  1.5933
 5447SOL     OW27799   3.649   0.184   8.476 -0.0797  0.0793  0.1805
 5447SOL    HW127800   3.681   0.275   8.477  0.5539 -0.1532  1.5758
 5447SOL    HW227801   3.555   0.201   8.484  0.1046  1.2276 -0.0231
 5448SOL     OW27802   4.467   2.908   3.484  0.3155 -0.0119  0.2827
 5448SOL    HW127803   4.411   2.856   3.426  0.2577  1.4219 -0.9501
 5448SOL    HW227804   4.543   2.850   3.491  1.0861  1.2727  2.5221
 5449SOL     OW27805   2.663   4.242   0.316 -0.1945 -0.2855  0.3023
 5449SOL    HW127806   2.587   4.244   0.257  0.5031  0.2171 -0.5687
 5449SOL    HW227807   2.733   4.222   0.255  2.3427  0.6178  2.9181
 5450SOL     OW27808   3.697   1.459   7.556  0.4054  0.4786  0.2113
 5450SOL    HW127809   3.671   1.494   7.642 -2.0736  0.5327 -0.5750
 5450SOL    HW227810   3.714   1.543   7.514  0.1002  0.4480  0.0347
 5451SOL     OW27811   4.023   1.673  16.297 -0.3243  0.4397  0.0180
 5451SOL    HW127812   4.029   1.666  16.392  1.4097 -1.0271 -0.1931
 5451SOL    HW227813   4.104   1.721  16.278  0.3899 -0.9355 -0.3419
 5452SOL     OW27814   1.443   2.362   3.223 -0.6384  0.4974  0.2811
 5452SOL    HW127815   1.424   2.307   3.147  0.5704 -2.4424  2.1081
 5452SOL    HW227816   1.400   2.444   3.200  0.1686  0.4791 -1.2692
 5453SOL     OW27817   2.538   3.609   3.721  0.6046  0.1137  0.5760
 5453SOL    HW127818   2.503   3.558   3.648  0.9013 -1.1338  1.3199
 5453SOL    HW227819   2.502   3.696   3.705 -1.8121 -1.1567 -0.8204
 5454SOL     OW27820   2.697   1.280   7.391 -0.7238  0.2423 -0.4574
 5454SOL    HW127821   2.615   1.320   7.362 -1.7450 -0.2095  1.7852
 5454SOL    HW227822   2.757   1.350   7.415 -0.6302 -0.7040  2.1040
 5455SOL     OW27823   0.727   4.600   5.301  0.0451 -0.2055 -0.3224
 5455SOL    HW127824   0.736   4.538   5.228  1.8554 -1.3056  0.8264
 5455SOL    HW227825   0.812   4.592   5.344 -0.6676  0.4262  1.1795
 5456SOL     OW27826   1.621   3.082   7.186 -0.3588 -0.0029  0.1040
 5456SOL    HW127827   1.581   3.049   7.105 -2.4290  1.1875  0.6246
 5456SOL    HW227828   1.637   3.173   7.162 -0.4194  0.1061  0.4771
 5457SOL     OW27829   0.023   2.736   8.769  0.7345  0.0309 -0.2090
 5457SOL    HW127830   0.045   2.805   8.832 -0.0788 -0.8522  1.0617
 5457SOL    HW227831   0.114   2.720   8.743  0.0941 -0.6795 -1.9540
 5458SOL     OW27832   3.392   1.468   0.502  0.3410 -0.7766  0.0797
 5458SOL    HW127833   3.298   1.486   0.495  0.1004 -1.5103  1.2372
 5458SOL    HW227834   3.410   1.412   0.426 -0.4695 -2.4730  1.1174
 5459SOL     OW27835   1.304   3.735   7.229  0.0987 -0.1805  0.4355
 5459SOL    HW127836   1.362   3.792   7.180 -0.1192  1.0846  1.6492
 5459SOL    HW227837   1.369   3.685   7.278 -0.8520  0.1464  2.0557
 5460SOL     OW27838   2.798   4.527   1.863  0.0268  0.6337 -0.0550
 5460SOL    HW127839   2.751   4.596   1.816 -2.6605 -0.1209  1.5185
 5460SOL    HW227840   2.825   4.485   1.782  1.9377  0.5315  0.6365
 5461SOL     OW27841   3.512   3.784   6.338 -0.0238 -0.2378  0.4864
 5461SOL    HW127842   3.430   3.790   6.387  0.0381  1.1295  0.4306
 5461SOL    HW227843   3.484   3.762   6.249 -0.7099  1.2839  0.3262
 5462SOL     OW27844   1.897   4.422   8.638  0.0989  0.2080  0.1569
 5462SOL    HW127845   1.986   4.389   8.644  0.2814  0.9922  1.6808
 5462SOL    HW227846   1.878   4.398   8.547 -1.6783 -0.4754  0.6960
 5463SOL     OW27847   3.763   4.008   7.364 -0.0233 -0.2609 -0.0994
 5463SOL    HW127848   3.760   3.920   7.326 -0.4335  0.1033 -0.9221
 5463SOL    HW227849   3.849   4.044   7.342 -0.3018  0.0738 -0.6541
 5464SOL     OW27850   4.615   4.689   7.910 -0.1020  0.1045  0.1650
 5464SOL    HW127851   4.562   4.696   7.990  0.2248 -0.3320  0.4181
 5464SOL    HW227852   4.690   4.641   7.943 -1.4449 -0.5800  2.2683
 5465SOL     OW27853   4.529   0.331  15.789 -0.0871 -0.4897  0.3302
 5465SOL    HW127854   4.547   0.287  15.706  0.1091 -0.7213  0.4960
 5465SOL    HW227855   4.615   0.370  15.805 -0.1275 -0.2104 -0.1461
 5466SOL     OW27856   1.303   3.109   4.229  0.1848 -0.4406  0.3565
 5466SOL    HW127857   1.297   3.145   4.317  2.8973  1.9219 -0.4328
 5466SOL    HW227858   1.212   3.112   4.200 -0.2976 -1.0441  1.8010
 5467SOL     OW27859   4.262   0.737   7.730  0.1349 -0.3584  0.7442
 5467SOL    HW127860   4.169   0.756   7.743  0.4441 -0.1000  2.5881
 5467SOL    HW227861   4.277   0.658   7.782  1.2636 -0.2713  0.5435
 5468SOL     OW27862   4.035   3.632   6.824 -0.7803 -0.1432 -0.0043
 5468SOL    HW127863   4.037   3.536   6.829 -0.9800 -0.0674  1.6838
 5468SOL    HW227864   4.130   3.638   6.816 -0.7934 -0.9004 -0.7683
 5469SOL     OW27865   1.063   4.047   9.154  0.3816 -0.0983  0.0317
 5469SOL    HW127866   1.080   4.096   9.073 -0.9734 -0.8074 -0.6856
 5469SOL    HW227867   1.000   4.109   9.192 -1.1949 -1.6161 -0.0785
 5470SOL     OW27868   0.589   0.798  17.412  0.2392 -0.5224 -0.4567
 5470SOL    HW127869   0.585   0.833  17.323  0.7146 -0.5947 -0.5051
 5470SOL    HW227870   0.498   0.814  17.437 -0.1349 -3.9817  0.3839
 5471SOL     OW27871   2.644   0.047   3.638 -0.0559 -0.5075  0.0365
 5471SOL    HW127872   2.586   4.698   3.607 -0.0097 -1.7597  2.7171
 5471SOL    HW227873   2.722   0.014   3.594  0.9674  1.8815  0.0718
 5472SOL     OW27874   4.254   3.612   9.087 -0.4162  0.9157  0.4440
 5472SOL    HW127875   4.218   3.701   9.083  2.3102  1.9902 -0.4488
 5472SOL    HW227876   4.319   3.617   9.017 -0.4551  2.6020  0.5309
 5473SOL     OW27877   0.325   0.046  15.452  0.0618 -0.1059  0.0474
 5473SOL    HW127878   0.299   0.109  15.384  1.5946 -0.0092 -0.4702
 5473SOL    HW227879   0.296   0.079  15.537 -0.9164  0.3908 -0.4828
 5474SOL     OW27880   0.131   2.665  13.004 -0.3177  0.4928 -0.1174
 5474SOL    HW127881   0.142   2.761  13.003  1.2928  0.3117  1.8248
 5474SOL    HW227882   0.135   2.634  12.914 -3.0687  0.6218 -0.3023
 5475SOL     OW27883   4.054   0.640   0.982 -0.1195  0.7849  0.1936
 5475SOL    HW127884   4.017   0.594   0.907 -0.4767 -1.1324  1.5306
 5475SOL    HW227885   3.973   0.686   1.007  0.2721  1.0096  1.0557
 5476SOL     OW27886   2.854   4.184   0.131 -0.0647  0.0173 -0.3709
 5476SOL    HW127887   2.943   4.149   0.120  0.1998  0.6159 -0.1466
 5476SOL    HW227888   2.864   4.256   0.068 -1.1353  0.2214 -0.2968
 5477SOL     OW27889   2.080   0.909   8.175  0.4907  0.4557  0.0347
 5477SOL    HW127890   2.040   0.908   8.262 -0.6797  0.0613 -0.5047
 5477SOL    HW227891   2.058   0.823   8.140 -1.5346  0.9471  0.0966
 5478SOL     OW27892   1.872   4.109   7.220  0.0745 -0.1367  0.8689
 5478SOL    HW127893   1.838   4.110   7.131  1.2368  3.2624  0.4539
 5478SOL    HW227894   1.792   4.103   7.272  0.2762 -2.9086  0.8830
 5479SOL     OW27895   1.080   1.952   8.310  0.1026  0.4939 -0.6793
 5479SOL    HW127896   1.137   1.877   8.294  0.3127  0.4941  0.1028
 5479SOL    HW227897   1.141   2.025   8.292  0.8540 -0.2359 -1.1021
 5480SOL     OW27898   2.649   2.574  13.153  0.1889  0.3253 -0.2476
 5480SOL    HW127899   2.719   2.513  13.175 -0.1923  0.6485  1.8116
 5480SOL    HW227900   2.671   2.583  13.060  0.0565  0.6304 -0.2517
 5481SOL     OW27901   3.578   3.087  17.056 -0.0261  0.2637 -0.4667
 5481SOL    HW127902   3.655   3.031  17.065  0.4029  0.8492 -0.5338
 5481SOL    HW227903   3.582   3.126  17.143  1.2540 -0.8984 -0.0040
 5482SOL     OW27904   0.523   3.091   4.835  0.1681  0.1987  0.0984
 5482SOL    HW127905   0.492   3.008   4.872 -4.3673  1.1748 -1.4064
 5482SOL    HW227906   0.492   3.087   4.744  1.7469 -1.2892 -0.3604
 5483SOL     OW27907   4.069   4.324  14.823 -0.1013 -0.0871 -1.0520
 5483SOL    HW127908   4.133   4.366  14.765 -0.1073  1.5903  0.1797
 5483SOL    HW227909   3.984   4.363  14.805 -0.4026  0.1173  0.8716
 5484SOL     OW27910   2.700   2.529   4.491  0.1319  0.2069 -0.1947
 5484SOL    HW127911   2.677   2.479   4.413  0.7397 -2.6580  1.4438
 5484SOL    HW227912   2.749   2.604   4.457 -1.5068  0.5731 -1.6896
 5485SOL     OW27913   2.338   2.154  14.996 -0.4405  0.1816  0.2247
 5485SOL    HW127914   2.300   2.186  15.077  0.5710  1.7736  0.0851
 5485SOL    HW227915   2.346   2.062  15.021 -0.7419 -0.0122 -0.4012
 5486SOL     OW27916   3.624   1.811   8.327 -0.0162  0.3732 -0.1477
 5486SOL    HW127917   3.616   1.906   8.321 -0.9857  0.3898  1.3993
 5486SOL    HW227918   3.535   1.792   8.297  0.3144 -0.2562 -0.7325
 5487SOL     OW27919   3.784   2.632  15.444 -0.2511 -0.0972  0.4475
 5487SOL    HW127920   3.809   2.705  15.388  2.3568  0.6531  2.5964
 5487SOL    HW227921   3.744   2.676  15.519 -3.2897  0.4695 -1.5236
 5488SOL     OW27922   0.312   3.457   6.386 -0.5401  0.1758 -0.0981
 5488SOL    HW127923   0.335   3.401   6.459  1.3286 -0.7292 -1.3862
 5488SOL    HW227924   0.245   3.398   6.352 -0.3722  0.3779 -0.7850
 5489SOL     OW27925   4.555   0.750  16.010 -0.6285  0.0398  0.3960
 5489SOL    HW127926   4.528   0.658  16.013  0.3822 -0.2670 -0.0815
 5489SOL    HW227927   4.535   0.788  16.096 -2.3365  0.5763 -0.2249
 5490SOL     OW27928   0.669   0.440   3.224  0.2100 -0.3606  0.0285
 5490SOL    HW127929   0.637   0.380   3.157  0.6375  1.2123 -1.5866
 5490SOL    HW227930   0.594   0.439   3.284  1.4426  2.8952  1.6417
 5491SOL     OW27931   1.769   3.989   1.855 -0.4027 -0.2538 -0.0507
 5491SOL    HW127932   1.688   3.979   1.806  0.5176 -3.4792 -0.9120
 5491SOL    HW227933   1.743   4.039   1.932  0.7332  1.2208 -0.6330
 5492SOL     OW27934   1.617   3.021  12.690 -0.1471  0.3403 -0.5580
 5492SOL    HW127935   1.678   2.952  12.718  1.3170  2.8280  2.3175
 5492SOL    HW227936   1.562   3.027  12.767  1.6472  2.3770  0.5341
 5493SOL     OW27937   2.551   1.886   7.680  0.6543  0.3450  0.3424
 5493SOL    HW127938   2.626   1.828   7.698 -0.1939 -0.6874  0.5699
 5493SOL    HW227939   2.533   1.860   7.590 -1.0716 -1.6999  1.2833
 5494SOL     OW27940   4.597   2.024   9.014 -0.0108  0.1661  0.2626
 5494SOL    HW127941   4.628   1.950   8.963 -2.3258 -0.8881  0.3710
 5494SOL    HW227942   4.626   2.011   9.104  0.0265  0.1313  0.2453
 5495SOL     OW27943   1.487   1.581   2.464 -0.0577  0.0022  0.5511
 5495SOL    HW127944   1.510   1.666   2.503  1.8494 -1.6187  2.9620
 5495SOL    HW227945   1.551   1.575   2.394 -1.0764  1.5652 -0.5037
 5496SOL     OW27946   0.156   0.889   5.114 -0.3687  0.1426 -0.7300
 5496SOL    HW127947   0.218   0.948   5.157  0.2182 -1.7100  0.9552
 5496SOL    HW227948   0.191   0.814   5.161  1.2880  1.2297 -0.2098
 5497SOL     OW27949   3.869   1.956   5.190 -0.4075 -0.0410  0.5938
 5497SOL    HW127950   3.905   1.990   5.108 -0.1896 -0.4912  0.4996
 5497SOL    HW227951   3.871   2.036   5.242  0.8179 -0.8916  1.8729
 5498SOL     OW27952   3.620   4.192   1.330 -0.2677  0.1742  0.0270
 5498SOL    HW127953   3.674   4.144   1.393 -2.4714 -1.0651  0.9878
 5498SOL    HW227954   3.605   4.275   1.375  2.9666  1.2230 -0.8071
 5499SOL     OW27955   1.624   0.784   7.675  0.4107  0.4613 -0.3151
 5499SOL    HW127956   1.593   0.777   7.766 -0.9693  1.8514 -0.6679
 5499SOL    HW227957   1.541   0.778   7.627 -0.8648 -0.2939  1.9363
 5500SOL     OW27958   0.284   1.006   0.755 -0.6213  0.4190  0.6827
 5500SOL    HW127959   0.315   1.063   0.685  0.2556 -1.0151 -0.1012
 5500SOL    HW227960   0.309   0.921   0.719 -2.6344  0.8189 -1.6316
 5501SOL     OW27961   3.421   3.958   0.607 -0.4877 -0.5808  0.0799
 5501SOL    HW127962   3.398   3.961   0.699  2.2989  0.0536  0.7323
 5501SOL    HW227963   3.515   3.975   0.604 -0.6211  0.1661  0.2050
 5502SOL     OW27964   2.913   2.505   9.069 -0.1472 -0.2575 -0.0680
 5502SOL    HW127965   2.882   2.416   9.082 -0.0200 -0.0097  1.9896
 5502SOL    HW227966   2.851   2.552   9.126 -0.0780 -1.3358  0.8984
 5503SOL     OW27967   2.572   0.600   1.926  0.2967  0.1984 -0.3762
 5503SOL    HW127968   2.586   0.615   2.020 -0.3334 -1.3750 -0.0312
 5503SOL    HW227969   2.480   0.572   1.923  1.0399 -2.4107  0.7316
 5504SOL     OW27970   0.581   3.192   9.045  0.5434  0.0509  0.2916
 5504SOL    HW127971   0.528   3.218   9.120  1.1447  1.1932  0.3178
 5504SOL    HW227972   0.568   3.099   9.026  3.2563  0.2049 -2.3680
 5505SOL     OW27973   0.811   0.405   6.933  0.1213  0.1531  0.4561
 5505SOL    HW127974   0.825   0.312   6.948  0.1131  0.6528  3.5329
 5505SOL    HW227975   0.879   0.419   6.866  1.0062  3.8432  2.1383
 5506SOL     OW27976   3.743   1.219  15.915 -0.1993  0.1463 -0.1470
 5506SOL    HW127977   3.758   1.167  15.836  0.0153 -1.5738  1.0142
 5506SOL    HW227978   3.711   1.155  15.979 -1.3916  0.9868  0.1161
 5507SOL     OW27979   1.758   4.620   6.868 -1.1016 -0.1673 -0.1788
 5507SOL    HW127980   1.738   4.702   6.823 -2.0001 -0.1421  0.2564
 5507SOL    HW227981   1.791   4.562   6.800 -0.9900 -0.2385 -0.0647
 5508SOL     OW27982   0.445   2.918  13.415  0.1430  0.0447  0.0150
 5508SOL    HW127983   0.396   2.931  13.334 -1.3255  0.3181  0.9429
 5508SOL    HW227984   0.377   2.886  13.474  0.0531 -0.1930 -0.2193
 5509SOL     OW27985   0.535   1.270  12.880  0.0514 -0.4146  0.7975
 5509SOL    HW127986   0.519   1.204  12.946 -1.1219 -0.5469  0.3765
 5509SOL    HW227987   0.583   1.338  12.927 -1.0517 -0.2182  1.6179
 5510SOL     OW27988   1.061   2.397   4.678  0.0038 -0.0224 -0.5856
 5510SOL    HW127989   1.104   2.480   4.699  0.3700  0.2273 -2.3267
 5510SOL    HW227990   1.130   2.330   4.675 -0.3534 -0.5140  1.8721
 5511SOL     OW27991   1.463   3.918   5.444 -0.1495 -0.0776  0.4223
 5511SOL    HW127992   1.446   3.951   5.356  1.0302  0.8166  0.5362
 5511SOL    HW227993   1.422   3.990   5.492  1.8156  0.2674  1.5817
 5512SOL     OW27994   2.198   2.795   8.298  0.4601  0.1783 -0.0995
 5512SOL    HW127995   2.140   2.870   8.284  1.1080  1.0917  2.1656
 5512SOL    HW227996   2.165   2.738   8.228  1.1006  1.8611 -1.7581
 5513SOL     OW27997   0.985   4.631  17.044  0.0023 -0.0389 -0.4956
 5513SOL    HW127998   1.008   0.003  17.047 -1.2029  0.2116  0.8212
 5513SOL    HW227999   1.068   4.583  17.055 -1.2067 -1.4764  2.3809
 5514SOL     OW28000   3.833   0.685  10.233 -0.0327  0.2919 -0.2391
 5514SOL    HW128001   3.890   0.732  10.293 -0.1215  1.5326 -1.1229
 5514SOL    HW228002   3.780   0.756  10.196  0.5645  0.7743 -0.1652
 5515SOL     OW28003   0.063   2.669   5.846  0.2721 -0.1778  0.6783
 5515SOL    HW128004   0.105   2.702   5.766 -1.7686 -1.4362 -0.8983
 5515SOL    HW228005   0.141   2.656   5.901  0.6969 -1.1760 -0.1616
 5516SOL     OW28006   3.749   4.376   2.309  0.0156 -0.1625  0.8523
 5516SOL    HW128007   3.707   4.291   2.322 -0.1591 -0.5057 -2.0627
 5516SOL    HW228008   3.836   4.362   2.345 -0.1175 -0.7450  0.9465
 5517SOL     OW28009   1.636   0.751   2.779 -0.2161  0.5917  0.2406
 5517SOL    HW128010   1.707   0.763   2.841  0.0220 -0.8586  0.2409
 5517SOL    HW228011   1.601   0.841   2.774 -0.4938  0.4737  0.0488
 5518SOL     OW28012   3.607   0.147   2.764  0.1704  0.4801  0.5452
 5518SOL    HW128013   3.635   0.188   2.682 -1.1553  0.6979  0.2021
 5518SOL    HW228014   3.587   0.228   2.812  0.4442  1.9769 -1.8580
 5519SOL     OW28015   1.797   2.093   6.016  0.1661 -0.0646  0.0192
 5519SOL    HW128016   1.804   2.176   5.970  0.4470  0.6908  1.4332
 5519SOL    HW228017   1.880   2.096   6.064 -0.7943 -2.6481  1.9035
 5520SOL     OW28018   4.284   2.999   6.390 -0.1947 -0.2560 -0.4224
 5520SOL    HW128019   4.261   2.917   6.433  0.1151 -0.2943 -0.3265
 5520SOL    HW228020   4.209   3.059   6.390  0.9212  1.1569 -1.9778
 5521SOL     OW28021   1.344   4.509   6.595  0.1041 -0.2753 -0.7223
 5521SOL    HW128022   1.365   4.472   6.509  0.7216  0.8201 -1.0498
 5521SOL    HW228023   1.324   4.602   6.579  0.5780 -0.4975 -2.6685
 5522SOL     OW28024   3.348   3.101   2.463 -0.0640  0.4153  0.1622
 5522SOL    HW128025   3.382   3.016   2.492  1.8141  1.4229  0.9009
 5522SOL    HW228026   3.338   3.076   2.371 -1.5928  0.1094  0.4100
 5523SOL     OW28027   1.528   3.010   5.786  0.0674  0.0454  0.6676
 5523SOL    HW128028   1.569   3.091   5.757  2.1300 -1.0899  0.4441
 5523SOL    HW228029   1.519   2.957   5.708 -3.1739 -0.2121  1.2124
 5524SOL     OW28030   0.236   3.854   2.535 -0.2768 -0.2889  0.1922
 5524SOL    HW128031   0.306   3.813   2.586 -0.2183  1.0972  1.2196
 5524SOL    HW228032   0.219   3.796   2.460  0.5881  2.1226 -1.8443
 5525SOL     OW28033   1.278   2.833   9.005  0.0761 -0.0876 -0.0268
 5525SOL    HW128034   1.281   2.745   9.043  0.5687 -0.0864 -0.0642
 5525SOL    HW228035   1.363   2.820   8.963  0.2537  0.7827  0.0630
 5526SOL     OW28036   3.871   1.569   2.271 -0.1579 -0.4054 -0.5239
 5526SOL    HW128037   3.929   1.618   2.212  0.0918  0.6577  0.6051
 5526SOL    HW228038   3.786   1.613   2.267  0.2439  0.2217 -2.3839
 5527SOL     OW28039   1.471   3.184   6.470 -0.1765 -0.3087  0.2758
 5527SOL    HW128040   1.451   3.243   6.397 -0.2556 -1.6694 -0.8197
 5527SOL    HW228041   1.520   3.252   6.517 -1.8126  0.9276  0.1839
 5528SOL     OW28042   2.881   1.564  14.282  0.4631 -0.5387  0.0654
 5528SOL    HW128043   2.963   1.522  14.309 -0.4447 -1.8043  0.8537
 5528SOL    HW228044   2.843   1.569  14.369 -1.7785 -0.0658 -0.9247
 5529SOL     OW28045   0.131   4.478  10.300  0.0934 -0.1272  0.1435
 5529SOL    HW128046   0.084   4.436  10.228 -0.4156 -2.6124  1.9136
 5529SOL    HW228047   0.116   4.572  10.295  0.5778 -0.1109 -0.9359
 5530SOL     OW28048   2.112   1.217  10.157  0.3838 -0.1081 -0.1383
 5530SOL    HW128049   2.048   1.243  10.092  1.7007  2.1171 -0.5506
 5530SOL    HW228050   2.097   1.128  10.190  0.7320 -0.0525  0.1857
 5531SOL     OW28051   3.607   1.411   6.795  0.1047  0.3971  0.3113
 5531SOL    HW128052   3.619   1.351   6.868  0.7513  0.7835  0.5319
 5531SOL    HW228053   3.514   1.416   6.776  0.4463  0.7196 -1.3131
 5532SOL     OW28054   0.564   0.743  10.355 -0.2753  0.4546  0.2706
 5532SOL    HW128055   0.495   0.725  10.419  0.5962 -0.6283  0.8868
 5532SOL    HW228056   0.584   0.651  10.338  0.1893  0.9807 -2.0723
 5533SOL     OW28057   1.713   1.887  13.492  0.1654 -0.1286 -0.3566
 5533SOL    HW128058   1.633   1.918  13.533  2.1813  3.3423  1.0077
 5533SOL    HW228059   1.775   1.946  13.536 -0.0280 -1.0833  1.1643
 5534SOL     OW28060   1.093   2.959  17.417  0.0967  0.1650  0.4904
 5534SOL    HW128061   1.017   2.988  17.367 -0.3497  1.2656  1.8340
 5534SOL    HW228062   1.100   2.870  17.382 -2.1155  0.3955 -0.5411
 5535SOL     OW28063   1.058   3.776   4.869 -0.0050  0.5763  0.3653
 5535SOL    HW128064   0.977   3.827   4.866  0.2457  0.9667  0.3354
 5535SOL    HW228065   1.085   3.791   4.778  0.0447  1.1059  0.4709
 5536SOL     OW28066   1.796   1.579  11.360  0.1406 -0.2562  0.2831
 5536SOL    HW128067   1.755   1.666  11.361 -0.6493 -0.6114 -0.9287
 5536SOL    HW228068   1.862   1.599  11.293 -0.5039  0.7406 -0.0613
 5537SOL     OW28069   3.377   0.110   3.868 -0.4103  0.0253  0.0233
 5537SOL    HW128070   3.392   0.026   3.825 -3.3734  0.6076 -2.1247
 5537SOL    HW228071   3.456   0.114   3.923 -0.7816 -1.5252  0.6786
 5538SOL     OW28072   1.763   4.011  13.283  0.0503  0.0257 -0.0553
 5538SOL    HW128073   1.821   4.085  13.299  2.2737 -1.8166  0.5102
 5538SOL    HW228074   1.793   3.950  13.350 -0.4014 -0.1096  0.0244
 5539SOL     OW28075   4.554   1.822   1.081 -0.7605  0.3452  0.5578
 5539SOL    HW128076   4.465   1.811   1.049 -0.1519 -0.9641 -0.6795
 5539SOL    HW228077   4.556   1.785   1.169  2.1372 -0.7270  0.0594
 5540SOL     OW28078   0.235   0.339  17.613 -0.1408 -0.2115  0.1122
 5540SOL    HW128079   0.308   0.307  17.666  1.0074  2.2975  0.0338
 5540SOL    HW228080   0.203   0.253  17.589 -0.9270  0.0667  0.1715
 5541SOL     OW28081   0.922   0.319   0.356  0.0570  0.0093  0.0179
 5541SOL    HW128082   0.856   0.370   0.309  0.6397  0.7255 -0.0224
 5541SOL    HW228083   0.943   0.260   0.284 -0.4831  1.0049 -0.9521
 5542SOL     OW28084   0.944   3.251   4.590 -0.3523  0.4875 -0.7365
 5542SOL    HW128085   0.906   3.227   4.674 -0.1402  2.0611 -0.1791
 5542SOL    HW228086   1.011   3.314   4.618 -1.0967  0.1471  1.7865
 5543SOL     OW28087   1.407   3.343  12.885  0.0975  0.7035 -0.0013
 5543SOL    HW128088   1.490   3.308  12.853 -0.5737  0.6309 -1.6589
 5543SOL    HW228089   1.434   3.361  12.975 -1.4239  1.1900  0.3646
 5544SOL     OW28090   2.405   1.449  12.031 -0.4968 -0.5888 -0.0653
 5544SOL    HW128091   2.478   1.394  12.060 -0.8863 -0.4157  1.2392
 5544SOL    HW228092   2.355   1.396  11.968 -0.6158  0.9034 -1.2036
 5545SOL     OW28093   2.821   4.465  13.375 -0.1706  0.4719  0.9612
 5545SOL    HW128094   2.862   4.446  13.291  1.4483  2.1953  1.3763
 5545SOL    HW228095   2.848   4.388  13.426  0.3911 -0.4894 -0.8090
 5546SOL     OW28096   2.706   0.434  16.891  0.2578  0.1247 -0.5283
 5546SOL    HW128097   2.735   0.509  16.839 -0.8961  1.8576  1.3133
 5546SOL    HW228098   2.612   0.425  16.875  0.4950 -0.9347 -1.3232
 5547SOL     OW28099   4.231   2.362   4.611 -0.0210 -0.1168  0.4940
 5547SOL    HW128100   4.300   2.422   4.581 -0.8995  0.3093 -0.6886
 5547SOL    HW228101   4.180   2.421   4.667  0.9266 -0.0761  1.3085
 5548SOL     OW28102   3.979   0.087   1.260 -0.1047  0.0942  0.0656
 5548SOL    HW128103   4.048   0.110   1.198 -0.2586 -1.0713 -0.5558
 5548SOL    HW228104   4.000   4.718   1.288 -0.6342  0.4488  1.5661
 5549SOL     OW28105   4.619   4.391   3.404  0.4253 -0.0625 -0.2795
 5549SOL    HW128106   4.576   4.428   3.327  0.6221  0.2159 -0.2549
 5549SOL    HW228107   4.674   4.462   3.435 -0.4387 -0.6041  2.5550
 5550SOL     OW28108   3.982   3.025   9.649  0.0047 -0.0646  0.3405
 5550SOL    HW128109   4.054   2.999   9.708  1.6739  2.0170 -0.7745
 5550SOL    HW228110   4.002   3.117   9.632  0.6459 -0.1414  0.6521
 5551SOL     OW28111   1.091   0.797   7.989  0.5344 -0.4446  0.4664
 5551SOL    HW128112   1.042   0.763   8.064 -1.2455  1.8618  0.3669
 5551SOL    HW228113   1.044   0.773   7.909 -1.8610 -0.8811  2.0148
 5552SOL     OW28114   4.455   0.424   5.819 -0.5562 -0.3584 -0.7498
 5552SOL    HW128115   4.419   0.509   5.846  0.5722  0.4300 -1.7707
 5552SOL    HW228116   4.399   0.406   5.744  0.6727  0.7474 -1.9355
 5553SOL     OW28117   1.814   1.423  11.604  0.7202 -0.0081  0.5009
 5553SOL    HW128118   1.801   1.472  11.523  2.1793  2.5642  1.8099
 5553SOL    HW228119   1.740   1.364  11.593 -0.1899  0.6747  3.0502
 5554SOL     OW28120   2.919   1.210   6.931  0.0845 -0.4920 -0.1964
 5554SOL    HW128121   2.880   1.148   6.869 -0.3997 -0.7473  0.3637
 5554SOL    HW228122   2.861   1.192   7.004 -0.6410 -1.7725 -1.0784
 5555SOL     OW28123   0.964   0.106  11.245  0.2265 -0.2371 -0.0678
 5555SOL    HW128124   0.909   0.116  11.323 -0.7999  2.2852 -1.1302
 5555SOL    HW228125   0.910   0.057  11.182  1.8021 -0.7997 -0.9905
 5556SOL     OW28126   0.869   4.666  12.087 -0.3420 -0.2921  0.0227
 5556SOL    HW128127   0.892   4.677  12.180 -0.6828  0.4887  0.0170
 5556SOL    HW228128   0.774   4.653  12.089 -0.8102  2.8269 -1.1729
 5557SOL     OW28129   1.384   3.912  12.767 -0.3586 -0.0251 -0.1343
 5557SOL    HW128130   1.345   3.943  12.685 -0.2711  1.4198  0.3758
 5557SOL    HW228131   1.423   3.825  12.751  1.6931  0.8544  0.0906
 5558SOL     OW28132   1.082   4.225  12.539  0.2653  0.0660 -0.8643
 5558SOL    HW128133   1.169   4.233  12.579  0.5367  2.2099 -1.8453
 5558SOL    HW228134   1.053   4.134  12.548  2.3078 -0.5057 -0.1560
 5559SOL     OW28135   2.547   4.380  13.430 -0.4406  0.0769 -0.4976
 5559SOL    HW128136   2.634   4.393  13.393  0.3858  0.4536  1.5621
 5559SOL    HW228137   2.508   4.305  13.384 -0.7688 -0.7280  1.0799
 5560SOL     OW28138   1.663   2.997   3.365 -0.1993 -0.0959 -0.5129
 5560SOL    HW128139   1.757   2.982   3.373 -0.1939  0.2117  0.0348
 5560SOL    HW228140   1.662   3.027   3.274  0.9881  1.8110  0.0978
 5561SOL     OW28141   4.091   1.233  16.035 -0.2144 -0.1317  0.3268
 5561SOL    HW128142   4.101   1.180  16.114  0.2907 -1.4092 -0.5780
 5561SOL    HW228143   4.041   1.306  16.069 -2.1594 -0.5403 -1.6421
 5562SOL     OW28144   3.059   4.183  11.939  0.4229 -0.5245  0.5210
 5562SOL    HW128145   3.135   4.136  11.971  1.7611  0.5687 -1.0626
 5562SOL    HW228146   3.093   4.271  11.921 -1.7897 -0.1250 -1.7399
 5563SOL     OW28147   4.282   0.603   6.660  0.1555 -0.0484 -0.2004
 5563SOL    HW128148   4.225   0.644   6.725  0.4288 -0.0757  0.0613
 5563SOL    HW228149   4.303   0.519   6.702 -1.2967 -1.1963 -1.7616
 5564SOL     OW28150   1.754   3.431  12.478 -0.3052  0.1444 -0.6809
 5564SOL    HW128151   1.785   3.458  12.565  0.6483  1.6541 -1.4909
 5564SOL    HW228152   1.841   3.408  12.447 -0.3956  0.5120 -1.2076
 5565SOL     OW28153   3.691   0.293   7.147  0.0653  0.5479 -0.3742
 5565SOL    HW128154   3.654   0.328   7.228 -0.7014 -0.4500 -0.2859
 5565SOL    HW228155   3.617   0.307   7.088  0.4115 -0.1153 -0.9680
 5566SOL     OW28156   4.318   4.313   7.194  0.1201 -0.4944 -0.0333
 5566SOL    HW128157   4.246   4.293   7.135  0.1746  3.0539 -1.2728
 5566SOL    HW228158   4.275   4.376   7.252 -0.2229  0.2340 -1.0990
 5567SOL     OW28159   0.680   1.095   8.891  0.7611 -0.4132 -0.0008
 5567SOL    HW128160   0.685   1.109   8.796  0.3866  0.8319  0.1578
 5567SOL    HW228161   0.606   1.154   8.906  0.8312  0.4094 -2.8239
 5568SOL     OW28162   2.032   1.765   6.532  0.3502 -0.1488  0.5547
 5568SOL    HW128163   2.062   1.817   6.457 -0.6564 -0.8518 -0.3574
 5568SOL    HW228164   2.064   1.815   6.607  0.5889 -2.3096  1.8774
 5569SOL     OW28165   0.285   4.517   9.060  0.6482  0.2664 -0.4604
 5569SOL    HW128166   0.222   4.585   9.033 -0.6607 -1.4809 -1.8063
 5569SOL    HW228167   0.328   4.552   9.138  1.4798 -1.0551 -0.3436
 5570SOL     OW28168   0.591   1.884   6.421 -0.2927  0.0849  0.7219
 5570SOL    HW128169   0.597   1.964   6.368  2.4418  0.7937  2.0952
 5570SOL    HW228170   0.652   1.832   6.369 -1.9190  0.4024 -1.4803
 5571SOL     OW28171   0.300   0.666  14.615  0.2277  0.6487  0.1203
 5571SOL    HW128172   0.298   0.652  14.710  0.3626 -2.0370 -0.2718
 5571SOL    HW228173   0.366   0.611  14.572  0.3247  0.7790  0.1031
 5572SOL     OW28174   2.926   3.226   0.219  0.1120 -0.0813 -0.4685
 5572SOL    HW128175   3.021   3.211   0.220 -0.0326 -0.7341  3.4681
 5572SOL    HW228176   2.895   3.220   0.309  0.5269 -1.0814 -0.3852
 5573SOL     OW28177   3.001   3.410  16.033  0.0667  0.0364 -0.0034
 5573SOL    HW128178   2.992   3.345  16.103  0.2011  0.2211  0.1839
 5573SOL    HW228179   2.911   3.423  16.003 -0.0144  1.4811  0.8722
 5574SOL     OW28180   2.322   2.705   3.664 -0.0170 -0.5134 -0.3912
 5574SOL    HW128181   2.319   2.800   3.657 -2.1509 -0.5587  0.1424
 5574SOL    HW228182   2.248   2.679   3.717 -0.9947 -0.0294 -1.5234
 5575SOL     OW28183   4.279   4.173   4.215 -0.1690 -0.0604 -0.7502
 5575SOL    HW128184   4.196   4.179   4.261  0.4340 -0.4951  0.4033
 5575SOL    HW228185   4.327   4.116   4.276  1.6718 -0.0260 -2.1732
 5576SOL     OW28186   3.118   2.789   5.392 -0.2740  0.1872 -0.0854
 5576SOL    HW128187   3.025   2.813   5.391  0.2582  2.2843  0.3328
 5576SOL    HW228188   3.132   2.710   5.444  2.2530  0.8959  0.3081
 5577SOL     OW28189   1.145   2.743   7.967 -0.5042  0.1495 -0.0930
 5577SOL    HW128190   1.095   2.688   8.027  1.0935 -0.7828  0.3574
 5577SOL    HW228191   1.108   2.831   7.978  0.9004  0.6448  0.7218
 5578SOL     OW28192   4.376   2.424   1.778  0.0853 -0.1027 -0.2958
 5578SOL    HW128193   4.345   2.514   1.790  0.7205  0.0081  0.5485
 5578SOL    HW228194   4.417   2.425   1.692 -0.4074  1.1626 -0.5176
 5579SOL     OW28195   3.877   3.781   7.816 -0.4903 -0.1559 -0.0734
 5579SOL    HW128196   3.811   3.837   7.859 -1.8049 -0.8953 -1.1176
 5579SOL    HW228197   3.821   3.703   7.821 -0.2896 -0.4469 -2.5440
 5580SOL     OW28198   0.624   3.186   8.528 -0.4986 -0.3410  0.5179
 5580SOL    HW128199   0.655   3.218   8.443 -3.3737 -0.0291 -0.4114
 5580SOL    HW228200   0.673   3.105   8.539  1.0679  0.3407 -1.3726
 5581SOL     OW28201   0.332   1.866   6.968 -0.0651  0.3112 -0.3861
 5581SOL    HW128202   0.327   1.958   6.992  1.5672 -0.0394  1.2849
 5581SOL    HW228203   0.353   1.875   6.875  1.7826  0.9416  0.1064
 5582SOL     OW28204   0.738   2.021   9.645 -0.5955 -0.8132 -0.1001
 5582SOL    HW128205   0.797   2.093   9.623 -2.3917  1.3927  2.3876
 5582SOL    HW228206   0.790   1.964   9.702  1.0211 -0.9605 -1.7215
 5583SOL     OW28207   3.829   3.213   8.612  0.8434 -0.1472 -0.4599
 5583SOL    HW128208   3.734   3.201   8.616  0.7316  0.4520 -1.2988
 5583SOL    HW228209   3.849   3.175   8.697 -0.6694 -0.3690 -0.1997
 5584SOL     OW28210   3.327   1.500   4.086  0.2104 -0.0003 -0.0832
 5584SOL    HW128211   3.356   1.457   4.166 -1.0730  2.1049  1.4884
 5584SOL    HW228212   3.402   1.537   4.040  0.5799 -1.0546 -0.3366
 5585SOL     OW28213   0.971   0.914   3.686 -0.2332  0.3015  0.1874
 5585SOL    HW128214   0.984   0.838   3.743  0.6749  0.7024  0.5215
 5585SOL    HW228215   1.018   0.892   3.606 -1.6887  0.0701 -0.6035
 5586SOL     OW28216   0.372   1.266   3.128  0.7553 -1.0350  0.0664
 5586SOL    HW128217   0.446   1.277   3.187 -0.1860  1.8448  0.6594
 5586SOL    HW228218   0.396   1.199   3.064 -1.4281 -0.3245 -1.4892
 5587SOL     OW28219   1.924   3.741  12.462 -0.1854  0.7709 -0.9414
 5587SOL    HW128220   1.940   3.835  12.466  0.6553  0.5902 -0.2794
 5587SOL    HW228221   2.014   3.712  12.450 -0.8267 -1.5813 -0.0979
 5588SOL     OW28222   0.478   2.926   3.914  0.6590  0.2550 -0.2263
 5588SOL    HW128223   0.556   2.980   3.926 -0.1254  1.7933 -1.9837
 5588SOL    HW228224   0.429   2.941   3.995  0.9900 -0.6304  0.1408
 5589SOL     OW28225   4.649   2.860   2.302 -0.2309  0.5041 -0.1404
 5589SOL    HW128226   0.013   2.833   2.265 -0.2488 -2.0787  1.6647
 5589SOL    HW228227   4.635   2.949   2.272  1.4776  1.6012  2.2304
 5590SOL     OW28228   3.501   3.177   1.765 -0.4870  0.0378  0.5201
 5590SOL    HW128229   3.539   3.139   1.686 -1.0659  0.7952 -0.1245
 5590SOL    HW228230   3.535   3.266   1.767 -0.3954  0.0467 -2.7660
 5591SOL     OW28231   2.264   3.794  15.289 -0.3692 -0.2538  0.7855
 5591SOL    HW128232   2.274   3.887  15.270 -0.4680 -0.2355  0.8259
 5591SOL    HW228233   2.352   3.773  15.320 -0.1071 -1.4386 -0.7289
 5592SOL     OW28234   3.848   0.297  13.198  0.0714 -0.3244 -0.0414
 5592SOL    HW128235   3.765   0.251  13.194  1.2348 -2.5957  2.1459
 5592SOL    HW228236   3.868   0.302  13.104  0.9688  1.0108  0.2075
 5593SOL     OW28237   1.576   1.198   6.839  0.1270  0.4809 -0.1048
 5593SOL    HW128238   1.525   1.276   6.860 -1.5003 -0.6205 -0.0075
 5593SOL    HW228239   1.601   1.178   6.929  0.0329  1.6580  0.1841
 5594SOL     OW28240   1.793   2.481   9.255 -0.5109 -0.4705 -0.3418
 5594SOL    HW128241   1.753   2.545   9.314  2.1959  1.8981 -1.0692
 5594SOL    HW228242   1.849   2.431   9.313  0.8354 -0.1207 -1.3461
 5595SOL     OW28243   2.359   4.156  10.768 -0.5766  0.1866  0.4821
 5595SOL    HW128244   2.309   4.213  10.826  0.5457  1.3071  0.3431
 5595SOL    HW228245   2.433   4.212  10.746 -0.5159 -0.6217 -1.3686
 5596SOL     OW28246   2.394   4.081   0.809  0.0651 -0.3014 -0.0249
 5596SOL    HW128247   2.326   4.140   0.773  0.2681 -0.4356 -0.6325
 5596SOL    HW228248   2.477   4.120   0.781 -1.2215  2.4269 -0.1456
 5597SOL     OW28249   1.948   2.875   7.438 -0.2174 -0.1276 -0.2736
 5597SOL    HW128250   1.951   2.938   7.366 -2.2977  1.3351  0.9410
 5597SOL    HW228251   2.039   2.849   7.455  0.2964  1.5432 -0.4858
 5598SOL     OW28252   1.413   4.265   6.005 -0.1601  0.5393  0.2746
 5598SOL    HW128253   1.363   4.293   5.928 -0.2108  0.7099  0.3695
 5598SOL    HW228254   1.439   4.347   6.046 -1.4435 -0.1494  2.4741
 5599SOL     OW28255   0.712   2.670   9.335  0.5218 -0.0148 -0.5751
 5599SOL    HW128256   0.764   2.691   9.413 -0.1028  1.9678 -0.6790
 5599SOL    HW228257   0.717   2.575   9.326  0.2446 -0.0802 -0.0383
 5600SOL     OW28258   1.770   3.944   2.530  0.0767  0.7332  0.0492
 5600SOL    HW128259   1.696   3.997   2.558 -0.0414  0.2516  0.6310
 5600SOL    HW228260   1.775   3.874   2.595  0.1718 -0.3834 -1.1515
 5601SOL     OW28261   0.204   0.729   4.652 -0.3000 -0.6039  0.3926
 5601SOL    HW128262   0.245   0.659   4.703  0.3930  0.2108  0.9437
 5601SOL    HW228263   0.229   0.710   4.561 -3.1586 -1.8380 -0.1370
 5602SOL     OW28264   0.874   1.824   7.784 -0.1047 -0.1593 -0.8083
 5602SOL    HW128265   0.850   1.825   7.691 -1.8801 -1.2935 -0.3698
 5602SOL    HW228266   0.940   1.893   7.782  0.3585 -0.5763  0.0698
 5603SOL     OW28267   1.851   3.054   2.824  0.0489  0.5459 -0.0872
 5603SOL    HW128268   1.838   3.058   2.730  2.9443  1.1015 -0.4926
 5603SOL    HW228269   1.854   3.145   2.854 -0.6337 -0.1821  2.2177
 5604SOL     OW28270   4.334   0.003   1.036  0.1128  0.0651  0.2141
 5604SOL    HW128271   4.414   4.672   1.050 -1.0483 -1.2277  2.1353
 5604SOL    HW228272   4.370   0.087   1.007  1.5351 -1.9603 -3.8360
 5605SOL     OW28273   2.076   2.854   6.727 -0.4845  0.2602 -0.1899
 5605SOL    HW128274   2.045   2.779   6.777  2.7236 -0.8635  0.1169
 5605SOL    HW228275   1.995   2.885   6.687 -0.5271  2.6340  1.7615
 5606SOL     OW28276   2.080   2.652   1.909  0.2339 -0.0095 -0.2306
 5606SOL    HW128277   2.077   2.604   1.826 -2.6883  0.9971 -0.6875
 5606SOL    HW228278   2.172   2.677   1.907  0.1798  0.1189 -1.3031
 5607SOL     OW28279   4.367   2.105   2.129 -0.0778  0.1598 -0.1482
 5607SOL    HW128280   4.324   2.038   2.075 -1.6897  2.5183 -1.8174
 5607SOL    HW228281   4.321   2.085   2.210  0.8512 -2.6359 -0.3226
 5608SOL     OW28282   3.595   0.283   5.326  0.6012 -0.6236  0.2556
 5608SOL    HW128283   3.545   0.203   5.315 -0.3857  0.3493 -2.5728
 5608SOL    HW228284   3.680   0.252   5.357  0.4810 -0.1426  1.0614
 5609SOL     OW28285   1.190   2.304  12.839  0.0378  0.4526  0.2809
 5609SOL    HW128286   1.278   2.340  12.829  0.8423 -1.3948  0.6153
 5609SOL    HW228287   1.139   2.369  12.886 -1.2183  0.5682 -1.2431
 5610SOL     OW28288   3.564   3.816   6.698  0.0666 -1.3143  0.3404
 5610SOL    HW128289   3.653   3.841   6.723 -0.7280  1.4873  0.3908
 5610SOL    HW228290   3.566   3.740   6.639 -0.4392 -0.8148 -0.3095
 5611SOL     OW28291   2.477   3.271   3.766  0.6504 -0.1788  0.2991
 5611SOL    HW128292   2.444   3.214   3.696 -1.4375 -0.1715  1.2701
 5611SOL    HW228293   2.564   3.300   3.737  0.1776  1.9891  1.0530
 5612SOL     OW28294   3.872   4.380   8.054  0.5534 -0.2325 -0.3169
 5612SOL    HW128295   3.948   4.352   8.105 -0.7696  0.4282  2.0175
 5612SOL    HW228296   3.912   4.393   7.969  0.4391  0.4117 -0.2719
 5613SOL     OW28297   1.497   0.022   3.134  0.1019  0.3760 -0.1621
 5613SOL    HW128298   1.443   4.688   3.076 -1.7174  0.7573  1.1795
 5613SOL    HW228299   1.447   0.103   3.134  1.1112  0.9964  0.4275
 5614SOL     OW28300   4.488   1.666   6.341 -0.2413  0.1199  0.0804
 5614SOL    HW128301   4.423   1.733   6.356 -0.2316  0.5659 -1.8029
 5614SOL    HW228302   4.468   1.598   6.406 -1.1137  1.1392  0.8649
 5615SOL     OW28303   2.647   3.100   1.438  0.3579  0.2692 -0.2825
 5615SOL    HW128304   2.701   3.179   1.441 -1.3638  1.5360 -2.8344
 5615SOL    HW228305   2.616   3.112   1.348 -0.5936  2.2098  0.3013
 5616SOL     OW28306   2.786   3.215   0.483 -0.3562  0.2433 -0.1055
 5616SOL    HW128307   2.810   3.181   0.569 -1.4869  1.0532  0.5403
 5616SOL    HW228308   2.694   3.188   0.484 -0.0853 -0.6461  0.1454
 5617SOL     OW28309   4.451   4.248   9.170 -0.2291 -0.0789  0.2940
 5617SOL    HW128310   4.365   4.255   9.211 -0.7179  1.0293 -0.9148
 5617SOL    HW228311   4.467   4.332   9.127 -4.9410  2.0925  2.8107
 5618SOL     OW28312   3.211   0.343  10.845  0.1032  0.5155  0.0106
 5618SOL    HW128313   3.254   0.397  10.911 -0.0862  0.9302 -0.2053
 5618SOL    HW228314   3.160   0.292  10.907  0.8244  0.5491  0.6274
 5619SOL     OW28315   0.466   2.463   5.056  0.5897 -0.9227  0.2761
 5619SOL    HW128316   0.506   2.376   5.043  1.0644 -1.0339  2.4134
 5619SOL    HW228317   0.382   2.438   5.018  0.1488 -1.7722  1.7868
 5620SOL     OW28318   2.575   4.324   7.414 -0.1244  0.5967  0.0949
 5620SOL    HW128319   2.654   4.323   7.360  1.2151  2.3454  2.0600
 5620SOL    HW228320   2.611   4.325   7.503 -1.0535  1.5680  0.4564
 5621SOL     OW28321   2.768   3.937   4.190 -0.4435 -0.4072  0.2574
 5621SOL    HW128322   2.710   3.892   4.252  0.5856  0.1535  1.6273
 5621SOL    HW228323   2.717   4.012   4.159 -0.8822 -1.4320 -1.4838
 5622SOL     OW28324   1.321   2.033   8.005  0.0787 -0.5970 -0.0902
 5622SOL    HW128325   1.356   1.945   8.017 -1.1913 -1.5421 -3.5202
 5622SOL    HW228326   1.322   2.067   8.095 -0.8107 -2.0650  0.4673
 5623SOL     OW28327   3.201   1.101  12.346 -0.2047  0.0763  0.2587
 5623SOL    HW128328   3.257   1.038  12.302 -2.5836 -1.3257 -0.7666
 5623SOL    HW228329   3.212   1.182  12.296  2.6523  0.0388  0.8408
 5624SOL     OW28330   2.329   3.723   7.080 -0.0435  0.1471 -0.9860
 5624SOL    HW128331   2.285   3.798   7.040 -0.9701  0.0367 -0.1616
 5624SOL    HW228332   2.397   3.759   7.138 -0.3920 -0.1587 -0.3900
 5625SOL     OW28333   3.743   1.338   6.539  0.6291  0.1136 -0.1212
 5625SOL    HW128334   3.687   1.352   6.615  0.8732 -0.1650  0.1124
 5625SOL    HW228335   3.718   1.417   6.491 -0.0511 -0.1885 -0.2629
 5626SOL     OW28336   2.763   0.940   2.983  0.4684  0.0233  0.0005
 5626SOL    HW128337   2.768   1.017   3.039  2.3188 -2.0209  2.6539
 5626SOL    HW228338   2.685   0.895   3.018  1.3711 -1.5402  0.0070
 5627SOL     OW28339   3.991   4.682   2.654 -0.4764 -0.3292  0.4715
 5627SOL    HW128340   3.989   4.592   2.619  0.3929  0.0383 -0.5440
 5627SOL    HW228341   3.937   0.008   2.591 -1.2517 -1.3807  0.3581
 5628SOL     OW28342   0.998   2.284  16.543 -0.0648  0.3215 -0.6290
 5628SOL    HW128343   1.013   2.191  16.525  1.8604  0.6616 -0.8269
 5628SOL    HW228344   1.049   2.287  16.624 -1.6557  0.0696  0.3840
 5629SOL     OW28345   0.845   1.539   2.326  0.8187  0.2018  0.1338
 5629SOL    HW128346   0.861   1.611   2.266 -0.8132  1.3840  1.1082
 5629SOL    HW228347   0.823   1.476   2.258 -0.7708  1.1616 -0.2493
 5630SOL     OW28348   2.644   0.515  12.147  0.1652 -0.1551 -0.3140
 5630SOL    HW128349   2.564   0.464  12.136  0.3174 -1.0651  2.9572
 5630SOL    HW228350   2.645   0.519  12.242 -0.6827 -0.2586 -0.3017
 5631SOL     OW28351   2.952   1.293   8.844 -0.6238 -0.0262  0.4713
 5631SOL    HW128352   2.897   1.238   8.900  0.0579 -2.3064 -1.0770
 5631SOL    HW228353   2.987   1.363   8.898 -0.3593  0.7954 -0.7656
 5632SOL     OW28354   4.616   2.075   8.382 -0.0995  0.4092  0.3036
 5632SOL    HW128355   4.653   2.077   8.470  3.4695 -3.2400 -1.0925
 5632SOL    HW228356   4.695   2.039   8.340 -1.9090 -1.6196 -1.3887
 5633SOL     OW28357   3.639   3.633   3.050  0.1144  0.3471 -0.0023
 5633SOL    HW128358   3.584   3.711   3.062 -2.0202 -1.8050  4.1692
 5633SOL    HW228359   3.571   3.566   3.054  0.3319  0.1279 -0.0269
 5634SOL     OW28360   1.042   0.793   5.368  0.2372  0.8876  0.2058
 5634SOL    HW128361   1.017   0.768   5.280  0.4403  0.3690  0.2935
 5634SOL    HW228362   0.966   0.788   5.426 -0.6722  3.6619 -0.8005
 5635SOL     OW28363   3.225   2.778   7.632 -0.0568 -0.5466  0.4454
 5635SOL    HW128364   3.277   2.857   7.642 -0.4533 -0.3645  1.0526
 5635SOL    HW228365   3.203   2.765   7.724 -2.4257  0.2267 -0.0171
 5636SOL     OW28366   0.959   3.286  14.154  0.4201  0.3933  0.7617
 5636SOL    HW128367   0.886   3.235  14.189 -0.8289  1.1022 -0.7866
 5636SOL    HW228368   1.013   3.212  14.126  1.0676  0.1792  2.5742
 5637SOL     OW28369   0.498   1.153   7.699  1.2801  0.1782 -0.1063
 5637SOL    HW128370   0.443   1.230   7.707 -0.2190 -0.9836  0.6688
 5637SOL    HW228371   0.530   1.157   7.609 -1.3146  0.6478 -1.0000
 5638SOL     OW28372   0.173   4.475   8.670 -0.0170 -0.1830  1.1495
 5638SOL    HW128373   0.093   4.428   8.646  0.0662  0.1985  0.1144
 5638SOL    HW228374   0.138   4.541   8.731 -0.3213  0.3733  0.3682
 5639SOL     OW28375   1.435   2.143  16.501  0.1248 -0.5285 -0.0328
 5639SOL    HW128376   1.376   2.198  16.552  0.9535  0.6779 -0.3882
 5639SOL    HW228377   1.431   2.183  16.415  1.2102 -1.3698 -0.4718
 5640SOL     OW28378   1.641   1.433   0.878  0.0243 -0.2895  0.2505
 5640SOL    HW128379   1.568   1.491   0.857  0.0984 -0.3670 -0.2349
 5640SOL    HW228380   1.625   1.372   0.805  1.3647 -0.9290  0.4966
 5641SOL     OW28381   2.867   3.580   9.104 -0.8466 -0.0149  0.0673
 5641SOL    HW128382   2.879   3.639   9.030  0.0758  2.6079  2.3140
 5641SOL    HW228383   2.888   3.645   9.171 -0.1198  1.4101 -1.5247
 5642SOL     OW28384   0.968   4.435   9.719 -0.0566 -0.4974 -0.4806
 5642SOL    HW128385   1.061   4.439   9.738 -0.4304  1.6457  0.8672
 5642SOL    HW228386   0.937   4.517   9.759  0.5638 -0.3434 -0.3253
 5643SOL     OW28387   1.592   2.282  12.577  0.2569 -0.1131 -0.1661
 5643SOL    HW128388   1.647   2.330  12.639  0.1188  1.2137 -1.0564
 5643SOL    HW228389   1.547   2.360  12.542 -2.8309 -1.1220  1.5399
 5644SOL     OW28390   3.561   0.151   3.123 -0.0493  0.3568 -0.2999
 5644SOL    HW128391   3.601   0.182   3.204  0.1935 -0.4952 -0.0904
 5644SOL    HW228392   3.627   0.085   3.104  1.7077  2.6510 -2.1476
 5645SOL     OW28393   0.691   0.101  11.889  0.9933 -0.1325 -0.2112
 5645SOL    HW128394   0.728   0.182  11.855 -2.1366  1.0002 -0.8854
 5645SOL    HW228395   0.641   0.073  11.812 -2.6454 -0.6023  2.3152
 5646SOL     OW28396   1.100   4.508  16.302 -0.1750 -0.3480 -0.2270
 5646SOL    HW128397   1.110   4.513  16.207  0.1369  1.2679 -0.1110
 5646SOL    HW228398   1.129   4.593  16.335  2.1239 -1.6410  1.1146
 5647SOL     OW28399   3.549   1.641   3.950  0.2026  0.1950  0.0085
 5647SOL    HW128400   3.532   1.682   3.865  0.6867  0.6391  0.1270
 5647SOL    HW228401   3.644   1.644   3.961  0.3364 -1.2136 -0.8229
 5648SOL     OW28402   4.474   0.205   6.021 -0.3961  0.2782  0.6362
 5648SOL    HW128403   4.434   0.210   5.934 -0.7400 -0.1268  0.7700
 5648SOL    HW228404   4.397   0.230   6.072 -0.2267 -0.0502  1.0482
 5649SOL     OW28405   4.127   0.139   1.858  0.6162  0.4885 -0.3230
 5649SOL    HW128406   4.154   0.121   1.768  0.1585 -1.2322 -0.1216
 5649SOL    HW228407   4.209   0.121   1.904  1.3279 -0.4592 -1.9669
 5650SOL     OW28408   3.995   2.280  10.629 -0.3617  0.5316 -0.8379
 5650SOL    HW128409   4.088   2.260  10.638 -0.5952 -0.5797 -0.8916
 5650SOL    HW228410   3.954   2.199  10.661 -2.2050  2.1360  0.8676
 5651SOL     OW28411   2.706   1.624   4.476  0.0891 -0.7595 -0.0450
 5651SOL    HW128412   2.745   1.697   4.429 -0.0852 -0.5725  0.1027
 5651SOL    HW228413   2.760   1.548   4.453  0.1258 -0.2433 -1.6533
 5652SOL     OW28414   4.304   2.078   4.108  0.1425 -0.1870 -0.0391
 5652SOL    HW128415   4.285   2.083   4.202  1.8389  2.2000  0.1766
 5652SOL    HW228416   4.229   2.034   4.068  0.0933 -0.0936 -0.0486
 5653SOL     OW28417   2.887   4.418  12.018  1.2250 -0.2521  0.3727
 5653SOL    HW128418   2.978   4.411  11.990  1.0718 -2.2525  0.3392
 5653SOL    HW228419   2.903   4.450  12.107 -0.5725  1.7735 -0.0291
 5654SOL     OW28420   3.896   0.932   3.358  0.6851  0.1872  0.0366
 5654SOL    HW128421   3.956   0.995   3.318  0.3404  1.6440  1.8140
 5654SOL    HW228422   3.839   0.921   3.282  0.0921  2.1994  0.1915
 5655SOL     OW28423   2.332   3.062   2.562 -0.4409  0.0035 -0.4001
 5655SOL    HW128424   2.255   3.066   2.620 -1.6841  0.5901 -2.0854
 5655SOL    HW228425   2.355   2.971   2.579  0.2533  0.0023 -1.3465
 5656SOL     OW28426   3.372   3.859  12.273  0.2428 -0.1054 -0.0976
 5656SOL    HW128427   3.438   3.856  12.204 -0.6926  0.4434 -1.0266
 5656SOL    HW228428   3.381   3.951  12.296  1.9919 -0.2288 -0.3014
 5657SOL     OW28429   0.786   3.404  14.726 -0.2180  0.2896  0.1545
 5657SOL    HW128430   0.860   3.365  14.679 -0.7243 -2.6056  1.7943
 5657SOL    HW228431   0.739   3.326  14.755  0.5527 -0.1222  0.2951
 5658SOL     OW28432   0.241   0.327   0.387 -0.1882  0.5347 -0.5879
 5658SOL    HW128433   0.185   0.389   0.341 -2.0276 -2.2781 -2.0980
 5658SOL    HW228434   0.177   0.271   0.429  1.2097  1.4017  2.7114
 5659SOL     OW28435   3.149   0.578   5.217  0.4631 -0.5761  0.8998
 5659SOL    HW128436   3.196   0.528   5.284 -0.0553 -1.6312  0.4748
 5659SOL    HW228437   3.113   0.649   5.269  2.6551  0.3267  1.1760
 5660SOL     OW28438   3.287   1.201   9.192  0.0040 -0.2533  0.2759
 5660SOL    HW128439   3.284   1.297   9.188  0.0012 -0.2598  0.1167
 5660SOL    HW228440   3.232   1.171   9.120 -0.8550 -0.0669  0.8423
 5661SOL     OW28441   1.299   1.560   3.808  0.9482  0.0225 -0.6513
 5661SOL    HW128442   1.248   1.498   3.756 -0.7267  1.6035 -0.9230
 5661SOL    HW228443   1.384   1.525   3.783  0.4478 -1.9989  0.4762
 5662SOL     OW28444   4.178   0.220   4.571 -0.3656 -0.3277 -0.5086
 5662SOL    HW128445   4.230   0.225   4.491  0.6009 -1.0317  0.0788
 5662SOL    HW228446   4.088   0.196   4.546 -1.0724 -1.5606  3.1453
 5663SOL     OW28447   0.542   0.207   6.982  0.3198  0.1173  0.1738
 5663SOL    HW128448   0.612   0.217   7.047  2.6595  0.0014 -2.3498
 5663SOL    HW228449   0.591   0.157   6.916  0.1307 -2.0986  1.6901
 5664SOL     OW28450   1.279   3.391   7.442 -0.5071 -0.2838  0.0729
 5664SOL    HW128451   1.317   3.476   7.417  0.4435 -1.4167 -2.2778
 5664SOL    HW228452   1.246   3.366   7.356  1.1276  0.7809 -0.8614
 5665SOL     OW28453   0.011   0.254   7.909 -0.1978 -0.8316 -0.9552
 5665SOL    HW128454   4.720   0.164   7.880  0.1050 -0.3968 -2.4139
 5665SOL    HW228455   4.640   0.264   7.934  0.5314 -0.4346  1.5771
 5666SOL     OW28456   0.080   1.203   4.799  0.2973  0.5358 -0.0768
 5666SOL    HW128457   0.136   1.127   4.814  0.5601  0.7658  0.1017
 5666SOL    HW228458   0.103   1.232   4.710 -0.8246  0.8386 -0.2720
 5667SOL     OW28459   2.422   2.238  13.151 -0.4365 -0.3435 -0.0000
 5667SOL    HW128460   2.383   2.246  13.064  1.7800 -0.7997 -1.0302
 5667SOL    HW228461   2.366   2.180  13.201 -2.7541  2.3686  0.5494
 5668SOL     OW28462   3.579   1.421   5.536 -0.2032 -0.3899  0.0496
 5668SOL    HW128463   3.615   1.377   5.459  1.5945 -1.1755  1.3074
 5668SOL    HW228464   3.569   1.357   5.607 -1.5224 -2.7999 -2.3191
 5669SOL     OW28465   1.253   4.118   6.538  0.6806 -0.1155 -0.6122
 5669SOL    HW128466   1.213   4.187   6.484  0.4581  1.4421  1.5411
 5669SOL    HW228467   1.347   4.125   6.522  0.9356 -1.3473  0.3479
 5670SOL     OW28468   2.643   0.656  14.225 -0.1936  0.1908 -0.2018
 5670SOL    HW128469   2.637   0.561  14.215  0.5250  0.1059  0.1367
 5670SOL    HW228470   2.739   0.658  14.236 -0.6156 -0.7058  3.7455
 5671SOL     OW28471   0.402   1.816   2.082  0.7398  0.4382 -0.4831
 5671SOL    HW128472   0.455   1.742   2.051  1.7129  0.8517  0.1985
 5671SOL    HW228473   0.462   1.859   2.143 -0.3172  1.9571 -0.5081
 5672SOL     OW28474   1.386   1.911   6.019  0.2526 -0.1886  0.6522
 5672SOL    HW128475   1.436   1.992   6.031 -1.2666  1.1047 -1.7876
 5672SOL    HW228476   1.442   1.867   5.955 -2.6982 -1.6902 -0.8777
 5673SOL     OW28477   3.292   4.144   5.590  0.2678 -0.2855  0.8612
 5673SOL    HW128478   3.280   4.094   5.509 -1.3731  0.2766  0.7653
 5673SOL    HW228479   3.201   4.174   5.598  0.7359  1.6101 -0.9649
 5674SOL     OW28480   0.496   3.889   6.618  1.2487 -0.3311  0.3093
 5674SOL    HW128481   0.456   3.925   6.539  2.7586  1.9505  0.5896
 5674SOL    HW228482   0.439   3.813   6.630 -2.1070  2.1605 -0.1378
 5675SOL     OW28483   4.578   4.527   5.775 -0.2177 -0.4771  0.2295
 5675SOL    HW128484   4.656   4.505   5.725 -0.2458 -1.8366  0.7679
 5675SOL    HW228485   4.607   4.570   5.856 -0.8432 -0.1536  0.2799
 5676SOL     OW28486   2.025   0.365  13.329  0.3785  0.1350 -0.1038
 5676SOL    HW128487   1.970   0.337  13.256 -0.8380 -0.8300  1.1743
 5676SOL    HW228488   2.105   0.388  13.282  0.2920 -0.9305 -0.7710
 5677SOL     OW28489   1.261   3.199  14.331 -0.0734 -0.0966  0.5965
 5677SOL    HW128490   1.270   3.257  14.406 -1.2881  1.3893 -0.3826
 5677SOL    HW228491   1.172   3.165  14.341  0.2399 -1.2750 -0.6134
 5678SOL     OW28492   1.912   3.770  11.964  0.2354  0.4772 -0.2257
 5678SOL    HW128493   1.979   3.720  11.917  2.2283  2.4029  0.5811
 5678SOL    HW228494   1.897   3.834  11.894 -2.5598  0.6830  0.5339
 5679SOL     OW28495   1.485   4.198   3.240 -0.0361  0.0595  0.0583
 5679SOL    HW128496   1.496   4.123   3.299  0.5688 -0.7984 -1.1520
 5679SOL    HW228497   1.548   4.174   3.172 -0.9346  0.5336 -0.9405
 5680SOL     OW28498   1.901   1.436   9.666 -0.2327  0.2136  0.2432
 5680SOL    HW128499   1.873   1.456   9.577  0.6950 -0.6701 -0.2539
 5680SOL    HW228500   1.985   1.391   9.652  0.3763  1.3038  0.4383
 5681SOL     OW28501   0.613   1.731   4.107 -0.3037  0.5358  0.1582
 5681SOL    HW128502   0.577   1.658   4.156  0.2578 -0.4294 -0.8678
 5681SOL    HW228503   0.648   1.690   4.028 -3.0185 -2.1837  0.3593
 5682SOL     OW28504   1.558   4.207  14.964 -0.5218 -0.0588 -0.1198
 5682SOL    HW128505   1.585   4.254  14.886  0.1330 -1.9551 -1.0370
 5682SOL    HW228506   1.618   4.233  15.034 -1.3099  0.7299  0.2743
 5683SOL     OW28507   3.592   4.280   5.168 -0.3560 -0.0650 -0.2010
 5683SOL    HW128508   3.500   4.305   5.175 -0.1513  0.0092  2.3097
 5683SOL    HW228509   3.590   4.202   5.225 -0.2108  0.0630 -0.0204
 5684SOL     OW28510   4.623   0.069  16.230 -0.3173  0.3726  0.1302
 5684SOL    HW128511   4.674   4.714  16.202 -0.4377 -0.6717  2.6826
 5684SOL    HW228512   4.536   0.031  16.216 -0.5623 -0.6699  4.2274
 5685SOL     OW28513   2.651   0.928   0.549 -0.5434 -0.2174 -0.3331
 5685SOL    HW128514   2.724   0.869   0.528 -0.2868  0.2019 -0.6243
 5685SOL    HW228515   2.658   0.980   0.469  0.9452 -0.7194 -0.5321
 5686SOL     OW28516   0.533   4.606   1.474  0.4765  0.1435 -0.3896
 5686SOL    HW128517   0.588   4.571   1.403 -1.3096 -1.9002 -0.7643
 5686SOL    HW228518   0.565   4.549   1.544 -1.1630  0.2457  0.4444
 5687SOL     OW28519   3.054   3.619   8.252  0.1331  0.0126 -0.3581
 5687SOL    HW128520   2.970   3.600   8.211 -0.5622  1.5827  0.3183
 5687SOL    HW228521   3.031   3.698   8.302 -2.1758  0.2710 -1.8278
 5688SOL     OW28522   4.372   3.553   5.182  0.0584 -0.1060 -0.2195
 5688SOL    HW128523   4.295   3.504   5.152  1.5261 -1.1862 -2.1552
 5688SOL    HW228524   4.397   3.598   5.102 -3.1337  0.9602 -0.6164
 5689SOL     OW28525   2.218   4.570   2.384 -0.4796 -0.0926 -0.8232
 5689SOL    HW128526   2.268   4.508   2.437  1.0338  0.1932 -1.9179
 5689SOL    HW228527   2.252   4.549   2.297  2.2179  1.3783 -0.1317
 5690SOL     OW28528   1.135   2.985   2.921 -0.4535 -0.0921  0.0119
 5690SOL    HW128529   1.203   2.998   2.854 -2.1175 -0.3798 -1.7486
 5690SOL    HW228530   1.084   3.064   2.903  0.7189  1.7359  4.6562
 5691SOL     OW28531   4.249   0.298   2.926  0.6020  0.7658 -0.2569
 5691SOL    HW128532   4.157   0.273   2.934  0.7892  0.3772  0.6520
 5691SOL    HW228533   4.264   0.332   3.014 -2.0253 -0.3499  0.6331
 5692SOL     OW28534   3.124   0.840   5.344  0.6245  0.2140 -0.5630
 5692SOL    HW128535   3.037   0.875   5.326  1.2652  0.2185 -3.6700
 5692SOL    HW228536   3.188   0.905   5.317  0.7500  0.2569 -0.1509
 5693SOL     OW28537   2.857   0.933   6.100  0.1156  0.0992  0.6961
 5693SOL    HW128538   2.931   0.920   6.159 -1.0157  0.4420  2.1915
 5693SOL    HW228539   2.906   0.919   6.019 -0.1894  0.7511  0.3988
 5694SOL     OW28540   2.689   0.985   0.798  0.5098  0.3146 -0.2153
 5694SOL    HW128541   2.678   0.957   0.707  3.8374  3.3008 -1.5407
 5694SOL    HW228542   2.599   1.010   0.816  0.1759 -1.8448  1.1168
 5695SOL     OW28543   3.825   1.559  14.435 -0.5899 -0.3791 -0.4319
 5695SOL    HW128544   3.848   1.605  14.354 -0.8082  1.4976  0.5714
 5695SOL    HW228545   3.875   1.597  14.506 -1.5504  2.3936 -1.2597
 5696SOL     OW28546   0.498   0.636   2.433 -0.2774  0.3233  0.0753
 5696SOL    HW128547   0.566   0.634   2.366 -1.5610 -0.0058 -1.2014
 5696SOL    HW228548   0.515   0.569   2.500 -1.6691 -0.6206 -0.5242
 5697SOL     OW28549   4.433   0.194  14.670  0.1545 -0.5583  0.1887
 5697SOL    HW128550   4.352   0.161  14.633 -0.8351 -0.3249  2.1168
 5697SOL    HW228551   4.499   0.143  14.623  0.6131 -0.0760  0.3077
 5698SOL     OW28552   2.435   1.043   5.752  0.1321  0.1284 -0.1454
 5698SOL    HW128553   2.467   1.129   5.725 -0.2994  0.3068 -0.0850
 5698SOL    HW228554   2.512   0.987   5.761  1.6408  2.4512  1.1932
 5699SOL     OW28555   2.976   0.786   9.567 -0.1905  0.1617  0.6169
 5699SOL    HW128556   2.947   0.724   9.634 -0.7527 -0.1819  0.0593
 5699SOL    HW228557   2.892   0.822   9.538 -0.4578  0.2152  1.4538
 5700SOL     OW28558   1.271   1.244   4.991  0.0852 -0.5087 -0.3459
 5700SOL    HW128559   1.197   1.250   4.931 -1.1333  1.3164  1.3733
 5700SOL    HW228560   1.337   1.304   4.956 -0.5515 -0.1538 -0.9382
 5701SOL     OW28561   0.342   4.268  11.468  0.1184 -0.3599  0.2165
 5701SOL    HW128562   0.381   4.187  11.437 -0.6345 -1.1088  1.2448
 5701SOL    HW228563   0.419   4.301  11.514  0.2247 -0.2251 -0.0541
 5702SOL     OW28564   2.336   1.105   3.081  0.6747 -0.1566 -0.5034
 5702SOL    HW128565   2.418   1.145   3.052  1.3782 -0.3149  1.2499
 5702SOL    HW228566   2.296   1.182   3.122 -0.0046 -0.8397  0.1207
 5703SOL     OW28567   0.275   3.965   9.502 -0.6831 -0.3848 -0.1434
 5703SOL    HW128568   0.317   3.908   9.437  0.1328 -0.6379  0.6042
 5703SOL    HW228569   0.253   4.031   9.436 -2.1427 -1.0801 -0.3652
 5704SOL     OW28570   4.672   2.459   5.210  0.0816 -0.0573 -0.5382
 5704SOL    HW128571   4.665   2.463   5.306  0.6229  1.2519 -0.5621
 5704SOL    HW228572   4.601   2.398   5.190  1.9814 -2.7263  0.8454
 5705SOL     OW28573   2.167   0.612   4.345 -0.8468  0.2824  0.2181
 5705SOL    HW128574   2.158   0.670   4.421  0.9277 -0.0374  0.6834
 5705SOL    HW228575   2.149   0.670   4.271 -2.6861  1.8955  1.9292
 5706SOL     OW28576   2.596   0.473   2.200 -0.0795  0.1238  0.2621
 5706SOL    HW128577   2.691   0.466   2.190  0.1039  1.4817  0.9961
 5706SOL    HW228578   2.590   0.564   2.229  0.5674  0.1834  0.2188
 5707SOL     OW28579   1.604   4.135   4.081  0.4910 -0.4937  0.2527
 5707SOL    HW128580   1.595   4.044   4.054 -3.0588  0.2121 -0.8872
 5707SOL    HW228581   1.528   4.185   4.053  1.3073  0.7374  0.2085
 5708SOL     OW28582   4.608   1.529   7.899  0.4752  0.3401 -0.1422
 5708SOL    HW128583   4.669   1.469   7.943  4.2689  2.3164 -2.7106
 5708SOL    HW228584   4.660   1.609   7.891 -0.9850  1.3471  0.3722
 5709SOL     OW28585   2.726   4.000   6.686 -0.3315  0.2711 -0.2472
 5709SOL    HW128586   2.661   4.041   6.743 -0.0656 -0.0650  0.2948
 5709SOL    HW228587   2.776   4.073   6.650  1.2360 -0.6721  0.0017
 5710SOL     OW28588   0.070   2.950  10.253  0.0637  0.3487  0.0567
 5710SOL    HW128589   0.161   2.964  10.281  0.3950 -0.5439 -0.5945
 5710SOL    HW228590   0.067   2.971  10.160 -1.1966  0.4733  0.1201
 5711SOL     OW28591   0.535   0.264  16.612 -0.0212  0.3393 -0.3362
 5711SOL    HW128592   0.520   0.170  16.595  2.1663 -0.3517  1.5732
 5711SOL    HW228593   0.447   0.280  16.645  0.9167  1.2244  1.7054
 5712SOL     OW28594   1.878   2.155   4.791 -1.0835  0.6850  0.1754
 5712SOL    HW128595   1.809   2.161   4.725 -1.4978  2.1010  0.7359
 5712SOL    HW228596   1.928   2.233   4.763  0.7669 -0.1501  1.1748
 5713SOL     OW28597   3.478   1.920   1.966  0.2543 -0.0545  0.2396
 5713SOL    HW128598   3.506   2.008   1.991  0.6670 -0.6448  1.8645
 5713SOL    HW228599   3.451   1.933   1.875  0.8774  1.1831  0.2289
 5714SOL     OW28600   1.511   3.482   4.286  0.1718  0.3128  0.1265
 5714SOL    HW128601   1.575   3.463   4.354 -1.6935 -1.2969  1.4503
 5714SOL    HW228602   1.450   3.411   4.306 -0.6827  1.0733  0.2092
 5715SOL     OW28603   1.246   2.569   5.320 -0.6165 -0.1443  0.0640
 5715SOL    HW128604   1.206   2.497   5.370 -1.6036 -1.1658 -2.1402
 5715SOL    HW228605   1.171   2.629   5.322 -3.1671 -3.2611 -1.0265
 5716SOL     OW28606   4.588   3.412  10.653  0.0806 -0.0515  0.7741
 5716SOL    HW128607   4.636   3.346  10.703 -1.0157 -0.3519  1.4314
 5716SOL    HW228608   4.610   3.493  10.700  1.8865  0.1656 -0.4394
 5717SOL     OW28609   2.328   1.619   3.706  0.1400 -0.2327 -0.1087
 5717SOL    HW128610   2.287   1.666   3.633  2.0441  0.5243 -0.6954
 5717SOL    HW228611   2.418   1.613   3.676  0.3952 -0.8987  0.7900
 5718SOL     OW28612   2.611   3.633   9.574  0.7633  0.6546 -0.3335
 5718SOL    HW128613   2.629   3.604   9.664 -0.0964  1.7713  0.1886
 5718SOL    HW228614   2.601   3.725   9.598 -1.9417 -0.2341  1.9205
 5719SOL     OW28615   2.421   3.002   1.598  0.5364  0.1341 -0.2896
 5719SOL    HW128616   2.437   2.951   1.677 -2.7181 -0.3556  0.0665
 5719SOL    HW228617   2.510   3.011   1.565  0.2077  1.5957 -0.7487
 5720SOL     OW28618   2.704   2.777   3.424 -0.3367  0.0200 -0.1291
 5720SOL    HW128619   2.745   2.761   3.340  1.0092  1.2598  0.2798
 5720SOL    HW228620   2.614   2.785   3.393  0.0906 -0.6018 -1.4850
 5721SOL     OW28621   0.995   2.147   0.815 -0.3856 -0.1022  0.1510
 5721SOL    HW128622   1.012   2.091   0.739  1.3041 -1.7337  1.7247
 5721SOL    HW228623   0.997   2.082   0.885 -2.3374 -1.0487 -0.6776
 5722SOL     OW28624   2.379   2.802   2.631 -0.6751 -0.4006 -0.0480
 5722SOL    HW128625   2.465   2.785   2.671 -0.4423 -0.5849 -0.6208
 5722SOL    HW228626   2.322   2.774   2.702 -1.4352 -0.1081 -0.5406
 5723SOL     OW28627   0.978   3.327  16.072  0.0163 -0.1748 -0.3981
 5723SOL    HW128628   0.971   3.374  15.989 -2.8447 -0.4121 -0.2793
 5723SOL    HW228629   0.887   3.309  16.095  0.2922 -1.2883 -0.1696
 5724SOL     OW28630   0.416   4.152  17.097 -0.0551  0.1666 -0.2998
 5724SOL    HW128631   0.473   4.114  17.031  1.4725  1.6278  0.1991
 5724SOL    HW228632   0.441   4.244  17.104 -2.0177  0.7801 -1.0975
 5725SOL     OW28633   1.961   2.800   2.534  0.3505 -0.4896  0.5722
 5725SOL    HW128634   2.004   2.781   2.617  0.4279 -1.5071  0.2995
 5725SOL    HW228635   1.969   2.896   2.538 -0.5837 -0.4001  0.1498
 5726SOL     OW28636   0.193   4.699  11.597  0.1615 -0.0381 -0.2673
 5726SOL    HW128637   0.268   4.645  11.623  0.9924  0.3316 -1.9078
 5726SOL    HW228638   0.216   0.003  11.508 -2.6373 -0.9255 -1.2318
 5727SOL     OW28639   2.489   3.291  13.261  0.4315 -1.1499 -0.5092
 5727SOL    HW128640   2.410   3.270  13.310  0.3866 -0.7261 -0.4004
 5727SOL    HW228641   2.503   3.379  13.296 -0.5092 -1.0379 -0.4228
 5728SOL     OW28642   0.939   0.706   2.031 -0.5721 -1.0523 -0.4279
 5728SOL    HW128643   0.919   0.706   1.937 -0.1042 -1.9886 -0.5245
 5728SOL    HW228644   1.021   0.656   2.031 -0.5019 -0.9370 -0.2304
 5729SOL     OW28645   3.897   1.610   7.979  0.0230 -0.0364 -0.5618
 5729SOL    HW128646   3.967   1.627   8.042  0.8423 -2.8128 -0.7209
 5729SOL    HW228647   3.811   1.618   8.019  0.2580 -0.9225  0.0887
 5730SOL     OW28648   1.303   4.654   0.933 -0.3734 -0.2383 -0.2043
 5730SOL    HW128649   1.266   4.651   1.021  0.4206 -1.9015  0.0800
 5730SOL    HW228650   1.380   4.707   0.956 -0.1167 -1.0617  0.8418
 5731SOL     OW28651   0.149   0.464   0.173 -0.4145 -0.3503 -0.0154
 5731SOL    HW128652   0.094   0.539   0.152  1.4596  0.7293 -1.0127
 5731SOL    HW228653   0.177   0.439   0.085  2.0535  1.6039  0.2228
 5732SOL     OW28654   2.165   0.956   1.746 -0.1882  0.0281  0.0761
 5732SOL    HW128655   2.079   0.975   1.707 -0.8746 -2.2899  0.4397
 5732SOL    HW228656   2.204   1.043   1.744  0.0737 -0.1003 -0.3258
 5733SOL     OW28657   2.978   3.970   9.391  1.0930  0.2242  0.4637
 5733SOL    HW128658   3.036   3.946   9.463 -0.9860  0.1927  2.1491
 5733SOL    HW228659   3.023   3.932   9.316 -2.9214 -0.7902 -1.4306
 5734SOL     OW28660   0.691   3.499   7.500 -0.7293 -0.5994  0.0947
 5734SOL    HW128661   0.638   3.478   7.423 -0.6968  1.3479 -0.4589
 5734SOL    HW228662   0.763   3.550   7.462 -1.0172 -1.6245 -1.8291
 5735SOL     OW28663   4.266   0.850  15.988 -0.7584  0.1885 -0.4384
 5735SOL    HW128664   4.283   0.800  15.908  1.1254  2.3750 -1.4163
 5735SOL    HW228665   4.317   0.796  16.049  1.6682  0.8766 -1.8269
 5736SOL     OW28666   2.007   2.960  11.856 -0.2761 -0.3317  0.0191
 5736SOL    HW128667   2.046   2.891  11.802  0.8226  0.8128 -0.6711
 5736SOL    HW228668   2.085   3.010  11.883 -0.3933 -0.4484  0.5651
 5737SOL     OW28669   2.708   3.383   3.387 -0.1781 -0.4611 -0.0135
 5737SOL    HW128670   2.725   3.455   3.326  1.6925 -0.7880  0.1256
 5737SOL    HW228671   2.772   3.409   3.454  0.8638 -1.2260 -0.7296
 5738SOL     OW28672   2.718   0.737   4.359 -0.1313 -0.0894  0.1061
 5738SOL    HW128673   2.725   0.651   4.400  0.8314 -0.0477  0.0150
 5738SOL    HW228674   2.701   0.715   4.267 -1.9835  0.2486  0.3515
 5739SOL     OW28675   1.437   3.960   2.882 -0.3090 -0.3556 -0.0257
 5739SOL    HW128676   1.355   3.992   2.845 -1.8299 -1.5919  2.3129
 5739SOL    HW228677   1.401   3.881   2.920 -2.6209  0.8635  0.3214
 5740SOL     OW28678   0.347   0.010   5.342 -0.4335  0.5888 -0.1467
 5740SOL    HW128679   0.306   0.041   5.423  0.5191  1.1082  0.1483
 5740SOL    HW228680   0.282   0.038   5.278 -0.7904 -0.3415 -0.1873
 5741SOL     OW28681   3.093   0.945   2.132  0.3434 -0.1503 -0.0739
 5741SOL    HW128682   3.151   0.879   2.171  0.6729  0.2764  0.1579
 5741SOL    HW228683   3.140   0.970   2.053  1.8011 -0.9455  0.5351
 5742SOL     OW28684   4.335   2.400   8.131  0.0500  0.1262  0.2315
 5742SOL    HW128685   4.410   2.376   8.186  1.5033  1.8709 -0.9936
 5742SOL    HW228686   4.366   2.481   8.091  0.1698 -0.6484 -1.2939
 5743SOL     OW28687   3.827   3.439  15.396  0.4873 -0.2773  0.3616
 5743SOL    HW128688   3.749   3.465  15.445  2.1967  1.4502  2.1434
 5743SOL    HW228689   3.792   3.377  15.332  2.6549  0.8492 -1.9312
 5744SOL     OW28690   3.063   3.049   8.569 -0.1930  0.3455 -0.0209
 5744SOL    HW128691   3.006   2.972   8.573 -0.3791  0.5166  0.5746
 5744SOL    HW228692   3.021   3.097   8.640  1.0368  1.9497 -0.3896
 5745SOL     OW28693   4.230   4.143  14.950 -0.1374 -0.1458  0.0754
 5745SOL    HW128694   4.228   4.194  15.031  0.3374 -0.7595  0.4685
 5745SOL    HW228695   4.180   4.203  14.894  0.9851  1.2249  0.5231
 5746SOL     OW28696   1.372   3.537   8.295  0.3510  0.3431  0.8523
 5746SOL    HW128697   1.305   3.518   8.361 -2.2532 -0.9192 -2.1272
 5746SOL    HW228698   1.382   3.456   8.246 -2.5385 -0.2568  1.2287
 5747SOL     OW28699   1.645   2.890   1.470  0.3263 -0.3496 -0.0734
 5747SOL    HW128700   1.628   2.936   1.552  1.9740 -0.4448  0.3179
 5747SOL    HW228701   1.719   2.940   1.437 -0.9133  1.9463  0.5902
 5748SOL     OW28702   2.643   0.634   9.573  0.1010  0.0172 -0.8005
 5748SOL    HW128703   2.707   0.603   9.636  0.4689 -0.0424 -1.2123
 5748SOL    HW228704   2.615   0.557   9.524 -2.0401 -0.4838  1.1611
 5749SOL     OW28705   0.738   3.601  14.884  0.2390 -0.8741 -0.6755
 5749SOL    HW128706   0.725   3.530  14.822  0.4398 -0.7723 -0.8313
 5749SOL    HW228707   0.679   3.573  14.954  2.8102 -3.0667  0.6309
 5750SOL     OW28708   0.652   3.494  16.004  0.0410 -0.3020  0.2898
 5750SOL    HW128709   0.683   3.564  16.062 -3.4731  1.8153 -0.4236
 5750SOL    HW228710   0.580   3.459  16.057 -1.0855  2.1084  0.3477
 5751SOL     OW28711   3.490   4.423   6.676  0.4804  0.1863 -0.3459
 5751SOL    HW128712   3.505   4.340   6.630 -0.8651  0.6372 -1.5901
 5751SOL    HW228713   3.577   4.461   6.688  0.2327  0.3042  1.0398
 5752SOL     OW28714   3.630   4.644  15.640 -0.6937 -0.3347  0.4197
 5752SOL    HW128715   3.570   4.700  15.688  1.8143  0.8177  2.2257
 5752SOL    HW228716   3.642   4.585  15.714  2.3239 -0.0164  0.1753
 5753SOL     OW28717   0.505   3.418   2.912 -0.3309  0.4946  0.0978
 5753SOL    HW128718   0.433   3.355   2.913 -1.6901  2.0323  0.7571
 5753SOL    HW228719   0.454   3.491   2.875 -0.2345  0.6276  0.2297
 5754SOL     OW28720   3.517   0.106   6.228 -0.6292  0.1418  0.3330
 5754SOL    HW128721   3.568   0.050   6.170 -1.3924 -0.9351  0.7057
 5754SOL    HW228722   3.510   0.055   6.308  1.0451 -2.9059 -1.4651
 5755SOL     OW28723   1.831   3.981   9.415  0.0477 -0.4335  0.2986
 5755SOL    HW128724   1.822   3.924   9.491  1.9243 -1.9559 -0.6041
 5755SOL    HW228725   1.913   3.953   9.374 -0.0801 -0.9312  0.3897
 5756SOL     OW28726   1.580   2.366  10.301  0.1561 -0.2696 -0.1996
 5756SOL    HW128727   1.513   2.426  10.334 -0.7286 -0.8761 -0.9108
 5756SOL    HW228728   1.641   2.364  10.375 -0.2020 -2.3644  0.0248
 5757SOL     OW28729   1.195   3.191   6.005 -0.1654  0.0762  0.0448
 5757SOL    HW128730   1.181   3.111   6.055 -0.2673  0.4989  0.7037
 5757SOL    HW228731   1.279   3.226   6.035 -0.2435  1.1737 -1.0235
 5758SOL     OW28732   3.745   4.425   0.703  0.2849  0.2948  0.6489
 5758SOL    HW128733   3.838   4.443   0.715  0.7096 -1.4504 -0.1754
 5758SOL    HW228734   3.722   4.470   0.621 -1.0556 -0.2842  0.7121
 5759SOL     OW28735   4.471   4.158   7.382 -0.4507  0.1559 -0.5307
 5759SOL    HW128736   4.405   4.089   7.393  1.2151 -1.4429 -0.6052
 5759SOL    HW228737   4.438   4.194   7.299 -1.6418 -1.5642 -0.8026
 5760SOL     OW28738   0.386   0.300   7.828 -0.4432  0.0708 -0.0766
 5760SOL    HW128739   0.348   0.387   7.820 -2.1980 -0.5902  1.1532
 5760SOL    HW228740   0.339   0.270   7.906  0.5557 -0.3822  0.3558
 5761SOL     OW28741   0.964   1.191  17.453 -0.4504  0.0097 -0.2882
 5761SOL    HW128742   1.047   1.144  17.457 -0.9756 -0.7911  1.7932
 5761SOL    HW228743   0.988   1.265  17.508 -1.5164  0.0272  0.1597
 5762SOL     OW28744   4.623   0.517   7.423  0.3012  0.2917 -0.0212
 5762SOL    HW128745   4.647   0.498   7.513 -0.6001 -4.4446 -0.7711
 5762SOL    HW228746   4.710   0.543   7.391 -0.3056  0.7391 -1.3176
 5763SOL     OW28747   1.855   0.751   8.963 -0.1701  0.0826 -1.1313
 5763SOL    HW128748   1.762   0.769   8.972  0.8919  5.3230 -0.3879
 5763SOL    HW228749   1.875   0.755   9.056 -1.3061 -2.5233 -0.7839
 5764SOL     OW28750   0.860   0.025  11.517 -0.2244  0.0803  0.2813
 5764SOL    HW128751   0.780   0.025  11.570 -0.2314  1.0274  0.2629
 5764SOL    HW228752   0.913   0.099  11.544  0.1833  0.4451 -1.5415
 5765SOL     OW28753   2.701   3.936   8.414 -0.2597 -0.1251  0.1636
 5765SOL    HW128754   2.681   3.900   8.327  0.5643 -0.9026  0.2876
 5765SOL    HW228755   2.700   4.030   8.398 -1.2172 -0.2811 -0.6967
 5766SOL     OW28756   0.572   1.909  13.152 -0.7351  0.3372  0.4551
 5766SOL    HW128757   0.654   1.953  13.128 -1.0108  0.1177 -0.9077
 5766SOL    HW228758   0.512   1.940  13.084  0.0596 -0.8404 -0.7997
 5767SOL     OW28759   2.401   3.740  11.336  0.2475  0.3996  0.1032
 5767SOL    HW128760   2.490   3.754  11.368  0.3896  1.7956 -0.8916
 5767SOL    HW228761   2.417   3.730  11.242  0.0426  0.3487  0.0739
 5768SOL     OW28762   0.492   1.476  12.351 -0.7075  0.1557 -0.6056
 5768SOL    HW128763   0.455   1.532  12.419 -1.0160 -2.6985  1.5619
 5768SOL    HW228764   0.584   1.484  12.375 -0.6662  1.1460 -1.0844
 5769SOL     OW28765   1.158   4.650   7.762 -0.2035 -0.4561  0.1058
 5769SOL    HW128766   1.168   4.702   7.682 -1.1959  2.3409  1.7790
 5769SOL    HW228767   1.092   4.586   7.739 -1.3417  0.7016  0.1446
 5770SOL     OW28768   4.095   4.665  14.545 -0.2810  0.0274 -0.0775
 5770SOL    HW128769   4.146   4.590  14.573  0.2509  0.4303  0.0357
 5770SOL    HW228770   4.012   4.653  14.591  0.1984 -0.2489  0.7118
 5771SOL     OW28771   2.498   2.177   3.329 -0.0581  0.4280 -0.4228
 5771SOL    HW128772   2.481   2.236   3.403 -0.5518  2.0311 -1.7926
 5771SOL    HW228773   2.589   2.196   3.307  1.1087 -2.9686  1.6123
 5772SOL     OW28774   4.454   0.768   4.750  0.4431  0.7625  0.6424
 5772SOL    HW128775   4.519   0.731   4.691 -1.6714 -1.3283 -0.3420
 5772SOL    HW228776   4.386   0.701   4.756  1.1593 -0.0489 -0.3502
 5773SOL     OW28777   2.136   0.027  15.848  0.6118 -0.6674  0.1437
 5773SOL    HW128778   2.147   0.040  15.754 -0.7277 -0.7391 -0.0136
 5773SOL    HW228779   2.223   4.718  15.877  1.0487  0.9052  0.4321
 5774SOL     OW28780   2.234   1.883  16.462 -0.0405 -0.2330 -0.1726
 5774SOL    HW128781   2.185   1.849  16.387 -0.4540 -3.0646  1.3783
 5774SOL    HW228782   2.317   1.835  16.464  0.1339  0.1034  0.7055
 5775SOL     OW28783   1.347   1.079  11.349 -0.1814 -0.1372  0.8239
 5775SOL    HW128784   1.329   1.130  11.428  0.0731  1.9899 -0.5000
 5775SOL    HW228785   1.442   1.083  11.341 -0.4502  2.0587 -1.2978
 5776SOL     OW28786   1.786   2.583   8.991  0.0915 -0.3776 -0.0137
 5776SOL    HW128787   1.805   2.577   9.085 -0.9685 -0.9887  0.1569
 5776SOL    HW228788   1.874   2.572   8.956  0.5901  1.0436  0.8232
 5777SOL     OW28789   3.038   1.406   2.925 -0.1469 -0.8410  0.2220
 5777SOL    HW128790   3.026   1.408   3.019 -0.8857  0.7870  0.0892
 5777SOL    HW228791   3.098   1.477   2.899 -0.3857 -1.4139 -1.9428
 5778SOL     OW28792   4.442   0.937   3.765 -0.3549 -0.0647  0.6606
 5778SOL    HW128793   4.485   0.852   3.766 -0.1826  0.0184  0.4758
 5778SOL    HW228794   4.370   0.918   3.826  1.0560 -1.4642  1.8697
 5779SOL     OW28795   4.179   3.717   8.333  0.0541  0.2184 -0.1296
 5779SOL    HW128796   4.225   3.683   8.410  0.7313  2.0644  0.2606
 5779SOL    HW228797   4.098   3.755   8.368 -2.1040 -0.9083 -3.7965
 5780SOL     OW28798   2.266   2.202   2.407 -0.4212 -0.0990 -0.1278
 5780SOL    HW128799   2.315   2.279   2.434  2.2194 -1.9437  0.3425
 5780SOL    HW228800   2.317   2.127   2.437  1.6105  1.0111 -0.7994
 5781SOL     OW28801   4.720   3.425  10.081 -0.4018 -0.2367 -0.3073
 5781SOL    HW128802   4.629   3.424  10.052 -0.7333 -0.9926  0.7421
 5781SOL    HW228803   4.713   3.348  10.138 -0.7706  2.1565  2.9380
 5782SOL     OW28804   3.003   0.248   2.488  0.0447  0.0258 -0.0597
 5782SOL    HW128805   3.043   0.166   2.515  1.4150  0.4068 -0.9675
 5782SOL    HW228806   2.975   0.284   2.573 -0.1270  0.9664 -0.5095
 5783SOL     OW28807   3.406   1.585   8.231  0.1229  0.0961  0.7692
 5783SOL    HW128808   3.355   1.665   8.243  0.3832  0.1717  1.3844
 5783SOL    HW228809   3.420   1.562   8.323 -1.8506  2.6812  1.7070
 5784SOL     OW28810   4.420   2.075  10.853 -0.5561 -0.1892  0.0062
 5784SOL    HW128811   4.509   2.099  10.880 -0.6899  0.8622 -0.4834
 5784SOL    HW228812   4.431   2.015  10.780  0.0503  0.2614 -0.2698
 5785SOL     OW28813   1.642   2.274   5.436  0.4017 -0.0961 -0.2649
 5785SOL    HW128814   1.607   2.270   5.347 -0.3667  2.6385 -0.0879
 5785SOL    HW228815   1.694   2.194   5.445  1.0252  0.2129 -1.0805
 5786SOL     OW28816   3.272   2.389   6.182 -0.1501 -0.0942 -0.0933
 5786SOL    HW128817   3.182   2.386   6.149  0.0086  0.1022 -0.5406
 5786SOL    HW228818   3.318   2.345   6.111 -0.9319 -0.5791 -0.2972
 5787SOL     OW28819   2.725   0.689   8.569  0.0654  0.4978  0.2589
 5787SOL    HW128820   2.652   0.712   8.511 -1.8446 -3.5535  1.0604
 5787SOL    HW228821   2.730   0.597   8.545 -0.1310  1.0301 -1.8412
 5788SOL     OW28822   0.563   0.999   6.815  0.3203 -0.0155 -0.2418
 5788SOL    HW128823   0.541   1.038   6.900  2.2830  2.3017 -0.7871
 5788SOL    HW228824   0.479   1.007   6.771  0.6938  1.0469 -0.7663
 5789SOL     OW28825   0.032   4.454  14.827  0.7207 -0.4523 -0.1076
 5789SOL    HW128826   0.084   4.430  14.750  1.6779  1.9143 -0.1851
 5789SOL    HW228827   0.032   4.549  14.821  1.8327 -0.3104  2.0077
 5790SOL     OW28828   2.365   3.531   2.796 -0.3105 -0.1568  0.5609
 5790SOL    HW128829   2.369   3.623   2.822  0.3201  0.4876 -1.8530
 5790SOL    HW228830   2.308   3.538   2.719 -1.1190  0.1588  1.1852
 5791SOL     OW28831   0.363   3.857  11.563  0.0724  0.2041 -0.4562
 5791SOL    HW128832   0.405   3.930  11.517  1.8231  0.2440  1.2033
 5791SOL    HW228833   0.440   3.813  11.599  0.9573  0.9310 -1.4482
 5792SOL     OW28834   2.874   1.844  12.064 -0.2133 -0.1554 -0.5478
 5792SOL    HW128835   2.958   1.889  12.058  0.5368 -1.1791  2.2821
 5792SOL    HW228836   2.911   1.760  12.038 -1.0786 -0.5699 -0.4462
 5793SOL     OW28837   0.789   4.516   2.163  0.7055 -0.1516 -0.6581
 5793SOL    HW128838   0.804   4.481   2.075  0.3969  0.4382 -0.9434
 5793SOL    HW228839   0.695   4.535   2.160  0.7009 -0.1386 -0.4271
 5794SOL     OW28840   0.499   2.465   9.841  0.0891 -0.2383  0.2871
 5794SOL    HW128841   0.519   2.454   9.934  3.2455  1.9318 -0.1158
 5794SOL    HW228842   0.411   2.502   9.852 -0.4052 -0.0174 -4.1440
 5795SOL     OW28843   1.167   2.625   4.941 -0.0868 -0.4051 -0.5947
 5795SOL    HW128844   1.199   2.537   4.963 -0.5165 -0.5457 -0.5274
 5795SOL    HW228845   1.218   2.619   4.860  2.7192 -1.1976  1.2142
 5796SOL     OW28846   2.455   3.512   3.482 -0.2018  0.7581  1.0037
 5796SOL    HW128847   2.410   3.428   3.473 -2.1257  1.7980  0.9162
 5796SOL    HW228848   2.542   3.488   3.451 -0.0742  2.3219  0.1385
 5797SOL     OW28849   1.466   2.892   4.836 -0.0922 -0.6809  0.2978
 5797SOL    HW128850   1.401   2.875   4.904  0.8351 -2.6755  0.6836
 5797SOL    HW228851   1.503   2.804   4.833  2.2001  0.2973  0.3016
 5798SOL     OW28852   0.070   0.975   7.709  0.4127  0.0362 -0.1075
 5798SOL    HW128853   0.080   1.069   7.696 -1.6992  0.0731 -1.4691
 5798SOL    HW228854   0.159   0.952   7.735  0.3146 -0.6473 -0.4022
 5799SOL     OW28855   1.822   2.332   5.866  0.2461 -0.3340  0.1010
 5799SOL    HW128856   1.895   2.393   5.882 -0.2917 -0.2135  2.1396
 5799SOL    HW228857   1.849   2.281   5.790  0.7831  0.8879 -0.5379
 5800SOL     OW28858   4.057   4.160   4.020 -0.4127  0.2400 -0.0604
 5800SOL    HW128859   4.114   4.200   3.954  2.0857 -0.6006  1.5989
 5800SOL    HW228860   4.100   4.075   4.034 -0.5475 -0.4075 -3.4769
 5801SOL     OW28861   1.037   3.562   0.039 -0.2284  0.7474  0.0048
 5801SOL    HW128862   1.041   3.538   0.132  1.3235 -0.4068 -0.3605
 5801SOL    HW228863   1.081   3.484   0.005 -2.3816 -1.0305  1.2664
 5802SOL     OW28864   2.545   2.971   4.808 -0.1130  0.0432  0.1788
 5802SOL    HW128865   2.524   2.980   4.715  1.6830 -0.0962 -0.2543
 5802SOL    HW228866   2.638   2.947   4.801 -0.2003  0.2248 -1.6972
 5803SOL     OW28867   3.754   1.556  12.405  0.2472 -0.4944 -0.2346
 5803SOL    HW128868   3.751   1.613  12.329 -1.6927 -1.7810 -1.1438
 5803SOL    HW228869   3.669   1.513  12.397 -0.2385  0.3005  0.7170
 5804SOL     OW28870   3.467   3.566   8.794 -0.1044  0.0927 -0.5461
 5804SOL    HW128871   3.393   3.589   8.851  1.3035 -0.4301  1.4487
 5804SOL    HW228872   3.536   3.581   8.858 -0.0238 -1.1300 -0.3522
 5805SOL     OW28873   0.659   0.822   7.491 -0.0223 -0.0069  0.1940
 5805SOL    HW128874   0.575   0.814   7.537  0.5507  0.8219  1.3683
 5805SOL    HW228875   0.682   0.730   7.477  1.2306  0.6478 -1.9604
 5806SOL     OW28876   4.268   1.976  12.141 -0.0765 -0.3164  0.4884
 5806SOL    HW128877   4.206   1.906  12.160  1.7445 -2.1680 -0.3966
 5806SOL    HW228878   4.297   1.943  12.055  2.5612  3.8049 -0.2222
 5807SOL     OW28879   0.026   3.022   4.136  0.4333  0.3055 -0.3766
 5807SOL    HW128880   4.672   3.075   4.164  0.0660 -1.0083  1.1646
 5807SOL    HW228881   0.048   2.979   4.219 -1.2594 -0.0559 -0.1210
 5808SOL     OW28882   2.815   2.218  13.617 -0.3030 -0.1837 -0.5541
 5808SOL    HW128883   2.742   2.163  13.644 -1.0181  1.0453  0.0093
 5808SOL    HW228884   2.775   2.269  13.547 -0.1302 -0.2996 -0.7345
 5809SOL     OW28885   3.848   1.478   5.563  0.0392  0.4960  0.0814
 5809SOL    HW128886   3.853   1.420   5.639  1.8010  0.4976 -0.0486
 5809SOL    HW228887   3.753   1.489   5.560  0.1356  1.4299  0.7939
 5810SOL     OW28888   1.685   3.306   8.278  0.7568  0.0996  0.2882
 5810SOL    HW128889   1.698   3.220   8.317  2.4522  0.7547  1.1749
 5810SOL    HW228890   1.650   3.345   8.359  1.3424  0.7062  0.2436
 5811SOL     OW28891   2.089   4.431   0.857 -0.3431 -0.0458 -0.2232
 5811SOL    HW128892   2.030   4.436   0.782  0.5317  1.3348 -0.8409
 5811SOL    HW228893   2.160   4.489   0.828 -0.3283 -1.2604 -2.6572
 5812SOL     OW28894   2.318   0.775   8.256  0.1419 -0.2334  0.4567
 5812SOL    HW128895   2.257   0.826   8.203 -0.8651 -3.0555 -1.0573
 5812SOL    HW228896   2.262   0.746   8.328  0.6620 -1.1183  0.5027
 5813SOL     OW28897   1.886   1.072   7.855 -0.3412 -0.3053  0.0419
 5813SOL    HW128898   1.977   1.101   7.852 -0.7732  1.0405 -0.1670
 5813SOL    HW228899   1.868   1.048   7.764 -0.3186  3.3390 -0.9070
 5814SOL     OW28900   0.288   3.756  17.341  0.4297 -0.1984 -0.1293
 5814SOL    HW128901   0.230   3.685  17.314 -0.8997  1.3416 -1.3237
 5814SOL    HW228902   0.220   3.823  17.345  0.1257 -0.6218  2.1599
 5815SOL     OW28903   2.775   4.279   7.242 -1.0163  0.1834  0.5725
 5815SOL    HW128904   2.855   4.241   7.279  1.0622  2.7265 -1.2985
 5815SOL    HW228905   2.743   4.214   7.179  2.3853 -0.3178 -0.6373
 5816SOL     OW28906   1.730   3.527  17.338 -0.1855  0.0548  0.4639
 5816SOL    HW128907   1.762   3.603  17.387 -2.3305  1.5925 -0.5321
 5816SOL    HW228908   1.677   3.485  17.406 -0.2998 -0.8945 -0.2011
 5817SOL     OW28909   0.992   3.220   2.830  0.8581 -0.0176 -0.1659
 5817SOL    HW128910   1.050   3.251   2.760  1.2313  0.0652  0.1812
 5817SOL    HW228911   0.907   3.222   2.788  1.0852  0.4471 -0.6019
 5818SOL     OW28912   4.288   3.345   2.776  0.4960  0.5999 -0.0952
 5818SOL    HW128913   4.265   3.406   2.706 -0.6129  0.6747  0.3336
 5818SOL    HW228914   4.361   3.388   2.821  1.9664 -1.1287 -0.8069
 5819SOL     OW28915   2.426   2.723  10.887 -0.4023  0.0424 -0.6184
 5819SOL    HW128916   2.424   2.713  10.792 -3.2956 -2.0093 -0.3350
 5819SOL    HW228917   2.475   2.805  10.894 -1.6052  0.7832 -1.0933
 5820SOL     OW28918   3.600   0.636   7.701  0.5763 -0.6513  0.0290
 5820SOL    HW128919   3.650   0.707   7.742 -0.3758  1.3253 -2.2005
 5820SOL    HW228920   3.526   0.690   7.673  2.2886  1.5684 -0.1874
 5821SOL     OW28921   0.116   3.843   3.032  0.0040  0.3962  0.4847
 5821SOL    HW128922   0.183   3.827   3.099 -0.0476  1.0845  0.6986
 5821SOL    HW228923   0.145   3.788   2.958 -0.4260  0.4414  0.2813
 5822SOL     OW28924   3.718   2.273   2.268 -0.0748  0.3301  0.0333
 5822SOL    HW128925   3.660   2.337   2.309 -0.2292 -0.2678  0.7537
 5822SOL    HW228926   3.801   2.298   2.308  1.8477 -2.3658 -2.2656
 5823SOL     OW28927   3.249   0.396  17.349 -0.0096  0.1603 -0.1960
 5823SOL    HW128928   3.185   0.445  17.297 -1.5613 -2.8937 -1.2122
 5823SOL    HW228929   3.318   0.393  17.282 -0.6855  1.4597 -0.9392
 5824SOL     OW28930   0.467   3.036  12.928  0.1265  0.5716  0.6544
 5824SOL    HW128931   0.392   3.075  12.974  0.0417  2.2180 -0.8765
 5824SOL    HW228932   0.529   3.051  13.000  1.4417  0.2650 -0.4182
 5825SOL     OW28933   4.715   2.113  10.972  0.1838 -0.1296 -0.2796
 5825SOL    HW128934   0.009   2.129  11.065 -0.4624 -2.1299  0.1552
 5825SOL    HW228935   0.065   2.050  10.957  0.8207  0.2321  1.2138
 5826SOL     OW28936   1.823   3.933   9.788  0.0335  0.2254 -0.2803
 5826SOL    HW128937   1.841   3.861   9.849 -1.7750 -0.0474 -0.0713
 5826SOL    HW228938   1.747   3.985   9.815 -1.0818 -2.7812  2.3518
 5827SOL     OW28939   1.138   2.733   2.587 -0.3773 -0.3991 -0.5771
 5827SOL    HW128940   1.074   2.798   2.616  1.6584  0.9613  0.8370
 5827SOL    HW228941   1.198   2.792   2.542  1.8576 -0.7208  1.9996
 5828SOL     OW28942   0.401   3.628   7.552  0.1062  0.1147 -0.1612
 5828SOL    HW128943   0.397   3.566   7.479 -0.9537 -0.4395  0.3737
 5828SOL    HW228944   0.493   3.606   7.566 -0.3333 -1.6771 -0.1172
 5829SOL     OW28945   0.471   1.076   3.535  0.2461 -0.1900  0.0464
 5829SOL    HW128946   0.532   1.136   3.493  0.2505 -1.5369 -1.8622
 5829SOL    HW228947   0.539   1.022   3.576 -1.1512 -1.2223  1.0121
 5830SOL     OW28948   0.060   3.132  16.737 -0.2461 -0.4471 -0.5746
 5830SOL    HW128949   0.059   3.140  16.832 -0.8872  0.0990 -0.6291
 5830SOL    HW228950   4.690   3.104  16.722 -0.2370 -0.6898 -0.1633
 5831SOL     OW28951   1.859   2.722  10.679  0.4100 -0.3883  0.0163
 5831SOL    HW128952   1.791   2.726  10.612 -0.0433  3.6061  0.6985
 5831SOL    HW228953   1.798   2.688  10.744 -0.2564  1.6207  0.4673
 5832SOL     OW28954   4.679   0.763   4.082  0.3503 -0.7682 -0.2530
 5832SOL    HW128955   4.660   0.740   4.173 -1.0728  0.3760 -0.2694
 5832SOL    HW228956   0.048   0.788   4.105  0.0303 -1.4315  1.7279
 5833SOL     OW28957   1.611   3.102  15.960  0.0162  0.7463  0.3467
 5833SOL    HW128958   1.559   3.054  16.025 -0.4351 -0.1364 -0.6675
 5833SOL    HW228959   1.677   3.147  16.012  0.4048  0.8772 -0.2676
 5834SOL     OW28960   1.244   1.750   6.444 -0.2886  0.0872 -0.4510
 5834SOL    HW128961   1.315   1.794   6.398  0.5113  0.0523  0.7565
 5834SOL    HW228962   1.205   1.683   6.388  0.6454 -0.7862 -0.0533
 5835SOL     OW28963   2.352   3.859   4.161  0.5789 -0.6123 -0.4007
 5835SOL    HW128964   2.329   3.936   4.109  1.4001  0.7304  1.2407
 5835SOL    HW228965   2.384   3.806   4.088  1.8035 -0.5468  0.0961
 5836SOL     OW28966   0.825   2.806   1.409  0.0120  0.1213 -0.2784
 5836SOL    HW128967   0.814   2.897   1.380  2.1784  0.0755 -1.2718
 5836SOL    HW228968   0.750   2.764   1.366  0.5857 -0.6441 -0.5191
 5837SOL     OW28969   2.413   4.388   2.504 -0.0354 -0.4020  0.4975
 5837SOL    HW128970   2.456   4.464   2.543 -1.3989  0.5743  0.1416
 5837SOL    HW228971   2.431   4.320   2.568  0.1331 -1.8988 -1.1451
 5838SOL     OW28972   3.935   0.284   6.713 -0.5038  0.1048  0.2715
 5838SOL    HW128973   3.884   0.244   6.783 -1.0084  1.7566  0.8482
 5838SOL    HW228974   3.973   0.360   6.757 -0.5547  0.0236  0.4524
 5839SOL     OW28975   1.432   2.755   7.916 -0.3770 -0.0098  0.1924
 5839SOL    HW128976   1.458   2.847   7.918 -1.3719  0.3138 -1.8611
 5839SOL    HW228977   1.338   2.760   7.929 -0.3775  2.9592 -1.0727
 5840SOL     OW28978   2.168   3.859   2.774 -0.2824  0.2218 -0.0428
 5840SOL    HW128979   2.245   3.916   2.764  0.7731 -1.4740 -1.7146
 5840SOL    HW228980   2.096   3.920   2.763  0.9736  1.8749  0.9123
 5841SOL     OW28981   1.849   3.728   9.601  0.1241 -0.3726  0.1260
 5841SOL    HW128982   1.860   3.747   9.694 -2.4443  1.4817  0.0541
 5841SOL    HW228983   1.761   3.693   9.612  0.6246 -1.4464  0.6735
 5842SOL     OW28984   2.901   2.893   2.771 -0.0154  0.0977  0.2696
 5842SOL    HW128985   2.910   2.910   2.678 -2.1696 -1.3678 -0.2043
 5842SOL    HW228986   2.975   2.947   2.799 -0.8867  0.6716  1.4724
 5843SOL     OW28987   1.743   0.063  11.898  0.3871  0.5367  0.2564
 5843SOL    HW128988   1.770   0.151  11.924 -0.7430  0.9139  0.1576
 5843SOL    HW228989   1.676   0.053  11.965 -1.6497 -2.1663 -2.1788
 5844SOL     OW28990   1.814   3.274   6.572 -0.2274  0.1845 -0.5175
 5844SOL    HW128991   1.731   3.319   6.553 -0.6370 -0.9307 -1.3974
 5844SOL    HW228992   1.862   3.341   6.619 -2.1698 -0.0109  1.7483
 5845SOL     OW28993   0.965   2.792   2.819 -0.2248  0.0089  0.4235
 5845SOL    HW128994   1.034   2.856   2.840 -1.2334  0.8554  1.1527
 5845SOL    HW228995   0.903   2.849   2.774  1.7958  0.2632 -2.0825
 5846SOL     OW28996   1.546   1.252   5.956  0.5087 -0.4327 -0.5773
 5846SOL    HW128997   1.527   1.163   5.985 -1.0840  0.1547  0.1555
 5846SOL    HW228998   1.629   1.264   6.003 -0.6563 -0.4450  1.4718
 5847SOL     OW28999   1.032   2.133   6.199 -0.5264 -0.7132 -0.4824
 5847SOL    HW129000   0.970   2.181   6.253 -0.4960 -1.7518  0.4806
 5847SOL    HW229001   1.035   2.052   6.250  1.5022 -0.3062  0.0733
 5848SOL     OW29002   4.375   0.805   3.463 -0.0351  0.2518 -0.3609
 5848SOL    HW129003   4.376   0.878   3.402 -0.7645  2.7003  2.5923
 5848SOL    HW229004   4.312   0.839   3.526 -0.6178 -0.7753 -0.3822
 5849SOL     OW29005   1.131   2.277  14.584  0.3115  0.0088 -0.1875
 5849SOL    HW129006   1.158   2.266  14.493  0.9165  0.0456 -0.0136
 5849SOL    HW229007   1.037   2.285  14.570  0.3053 -0.2115 -0.2702
 5850SOL     OW29008   4.209   0.733   1.203  0.3511  0.0197 -0.8125
 5850SOL    HW129009   4.161   0.694   1.130  0.3589 -1.7921  0.1619
 5850SOL    HW229010   4.218   0.825   1.177  2.3968 -0.3328 -1.3346
 5851SOL     OW29011   3.522   3.055   3.209  0.2768  0.6538 -0.5646
 5851SOL    HW129012   3.571   3.091   3.283  1.1633 -1.9905  0.1313
 5851SOL    HW229013   3.536   2.960   3.206  0.2519  0.5216  4.1209
 5852SOL     OW29014   3.130   1.817   2.678 -0.6906  0.0769  0.3334
 5852SOL    HW129015   3.172   1.731   2.664 -0.9782  0.3560 -2.2998
 5852SOL    HW229016   3.212   1.860   2.702  1.2825 -1.6566 -3.2065
 5853SOL     OW29017   4.043   1.717   1.590  0.0057  0.0398 -0.1170
 5853SOL    HW129018   4.005   1.694   1.506 -1.8083  2.3489  0.1064
 5853SOL    HW229019   4.116   1.773   1.564  0.1471  1.2384  2.8139
 5854SOL     OW29020   1.544   0.800   2.214 -0.2466  0.4128  0.1388
 5854SOL    HW129021   1.567   0.822   2.304  1.9965 -0.5684 -0.1853
 5854SOL    HW229022   1.606   0.729   2.199  0.3931  0.8245  0.8115
 5855SOL     OW29023   2.736   4.160   7.611  0.0439  0.6632  0.3879
 5855SOL    HW129024   2.786   4.241   7.616 -0.6123  1.0496  0.6766
 5855SOL    HW229025   2.805   4.095   7.601  0.5266  1.5208 -1.9366
 5856SOL     OW29026   3.709   2.185   8.502 -0.3832  0.3373 -0.6454
 5856SOL    HW129027   3.718   2.280   8.504  1.3679  0.1340  1.1686
 5856SOL    HW229028   3.644   2.179   8.572  0.2160 -1.6597 -0.2551
 5857SOL     OW29029   3.896   3.385  17.650  0.0217  0.2624  0.5103
 5857SOL    HW129030   3.953   3.393   0.042  0.0445  1.1912  0.4022
 5857SOL    HW229031   3.962   3.372  17.583 -0.7177  2.5975 -0.6640
 5858SOL     OW29032   0.949   3.535  14.238 -0.6275 -0.2019  0.1585
 5858SOL    HW129033   1.042   3.551  14.255  0.0002 -3.4582 -0.1138
 5858SOL    HW229034   0.949   3.439  14.233  0.1098  0.0067 -3.7997
 5859SOL     OW29035   3.241   0.118   8.977 -0.6457  0.1251  0.0947
 5859SOL    HW129036   3.217   0.038   9.024  0.3410 -0.7153 -0.8257
 5859SOL    HW229037   3.332   0.133   9.001 -0.5881 -0.1803  0.0626
 5860SOL     OW29038   3.000   3.333   6.155  0.2813 -0.2874  0.1136
 5860SOL    HW129039   3.001   3.405   6.218  2.0065  0.5835 -0.9366
 5860SOL    HW229040   3.079   3.286   6.181 -1.0633 -2.8580 -0.3545
 5861SOL     OW29041   0.920   0.588  17.258 -0.0553 -0.6443  0.5594
 5861SOL    HW129042   0.861   0.644  17.208  1.6230  1.9807  1.5396
 5861SOL    HW229043   0.872   0.592  17.341  0.4823 -1.7083  0.9314
 5862SOL     OW29044   2.952   4.718  10.248  0.1744 -0.1121 -0.5691
 5862SOL    HW129045   2.912   0.078  10.216 -0.0516 -0.6944 -1.7641
 5862SOL    HW229046   2.913   0.005  10.335  1.9047 -0.0353  0.1881
 5863SOL     OW29047   0.270   0.841   2.225 -0.6798 -0.2041  0.1427
 5863SOL    HW129048   0.185   0.873   2.196 -0.1670  3.8021  3.1350
 5863SOL    HW229049   0.329   0.916   2.220  0.4779 -1.0535  1.0306
 5864SOL     OW29050   4.045   0.157   4.251 -0.0009 -0.6677 -0.6446
 5864SOL    HW129051   3.993   0.167   4.331  2.5093  0.0921  0.9031
 5864SOL    HW229052   4.046   0.062   4.244  0.8036 -0.6848 -0.3259
 5865SOL     OW29053   2.349   1.249   9.793  0.0120 -0.0478 -0.3197
 5865SOL    HW129054   2.379   1.338   9.813  0.9797 -0.6127  0.7525
 5865SOL    HW229055   2.391   1.200   9.863 -0.4683  2.6258  1.8168
 5866SOL     OW29056   2.956   4.497  12.287  0.7823  0.8644  0.4615
 5866SOL    HW129057   2.866   4.487  12.317  1.0367  0.5845  1.1465
 5866SOL    HW229058   2.998   4.489  12.373 -0.6625  0.0242  1.0852
 5867SOL     OW29059   2.841   3.769  15.927  0.0861 -0.1107  0.6327
 5867SOL    HW129060   2.761   3.732  15.964  0.0703 -2.3303 -1.6391
 5867SOL    HW229061   2.808   3.787  15.839 -0.9599 -1.9577  0.6433
 5868SOL     OW29062   2.036   0.164   7.242 -0.2643 -0.3572  0.2765
 5868SOL    HW129063   2.020   0.097   7.176 -0.0305  0.8051 -0.9762
 5868SOL    HW229064   2.128   0.150   7.264 -0.4884 -1.8384  0.2300
 5869SOL     OW29065   2.192   4.693   4.734  0.3959 -0.4732 -0.3727
 5869SOL    HW129066   2.196   4.624   4.801  0.0852 -1.2897 -1.1886
 5869SOL    HW229067   2.098   4.698   4.720 -0.4569 -1.9024  4.7395
 5870SOL     OW29068   1.447   0.394  10.583  0.5696 -0.3817  0.4335
 5870SOL    HW129069   1.376   0.444  10.622  0.7265  1.8734 -2.1850
 5870SOL    HW229070   1.517   0.459  10.592  0.0438  0.4428 -1.4875
 5871SOL     OW29071   1.657   2.932  10.889 -0.5812  0.3032  0.2341
 5871SOL    HW129072   1.703   2.904  10.968  0.0121  3.3246  0.9477
 5871SOL    HW229073   1.720   2.987  10.844  1.3131 -1.0081  1.2657
 5872SOL     OW29074   1.969   4.718   5.276  0.5289 -0.3237 -0.1320
 5872SOL    HW129075   2.048   4.699   5.226  0.3523 -1.2915 -0.0448
 5872SOL    HW229076   1.906   0.019   5.207  1.7265 -2.0403 -1.7630
 5873SOL     OW29077   4.043   1.134   0.113 -0.0583  0.0327 -0.2574
 5873SOL    HW129078   4.100   1.108   0.185 -0.2595 -0.2464 -0.1965
 5873SOL    HW229079   4.099   1.102   0.042  1.1613  1.2381  0.1529
 5874SOL     OW29080   2.347   4.489   7.368  0.0457  0.3450 -0.4928
 5874SOL    HW129081   2.287   4.416   7.382 -0.4470  1.1234  1.4558
 5874SOL    HW229082   2.424   4.434   7.382  0.3185  0.9790  0.4658
 5875SOL     OW29083   0.439   2.308   5.424  0.5344 -0.0857 -0.1937
 5875SOL    HW129084   0.491   2.255   5.484  2.6387  0.4886 -1.4739
 5875SOL    HW229085   0.472   2.271   5.342  2.3519 -1.4687  1.1673
 5876SOL     OW29086   0.365   4.256   0.124  0.1067 -0.2008  0.2772
 5876SOL    HW129087   0.369   4.343   0.163  1.6014 -0.2710  0.2722
 5876SOL    HW229088   0.275   4.241   0.154  0.1352 -0.1325  0.3980
 5877SOL     OW29089   1.702   4.526  14.593 -0.0607 -0.0507 -0.2202
 5877SOL    HW129090   1.714   4.617  14.618  2.0142 -0.7162  1.2391
 5877SOL    HW229091   1.670   4.537  14.504 -2.1612  2.1697  0.8227
 5878SOL     OW29092   3.977   1.749  12.848 -0.2641 -0.1095  0.0207
 5878SOL    HW129093   3.905   1.761  12.786 -0.2043 -2.3800 -0.5201
 5878SOL    HW229094   4.048   1.799  12.810 -0.8159  0.2539 -0.5239
 5879SOL     OW29095   2.343   4.452   3.081  0.0306 -0.3451  0.0743
 5879SOL    HW129096   2.394   4.501   3.145 -0.3882 -0.5755  0.5890
 5879SOL    HW229097   2.401   4.386   3.044  0.8391  1.1346 -1.3050
 5880SOL     OW29098   1.980   4.024   2.700 -0.0315 -0.4701  0.1457
 5880SOL    HW129099   1.913   4.075   2.746  1.7494  1.3970  0.6573
 5880SOL    HW229100   1.931   4.009   2.619  2.5450 -1.5920 -1.2046
 5881SOL     OW29101   1.131   3.523   8.479  0.3877 -0.2971 -0.5825
 5881SOL    HW129102   1.069   3.523   8.552  1.3221  0.2237  0.2080
 5881SOL    HW229103   1.100   3.446   8.432 -2.9406  0.7350 -0.0741
 5882SOL     OW29104   1.749   1.565   7.126  0.5767 -0.1284 -0.0375
 5882SOL    HW129105   1.787   1.505   7.189 -0.0410 -0.0726  0.3850
 5882SOL    HW229106   1.811   1.570   7.053 -0.2467  0.9627 -0.6735
 5883SOL     OW29107   3.212   0.065   0.673  0.1166 -0.3838  0.3390
 5883SOL    HW129108   3.197   0.147   0.720  1.2599  0.1439 -0.2417
 5883SOL    HW229109   3.123   0.038   0.649  0.9638 -2.0191 -0.9693
 5884SOL     OW29110   2.397   2.943  14.041  0.0681  0.1455  0.2171
 5884SOL    HW129111   2.469   2.938  14.104 -1.0346 -2.7387  1.2038
 5884SOL    HW229112   2.401   3.030  14.000  2.4754  0.0632  0.2369
 5885SOL     OW29113   1.907   3.367   0.543  0.5161  0.6343 -0.3127
 5885SOL    HW129114   1.885   3.459   0.558 -0.1500  0.6897 -1.6304
 5885SOL    HW229115   1.999   3.361   0.519  1.0004 -0.5187  1.8388
 5886SOL     OW29116   4.546   2.677   3.727  0.4830 -0.1879  0.2915
 5886SOL    HW129117   4.523   2.620   3.654  0.5143 -0.0782  0.1963
 5886SOL    HW229118   4.640   2.687   3.712  0.5533 -2.3186 -0.8023
 5887SOL     OW29119   1.963   0.322   8.600 -0.0006 -0.5091  0.0392
 5887SOL    HW129120   1.980   0.228   8.604 -0.5390 -0.7433 -2.8406
 5887SOL    HW229121   1.879   0.309   8.555  0.5713  1.2547 -1.5374
 5888SOL     OW29122   1.953   0.993   5.886 -0.0206 -0.5325  0.5149
 5888SOL    HW129123   1.930   1.075   5.842 -2.2166 -0.2010  2.3087
 5888SOL    HW229124   2.049   0.995   5.880  0.1620  1.9187  4.5147
 5889SOL     OW29125   1.074   3.494   4.904  0.1559  0.1778  0.5103
 5889SOL    HW129126   1.079   3.583   4.868 -2.2599  1.0826  2.4163
 5889SOL    HW229127   0.983   3.477   4.928  0.1157  0.9159  0.8648
 5890SOL     OW29128   2.469   2.609   9.232 -0.1416  0.1189  0.6858
 5890SOL    HW129129   2.468   2.563   9.148  1.4895  2.1944 -0.4908
 5890SOL    HW229130   2.562   2.611   9.255  0.5164 -2.1269 -1.8478
 5891SOL     OW29131   0.807   0.357   4.748 -0.8780 -0.0087 -0.6957
 5891SOL    HW129132   0.788   0.447   4.719 -0.1921  0.5727  0.6625
 5891SOL    HW229133   0.783   0.308   4.670 -0.4141 -1.3654  0.0201
 5892SOL     OW29134   3.561   3.249   2.558  0.3888  0.3229 -0.2729
 5892SOL    HW129135   3.624   3.180   2.540  1.7542  1.5918 -0.4254
 5892SOL    HW229136   3.488   3.204   2.516 -0.8028  0.3052  1.7990
 5893SOL     OW29137   3.251   4.332   8.522  0.4112 -0.7722 -0.2395
 5893SOL    HW129138   3.311   4.404   8.499 -0.6548 -0.4688 -2.0280
 5893SOL    HW229139   3.313   4.267   8.487  0.1534 -1.5487  0.7527
 5894SOL     OW29140   3.849   3.761   8.265 -0.0296 -0.9689 -0.3412
 5894SOL    HW129141   3.897   3.774   8.347 -0.8270 -1.0927  0.1428
 5894SOL    HW229142   3.761   3.783   8.296  0.6760 -0.6682  1.4330
 5895SOL     OW29143   3.093   2.517  16.089 -0.1508  0.5405  0.2116
 5895SOL    HW129144   3.009   2.550  16.121 -0.3646  0.1941  0.0072
 5895SOL    HW229145   3.084   2.427  16.120 -2.2053  1.2944  1.7987
 5896SOL     OW29146   2.723   3.936   9.647 -0.1500 -0.1904 -0.0503
 5896SOL    HW129147   2.749   3.882   9.572 -1.7595 -0.4100 -0.4669
 5896SOL    HW229148   2.767   4.013   9.613  1.7152 -1.9090 -1.5362
 5897SOL     OW29149   2.177   0.072   3.133 -0.5045  0.3568  0.2448
 5897SOL    HW129150   2.256   0.057   3.080 -0.5976  1.3687 -0.1760
 5897SOL    HW229151   2.114   0.047   3.066 -1.1100  2.7543 -0.0746
 5898SOL     OW29152   3.609   3.452   3.846  0.0244  0.8428  0.5030
 5898SOL    HW129153   3.626   3.435   3.754  1.2620 -0.5692  0.9751
 5898SOL    HW229154   3.688   3.404   3.872 -0.0802  0.3364 -0.1154
 5899SOL     OW29155   2.788   0.693   6.271 -0.5337  0.1411  0.1635
 5899SOL    HW129156   2.856   0.674   6.207 -0.3139  1.9396 -0.1311
 5899SOL    HW229157   2.828   0.761   6.325 -1.2689  1.2061 -0.6501
 5900SOL     OW29158   3.245   3.786   0.459  0.5263 -0.7585  0.1002
 5900SOL    HW129159   3.306   3.826   0.521  1.3070 -1.2839 -0.3357
 5900SOL    HW229160   3.191   3.726   0.511 -1.0435 -0.1845 -0.8786
 5901SOL     OW29161   4.313   0.927   2.512  0.3866  0.8144  0.5127
 5901SOL    HW129162   4.400   0.934   2.552 -0.1487 -0.5096  1.9655
 5901SOL    HW229163   4.278   1.014   2.525  0.1970  0.8240 -0.0744
 5902SOL     OW29164   0.770   1.274   8.658 -0.6438 -0.4036 -0.1540
 5902SOL    HW129165   0.795   1.357   8.617  1.2649  0.1912  2.2731
 5902SOL    HW229166   0.770   1.291   8.752 -1.2355  0.1758 -0.2635
 5903SOL     OW29167   1.214   1.017   6.922 -0.3180 -0.6280 -0.6143
 5903SOL    HW129168   1.161   1.034   7.000 -1.4771 -1.6837 -1.1755
 5903SOL    HW229169   1.196   1.088   6.861  2.5091  0.7950  0.1954
 5904SOL     OW29170   2.200   3.220   4.899 -0.1087  0.2070 -0.6662
 5904SOL    HW129171   2.116   3.234   4.943 -0.3123 -1.8961 -0.3783
 5904SOL    HW229172   2.168   3.156   4.835  0.0262  1.3024 -1.8440
 5905SOL     OW29173   3.935   1.675   0.529 -0.5618 -0.7965  0.0676
 5905SOL    HW129174   3.986   1.622   0.467  3.4037  0.4778  2.2231
 5905SOL    HW229175   3.984   1.668   0.611  1.8105 -0.8354 -1.3292
 5906SOL     OW29176   1.650   0.593   7.126  0.2680  0.0215 -0.0817
 5906SOL    HW129177   1.718   0.559   7.069  1.3596  1.9425  0.0655
 5906SOL    HW229178   1.578   0.559   7.074  0.5190 -0.5953 -0.0249
 5907SOL     OW29179   0.672   2.629   5.015 -0.1196 -0.3172 -0.1555
 5907SOL    HW129180   0.685   2.653   5.107 -2.1459 -0.0993  0.0863
 5907SOL    HW229181   0.598   2.568   5.023 -0.5193 -0.0162 -1.4864
 5908SOL     OW29182   2.321   0.100   8.338 -0.0716 -0.0832  0.2174
 5908SOL    HW129183   2.362   0.160   8.400 -0.6946  1.5242 -0.9278
 5908SOL    HW229184   2.354   0.015   8.365 -1.1377 -0.7845 -0.6871
 5909SOL     OW29185   3.304   0.212   5.012 -0.4968 -0.4015  0.1804
 5909SOL    HW129186   3.372   0.270   5.047 -0.1106 -0.9254  0.2913
 5909SOL    HW229187   3.222   0.226   5.060 -0.6465  1.1865 -0.5294
 5910SOL     OW29188   3.758   2.440   8.830 -0.2547  0.3533 -0.1356
 5910SOL    HW129189   3.774   2.526   8.868 -2.0112  0.3538  0.5974
 5910SOL    HW229190   3.663   2.434   8.826 -0.1385 -0.3994 -1.9581
 5911SOL     OW29191   3.271   1.673   0.878  0.6969 -0.0976 -0.6804
 5911SOL    HW129192   3.337   1.742   0.873 -1.4492  1.6565 -4.4787
 5911SOL    HW229193   3.321   1.597   0.848  1.3164  0.0404 -0.0102
 5912SOL     OW29194   1.274   4.013   8.095 -0.4334  0.1802 -0.6030
 5912SOL    HW129195   1.216   3.945   8.060 -0.3652  0.3059 -0.9656
 5912SOL    HW229196   1.251   4.075   8.025 -0.2910 -0.8868 -1.6047
 5913SOL     OW29197   1.877   1.066   1.650  0.5625 -0.3915 -0.5106
 5913SOL    HW129198   1.887   1.161   1.644 -1.4972  0.0784  3.2538
 5913SOL    HW229199   1.811   1.065   1.581 -0.0010 -2.0792  0.0515
 5914SOL     OW29200   4.338   1.891   2.835  0.3260 -0.1644 -0.0938
 5914SOL    HW129201   4.423   1.932   2.821 -0.2705  0.9856 -0.3352
 5914SOL    HW229202   4.316   1.892   2.742  0.6939 -2.8560 -0.2138
 5915SOL     OW29203   4.627   4.184  10.806 -0.1128  0.2861 -0.2001
 5915SOL    HW129204   4.579   4.238  10.742 -0.3587  0.0578 -0.2076
 5915SOL    HW229205   4.693   4.246  10.837  0.3490  0.5262 -1.6811
 5916SOL     OW29206   0.614   4.050   8.210 -0.1026 -0.2315 -0.0249
 5916SOL    HW129207   0.571   4.074   8.292 -1.5172 -1.7425 -0.3353
 5916SOL    HW229208   0.697   4.022   8.249 -1.9595 -0.9700  3.4119
 5917SOL     OW29209   3.019   3.772   6.493 -0.9163 -0.1348 -0.1776
 5917SOL    HW129210   2.939   3.721   6.507  0.3156 -2.1977 -0.6842
 5917SOL    HW229211   2.988   3.854   6.532 -2.8535 -0.0466 -1.9036
 5918SOL     OW29212   1.725   3.876   2.862 -0.1258 -0.4362  0.1976
 5918SOL    HW129213   1.752   3.802   2.807  0.6832 -0.4398  0.5916
 5918SOL    HW229214   1.633   3.887   2.839 -0.1166 -2.0155 -0.6178
 5919SOL     OW29215   1.271   4.307  16.336  0.1407  0.2973 -0.5354
 5919SOL    HW129216   1.200   4.370  16.333  0.4841  0.6412 -1.3335
 5919SOL    HW229217   1.297   4.310  16.244 -3.0007  1.1720 -1.4017
 5920SOL     OW29218   4.701   2.745   9.489  0.4096 -0.2384  0.2014
 5920SOL    HW129219   0.064   2.774   9.452  1.3810 -0.4685  2.1944
 5920SOL    HW229220   4.691   2.663   9.441 -3.0127  0.7262 -0.7013
 5921SOL     OW29221   0.187   4.197  11.142  0.5719  0.0079 -0.0812
 5921SOL    HW129222   0.161   4.140  11.069  2.1449 -0.9428  0.1074
 5921SOL    HW229223   0.221   4.140  11.211  0.1860  0.1685  0.2407
 5922SOL     OW29224   1.542   1.835   2.034 -0.2990  0.3390  0.3463
 5922SOL    HW129225   1.551   1.744   2.060  0.4969  0.4218  0.3567
 5922SOL    HW229226   1.633   1.865   2.043 -0.3022  0.2720  0.5820
 5923SOL     OW29227   2.353   1.367   2.896  0.3856  0.7829  0.0823
 5923SOL    HW129228   2.337   1.456   2.864  1.9275  0.4660 -1.6043
 5923SOL    HW229229   2.299   1.319   2.833  2.2905 -0.6168 -0.4899
 5924SOL     OW29230   2.188   3.556  12.604 -0.3173  0.0884 -0.2049
 5924SOL    HW129231   2.139   3.584  12.681 -0.1457  1.1226 -0.4727
 5924SOL    HW229232   2.248   3.491  12.641  1.4246  2.6251  1.4171
 5925SOL     OW29233   0.391   3.599   5.363 -0.0599 -0.0492 -0.5322
 5925SOL    HW129234   0.416   3.527   5.306  1.6418  0.1158  0.0223
 5925SOL    HW229235   0.395   3.552   5.446  1.0145  1.4198  0.2269
 5926SOL     OW29236   3.722   1.569   0.660  0.0672 -0.1010  0.8929
 5926SOL    HW129237   3.710   1.507   0.588  0.3119  0.5515  0.2832
 5926SOL    HW229238   3.810   1.602   0.641 -0.1621  1.0464  1.7893
 5927SOL     OW29239   3.427   0.881   7.876 -0.2346 -0.1431  0.3346
 5927SOL    HW129240   3.424   0.873   7.781 -0.2692 -1.3890  0.4394
 5927SOL    HW229241   3.396   0.971   7.888 -0.5286 -0.3373  1.0576
 5928SOL     OW29242   4.595   1.311  16.662  0.4930 -0.0560 -0.0707
 5928SOL    HW129243   4.591   1.345  16.573 -0.9409 -1.7820 -0.6411
 5928SOL    HW229244   4.589   1.216  16.653 -1.2157  0.0043  0.4646
 5929SOL     OW29245   3.967   2.341   4.848  0.0806  0.3148  0.3359
 5929SOL    HW129246   4.051   2.386   4.852  0.1789  0.2482 -0.9547
 5929SOL    HW229247   3.930   2.377   4.929  0.9171  0.4697  0.6440
 5930SOL     OW29248   0.775   3.455  13.619  0.0393 -0.0891  0.3700
 5930SOL    HW129249   0.784   3.483  13.528 -0.4868  0.7648  0.5798
 5930SOL    HW229250   0.684   3.481  13.634  0.4086  1.6355 -0.3049
 5931SOL     OW29251   3.653   4.187   2.736 -0.2455  0.8380 -0.6828
 5931SOL    HW129252   3.633   4.094   2.737 -0.8304  0.9587 -1.2121
 5931SOL    HW229253   3.563   4.220   2.732 -0.6450 -0.3124 -1.0914
 5932SOL     OW29254   3.680   0.399   1.494  0.1541 -0.2591  0.1783
 5932SOL    HW129255   3.749   0.465   1.487 -1.1439  0.9903 -0.7223
 5932SOL    HW229256   3.735   0.321   1.500 -0.5430 -1.0264 -3.4500
 5933SOL     OW29257   0.884   4.038   6.802 -0.0308  0.3132 -0.7415
 5933SOL    HW129258   0.977   4.029   6.781 -0.4826 -0.4125 -2.4158
 5933SOL    HW229259   0.839   3.960   6.769  0.4682  0.5261 -1.9016
 5934SOL     OW29260   0.079   1.377   3.998  0.1061 -0.6312  0.3331
 5934SOL    HW129261   4.715   1.394   4.040  0.2355 -1.0984  0.7810
 5934SOL    HW229262   0.048   1.369   3.908 -1.7156  0.4384  0.8710
 5935SOL     OW29263   2.703   2.983   7.580 -0.3467  0.3875 -0.1955
 5935SOL    HW129264   2.615   3.006   7.607 -1.1196 -2.3827 -0.2914
 5935SOL    HW229265   2.748   3.067   7.575  1.0016 -0.3598 -0.6994
 5936SOL     OW29266   3.243   4.004   3.856  0.0744 -0.5765 -0.4984
 5936SOL    HW129267   3.282   4.059   3.924  1.9871 -3.1515  0.5187
 5936SOL    HW229268   3.166   3.971   3.903 -0.6117  1.9645  0.1215
 5937SOL     OW29269   3.067   1.208   1.394  0.1800  0.6344 -0.1614
 5937SOL    HW129270   3.118   1.131   1.371 -0.0606  0.6162 -0.6309
 5937SOL    HW229271   3.010   1.219   1.318  0.4238  0.0658 -0.4206
 5938SOL     OW29272   0.186   2.185  14.626  0.2491 -0.0469 -0.1360
 5938SOL    HW129273   0.145   2.158  14.708 -1.1509 -1.1920 -1.2265
 5938SOL    HW229274   0.133   2.122  14.577  1.9071 -1.2382 -0.4001
 5939SOL     OW29275   4.265   4.055   6.506 -0.3940 -0.1500  0.4863
 5939SOL    HW129276   4.332   4.076   6.570  2.1784  0.7683 -2.5006
 5939SOL    HW229277   4.256   4.123   6.439 -1.0920 -2.5429 -1.8290
 5940SOL     OW29278   1.156   3.261   6.392  0.2894  0.0595 -0.1135
 5940SOL    HW129279   1.245   3.257   6.356 -0.3778  0.0318 -1.7605
 5940SOL    HW229280   1.101   3.273   6.315  0.2703 -2.0781 -0.4435
 5941SOL     OW29281   3.363   0.925   5.823  0.8087  0.3613  0.4340
 5941SOL    HW129282   3.366   0.967   5.909 -0.3701 -0.2699  0.7885
 5941SOL    HW229283   3.320   0.987   5.764 -1.3051 -2.1188 -0.6337
 5942SOL     OW29284   3.792   2.754   6.275  0.3366  0.1351  0.0075
 5942SOL    HW129285   3.761   2.812   6.344 -1.1021 -0.1917 -0.3720
 5942SOL    HW229286   3.777   2.815   6.203 -0.8666  0.3753  0.4616
 5943SOL     OW29287   2.756   2.260  16.572 -0.1392  0.4955  0.0086
 5943SOL    HW129288   2.808   2.322  16.521  1.4605 -0.5869  0.3360
 5943SOL    HW229289   2.801   2.185  16.532 -0.2984  2.1461 -3.2994
 5944SOL     OW29290   2.203   0.322   7.597 -0.5938  0.0598  0.1225
 5944SOL    HW129291   2.112   0.345   7.616 -0.2870  0.8647  0.6135
 5944SOL    HW229292   2.198   0.280   7.511 -0.9404  0.5273 -0.0891
 5945SOL     OW29293   1.169   4.163   5.653 -0.0121 -0.6351 -0.6583
 5945SOL    HW129294   1.263   4.167   5.669 -0.4618 -0.6067  2.0066
 5945SOL    HW229295   1.141   4.254   5.669  0.7862 -0.5265  0.0757
 5946SOL     OW29296   3.836   4.308   3.117  0.3238  0.3442 -0.4560
 5946SOL    HW129297   3.756   4.307   3.065 -0.2646  0.3858  0.4410
 5946SOL    HW229298   3.822   4.223   3.159 -0.2083  0.5750 -0.1491
 5947SOL     OW29299   4.066   1.757  15.945  0.2466 -0.1607 -0.2725
 5947SOL    HW129300   4.034   1.827  15.888  1.9448  1.0714  0.2815
 5947SOL    HW229301   4.135   1.713  15.896  1.2932 -1.1138  2.0748
 5948SOL     OW29302   0.850   0.180  16.573  0.2517 -0.6331  0.0328
 5948SOL    HW129303   0.768   0.206  16.615  0.2951  0.6827 -0.6823
 5948SOL    HW229304   0.884   0.114  16.633  1.7433 -1.3818 -1.6469
 5949SOL     OW29305   2.801   0.325   0.942  0.1955 -0.4535  0.8194
 5949SOL    HW129306   2.812   0.415   0.911  2.6897 -1.5013 -1.3828
 5949SOL    HW229307   2.895   0.308   0.943  0.2649 -0.0382  1.4807
 5950SOL     OW29308   4.438   0.490  12.544  0.2479  0.1746  0.0607
 5950SOL    HW129309   4.491   0.564  12.513  0.2745  0.2003  0.1662
 5950SOL    HW229310   4.498   0.432  12.590  0.1485 -1.0774 -1.3873
 5951SOL     OW29311   2.404   0.586  10.395  0.0969 -0.4272 -0.2135
 5951SOL    HW129312   2.480   0.602  10.451  0.9939  0.4688 -1.6989
 5951SOL    HW229313   2.397   0.490  10.393 -0.0564 -0.4863  3.3090
 5952SOL     OW29314   4.360   3.562  17.137  0.0594 -0.3577 -0.0571
 5952SOL    HW129315   4.371   3.565  17.042 -0.7443 -0.7520 -0.1608
 5952SOL    HW229316   4.421   3.489  17.152  1.1836  1.0182  2.1292
 5953SOL     OW29317   2.623   0.218   4.285 -0.3347  0.8973 -0.6109
 5953SOL    HW129318   2.528   0.207   4.294 -0.4240  1.0145 -1.4368
 5953SOL    HW229319   2.655   0.132   4.259  0.2698  0.9441 -0.0280
 5954SOL     OW29320   3.547   0.855   2.954 -0.0638  0.3266  0.0770
 5954SOL    HW129321   3.554   0.763   2.927  2.0966  0.9588 -1.5201
 5954SOL    HW229322   3.565   0.900   2.871 -0.6700  1.3648  0.5085
 5955SOL     OW29323   2.528   4.352   7.699 -0.1031 -0.1211  0.0235
 5955SOL    HW129324   2.490   4.305   7.774  0.7145  0.0255  0.5255
 5955SOL    HW229325   2.613   4.310   7.712  0.0546  0.0715 -0.3992
 5956SOL     OW29326   1.539   2.778   8.937 -0.2506 -0.1158  0.3550
 5956SOL    HW129327   1.609   2.714   8.950 -1.4725 -0.9279  2.8753
 5956SOL    HW229328   1.576   2.856   8.978 -0.3388  1.3052 -2.2473
 5957SOL     OW29329   1.895   0.716   2.440 -0.0214  0.2753 -0.0888
 5957SOL    HW129330   1.974   0.689   2.393 -1.0615  2.2795 -3.0199
 5957SOL    HW229331   1.933   0.795   2.477 -0.5367  1.0163 -1.1325
 5958SOL     OW29332   1.135   0.834   2.784 -0.4889 -0.0220  0.3419
 5958SOL    HW129333   1.103   0.822   2.695  0.4816  2.7359 -0.3730
 5958SOL    HW229334   1.082   0.773   2.834 -1.9187  0.5510 -0.4716
 5959SOL     OW29335   3.638   4.409   1.009  0.5486  0.4114  0.3301
 5959SOL    HW129336   3.717   4.432   1.057  0.6901 -2.5656  1.5008
 5959SOL    HW229337   3.667   4.440   0.923  1.2739 -0.3183  0.3148
 5960SOL     OW29338   0.541   0.670  12.455  0.0294  0.6715 -0.1163
 5960SOL    HW129339   0.617   0.702  12.505  0.7938 -0.9816 -0.1959
 5960SOL    HW229340   0.499   0.752  12.430  1.4222  1.5597  0.4375
 5961SOL     OW29341   1.502   4.576   1.356  0.0069 -0.3016 -0.2093
 5961SOL    HW129342   1.557   4.654   1.348  2.3449 -1.9943 -0.4428
 5961SOL    HW229343   1.491   4.555   1.264 -3.5190 -2.2928  0.6481
 5962SOL     OW29344   0.392   1.218  15.101 -0.4686  0.2566  0.2055
 5962SOL    HW129345   0.339   1.157  15.152 -0.1289 -0.0329  0.2180
 5962SOL    HW229346   0.472   1.211  15.153  0.1183  0.2284 -0.6908
 5963SOL     OW29347   1.474   2.799  10.701  0.6837 -0.1436  0.5000
 5963SOL    HW129348   1.506   2.871  10.756  0.4153  2.5017 -2.8235
 5963SOL    HW229349   1.523   2.723  10.734 -0.5335 -2.2967 -2.5974
 5964SOL     OW29350   4.185   2.796   6.507 -0.1405 -0.6407  0.1071
 5964SOL    HW129351   4.223   2.715   6.543  0.6755 -0.5645 -0.5653
 5964SOL    HW229352   4.128   2.812   6.582 -1.3282  0.8915 -1.1526
 5965SOL     OW29353   3.778   4.114   9.980 -0.5076  0.0952 -0.4311
 5965SOL    HW129354   3.871   4.131   9.964 -0.3947 -0.9139 -0.8484
 5965SOL    HW229355   3.763   4.163  10.061  0.1368  0.0761 -0.2943
 5966SOL     OW29356   2.109   2.630  11.200 -0.7925 -0.8874  0.2320
 5966SOL    HW129357   2.015   2.620  11.213 -0.7647 -0.1213  1.0326
 5966SOL    HW229358   2.150   2.559  11.249 -0.3578 -1.5255 -1.0319
 5967SOL     OW29359   1.175   2.281   2.822 -0.6395 -0.2468 -0.1497
 5967SOL    HW129360   1.142   2.273   2.732  1.3814  3.2984 -1.1930
 5967SOL    HW229361   1.173   2.376   2.831  0.6056 -0.3196  0.7892
 5968SOL     OW29362   3.978   3.466   2.983  0.3717 -0.2973  0.6341
 5968SOL    HW129363   3.943   3.460   3.072  1.6709 -0.3861  1.1525
 5968SOL    HW229364   4.026   3.548   2.986  0.8839 -0.5972  0.7150
 5969SOL     OW29365   0.722   2.883  13.383  0.2109  0.3350 -0.5415
 5969SOL    HW129366   0.634   2.907  13.413 -0.0881 -2.2249  0.6874
 5969SOL    HW229367   0.697   2.793  13.359 -0.9021  0.7961 -1.1318
 5970SOL     OW29368   3.651   0.563   9.482 -0.1960 -0.1348  0.2120
 5970SOL    HW129369   3.610   0.478   9.497 -0.3136 -0.2672 -0.8595
 5970SOL    HW229370   3.621   0.610   9.560 -3.3788  1.2124 -1.7907
 5971SOL     OW29371   4.503   3.609   0.985 -0.1863  0.4389 -0.3251
 5971SOL    HW129372   4.508   3.650   0.898  1.8504  1.7691  0.4341
 5971SOL    HW229373   4.571   3.542   0.988 -0.1477  0.5211  0.5905
 5972SOL     OW29374   3.910   3.098   0.984 -0.4336 -0.4928 -0.4010
 5972SOL    HW129375   3.900   3.125   1.076 -1.3661 -2.2453  0.0076
 5972SOL    HW229376   3.861   3.016   0.991  2.0059 -1.7438  2.4689
 5973SOL     OW29377   2.286   0.588   1.909 -0.0807 -0.9755  0.0712
 5973SOL    HW129378   2.240   0.546   1.981  0.2750 -0.8702  0.3574
 5973SOL    HW229379   2.236   0.546   1.838 -0.6914 -1.6742  0.9124
 5974SOL     OW29380   1.251   3.461   9.532  0.0637 -0.0311 -0.2808
 5974SOL    HW129381   1.298   3.389   9.575 -0.4247 -0.9743 -1.3380
 5974SOL    HW229382   1.173   3.463   9.587 -0.3076 -0.8276 -0.7822
 5975SOL     OW29383   0.100   0.603   7.683 -0.0025  0.1766  0.3526
 5975SOL    HW129384   0.079   0.516   7.650 -0.2140 -0.5539  2.3761
 5975SOL    HW229385   0.171   0.596   7.747 -0.6989  1.4456  1.2799
 5976SOL     OW29386   1.976   1.940   5.130 -0.7402 -0.0247 -0.2432
 5976SOL    HW129387   2.019   1.899   5.206  0.8531 -0.9725 -1.6609
 5976SOL    HW229388   2.002   1.870   5.070 -1.4103 -2.4181  2.2208
 5977SOL     OW29389   1.882   2.198  16.783 -0.5763  0.2958  0.1761
 5977SOL    HW129390   1.825   2.195  16.860  0.3375  2.3757  0.9250
 5977SOL    HW229391   1.818   2.196  16.712 -2.3955 -0.3962  1.8299
 5978SOL     OW29392   3.930   0.883  17.594 -0.1537  0.1792 -0.2225
 5978SOL    HW129393   3.889   0.869  17.679 -1.6744  1.6618 -0.7145
 5978SOL    HW229394   3.914   0.974  17.570  2.5482  0.7922  0.3954
 5979SOL     OW29395   0.586   1.630   9.645 -0.5384  0.2662  0.0000
 5979SOL    HW129396   0.607   1.711   9.598  0.7787  0.1821  0.4518
 5979SOL    HW229397   0.517   1.588   9.594  0.5769 -0.8541 -0.5904
 5980SOL     OW29398   1.731   0.492   8.789 -0.5359 -0.3551  0.4515
 5980SOL    HW129399   1.815   0.507   8.745 -0.6865  2.7116  1.2622
 5980SOL    HW229400   1.757   0.496   8.881 -0.8168  1.9706  0.4119
 5981SOL     OW29401   2.159   0.688   3.684  0.1362 -0.1858 -0.2492
 5981SOL    HW129402   2.171   0.660   3.593  1.2821  0.8420 -0.4177
 5981SOL    HW229403   2.189   0.618   3.742 -0.7187  0.3200  0.7952
 5982SOL     OW29404   2.606   4.157   0.558  0.4698 -0.1503 -0.2947
 5982SOL    HW129405   2.683   4.122   0.604  0.6271  2.3246  1.2905
 5982SOL    HW229406   2.639   4.147   0.469  0.5861  2.9925 -0.6121
 5983SOL     OW29407   4.524   3.088  16.659 -0.0182 -0.1662  0.2339
 5983SOL    HW129408   4.462   3.161  16.662 -0.2611 -0.2311 -3.0195
 5983SOL    HW229409   4.473   3.014  16.692 -0.2286  0.2014  0.7333
 5984SOL     OW29410   3.262   0.147   8.173  0.8022 -0.2242 -0.5183
 5984SOL    HW129411   3.272   0.190   8.088  1.9622  2.9162  1.1809
 5984SOL    HW229412   3.174   0.111   8.177  0.0014  1.5796 -1.6326
 5985SOL     OW29413   4.537   1.471   1.363 -0.1514 -0.2153 -0.8761
 5985SOL    HW129414   4.453   1.473   1.408 -0.0599 -1.7212 -0.6255
 5985SOL    HW229415   4.556   1.563   1.347 -0.2299 -0.0617 -0.0891
 5986SOL     OW29416   4.435   2.269   6.016 -0.7267 -0.0142 -0.2298
 5986SOL    HW129417   4.463   2.343   5.962 -0.1730  0.0706  0.1809
 5986SOL    HW229418   4.348   2.257   5.977 -0.4418 -0.4200 -0.7402
 5987SOL     OW29419   3.044   4.323   2.496  0.4200 -0.9024 -0.1857
 5987SOL    HW129420   3.081   4.266   2.564 -1.1962 -1.8142 -0.0733
 5987SOL    HW229421   2.951   4.309   2.512 -0.2229  1.1652 -2.1706
 5988SOL     OW29422   2.486   1.647   5.719  0.5753 -0.2234  0.0398
 5988SOL    HW129423   2.563   1.628   5.665  0.1906 -2.1614  0.1844
 5988SOL    HW229424   2.478   1.742   5.710 -1.5282 -0.4426 -0.4210
 5989SOL     OW29425   0.437   3.749  12.716  0.7320 -0.0501  0.1236
 5989SOL    HW129426   0.465   3.718  12.803 -0.2331 -0.5561  0.2519
 5989SOL    HW229427   0.489   3.829  12.704  0.0719  0.5901  1.4949
 5990SOL     OW29428   1.605   1.566   2.029  0.0056 -0.2962 -0.5780
 5990SOL    HW129429   1.699   1.583   2.038 -0.2803  2.3905 -2.7419
 5990SOL    HW229430   1.615   1.487   1.976  0.1983 -0.4940 -0.2470
 5991SOL     OW29431   0.810   2.633   0.131 -0.3510 -0.7772 -0.0471
 5991SOL    HW129432   0.733   2.659   0.182 -0.7024 -2.4141  0.2478
 5991SOL    HW229433   0.859   2.600   0.206 -1.5541  3.2105  2.4625
 5992SOL     OW29434   3.414   4.054   2.998 -0.2738  0.3308  0.3481
 5992SOL    HW129435   3.375   3.994   2.934 -1.2277  0.2712  0.9903
 5992SOL    HW229436   3.336   4.108   3.010 -0.8808 -1.0993  2.7120
 5993SOL     OW29437   2.380   0.677   5.981 -0.1827 -0.0382 -0.3408
 5993SOL    HW129438   2.297   0.672   5.933 -1.5286  2.3053  1.7635
 5993SOL    HW229439   2.431   0.657   5.903 -1.1465 -2.0105 -0.4780
 5994SOL     OW29440   0.165   3.541   4.507  0.4452 -0.6237 -0.1926
 5994SOL    HW129441   0.229   3.470   4.497  0.9134 -0.2828  0.3858
 5994SOL    HW229442   0.108   3.496   4.569 -0.4287  0.6517 -0.0808
 5995SOL     OW29443   2.925   2.423   8.561  0.4697 -0.4591  0.5404
 5995SOL    HW129444   2.986   2.497   8.554  0.1573 -0.2456  0.0835
 5995SOL    HW229445   2.888   2.427   8.649 -1.4097 -0.2575 -0.2483
 5996SOL     OW29446   0.085   1.392  14.884  0.1315  0.4222 -0.0755
 5996SOL    HW129447   0.144   1.454  14.841  1.1024  0.3685  1.1875
 5996SOL    HW229448   0.047   1.435  14.961  2.0448  1.7478  0.1281
 5997SOL     OW29449   3.989   3.245   6.522 -0.2328  0.7355 -0.0034
 5997SOL    HW129450   4.076   3.284   6.520 -1.0007  2.5185  0.7354
 5997SOL    HW229451   3.944   3.329   6.519 -1.8935 -0.1322  0.3928
 5998SOL     OW29452   4.365   4.570   1.328  0.0687  0.0009 -0.0012
 5998SOL    HW129453   4.352   4.513   1.404 -0.4653 -1.1945 -0.9732
 5998SOL    HW229454   4.313   4.520   1.264  0.7354 -2.9813  1.8060
 5999SOL     OW29455   3.420   1.348   4.291  0.1850  0.4883 -0.8172
 5999SOL    HW129456   3.447   1.267   4.335  0.5010  1.2374  0.3383
 5999SOL    HW229457   3.420   1.402   4.369 -1.3328 -0.4660 -0.1583
 6000SOL     OW29458   0.588   0.049   0.504 -0.0086 -0.1094 -0.4478
 6000SOL    HW129459   0.550   0.038   0.591  0.0470 -0.6323 -0.4859
 6000SOL    HW229460   0.665   4.713   0.514  0.9195  1.0073 -1.3170
 6001SOL     OW29461   4.347   2.468   5.467 -0.2813  0.0752  0.5270
 6001SOL    HW129462   4.324   2.517   5.388 -0.4484 -2.8510 -1.2040
 6001SOL    HW229463   4.406   2.401   5.432  0.1289  0.5122  0.3711
 6002SOL     OW29464   0.938   0.671  11.755 -0.6009 -0.6120  0.8047
 6002SOL    HW129465   1.024   0.703  11.781 -0.4831  2.0216 -2.8705
 6002SOL    HW229466   0.906   0.648  11.843  0.6612 -1.6330  1.0049
 6003SOL     OW29467   1.460   2.851   7.601  0.1746 -0.3542 -0.2851
 6003SOL    HW129468   1.446   2.919   7.666 -1.8620 -1.4346  0.3988
 6003SOL    HW229469   1.422   2.779   7.651  2.3330 -2.4599 -1.6571
 6004SOL     OW29470   4.623   3.324   6.995  0.2974 -0.3368 -0.3145
 6004SOL    HW129471   4.713   3.318   7.029  0.8131  0.8303 -1.4397
 6004SOL    HW229472   4.584   3.403   7.032  0.2878  0.8493 -2.8022
 6005SOL     OW29473   1.228   3.370  17.625 -0.6456  0.3448  0.2963
 6005SOL    HW129474   1.296   3.427  17.661 -0.5527  0.0087  0.6604
 6005SOL    HW229475   1.265   3.284  17.649  0.1977  0.7254  0.3646
 6006SOL     OW29476   0.736   2.278   2.405  0.6302 -0.0673 -0.4584
 6006SOL    HW129477   0.766   2.363   2.372 -2.2498  0.2261 -2.2994
 6006SOL    HW229478   0.726   2.292   2.499  0.6834 -0.8181 -0.3442
 6007SOL     OW29479   1.237   2.491  11.619  0.3320 -0.3015  0.2150
 6007SOL    HW129480   1.300   2.561  11.634 -0.9738  0.5948  1.4589
 6007SOL    HW229481   1.266   2.459  11.533 -2.2741 -1.5971 -0.1636
 6008SOL     OW29482   0.318   3.300  17.681 -0.1694 -0.2927 -0.4831
 6008SOL    HW129483   0.336   3.306   0.090  0.0904  1.5981 -0.6443
 6008SOL    HW229484   0.362   3.375  17.640 -1.6636 -0.6294 -2.6871
 6009SOL     OW29485   0.632   0.001   8.511 -0.4839  0.3602  0.2216
 6009SOL    HW129486   0.674   0.087   8.513 -2.0584  1.2027 -2.2059
 6009SOL    HW229487   0.610   4.702   8.602 -1.1506 -1.5126 -0.3417
 6010SOL     OW29488   0.337   3.931   8.481 -0.2060 -0.1811  0.6502
 6010SOL    HW129489   0.417   3.980   8.501  0.1473 -1.3493  2.1184
 6010SOL    HW229490   0.266   3.986   8.515 -0.8858 -0.0955 -0.9132
 6011SOL     OW29491   4.211   1.969   1.934 -0.0031  0.6141 -0.0265
 6011SOL    HW129492   4.156   1.901   1.896 -3.2782  1.7882  2.6257
 6011SOL    HW229493   4.236   2.010   1.851  0.4508  0.1934 -0.1040
 6012SOL     OW29494   0.185   0.435  12.131 -0.3698  0.1018 -0.4661
 6012SOL    HW129495   0.237   0.513  12.147  2.4853 -1.3339 -2.6022
 6012SOL    HW229496   0.250   0.373  12.096 -0.5920  0.1283 -0.9184
 6013SOL     OW29497   0.338   2.054  10.191 -0.7493 -0.2526 -0.4310
 6013SOL    HW129498   0.390   1.976  10.173 -1.1109 -0.3203 -1.1887
 6013SOL    HW229499   0.330   2.051  10.286 -0.0917  0.2167 -0.3647
 6014SOL     OW29500   4.093   4.219   1.146  0.1810 -0.0908  0.1196
 6014SOL    HW129501   4.041   4.158   1.094 -1.4401  0.9913  0.4539
 6014SOL    HW229502   4.105   4.161   1.221 -0.0083  0.8441  0.8745
 6015SOL     OW29503   0.060   4.268  16.707  0.2238  0.2015  0.4909
 6015SOL    HW129504   0.041   4.222  16.788 -0.6213 -1.4037 -0.6410
 6015SOL    HW229505   4.696   4.307  16.687  0.2559  0.3896  0.7163
 6016SOL     OW29506   3.595   2.235   3.228  0.7460  0.3604  0.1343
 6016SOL    HW129507   3.564   2.188   3.306  1.2223 -0.5972 -0.2576
 6016SOL    HW229508   3.517   2.228   3.174  2.9482 -1.2523 -2.7896
 6017SOL     OW29509   4.396   0.729   6.189 -0.3547 -0.1552 -0.0938
 6017SOL    HW129510   4.335   0.751   6.259 -1.0350 -0.9074 -0.4515
 6017SOL    HW229511   4.378   0.800   6.128 -0.5385 -1.0000 -1.0150
 6018SOL     OW29512   2.946   1.536  13.933 -0.4230  0.1492  0.2170
 6018SOL    HW129513   2.942   1.563  14.025 -2.3993 -1.0286  0.4951
 6018SOL    HW229514   3.037   1.511  13.919 -0.3923  0.5528 -0.3314
 6019SOL     OW29515   0.935   3.817   3.910 -0.5730 -0.8569  0.0265
 6019SOL    HW129516   1.025   3.847   3.921 -1.6056  2.1494  0.0972
 6019SOL    HW229517   0.881   3.863   3.974 -0.0020 -4.3819  3.1003
 6020SOL     OW29518   1.399   0.109   5.983  0.1516  0.1678  0.3770
 6020SOL    HW129519   1.478   0.143   6.024  0.2990 -0.3948  0.5582
 6020SOL    HW229520   1.332   0.172   6.012  0.4371  0.2152  0.9251
 6021SOL     OW29521   4.396   1.112  15.518  0.1722 -0.4364 -0.2563
 6021SOL    HW129522   4.353   1.143  15.438 -1.9642 -1.1645  0.6053
 6021SOL    HW229523   4.330   1.143  15.581  2.0081 -0.6632  1.7497
 6022SOL     OW29524   0.650   0.668   3.024  0.4025 -0.2269  0.4983
 6022SOL    HW129525   0.646   0.762   3.039 -2.9536 -0.4982  1.3101
 6022SOL    HW229526   0.661   0.635   3.114 -1.5606 -0.2085  0.7421
 6023SOL     OW29527   3.915   4.414  16.582 -0.1034 -0.1284 -0.0621
 6023SOL    HW129528   3.974   4.433  16.656  0.5589 -1.2772 -0.2987
 6023SOL    HW229529   3.838   4.460  16.617  0.2313 -0.6857  1.3873
 6024SOL     OW29530   0.053   1.883   0.922 -0.1159  0.0731  0.5961
 6024SOL    HW129531   4.693   1.890   0.974 -1.9151  1.3043 -2.3419
 6024SOL    HW229532   0.079   1.792   0.934 -0.9187 -0.4393 -1.6690
 6025SOL     OW29533   0.221   0.017   1.717 -0.3798  0.5298  0.5254
 6025SOL    HW129534   0.238   0.108   1.740 -0.7503  0.5385  0.7766
 6025SOL    HW229535   0.126   0.024   1.707 -0.7871 -0.7956  3.6117
 6026SOL     OW29536   4.603   1.307   7.685  0.1252 -0.0701  0.0007
 6026SOL    HW129537   4.651   1.282   7.764 -0.9516  0.3542  0.7850
 6026SOL    HW229538   4.529   1.354   7.723 -1.7239  0.0599 -3.7245
 6027SOL     OW29539   0.526   1.766   8.556 -0.3208 -0.1959 -0.1490
 6027SOL    HW129540   0.531   1.837   8.491 -2.8536  2.1623  2.2696
 6027SOL    HW229541   0.601   1.774   8.615  0.0704 -1.3292 -0.4835
 6028SOL     OW29542   1.901   3.821  10.479  0.2869 -0.2498 -0.7823
 6028SOL    HW129543   1.886   3.726  10.483 -0.0955 -0.1602  0.0101
 6028SOL    HW229544   1.923   3.838  10.570 -0.9276 -0.2782 -0.4775
 6029SOL     OW29545   1.184   1.605   4.740 -0.4772  0.7249 -0.4207
 6029SOL    HW129546   1.108   1.553   4.712 -0.7149 -0.2694  2.0771
 6029SOL    HW229547   1.135   1.683   4.767  0.3359  0.7939  0.8553
 6030SOL     OW29548   4.278   3.809   4.226  0.6707  0.4623 -0.6771
 6030SOL    HW129549   4.316   3.723   4.207 -1.4744 -0.5279 -0.4606
 6030SOL    HW229550   4.221   3.806   4.150 -0.3893 -1.2256  0.2048
 6031SOL     OW29551   1.652   2.497  16.728 -0.2816 -0.1394  0.1143
 6031SOL    HW129552   1.571   2.518  16.681 -1.8208 -2.9241  1.5329
 6031SOL    HW229553   1.655   2.402  16.718  0.7221 -0.1677  0.7232
 6032SOL     OW29554   0.546   0.882   2.562 -0.1776  0.0294 -0.3020
 6032SOL    HW129555   0.641   0.892   2.567 -0.1445  0.4994 -1.9220
 6032SOL    HW229556   0.535   0.803   2.509 -2.3465 -0.5310  0.9729
 6033SOL     OW29557   0.301   1.173  13.608  0.1111 -0.7954 -0.2152
 6033SOL    HW129558   0.356   1.160  13.531  0.5919 -0.2505  0.0352
 6033SOL    HW229559   0.241   1.233  13.563 -0.8174 -1.2729  0.3691
 6034SOL     OW29560   0.967   2.648   8.171 -0.2560  0.3401 -0.6169
 6034SOL    HW129561   0.916   2.635   8.091  0.0406  0.3552 -0.8071
 6034SOL    HW229562   0.933   2.727   8.214  1.6167  0.1920  1.1422
 6035SOL     OW29563   3.345   3.600   9.246  0.0760 -0.6529  0.7918
 6035SOL    HW129564   3.392   3.684   9.248 -0.7071 -0.1914 -0.5664
 6035SOL    HW229565   3.416   3.538   9.263  0.2940 -0.7866 -0.6443
 6036SOL     OW29566   1.330   1.538   7.358 -0.1970  0.0178 -0.4601
 6036SOL    HW129567   1.244   1.515   7.392  0.4752  0.5422  1.6083
 6036SOL    HW229568   1.368   1.456   7.390  2.1931  2.0271  1.8211
 6037SOL     OW29569   1.217   2.209   5.747  0.4913 -0.4812 -0.3470
 6037SOL    HW129570   1.231   2.268   5.821  2.2364  1.5643 -2.3189
 6037SOL    HW229571   1.306   2.209   5.712  0.5749  0.3372 -0.1515
 6038SOL     OW29572   0.574   3.929   3.659 -0.0495  0.1964  0.2313
 6038SOL    HW129573   0.661   3.895   3.680  0.9624  1.9760 -1.1523
 6038SOL    HW229574   0.526   3.896   3.736  0.9794  1.1553  1.2834
 6039SOL     OW29575   1.632   1.199   1.783  0.2281  0.0255  0.5160
 6039SOL    HW129576   1.567   1.267   1.798  0.8505  0.2160  2.4079
 6039SOL    HW229577   1.694   1.244   1.726 -0.2397 -0.5253 -0.4270
 6040SOL     OW29578   0.695   1.019  13.340 -0.0093  0.5103  0.4482
 6040SOL    HW129579   0.748   1.087  13.299  1.4222 -0.1221  1.2204
 6040SOL    HW229580   0.757   0.984  13.404 -1.6598 -1.5969  0.8768
 6041SOL     OW29581   3.565   4.120   2.293 -0.0210  0.4812  0.1029
 6041SOL    HW129582   3.608   4.050   2.342  0.3025 -0.5983 -1.7258
 6041SOL    HW229583   3.487   4.129   2.348  0.3797  0.2675  0.7094
 6042SOL     OW29584   0.622   2.572   4.409  0.4126 -0.5471 -0.1932
 6042SOL    HW129585   0.615   2.477   4.394  0.1287 -0.4610 -0.5933
 6042SOL    HW229586   0.653   2.573   4.500  1.7349  0.8876 -0.6652
 6043SOL     OW29587   0.625   3.944   6.208  0.3796 -0.5866 -0.4239
 6043SOL    HW129588   0.676   3.892   6.271  1.0522  2.2301  1.3399
 6043SOL    HW229589   0.538   3.944   6.248  0.8061  1.7832  0.4791
 6044SOL     OW29590   3.873   3.062   8.825  0.3518  0.0094 -0.1553
 6044SOL    HW129591   3.964   3.076   8.850  1.3793 -1.9457 -2.7575
 6044SOL    HW229592   3.854   2.972   8.852 -2.5978  0.7563  0.2813
 6045SOL     OW29593   0.636   2.040   4.433 -0.2894 -0.6939 -0.0939
 6045SOL    HW129594   0.572   1.972   4.411 -1.0334  0.4228 -1.4282
 6045SOL    HW229595   0.702   2.009   4.371  1.0583 -1.0809  1.5584
 6046SOL     OW29596   3.893   4.419   4.766  0.3140 -0.2118 -0.1929
 6046SOL    HW129597   3.960   4.372   4.717  1.7608  0.0585  1.5428
 6046SOL    HW229598   3.840   4.341   4.772 -0.3231  0.3782  1.6565
 6047SOL     OW29599   4.518   2.146  17.033 -0.3054  0.4311 -0.3022
 6047SOL    HW129600   4.532   2.053  17.052  0.7495  0.1752 -2.4061
 6047SOL    HW229601   4.429   2.139  16.999 -0.7054  0.1589  0.8108
 6048SOL     OW29602   0.577   1.056  10.074  0.3132 -0.8718  0.1218
 6048SOL    HW129603   0.638   1.110  10.024  0.1098 -0.2518  0.5520
 6048SOL    HW229604   0.609   1.046  10.164  0.2207  1.7932  0.4522
 6049SOL     OW29605   3.612   3.926   4.542 -0.4482  0.6478 -0.0592
 6049SOL    HW129606   3.555   3.895   4.471  1.5050 -2.4916 -0.2669
 6049SOL    HW229607   3.695   3.913   4.496 -0.8647  1.7589 -1.1278
 6050SOL     OW29608   1.090   3.874   3.030 -0.0517 -0.0595 -0.4997
 6050SOL    HW129609   1.131   3.790   3.051 -0.3482 -0.1194 -0.1650
 6050SOL    HW229610   1.105   3.919   3.113  3.3900 -0.7412 -0.7301
 6051SOL     OW29611   3.303   4.613  10.399  0.2206  0.2649  0.3520
 6051SOL    HW129612   3.351   4.622  10.481 -0.5323 -1.5322  0.9985
 6051SOL    HW229613   3.286   4.519  10.388 -1.0715  0.6782 -1.2648
 6052SOL     OW29614   4.066   2.152   5.309 -0.3044  0.0934 -0.4665
 6052SOL    HW129615   4.073   2.247   5.305  0.4036  0.1645  2.7097
 6052SOL    HW229616   4.129   2.119   5.244 -0.2044 -2.8790  1.1514
 6053SOL     OW29617   0.368   2.911   2.370 -0.4350 -0.5056 -0.2465
 6053SOL    HW129618   0.347   2.854   2.296 -1.8335 -1.1846  0.6659
 6053SOL    HW229619   0.308   2.985   2.360  0.1444  0.4035  2.9916
 6054SOL     OW29620   1.675   0.057  17.614  0.2974  0.4093  0.0066
 6054SOL    HW129621   1.605   0.123  17.621 -0.5180 -0.4631  0.1699
 6054SOL    HW229622   1.710   0.078  17.528 -2.8734 -0.1472 -1.4379
 6055SOL     OW29623   4.399   0.305   0.101  0.1657 -0.1511  0.3340
 6055SOL    HW129624   4.362   0.279   0.186  1.0570 -2.5973 -0.0273
 6055SOL    HW229625   4.433   0.220   0.076 -1.0613 -0.6489  0.3395
 6056SOL     OW29626   0.677   1.349  14.392  0.3507 -0.4557  0.6011
 6056SOL    HW129627   0.699   1.420  14.331 -3.0615 -2.3644 -2.8275
 6056SOL    HW229628   0.749   1.352  14.456  1.1411 -2.1967 -0.1973
 6057SOL     OW29629   3.133   0.904   4.006  0.0786 -0.5621 -0.1789
 6057SOL    HW129630   3.133   0.820   4.052  0.2351  1.0219  2.7422
 6057SOL    HW229631   3.220   0.938   4.027  0.0900 -0.4601 -0.3949
 6058SOL     OW29632   2.280   0.422  13.188  0.0145  0.5000  0.0089
 6058SOL    HW129633   2.268   0.516  13.172  0.5434  0.5866  0.1059
 6058SOL    HW229634   2.295   0.437  13.282 -0.0127  0.9262 -0.0544
 6059SOL     OW29635   0.365   2.506   6.863  0.0475 -0.5367 -0.4652
 6059SOL    HW129636   0.428   2.533   6.930 -0.2696  0.2588 -0.4850
 6059SOL    HW229637   0.395   2.415   6.856  1.4852 -0.2066  1.2708
 6060SOL     OW29638   0.207   2.242   9.406 -0.0639  0.2961 -0.3003
 6060SOL    HW129639   0.244   2.153   9.408  0.7208  0.6691  1.3735
 6060SOL    HW229640   0.285   2.296   9.394  0.7707 -0.9160 -0.3141
 6061SOL     OW29641   4.520   1.159   3.489 -0.2080 -0.3749 -0.6863
 6061SOL    HW129642   4.569   1.239   3.471  2.5874 -1.9480 -0.0309
 6061SOL    HW229643   4.591   1.110   3.531 -0.9359 -0.3296  0.6187
 6062SOL     OW29644   2.708   1.541   5.519 -0.0575 -0.5492 -0.1309
 6062SOL    HW129645   2.790   1.589   5.514 -0.1226 -0.2869  1.4451
 6062SOL    HW229646   2.735   1.449   5.524 -2.7406 -1.2796  1.2662
 6063SOL     OW29647   0.980   2.874   8.786  0.0823 -0.4427 -0.0778
 6063SOL    HW129648   1.037   2.940   8.825 -0.2833 -1.2208  1.7684
 6063SOL    HW229649   0.955   2.816   8.858  0.8889 -2.7332 -1.6427
 6064SOL     OW29650   3.870   2.984   9.106  0.1910  0.2180 -0.2473
 6064SOL    HW129651   3.918   2.952   9.182 -0.5478  0.4231  0.3000
 6064SOL    HW229652   3.805   2.916   9.089 -0.6133  0.5941  1.3057
 6065SOL     OW29653   3.694   1.113   8.414  0.5150 -0.1193 -0.3907
 6065SOL    HW129654   3.770   1.170   8.425  0.0291  0.0928  1.7555
 6065SOL    HW229655   3.727   1.032   8.453  3.8687  2.1493  1.4587
 6066SOL     OW29656   1.941   4.249   0.614  0.2831 -0.1150  0.0909
 6066SOL    HW129657   1.941   4.266   0.520 -0.5717 -0.4353  0.0414
 6066SOL    HW229658   1.901   4.329   0.647 -0.1122 -0.9043  1.4898
 6067SOL     OW29659   0.056   2.878  16.600  0.1358 -0.3512  0.1221
 6067SOL    HW129660   0.063   2.959  16.651  1.2843 -0.1125 -0.4190
 6067SOL    HW229661   4.689   2.895  16.564 -0.1799  2.2994  2.1323
 6068SOL     OW29662   1.908   0.598   7.325  0.4780 -0.1410 -0.0425
 6068SOL    HW129663   1.820   0.575   7.356  0.8461 -3.0475 -1.1650
 6068SOL    HW229664   1.938   0.530   7.265 -1.2705 -1.1150  0.1636
 6069SOL     OW29665   2.014   4.448   2.659 -0.5014 -0.0834 -0.7948
 6069SOL    HW129666   2.104   4.455   2.628 -0.6818  0.3936 -1.2016
 6069SOL    HW229667   2.028   4.463   2.753 -2.4732  0.8440 -0.6473
 6070SOL     OW29668   3.773   1.525   5.174 -0.3108  0.4336 -0.2826
 6070SOL    HW129669   3.711   1.598   5.180 -0.6407  0.1176  0.1615
 6070SOL    HW229670   3.850   1.580   5.189 -1.0550  1.4012  0.0064
 6071SOL     OW29671   4.074   0.440   7.520  0.6352  0.3502 -0.1270
 6071SOL    HW129672   4.049   0.436   7.428  1.1080  0.5912 -0.2705
 6071SOL    HW229673   4.157   0.489   7.516  1.7757 -1.5721  0.1973
 6072SOL     OW29674   1.203   3.723   4.597  0.1577 -0.3061  0.7167
 6072SOL    HW129675   1.286   3.750   4.636  0.5454  1.5077 -1.3604
 6072SOL    HW229676   1.185   3.785   4.527  0.7344 -2.8791 -1.7044
 6073SOL     OW29677   2.957   3.659  10.090  0.2562 -0.0063  0.2916
 6073SOL    HW129678   2.884   3.698  10.042 -1.2179 -3.9207 -0.6509
 6073SOL    HW229679   2.907   3.598  10.144 -0.6436 -0.2240 -0.7783
 6074SOL     OW29680   2.477   4.066  17.218 -0.1239 -0.3343 -0.4891
 6074SOL    HW129681   2.493   4.097  17.307 -3.6321  0.4108 -0.1247
 6074SOL    HW229682   2.547   4.103  17.164 -0.8390  0.6884 -0.7079
 6075SOL     OW29683   2.573   3.605   4.635  0.2783 -0.1059 -0.4382
 6075SOL    HW129684   2.572   3.597   4.540 -0.0820  1.1897 -0.5425
 6075SOL    HW229685   2.610   3.521   4.663 -0.6450 -0.2060  0.5085
 6076SOL     OW29686   2.399   0.353   4.758 -0.0742  0.4056 -0.2694
 6076SOL    HW129687   2.424   0.340   4.666 -0.5525 -0.1080 -0.3275
 6076SOL    HW229688   2.474   0.408   4.781 -1.0857  2.0212 -0.8476
 6077SOL     OW29689   2.456   0.777  17.329 -0.7343 -0.2381 -0.4083
 6077SOL    HW129690   2.409   0.821  17.258  2.6338  0.7045 -2.0245
 6077SOL    HW229691   2.391   0.712  17.355 -0.8176 -0.2378 -0.6176
 6078SOL     OW29692   1.081   4.687   8.578  0.8244  0.5098  0.4590
 6078SOL    HW129693   1.089   4.687   8.482  1.1252 -0.3598  0.4860
 6078SOL    HW229694   1.020   0.040   8.587  0.6308  0.4377 -0.2215
 6079SOL     OW29695   0.153   2.484  10.244 -0.1705 -0.1806  0.2101
 6079SOL    HW129696   0.058   2.489  10.239 -0.1790  0.7862  1.5182
 6079SOL    HW229697   0.157   2.551  10.312  1.0399 -0.9240  0.8719
 6080SOL     OW29698   2.948   3.320   1.619 -0.1727 -0.1634 -0.0355
 6080SOL    HW129699   2.898   3.387   1.664 -0.3369  0.1635 -0.7124
 6080SOL    HW229700   2.903   3.333   1.536  2.5761 -0.2756 -1.5461
 6081SOL     OW29701   0.582   1.081   7.442  0.5210  0.5703 -0.2643
 6081SOL    HW129702   0.636   1.004   7.424 -2.4841 -1.3763 -0.7829
 6081SOL    HW229703   0.618   1.139   7.376 -0.0379 -1.0739 -1.9972
 6082SOL     OW29704   1.462   0.693   6.565 -0.2546  0.0992 -0.7560
 6082SOL    HW129705   1.373   0.721   6.544  0.2119  2.9524  1.1240
 6082SOL    HW229706   1.504   0.778   6.575  1.6617 -0.6301 -2.7110
 6083SOL     OW29707   2.765   1.458  12.797 -0.6711  0.5284 -0.6542
 6083SOL    HW129708   2.860   1.452  12.805 -0.7439  0.5261  0.2435
 6083SOL    HW229709   2.738   1.366  12.801 -0.9168  0.6735  1.1336
 6084SOL     OW29710   2.216   0.860   9.901 -0.1745 -0.5085 -0.1338
 6084SOL    HW129711   2.272   0.867   9.824 -2.6866  0.1759 -1.8959
 6084SOL    HW229712   2.212   0.766   9.920 -2.3989 -0.6337 -1.1640
 6085SOL     OW29713   3.462   1.836  15.407 -0.2400  0.4059  0.2650
 6085SOL    HW129714   3.379   1.884  15.400 -1.2062 -0.9559  2.6279
 6085SOL    HW229715   3.492   1.885  15.483 -0.2181  0.1281  0.4327
 6086SOL     OW29716   3.891   3.463   1.828 -0.4866  0.2952 -0.2291
 6086SOL    HW129717   3.979   3.428   1.835 -0.5060  0.4256  0.6821
 6086SOL    HW229718   3.917   3.555   1.824  0.3732 -0.0049 -1.5285
 6087SOL     OW29719   1.108   0.358   7.836 -0.3075 -0.6327 -0.4988
 6087SOL    HW129720   1.189   0.307   7.842 -1.4084 -2.2567  0.5046
 6087SOL    HW229721   1.082   0.349   7.927 -0.4642 -2.0921 -0.6740
 6088SOL     OW29722   4.414   1.882   4.782 -0.0414 -0.0403  0.3783
 6088SOL    HW129723   4.338   1.840   4.821  0.1188 -0.3469  0.3566
 6088SOL    HW229724   4.466   1.809   4.750 -0.2461  0.0527 -0.1653
 6089SOL     OW29725   4.112   3.885   4.014  0.4551  0.0903  0.3376
 6089SOL    HW129726   4.135   3.850   3.928 -0.1651  0.4132  0.0421
 6089SOL    HW229727   4.039   3.829   4.041  1.4384 -1.0924  0.5756
 6090SOL     OW29728   1.204   1.922   0.788  0.5695  0.0141 -0.7547
 6090SOL    HW129729   1.153   1.842   0.774  0.4422  0.5121 -3.1226
 6090SOL    HW229730   1.178   1.945   0.877  0.8326 -0.6991 -0.4922
 6091SOL     OW29731   3.301   3.633   7.570 -0.4923 -0.1988  0.1140
 6091SOL    HW129732   3.239   3.679   7.627 -1.9258 -0.6591 -1.0913
 6091SOL    HW229733   3.355   3.699   7.526  2.7888 -1.5773  2.0478
 6092SOL     OW29734   0.130   2.891   7.295  0.0563 -0.5824  0.1400
 6092SOL    HW129735   0.161   2.802   7.279 -3.6416 -1.9328  0.4400
 6092SOL    HW229736   0.091   2.877   7.382 -0.7243 -0.2848 -0.1619
 6093SOL     OW29737   2.413   2.747   3.359  0.1536  0.9200  0.2302
 6093SOL    HW129738   2.402   2.678   3.424  1.1394  0.0187 -0.5483
 6093SOL    HW229739   2.372   2.720   3.277 -0.9536 -0.4136  1.2264
 6094SOL     OW29740   0.883   0.534  16.110  0.3604 -0.3717  0.2215
 6094SOL    HW129741   0.796   0.567  16.131  0.8744  1.1239 -0.0135
 6094SOL    HW229742   0.924   0.619  16.094  3.4715 -2.0169 -0.4927
 6095SOL     OW29743   4.042   1.282   2.183  0.0822  0.0007  0.0199
 6095SOL    HW129744   4.113   1.285   2.119  0.1516  1.9489  0.1953
 6095SOL    HW229745   3.961   1.314   2.143  0.6977 -0.6768 -1.7898
 6096SOL     OW29746   3.389   2.942  11.304 -0.2121  0.1902 -0.1805
 6096SOL    HW129747   3.296   2.959  11.287 -0.5615 -1.4838  0.1199
 6096SOL    HW229748   3.430   2.973  11.223  0.5255  0.2749  0.2275
 6097SOL     OW29749   1.734   4.325   4.275 -0.0244 -0.3486  0.5788
 6097SOL    HW129750   1.745   4.256   4.340  3.3483 -0.4745 -0.1398
 6097SOL    HW229751   1.693   4.275   4.205  0.1692  0.4369 -0.1050
 6098SOL     OW29752   4.470   4.661   4.858  0.3026  0.4289 -0.4399
 6098SOL    HW129753   4.479   0.026   4.817  0.5277  1.5962  2.0606
 6098SOL    HW229754   4.481   4.680   4.952 -0.2542 -0.5670 -0.1665
 6099SOL     OW29755   1.277   0.311  10.101 -0.4021  0.2397  0.2518
 6099SOL    HW129756   1.317   0.256  10.168 -0.3409  1.5945  1.3304
 6099SOL    HW229757   1.185   0.290  10.118 -0.7966  1.1440 -0.7722
 6100SOL     OW29758   2.514   1.323   1.937  0.0154 -0.4790 -0.0518
 6100SOL    HW129759   2.441   1.324   1.999 -0.7310 -0.5102 -0.9370
 6100SOL    HW229760   2.590   1.326   1.996  0.3672  0.0330 -0.5300
 6101SOL     OW29761   3.570   4.624  15.375 -0.0062 -0.2759  0.4845
 6101SOL    HW129762   3.546   4.532  15.393  2.2426 -1.0549 -0.5498
 6101SOL    HW229763   3.586   4.652  15.465 -0.1736 -0.2128  0.4949
 6102SOL     OW29764   0.614   1.045   5.018 -0.4150 -0.5876 -0.0802
 6102SOL    HW129765   0.524   1.060   5.049 -0.2104  0.4405 -0.0005
 6102SOL    HW229766   0.603   1.040   4.924  0.0074 -0.9541 -0.1093
 6103SOL     OW29767   2.550   0.366   4.523 -0.4303 -0.5824 -0.1126
 6103SOL    HW129768   2.628   0.388   4.574 -0.3326 -0.1655 -0.4438
 6103SOL    HW229769   2.579   0.378   4.432  2.6028 -0.7332  0.8189
 6104SOL     OW29770   0.229   2.552  16.625 -0.6679 -0.5978 -0.1382
 6104SOL    HW129771   0.318   2.536  16.593 -0.7491  0.2459 -0.7801
 6104SOL    HW229772   0.231   2.500  16.705  1.2906  1.1391  0.9710
 6105SOL     OW29773   2.343   3.266  12.536 -0.0303  1.0069 -0.3261
 6105SOL    HW129774   2.403   3.249  12.464  0.6639 -0.0433  0.4891
 6105SOL    HW229775   2.403   3.288  12.607  1.7407 -1.7439 -1.0080
 6106SOL     OW29776   3.924   1.162  14.733  0.2438 -0.3072 -0.4217
 6106SOL    HW129777   3.948   1.084  14.784 -1.1577  0.2248  1.0742
 6106SOL    HW229778   3.829   1.154  14.744  0.1339  0.8514 -0.5667
 6107SOL     OW29779   1.339   0.399   6.117  0.4723  0.1620 -0.3756
 6107SOL    HW129780   1.391   0.419   6.194  0.3755 -1.6456  0.1386
 6107SOL    HW229781   1.289   0.481   6.113  0.1387 -0.1640 -3.1266
 6108SOL     OW29782   1.301   0.808   9.893  0.0057 -0.3147  0.2199
 6108SOL    HW129783   1.384   0.829   9.851  0.2070 -0.4901  0.5352
 6108SOL    HW229784   1.306   0.712   9.891  1.2963 -0.2967  3.4218
 6109SOL     OW29785   1.932   0.626  13.028  0.4837 -0.1425  0.5055
 6109SOL    HW129786   1.997   0.662  12.968 -0.3609 -2.2273 -1.6542
 6109SOL    HW229787   1.924   0.537  12.993  2.5489 -0.2711  0.3671
 6110SOL     OW29788   3.150   0.707   3.643  0.5985  0.1444  0.5313
 6110SOL    HW129789   3.106   0.667   3.717  2.1368  1.0884  1.9552
 6110SOL    HW229790   3.214   0.765   3.685 -1.0841  2.2124  0.2710
 6111SOL     OW29791   1.328   4.219   8.633  0.1369 -0.2262 -0.0594
 6111SOL    HW129792   1.292   4.140   8.673  0.6816 -0.5405 -0.1843
 6111SOL    HW229793   1.254   4.279   8.641  1.0907  0.8103  0.9065
 6112SOL     OW29794   2.755   2.677   9.260  0.3855  0.2257  0.7893
 6112SOL    HW129795   2.779   2.759   9.217  0.4589 -0.9124 -1.3271
 6112SOL    HW229796   2.775   2.683   9.353  1.1295  0.8988  0.5879
 6113SOL     OW29797   2.561   0.545  11.077 -0.3450 -0.1098 -0.3206
 6113SOL    HW129798   2.510   0.537  10.996 -1.1168  0.5172  0.0922
 6113SOL    HW229799   2.486   0.557  11.136 -1.4245 -2.4713 -1.1971
 6114SOL     OW29800   0.994   0.382   6.737  0.4839  0.0499  0.0920
 6114SOL    HW129801   1.087   0.403   6.750  0.5444  0.4788 -1.0558
 6114SOL    HW229802   0.984   0.396   6.643 -1.1562  0.7052  0.3595
 6115SOL     OW29803   3.227   2.758  13.583 -0.4170  0.0105 -0.0965
 6115SOL    HW129804   3.262   2.733  13.668 -0.4354  1.2228  0.2717
 6115SOL    HW229805   3.153   2.701  13.565 -1.8725  0.7476  3.6134
 6116SOL     OW29806   3.044   0.066   3.240  0.1736 -0.4792  0.2950
 6116SOL    HW129807   3.113   0.102   3.185 -1.2513  1.1171 -0.4473
 6116SOL    HW229808   3.013   0.149   3.276 -0.1014 -0.2244 -0.5417
 6117SOL     OW29809   4.593   1.741   5.192  0.0616  0.2387 -0.3215
 6117SOL    HW129810   4.590   1.738   5.288  0.6959  0.6508 -0.2913
 6117SOL    HW229811   4.498   1.743   5.177 -0.2186 -1.2164  1.1987
 6118SOL     OW29812   1.258   1.074   2.720 -0.0012 -0.6114  0.0844
 6118SOL    HW129813   1.229   0.990   2.756 -0.6945  0.3079  1.6860
 6118SOL    HW229814   1.314   1.037   2.651  2.0025  2.2818  0.1818
 6119SOL     OW29815   3.511   0.007   5.048  0.3734 -0.5597  0.1421
 6119SOL    HW129816   3.501   4.655   4.986  3.1098 -1.1506  0.3949
 6119SOL    HW229817   3.438   0.062   5.021  0.6201 -0.8683 -1.1843
 6120SOL     OW29818   0.998   1.138   2.338  0.1486 -0.8518  0.2406
 6120SOL    HW129819   0.912   1.105   2.312 -0.6150  0.0537  1.6128
 6120SOL    HW229820   1.048   1.057   2.341  1.0327 -0.2770  0.9810
 6121SOL     OW29821   3.056   1.518   9.655 -0.4732 -0.0809  0.4998
 6121SOL    HW129822   3.028   1.592   9.708  2.3512  1.5666 -0.2994
 6121SOL    HW229823   3.105   1.478   9.727 -1.0709 -1.4173  0.1487
 6122SOL     OW29824   0.965   2.248   9.535 -0.1780  0.1508  0.0929
 6122SOL    HW129825   1.019   2.288   9.603  0.0476 -0.0801  0.0476
 6122SOL    HW229826   1.026   2.191   9.488 -0.3695 -0.5276  0.6700
 6123SOL     OW29827   2.909   3.222   2.802 -0.4698  0.2983  0.2139
 6123SOL    HW129828   2.954   3.155   2.855  1.4786  0.8503 -0.7447
 6123SOL    HW229829   2.876   3.172   2.728  0.1168 -0.1573  0.2578
 6124SOL     OW29830   4.697   3.257   5.099 -0.1540  0.3179 -0.3698
 6124SOL    HW129831   0.033   3.315   5.149  1.4165  2.4294 -4.5715
 6124SOL    HW229832   0.016   3.173   5.124 -1.1915 -0.1431 -0.3021
 6125SOL     OW29833   1.087   4.004   4.654  0.0456 -0.2407 -0.2960
 6125SOL    HW129834   1.161   4.061   4.676  1.0801  0.5327 -5.7405
 6125SOL    HW229835   1.103   3.978   4.563  0.5926  0.1776 -0.3225
 6126SOL     OW29836   1.726   0.423  15.034  0.1277  0.0352  0.4062
 6126SOL    HW129837   1.675   0.364  15.089 -1.1008  0.2845 -0.4492
 6126SOL    HW229838   1.697   0.508  15.066 -2.3618  1.2569 -4.9733
 6127SOL     OW29839   0.388   4.513  11.696 -0.0981 -0.5903  0.1207
 6127SOL    HW129840   0.450   4.503  11.623 -2.4109  1.1817 -2.1036
 6127SOL    HW229841   0.451   4.512  11.768 -1.8388  1.5652  1.6587
 6128SOL     OW29842   1.698   3.394   7.988 -0.9646  0.1351 -0.0881
 6128SOL    HW129843   1.727   3.313   7.946  1.4397  1.2983 -0.6869
 6128SOL    HW229844   1.717   3.376   8.080  1.1990  0.4706 -0.4699
 6129SOL     OW29845   1.672   2.630  13.134 -0.2428 -0.6610 -0.6236
 6129SOL    HW129846   1.664   2.541  13.098  0.8980 -1.0153 -0.0294
 6129SOL    HW229847   1.764   2.637  13.162 -0.9421  2.3277  0.8614
 6130SOL     OW29848   3.233   4.186   6.523  0.0651  0.1840  0.2204
 6130SOL    HW129849   3.205   4.229   6.605  1.3845 -0.1362  0.8310
 6130SOL    HW229850   3.328   4.193   6.535 -0.2270  3.7414  0.5611
 6131SOL     OW29851   3.093   3.758   9.263 -0.0363  0.4617 -0.1512
 6131SOL    HW129852   3.128   3.824   9.203 -3.3843  0.8807 -1.6399
 6131SOL    HW229853   3.176   3.716   9.287 -0.0169 -1.2513 -3.1568
 6132SOL     OW29854   2.130   1.432   9.340  0.0219  0.6139  0.7729
 6132SOL    HW129855   2.186   1.445   9.263 -2.1753 -0.5935 -0.9971
 6132SOL    HW229856   2.103   1.522   9.356 -0.1398  0.5928  0.6092
 6133SOL     OW29857   4.347   3.441  15.487 -0.2655  0.0582 -0.1644
 6133SOL    HW129858   4.256   3.412  15.485 -0.3861  0.5668 -2.5728
 6133SOL    HW229859   4.339   3.536  15.480 -1.0408 -0.2920 -4.0329
 6134SOL     OW29860   0.112   1.416   8.010  0.1376  0.0087  0.0659
 6134SOL    HW129861   0.163   1.335   8.007 -1.3476 -0.9810  1.5631
 6134SOL    HW229862   0.186   1.474   7.996  1.0266 -1.4764 -1.4071
 6135SOL     OW29863   0.947   1.831   3.732 -0.6699  0.1754  0.1901
 6135SOL    HW129864   1.037   1.849   3.705 -0.9867 -0.7384 -1.5258
 6135SOL    HW229865   0.911   1.917   3.750  0.4937  0.3934  1.4023
 6136SOL     OW29866   1.205   3.318   5.754  0.4926  0.2421  0.1344
 6136SOL    HW129867   1.204   3.279   5.842 -2.6656 -1.2663 -0.5763
 6136SOL    HW229868   1.207   3.241   5.697  0.9935 -0.3343  0.9390
 6137SOL     OW29869   3.151   4.589   4.491 -0.2574 -0.4300 -0.5619
 6137SOL    HW129870   3.214   4.578   4.420  1.9287  0.0554  1.2923
 6137SOL    HW229871   3.099   4.664   4.461 -0.7901  1.1603  4.4241
 6138SOL     OW29872   0.234   2.813   9.450 -0.2632 -0.1085  0.1775
 6138SOL    HW129873   0.250   2.776   9.537  0.8985  0.2397  0.1114
 6138SOL    HW229874   0.319   2.799   9.409 -0.9416 -2.4070 -0.4731
 6139SOL     OW29875   3.313   2.871   3.717  0.0044  0.0880  0.1113
 6139SOL    HW129876   3.357   2.899   3.797  0.9416  1.4040 -0.8565
 6139SOL    HW229877   3.325   2.944   3.655 -2.3655  1.4004  1.2245
 6140SOL     OW29878   3.403   3.925   5.183  0.0495  0.1024  0.5324
 6140SOL    HW129879   3.414   3.833   5.162 -2.2175 -0.0979  0.2162
 6140SOL    HW229880   3.396   3.965   5.097  1.2154 -1.3369 -0.2264
 6141SOL     OW29881   1.813   2.435   2.178 -0.8948 -0.2462  0.5606
 6141SOL    HW129882   1.843   2.502   2.239 -2.0369  0.8310 -0.0698
 6141SOL    HW229883   1.881   2.367   2.178 -2.2467 -1.5824  2.0493
 6142SOL     OW29884   1.525   1.710   0.527 -0.0743 -0.1703 -0.2899
 6142SOL    HW129885   1.510   1.719   0.621 -0.6055  1.4521 -0.5289
 6142SOL    HW229886   1.456   1.646   0.511  0.0406 -0.5156  0.6469
 6143SOL     OW29887   4.268   2.277   8.680 -0.4792 -0.4663 -0.0238
 6143SOL    HW129888   4.351   2.321   8.667 -2.0658  1.8119 -2.3009
 6143SOL    HW229889   4.300   2.210   8.741  1.2613  0.9545  0.6149
 6144SOL     OW29890   0.937   4.309   7.441 -0.4121  0.2881 -0.5609
 6144SOL    HW129891   0.940   4.219   7.410 -1.4887  0.2878 -0.6435
 6144SOL    HW229892   0.911   4.282   7.529  0.0984 -1.1485 -0.8542
 6145SOL     OW29893   1.085   4.493   6.678  0.2390  0.0123  0.2950
 6145SOL    HW129894   1.167   4.504   6.630 -1.4175 -0.2560 -2.6213
 6145SOL    HW229895   1.082   4.565   6.740 -1.7485 -0.3125  0.5859
 6146SOL     OW29896   0.763   0.700   1.804 -0.5712  0.7767  0.3496
 6146SOL    HW129897   0.794   0.631   1.746 -2.0900 -0.7232  1.3080
 6146SOL    HW229898   0.748   0.774   1.745  0.8988  0.0309 -0.9100
 6147SOL     OW29899   0.673   0.801   4.792 -0.5075 -0.1045  0.3131
 6147SOL    HW129900   0.609   0.873   4.791  2.0785  2.1865 -1.7440
 6147SOL    HW229901   0.615   0.727   4.810  0.5628 -1.2930 -1.1167
 6148SOL     OW29902   2.961   3.240   5.840 -0.0888 -0.1202  0.3906
 6148SOL    HW129903   3.000   3.306   5.784 -0.6699  0.5756  0.8046
 6148SOL    HW229904   2.959   3.289   5.923 -0.9813 -0.8300  0.7916
 6149SOL     OW29905   3.835   0.550  14.326 -0.3314 -0.0767 -0.1505
 6149SOL    HW129906   3.910   0.524  14.272  0.7038  1.7278  0.4566
 6149SOL    HW229907   3.777   0.574  14.253 -0.2835  1.2264  0.2584
 6150SOL     OW29908   2.303   1.348   4.630  0.2926  0.0258  0.4444
 6150SOL    HW129909   2.265   1.308   4.552  2.7576  0.8356 -1.1538
 6150SOL    HW229910   2.398   1.341   4.620  0.4106 -1.0668  2.2975
 6151SOL     OW29911   0.430   0.675   0.086  0.9060 -0.1007  0.5632
 6151SOL    HW129912   0.478   0.605   0.042  2.2177  0.1997  1.5194
 6151SOL    HW229913   0.468   0.654   0.171  0.9336 -1.7692  0.1303
 6152SOL     OW29914   0.424   4.101  17.606 -0.3648  0.3892 -0.1134
 6152SOL    HW129915   0.478   4.174  17.573 -1.1144 -0.1589 -2.5485
 6152SOL    HW229916   0.372   4.151  17.669 -1.5209 -0.2943 -0.5454
 6153SOL     OW29917   3.511   1.162   4.664 -0.4980  0.0748  0.6264
 6153SOL    HW129918   3.462   1.142   4.585 -1.0572  1.7214  0.5592
 6153SOL    HW229919   3.495   1.256   4.675 -1.5119  0.1525 -1.6617
 6154SOL     OW29920   4.194   2.757   9.560  0.0596  0.4007 -0.2709
 6154SOL    HW129921   4.262   2.693   9.581 -0.2203  0.0207 -0.5192
 6154SOL    HW229922   4.167   2.800   9.641 -0.0432  1.7095 -0.9977
 6155SOL     OW29923   1.917   2.067  15.446 -0.1695  0.1374 -0.1459
 6155SOL    HW129924   1.882   1.978  15.442  0.5400 -0.0190 -3.1022
 6155SOL    HW229925   1.873   2.111  15.519  1.9526 -0.1385  1.3054
 6156SOL     OW29926   0.685   3.165  13.740 -0.6185 -0.6556  0.8604
 6156SOL    HW129927   0.675   3.251  13.782  0.8464  0.0433 -0.2318
 6156SOL    HW229928   0.745   3.131  13.806 -0.5905 -0.1048  1.1185
 6157SOL     OW29929   3.193   2.675   2.826  0.5088  0.1643  0.1766
 6157SOL    HW129930   3.254   2.737   2.866  2.4710 -0.8366 -1.2137
 6157SOL    HW229931   3.208   2.705   2.736  0.5932 -0.3365  0.0243
 6158SOL     OW29932   3.632   4.571  10.870  0.0369 -0.0410  0.3452
 6158SOL    HW129933   3.727   4.562  10.864 -0.0064  0.7714 -1.6238
 6158SOL    HW229934   3.616   4.576  10.776  1.9127 -0.9315 -0.0183
 6159SOL     OW29935   3.578   0.178   2.088  0.4467 -0.1457 -0.3831
 6159SOL    HW129936   3.504   0.133   2.046 -0.2035 -0.0178  0.6313
 6159SOL    HW229937   3.585   0.260   2.040  1.4986 -1.4509 -2.4701
 6160SOL     OW29938   0.118   3.406   3.068 -0.4367  0.1376  0.8738
 6160SOL    HW129939   0.093   3.316   3.045 -2.7154  1.0726 -0.2711
 6160SOL    HW229940   0.197   3.417   3.014  0.0801 -1.0167  1.3863
 6161SOL     OW29941   0.731   1.293   4.982 -0.1814  0.6954 -0.3978
 6161SOL    HW129942   0.669   1.220   4.995 -0.7009  1.6677  2.6099
 6161SOL    HW229943   0.686   1.350   4.920  2.0655  1.0615 -1.6934
 6162SOL     OW29944   2.552   3.043   4.274 -0.2974 -0.1320  0.1642
 6162SOL    HW129945   2.616   3.010   4.211 -2.4695 -2.5264 -0.8220
 6162SOL    HW229946   2.508   3.101   4.213  1.4497 -0.3950 -1.3631
 6163SOL     OW29947   3.407   1.612   5.410 -0.0109 -0.5467  0.0373
 6163SOL    HW129948   3.427   1.701   5.383  0.5207 -0.1368  1.7680
 6163SOL    HW229949   3.489   1.584   5.450  0.4524  0.4888 -0.2052
 6164SOL     OW29950   0.647   3.589   4.785  0.5174 -0.3753 -0.4407
 6164SOL    HW129951   0.663   3.563   4.695 -0.3743 -0.6972 -0.5102
 6164SOL    HW229952   0.600   3.510   4.812  1.8519 -1.1611 -0.3959
 6165SOL     OW29953   1.822   3.300   7.170  0.5054  0.0156 -0.2670
 6165SOL    HW129954   1.855   3.213   7.192  1.8019  0.5976  0.0970
 6165SOL    HW229955   1.898   3.333   7.123  0.4249 -1.3102 -1.3221
 6166SOL     OW29956   3.808   1.553   3.546 -0.2940  0.0545 -0.0224
 6166SOL    HW129957   3.843   1.480   3.495  0.9699 -0.9807  2.3194
 6166SOL    HW229958   3.854   1.540   3.629  1.2619  3.0973 -0.3940
 6167SOL     OW29959   0.954   0.524   8.577 -0.1885 -0.0309  0.3028
 6167SOL    HW129960   1.028   0.562   8.626  0.1521  0.4129 -0.5461
 6167SOL    HW229961   0.906   0.472   8.642  0.6896 -1.9556 -0.5835
 6168SOL     OW29962   2.648   3.976  16.118  0.3349 -0.0246  0.4478
 6168SOL    HW129963   2.554   3.980  16.100  0.5142  3.1593  0.0506
 6168SOL    HW229964   2.643   3.927  16.199 -0.3700  0.3510  0.6377
 6169SOL     OW29965   1.652   1.461   3.758  0.8404  0.6864 -0.0193
 6169SOL    HW129966   1.664   1.380   3.709  0.9481  0.4705  0.3670
 6169SOL    HW229967   1.640   1.423   3.845  1.3615 -0.6161 -0.5175
 6170SOL     OW29968   3.676   2.538   8.144  0.4228 -0.4406  0.9752
 6170SOL    HW129969   3.634   2.476   8.085  1.4714 -0.3245  0.0960
 6170SOL    HW229970   3.622   2.558   8.220  2.3646  1.7607  1.7869
 6171SOL     OW29971   1.127   3.948   3.289 -0.2258  0.4465 -0.2737
 6171SOL    HW129972   1.180   3.880   3.331 -1.0569  0.6049  1.0132
 6171SOL    HW229973   1.051   3.952   3.346 -0.8818  0.1587 -1.1325
 6172SOL     OW29974   3.221   2.409   8.327 -0.1864  0.2399 -0.0742
 6172SOL    HW129975   3.153   2.343   8.345  0.2971 -0.5019 -0.9613
 6172SOL    HW229976   3.176   2.471   8.270 -2.5856 -2.4812 -1.1865
 6173SOL     OW29977   2.988   3.176   9.223  0.4921  0.3803 -0.0783
 6173SOL    HW129978   2.996   3.200   9.315  0.2596  0.6795 -0.1348
 6173SOL    HW229979   2.908   3.225   9.204 -0.6569 -1.2764  0.5771
 6174SOL     OW29980   2.469   3.933   9.735  0.0015  0.9150  0.6674
 6174SOL    HW129981   2.562   3.941   9.713 -0.3187  0.7275 -0.7664
 6174SOL    HW229982   2.439   4.022   9.719 -1.2330  0.4473  0.4355
 6175SOL     OW29983   4.067   2.618   8.500  0.5025 -0.1349  0.4169
 6175SOL    HW129984   3.990   2.662   8.536  0.2448  1.5438 -2.1729
 6175SOL    HW229985   4.125   2.673   8.552 -0.0018  1.3185 -0.5477
 6176SOL     OW29986   1.417   3.526   1.403 -0.0829 -0.3690 -0.3576
 6176SOL    HW129987   1.456   3.443   1.430  1.2109  0.2494 -0.3165
 6176SOL    HW229988   1.388   3.554   1.490  1.6770 -1.0005  0.4186
 6177SOL     OW29989   1.547   0.930   7.314 -0.7160 -0.3076  0.3468
 6177SOL    HW129990   1.465   0.882   7.316 -0.5087 -0.5748  2.3969
 6177SOL    HW229991   1.588   0.916   7.228  0.1916  0.1474  0.7008
 6178SOL     OW29992   3.351   1.772   6.735  0.1821  0.2041 -0.2289
 6178SOL    HW129993   3.341   1.867   6.727  0.7463  0.3074  0.2594
 6178SOL    HW229994   3.432   1.750   6.689  0.9441 -0.6696  1.5371
 6179SOL     OW29995   2.736   4.437   6.174 -0.2181  0.5731 -0.3126
 6179SOL    HW129996   2.765   4.346   6.161  0.5284  0.5920  1.2250
 6179SOL    HW229997   2.725   4.443   6.269 -0.2502  0.0694 -0.2822
 6180SOL     OW29998   3.892   2.277   3.560 -0.3641 -0.0557 -0.3033
 6180SOL    HW129999   3.876   2.186   3.536  0.2573  0.0490 -1.1305
 6180SOL    HW230000   3.919   2.313   3.475  1.0763 -0.6628 -0.1052
 6181SOL     OW30001   2.735   3.854   9.257  0.0866 -0.1431 -0.1270
 6181SOL    HW130002   2.780   3.918   9.312  0.6104  0.3008 -1.0814
 6181SOL    HW230003   2.782   3.867   9.175 -0.0397 -2.1591 -0.5106
 6182SOL     OW30004   1.650   3.278  12.767 -0.8919  0.0364  0.2114
 6182SOL    HW130005   1.731   3.309  12.728 -0.6665  0.0254  0.6709
 6182SOL    HW230006   1.634   3.198  12.718  0.3137 -0.5394  0.7762
 6183SOL     OW30007   3.806   4.104   6.203  0.9254 -0.3650 -0.4563
 6183SOL    HW130008   3.750   4.083   6.128  0.5204 -0.4999 -0.1196
 6183SOL    HW230009   3.767   4.065   6.281  0.4526  2.0303  0.5039
 6184SOL     OW30010   3.589   3.431   8.573 -0.9388  0.3506  0.1093
 6184SOL    HW130011   3.535   3.472   8.642  0.3161  0.4243  1.0421
 6184SOL    HW230012   3.660   3.494   8.560  2.2107 -3.4534 -0.6921
 6185SOL     OW30013   0.076   4.426  11.253  0.0820  0.3400  0.4142
 6185SOL    HW130014   0.144   4.490  11.232 -0.3121  0.6068 -0.0135
 6185SOL    HW230015   0.108   4.352  11.200 -1.1642 -1.1684  1.7760
 6186SOL     OW30016   0.106   1.970   0.675 -0.4945  0.4972  0.1369
 6186SOL    HW130017   0.093   1.951   0.768  1.7341 -2.2303 -0.0928
 6186SOL    HW230018   0.138   1.883   0.650 -0.2252  0.4947  0.4880
 6187SOL     OW30019   3.361   3.380   4.187 -0.6081  0.3201  0.0353
 6187SOL    HW130020   3.275   3.407   4.216 -0.4868 -0.1205  0.7854
 6187SOL    HW230021   3.375   3.440   4.113 -2.9044 -0.3021 -0.9010
 6188SOL     OW30022   2.964   0.494   7.306 -0.0059  0.1275 -0.3353
 6188SOL    HW130023   2.891   0.475   7.365  0.3792  2.0472  0.7937
 6188SOL    HW230024   2.919   0.548   7.241  1.1879  1.8460  0.2488
 6189SOL     OW30025   0.671   3.149   7.835  0.4755  0.0302  0.8916
 6189SOL    HW130026   0.702   3.155   7.744 -0.1100 -1.1026  0.6132
 6189SOL    HW230027   0.672   3.054   7.848 -0.9847 -0.2674 -1.0459
 6190SOL     OW30028   1.805   1.307  13.297  0.3697 -0.3349  0.4569
 6190SOL    HW130029   1.732   1.245  13.301  0.2921 -0.2620  0.1560
 6190SOL    HW230030   1.877   1.248  13.273  0.1764 -1.1094  1.7649
 6191SOL     OW30031   0.179   4.438  14.608  0.1211  1.1701 -0.0408
 6191SOL    HW130032   0.214   4.352  14.629 -2.9587 -0.0546  0.0806
 6191SOL    HW230033   0.146   4.408  14.523 -1.3056 -1.3150  1.3847
 6192SOL     OW30034   2.799   4.441   6.827 -0.1579 -0.6345 -0.3781
 6192SOL    HW130035   2.854   4.498   6.772 -2.9785  1.9739 -0.5155
 6192SOL    HW230036   2.807   4.480   6.914  1.9816  0.3897 -1.0298
 6193SOL     OW30037   2.892   1.937   5.575 -0.3251  0.4298 -0.7330
 6193SOL    HW130038   2.868   1.972   5.489 -1.2764 -1.6835 -1.3365
 6193SOL    HW230039   2.911   1.849   5.542  0.7382  0.3773  0.0317
 6194SOL     OW30040   2.579   1.678   6.771  0.2146  0.0393 -0.5501
 6194SOL    HW130041   2.606   1.608   6.712  0.2160 -1.0075  0.6784
 6194SOL    HW230042   2.647   1.746   6.764  1.3191 -0.7675  2.3943
 6195SOL     OW30043   4.409   3.603   2.655  0.5559  0.2738 -0.0232
 6195SOL    HW130044   4.462   3.525   2.643  1.6559  0.6388  2.5719
 6195SOL    HW230045   4.422   3.655   2.575 -2.1612  0.6030 -0.2513
 6196SOL     OW30046   4.607   0.492  15.531  0.4267  0.4417  0.1020
 6196SOL    HW130047   4.645   0.404  15.540 -0.2702  0.2947  1.5663
 6196SOL    HW230048   4.612   0.531  15.618  0.8033  0.6469 -0.0109
 6197SOL     OW30049   2.516   4.514   5.291  0.3988 -0.3070 -0.1444
 6197SOL    HW130050   2.508   4.550   5.202  1.8765  1.2457  0.3410
 6197SOL    HW230051   2.578   4.442   5.280 -0.9327 -1.1641 -2.1609
 6198SOL     OW30052   2.622   4.337   9.687 -0.7939  0.2749  0.6097
 6198SOL    HW130053   2.706   4.293   9.695 -0.8201 -0.2820 -1.9647
 6198SOL    HW230054   2.567   4.262   9.661 -2.1955  1.3246  0.5449
 6199SOL     OW30055   2.137   3.386   8.074 -0.4534 -0.3996  0.1854
 6199SOL    HW130056   2.192   3.361   7.999 -0.1391 -0.8887  0.5809
 6199SOL    HW230057   2.109   3.471   8.038 -0.6984 -0.7642 -0.4836
 6200SOL     OW30058   2.906   4.097   0.402 -0.4318 -0.4277 -0.4179
 6200SOL    HW130059   2.941   4.183   0.424  0.6937 -1.7765  3.0809
 6200SOL    HW230060   2.909   4.101   0.306  0.6727  3.2453 -0.2428
 6201SOL     OW30061   3.759   1.209   3.657 -0.6624  0.2864  0.6356
 6201SOL    HW130062   3.775   1.259   3.737  0.4483 -0.2975  0.7880
 6201SOL    HW230063   3.813   1.261   3.597 -1.3471  0.7557  0.4336
 6202SOL     OW30064   2.821   3.808  11.578 -0.1578 -0.0970  0.3308
 6202SOL    HW130065   2.770   3.738  11.538  1.3919  1.0076 -3.5659
 6202SOL    HW230066   2.751   3.873  11.590  1.4998  1.7302  0.0110
 6203SOL     OW30067   4.525   0.618  17.365 -0.0886  0.3992 -0.0130
 6203SOL    HW130068   4.533   0.550  17.299 -3.1031  0.4192 -0.3777
 6203SOL    HW230069   4.534   0.568  17.447 -2.9410  4.6250  2.8713
 6204SOL     OW30070   1.149   2.382   0.344  0.2479  0.4748  0.7537
 6204SOL    HW130071   1.131   2.302   0.394  1.1550 -0.8274 -1.0310
 6204SOL    HW230072   1.241   2.405   0.353  0.3900  0.2296 -0.1213
 6205SOL     OW30073   1.707   1.856   8.957  0.3369 -0.1502 -0.0326
 6205SOL    HW130074   1.671   1.768   8.956  0.3762 -0.1555 -0.8364
 6205SOL    HW230075   1.676   1.882   9.043  3.1338  0.8559  0.6911
 6206SOL     OW30076   1.535   0.145  10.531  0.0960 -0.8270 -0.1616
 6206SOL    HW130077   1.524   0.233  10.565  0.6272 -0.2938 -1.3770
 6206SOL    HW230078   1.631   0.142  10.523 -0.0091  0.3394 -1.9573
 6207SOL     OW30079   3.299   0.256  11.678 -0.3218 -0.4696  0.4568
 6207SOL    HW130080   3.364   0.186  11.679  0.3119  0.0905 -1.0308
 6207SOL    HW230081   3.297   0.281  11.770 -1.9174  0.9677  0.0363
 6208SOL     OW30082   0.293   4.655  10.734 -0.2481  0.7142  0.3246
 6208SOL    HW130083   0.333   4.575  10.770  1.1817  0.6310 -1.4545
 6208SOL    HW230084   0.247   4.626  10.656  3.5767 -1.7595 -1.0042
 6209SOL     OW30085   0.005   0.661   4.988  0.0089 -0.6060  0.2666
 6209SOL    HW130086   0.059   0.726   5.033 -1.5662 -1.2809  3.0914
 6209SOL    HW230087   4.638   0.695   5.005  0.7980  1.5734 -0.0779
 6210SOL     OW30088   2.535   0.168   1.632  0.8506  0.7093  0.4621
 6210SOL    HW130089   2.620   0.201   1.602  1.3370 -1.4797 -0.5701
 6210SOL    HW230090   2.528   0.096   1.570  2.9509 -0.6835  1.8220
 6211SOL     OW30091   2.523   0.539   9.009 -0.1274 -0.3309  0.3625
 6211SOL    HW130092   2.572   0.475   8.957  0.2566 -1.1440  1.7325
 6211SOL    HW230093   2.461   0.561   8.940  0.5513  1.4844  0.3425
 6212SOL     OW30094   3.928   3.489   8.570 -0.0897  0.0461 -0.8667
 6212SOL    HW130095   4.017   3.465   8.596 -0.4009 -0.8056 -0.5561
 6212SOL    HW230096   3.865   3.423   8.601  0.7027 -1.8233 -3.2338
 6213SOL     OW30097   1.716   4.359   5.794 -0.3952 -0.2472  0.4802
 6213SOL    HW130098   1.705   4.433   5.853 -0.6043  0.5330 -0.5465
 6213SOL    HW230099   1.632   4.356   5.749  0.0744  2.4632 -0.6006
 6214SOL     OW30100   3.142   4.539  17.020  0.1620 -0.0320  0.3505
 6214SOL    HW130101   3.202   4.610  17.042 -0.7317  0.6921  0.4631
 6214SOL    HW230102   3.172   4.506  16.936 -0.4004 -1.3990  0.6858
 6215SOL     OW30103   3.022   0.238   7.470 -0.1028 -0.0955  0.6921
 6215SOL    HW130104   2.935   0.227   7.508  0.8839 -0.6443  2.7972
 6215SOL    HW230105   3.065   0.278   7.545  0.7962  0.3225 -0.0442
 6216SOL     OW30106   1.872   3.915   8.418 -0.3127  0.0870 -1.0358
 6216SOL    HW130107   1.808   3.954   8.477 -0.5773 -0.2245 -1.1163
 6216SOL    HW230108   1.835   3.827   8.426  0.6655 -0.1327  0.9172
 6217SOL     OW30109   0.481   3.379  16.199 -0.5714 -0.0974  0.0936
 6217SOL    HW130110   0.417   3.323  16.243  0.0466 -0.9489 -0.0914
 6217SOL    HW230111   0.559   3.352  16.249 -0.4152  2.4351  1.2583
 6218SOL     OW30112   4.663   0.391  12.009 -0.2038 -0.1368 -0.5014
 6218SOL    HW130113   4.593   0.445  12.046  0.3502 -0.1996  0.6227
 6218SOL    HW230114   0.026   0.432  12.032 -1.1422  0.1695  2.2869
 6219SOL     OW30115   2.124   4.627   0.518 -0.2305  0.2965 -0.3525
 6219SOL    HW130116   2.128   0.001   0.530 -0.1214  0.3000 -0.4154
 6219SOL    HW230117   2.036   4.621   0.480 -0.0649  1.4805 -0.9211
 6220SOL     OW30118   2.327   4.609   4.491  0.5517  0.5272  0.5506
 6220SOL    HW130119   2.285   4.657   4.562 -1.6227  0.9791 -1.0277
 6220SOL    HW230120   2.394   4.675   4.476 -0.4760  1.1535 -1.3981
 6221SOL     OW30121   4.250   4.501   9.440 -1.1770 -0.4978  0.4285
 6221SOL    HW130122   4.344   4.483   9.439 -0.8477  1.2508  0.0021
 6221SOL    HW230123   4.257   4.566   9.510 -1.2029 -0.4990  0.4323
 6222SOL     OW30124   1.865   1.803   2.297 -0.2736 -0.2141  0.5560
 6222SOL    HW130125   1.944   1.792   2.349  2.9122 -0.9239 -4.4859
 6222SOL    HW230126   1.813   1.867   2.346 -3.4848 -3.1030  0.9821
 6223SOL     OW30127   1.867   3.334   2.805 -0.3300  0.4282  0.3090
 6223SOL    HW130128   1.916   3.343   2.724  1.7256  0.6213  1.5635
 6223SOL    HW230129   1.919   3.390   2.863  0.9007  0.5078 -0.8737
 6224SOL     OW30130   0.169   3.826   9.925  0.2294 -0.1497  0.1936
 6224SOL    HW130131   0.221   3.859   9.853 -1.7535  2.3250 -0.0791
 6224SOL    HW230132   0.231   3.765   9.966  1.1220 -0.9869 -2.4441
 6225SOL     OW30133   2.603   1.125   3.435  0.6227 -0.2932 -0.1879
 6225SOL    HW130134   2.596   1.101   3.527 -0.9081 -0.4339 -0.3511
 6225SOL    HW230135   2.663   1.198   3.451  2.2573 -1.2504 -1.8431
 6226SOL     OW30136   1.280   3.590  12.792  0.0998 -0.3236  0.3704
 6226SOL    HW130137   1.327   3.515  12.829  0.4283  0.3815  1.3801
 6226SOL    HW230138   1.289   3.568  12.699 -1.2182 -2.1116  0.6770
 6227SOL     OW30139   3.881   1.395   1.948  0.9001  0.1272  0.0589
 6227SOL    HW130140   3.883   1.461   1.879  0.2868 -2.1427 -2.1525
 6227SOL    HW230141   3.912   1.322   1.895 -0.8495 -0.7631  0.2469
 6228SOL     OW30142   1.426   3.161   5.024  0.5091 -0.0851  0.8262
 6228SOL    HW130143   1.379   3.119   5.096 -1.4974 -1.1422 -1.1156
 6228SOL    HW230144   1.482   3.219   5.075  1.3381 -0.4101  0.2921
 6229SOL     OW30145   2.902   4.323   1.694  0.2887 -0.2359  0.6760
 6229SOL    HW130146   2.881   4.251   1.754  0.3157 -1.5373 -0.8767
 6229SOL    HW230147   2.844   4.303   1.621 -0.4266 -1.5300  1.5806
 6230SOL     OW30148   3.771   0.891  11.415  0.1751  0.0460 -0.3326
 6230SOL    HW130149   3.677   0.893  11.399  0.0241 -1.6840  0.3221
 6230SOL    HW230150   3.781   0.859  11.504 -0.7834 -0.9141 -0.5717
 6231SOL     OW30151   1.338   1.945  15.696 -0.0633  0.3611 -0.0954
 6231SOL    HW130152   1.423   1.988  15.704 -0.9961  2.3305 -0.5136
 6231SOL    HW230153   1.296   1.975  15.777 -3.7837 -0.1995 -1.7725
 6232SOL     OW30154   2.908   4.589   6.012 -0.1148  0.5128 -0.0256
 6232SOL    HW130155   2.929   4.509   5.964  0.9262  0.9729 -0.3528
 6232SOL    HW230156   2.844   4.554   6.074  0.6413  0.9037  0.9661
 6233SOL     OW30157   1.837   0.885   7.041  0.2927 -0.5099 -0.3507
 6233SOL    HW130158   1.823   0.870   7.134  0.3647  0.7610 -0.1384
 6233SOL    HW230159   1.885   0.811   7.003  3.0808  0.1842  1.8658
 6234SOL     OW30160   0.437   2.646   3.193  0.0092  0.2290  0.0652
 6234SOL    HW130161   0.362   2.615   3.141  0.1594 -1.1384  0.6661
 6234SOL    HW230162   0.500   2.576   3.178 -1.1710 -1.1844  1.7408
 6235SOL     OW30163   0.681   2.183   0.772 -0.2576 -0.0311  0.2791
 6235SOL    HW130164   0.753   2.200   0.711 -2.4537 -0.5774 -2.5002
 6235SOL    HW230165   0.612   2.141   0.721  1.1915 -0.1711 -1.5612
 6236SOL     OW30166   2.448   0.338  15.330  0.4574  0.4024 -0.2584
 6236SOL    HW130167   2.461   0.431  15.313 -0.5967  0.5181 -0.4377
 6236SOL    HW230168   2.353   0.344  15.342  0.5225  2.0282 -0.6166
 6237SOL     OW30169   2.207   4.374   8.563 -0.3349  0.3631  0.1092
 6237SOL    HW130170   2.251   4.299   8.522  1.7207  1.8007 -0.2967
 6237SOL    HW230171   2.140   4.383   8.495 -0.1840 -0.2812 -0.1322
 6238SOL     OW30172   3.142   0.232   2.927 -0.3460 -0.1160  0.0665
 6238SOL    HW130173   3.168   0.324   2.929 -0.0769 -0.2588  3.0169
 6238SOL    HW230174   3.182   0.206   3.009  0.1899 -1.4187 -0.6154
 6239SOL     OW30175   4.055   2.843  11.072 -0.4490 -0.4342 -0.3158
 6239SOL    HW130176   4.047   2.760  11.118  2.0700  0.0331  0.9823
 6239SOL    HW230177   4.095   2.903  11.136 -1.7753  0.6487 -0.4962
 6240SOL     OW30178   2.838   2.472   7.139  0.2354 -0.0413  0.4793
 6240SOL    HW130179   2.774   2.434   7.198 -0.4316  1.7682  0.9214
 6240SOL    HW230180   2.915   2.471   7.195  0.8908  3.6319 -0.3282
 6241SOL     OW30181   2.071   4.348  13.042 -0.2557 -0.1416  0.0695
 6241SOL    HW130182   2.153   4.315  13.007  0.0089  3.3601 -2.5380
 6241SOL    HW230183   2.104   4.431  13.076  1.2786 -0.7553  0.0914
 6242SOL     OW30184   3.439   0.980  13.798 -0.0769  0.0732  0.0158
 6242SOL    HW130185   3.521   0.946  13.761 -0.2252  0.9451 -1.0977
 6242SOL    HW230186   3.402   0.895  13.822 -0.2993 -0.0222 -0.6769
 6243SOL     OW30187   3.488   2.317   7.970 -0.5473 -0.1434 -0.0681
 6243SOL    HW130188   3.407   2.365   7.986  0.6898  1.0555  2.5303
 6243SOL    HW230189   3.479   2.278   7.883 -1.0516 -0.7445  0.2586
 6244SOL     OW30190   4.363   2.349   7.147  0.9820  0.3184  0.4723
 6244SOL    HW130191   4.310   2.324   7.072  2.2064 -2.5912  0.5865
 6244SOL    HW230192   4.451   2.365   7.111  0.6246  0.5688 -0.2791
 6245SOL     OW30193   3.357   3.840   2.031  0.5029  0.0234  0.1494
 6245SOL    HW130194   3.278   3.788   2.021  0.7258  0.1297 -1.9888
 6245SOL    HW230195   3.320   3.925   2.007 -1.4532 -0.3915  1.6858
 6246SOL     OW30196   4.571   1.000  12.089  0.2723 -0.5964 -0.3445
 6246SOL    HW130197   4.618   0.920  12.112  2.7933  1.7919  2.7194
 6246SOL    HW230198   4.575   1.000  11.993 -0.7167  3.0161 -0.3916
 6247SOL     OW30199   3.741   1.731  16.111  0.7723 -0.0376  0.3661
 6247SOL    HW130200   3.790   1.807  16.078 -0.3818  0.5782  0.0552
 6247SOL    HW230201   3.690   1.763  16.185  0.7875 -1.3638  0.9476
 6248SOL     OW30202   2.078   0.452   0.003  0.0542  0.3782 -0.3252
 6248SOL    HW130203   2.075   0.545  17.668 -1.7045  0.0974 -1.4517
 6248SOL    HW230204   1.985   0.435   0.018 -0.0317 -0.9558 -2.2764
 6249SOL     OW30205   4.525   0.897   5.677  0.6396 -0.2965  0.1698
 6249SOL    HW130206   4.548   0.935   5.761 -0.9195  1.3748 -0.1560
 6249SOL    HW230207   4.505   0.978   5.630 -1.1306  0.0376  1.5102
 6250SOL     OW30208   0.895   0.729  10.401 -0.3222 -0.0030  0.2072
 6250SOL    HW130209   0.987   0.705  10.392 -0.6142 -1.4326  0.9939
 6250SOL    HW230210   0.895   0.789  10.475 -0.3949  1.9011 -1.3164
 6251SOL     OW30211   4.527   4.338   0.658 -0.4908  0.8716  0.9652
 6251SOL    HW130212   4.587   4.373   0.592  0.8872 -0.4730  1.5141
 6251SOL    HW230213   4.563   4.364   0.742  1.8844 -0.4876  0.3585
 6252SOL     OW30214   3.619   0.594   2.872 -0.4937  0.6359  0.1796
 6252SOL    HW130215   3.684   0.536   2.831 -2.5050 -1.0299 -0.6850
 6252SOL    HW230216   3.581   0.538   2.940 -1.3326  2.9818  1.6437
 6253SOL     OW30217   0.890   2.770   5.634 -0.9150  0.2836  0.2342
 6253SOL    HW130218   0.886   2.855   5.678  0.1834  1.4439 -1.9266
 6253SOL    HW230219   0.979   2.747   5.659 -1.7286 -1.2855  1.6635
 6254SOL     OW30220   1.602   4.609   8.845 -0.1006  0.5873  0.2196
 6254SOL    HW130221   1.634   4.574   8.762 -1.5311 -0.9677  0.3212
 6254SOL    HW230222   1.511   4.629   8.824 -0.1125 -0.5739 -0.8357
 6255SOL     OW30223   1.175   4.579   3.981  0.6987  0.3648 -0.8126
 6255SOL    HW130224   1.102   4.531   4.021  0.6320  0.3225 -0.9842
 6255SOL    HW230225   1.164   4.553   3.890  2.6542 -0.3820 -0.8238
 6256SOL     OW30226   4.119   2.960   0.832 -0.2763  0.5335  0.2085
 6256SOL    HW130227   4.118   2.884   0.891  0.1352 -0.0568 -0.5346
 6256SOL    HW230228   4.076   3.029   0.882  1.4987  1.8805 -0.1442
 6257SOL     OW30229   0.687   2.979   3.118 -0.6833  1.1328  0.0399
 6257SOL    HW130230   0.604   2.993   3.162 -0.6996 -0.5616  0.5319
 6257SOL    HW230231   0.716   2.896   3.156 -2.8368  1.3985  2.2237
 6258SOL     OW30232   0.579   3.352  11.361  0.2060 -0.2285 -0.2352
 6258SOL    HW130233   0.648   3.334  11.298  1.7873  3.0368  0.5529
 6258SOL    HW230234   0.564   3.445  11.340 -2.2529 -0.0403  2.3004
 6259SOL     OW30235   2.584   3.867   8.992 -0.7846 -0.4316 -0.1274
 6259SOL    HW130236   2.516   3.868   8.925 -0.1366 -0.3151 -0.7813
 6259SOL    HW230237   2.523   3.873   9.066  0.3381 -3.0281  1.0064
 6260SOL     OW30238   0.291   4.698   0.503 -0.5378  0.6343 -0.2925
 6260SOL    HW130239   0.319   0.059   0.544  0.1314  1.6455 -2.7554
 6260SOL    HW230240   0.363   4.652   0.460  1.5796  2.2579  1.5094
 6261SOL     OW30241   2.919   3.199   5.582  0.2461  0.7822 -0.4553
 6261SOL    HW130242   2.971   3.279   5.573  1.6027 -0.1130 -0.6135
 6261SOL    HW230243   2.919   3.191   5.677  2.0734 -1.9878 -0.6917
 6262SOL     OW30244   0.804   4.349   1.943  0.7379  0.1406 -0.6967
 6262SOL    HW130245   0.882   4.349   1.887  0.2734 -0.8697 -1.3370
 6262SOL    HW230246   0.732   4.343   1.880 -1.4078 -1.2282  1.8991
 6263SOL     OW30247   0.626   0.593  16.112  0.1705  0.1452  0.3503
 6263SOL    HW130248   0.557   0.599  16.045 -0.1092 -1.0200  0.5287
 6263SOL    HW230249   0.613   0.507  16.152 -1.3804  0.8470  1.3539
 6264SOL     OW30250   2.615   3.651  12.610 -0.1346 -0.0874 -0.0651
 6264SOL    HW130251   2.554   3.655  12.536  1.1345 -0.9103 -1.1734
 6264SOL    HW230252   2.601   3.559  12.631  0.2506  0.5424  2.9175
 6265SOL     OW30253   3.513   2.473   1.968  0.6970 -0.4273  0.1134
 6265SOL    HW130254   3.501   2.542   1.902  0.4440  2.3670  3.0632
 6265SOL    HW230255   3.591   2.430   1.934  0.8541  0.3439 -0.5168
 6266SOL     OW30256   0.909   4.558  16.045  0.4613 -0.1585  0.1206
 6266SOL    HW130257   0.955   4.631  16.004 -0.0371  0.3044  0.3723
 6266SOL    HW230258   0.899   4.494  15.975 -3.8891 -2.9061  3.2656
 6267SOL     OW30259   2.919   4.465   9.649 -0.4046  0.3687 -0.3085
 6267SOL    HW130260   2.938   4.529   9.718  1.7206  0.8633 -1.3572
 6267SOL    HW230261   2.868   4.521   9.590  0.9246 -0.2528 -2.0294
 6268SOL     OW30262   2.496   3.070   6.723  0.4562  0.0394  0.3684
 6268SOL    HW130263   2.545   3.022   6.656 -1.7907 -1.2909 -0.3173
 6268SOL    HW230264   2.421   3.105   6.675  1.0295  0.6589 -0.0888
 6269SOL     OW30265   0.361   2.811   7.018 -0.6723 -0.2210 -0.1412
 6269SOL    HW130266   0.352   2.771   7.105  0.6457  0.4247  0.2957
 6269SOL    HW230267   0.420   2.745   6.982 -1.8363 -1.2922 -0.0984
 6270SOL     OW30268   0.828   0.743   3.462 -0.0271 -0.1783 -0.3906
 6270SOL    HW130269   0.785   0.696   3.533  0.1933  1.5390  0.8772
 6270SOL    HW230270   0.916   0.742   3.500  0.5224  1.4466 -1.6345
 6271SOL     OW30271   3.663   2.887   0.195 -0.1413 -0.4997  0.1310
 6271SOL    HW130272   3.729   2.886   0.264  0.3874  1.0768 -0.3574
 6271SOL    HW230273   3.660   2.792   0.182 -3.0574 -0.3557 -0.3324
 6272SOL     OW30274   1.087   4.240   3.180  0.4966 -0.3249 -0.0279
 6272SOL    HW130275   1.006   4.226   3.229  0.4892 -1.6734 -0.4337
 6272SOL    HW230276   1.080   4.149   3.151  0.9010 -0.9014  1.6470
 6273SOL     OW30277   3.677   2.690   7.623 -0.0304 -0.1253 -0.1501
 6273SOL    HW130278   3.728   2.705   7.543 -1.2417 -3.8113 -1.6213
 6273SOL    HW230279   3.665   2.777   7.660  2.4926  0.9012 -1.7447
 6274SOL     OW30280   2.680   0.018  17.454  0.5913 -0.0317  0.2175
 6274SOL    HW130281   2.628   0.028  17.374  0.4141 -0.2998  0.2962
 6274SOL    HW230282   2.708   4.647  17.445  0.7862  0.2433 -1.9923
 6275SOL     OW30283   3.380   1.599   7.506 -0.7983  0.0247 -0.0676
 6275SOL    HW130284   3.398   1.560   7.421 -1.6213 -2.2063  0.7865
 6275SOL    HW230285   3.416   1.685   7.486  0.3696 -0.2239  0.8993
 6276SOL     OW30286   3.019   0.803  10.120  0.7036 -0.0399 -0.2866
 6276SOL    HW130287   3.043   0.712  10.132 -0.7704 -0.5596 -1.3106
 6276SOL    HW230288   2.926   0.791  10.104  0.0876  1.7287  1.9081
 6277SOL     OW30289   3.368   2.530   2.180 -0.6588  0.0412  0.4730
 6277SOL    HW130290   3.428   2.497   2.114 -0.5427 -0.0475  0.6226
 6277SOL    HW230291   3.395   2.469   2.249  0.2831 -0.6487 -0.5031
 6278SOL     OW30292   1.920   0.009   4.739  1.0051  0.5516 -0.1715
 6278SOL    HW130293   1.831   0.037   4.759  0.9774  0.8945 -0.7639
 6278SOL    HW230294   1.909   4.697   4.650  1.3257  0.4721 -0.1848
 6279SOL     OW30295   2.469   3.341   4.764  0.5802 -0.0253  0.4620
 6279SOL    HW130296   2.404   3.281   4.800  1.3495 -0.8172  0.5630
 6279SOL    HW230297   2.443   3.331   4.673  1.2255  0.5468  0.2176
 6280SOL     OW30298   0.151   3.179   8.666 -0.0779 -0.8741  1.0648
 6280SOL    HW130299   0.065   3.188   8.624 -0.1356 -0.5649  1.2500
 6280SOL    HW230300   0.201   3.238   8.611  1.3116 -2.5855  0.4853
 6281SOL     OW30301   0.706   3.671   8.332 -0.0889 -0.1178 -0.2435
 6281SOL    HW130302   0.657   3.660   8.250 -0.5668  0.5274 -0.0423
 6281SOL    HW230303   0.659   3.615   8.394 -0.5749 -1.6272 -1.9647
 6282SOL     OW30304   2.311   2.669   5.276  0.2376  0.3146 -0.0758
 6282SOL    HW130305   2.351   2.716   5.350 -1.0004 -0.9240  1.3848
 6282SOL    HW230306   2.237   2.628   5.322 -0.5873  1.1543 -0.6561
 6283SOL     OW30307   4.319   4.078   9.903  0.4017 -0.4154  0.2334
 6283SOL    HW130308   4.340   4.091   9.995 -0.8468 -1.9594  0.7382
 6283SOL    HW230309   4.351   3.992   9.876 -2.3959 -1.4589  0.2341
 6284SOL     OW30310   3.968   3.416   5.448  0.0109 -0.0349 -0.0830
 6284SOL    HW130311   3.972   3.335   5.499  1.3629 -0.3631 -0.7053
 6284SOL    HW230312   3.880   3.447   5.471 -0.3412 -1.6413  0.6938
 6285SOL     OW30313   3.361   3.169   5.807 -0.2476 -0.8756  0.2347
 6285SOL    HW130314   3.285   3.227   5.813  0.4141 -0.1443  1.5346
 6285SOL    HW230315   3.431   3.233   5.801 -1.2100  0.0174 -1.4776
 6286SOL     OW30316   2.485   0.740   0.955 -0.0172 -0.4142  0.0984
 6286SOL    HW130317   2.394   0.734   0.983  0.7105 -1.3452  2.2781
 6286SOL    HW230318   2.482   0.819   0.901 -1.3405 -0.4759  0.0959
 6287SOL     OW30319   1.298   0.403  15.670  0.7902  0.2942 -0.1489
 6287SOL    HW130320   1.221   0.433  15.623  1.2871 -2.0233 -2.3907
 6287SOL    HW230321   1.333   0.483  15.710  1.4602 -0.3190  0.5111
 6288SOL     OW30322   2.938   4.668   0.047  0.2411 -0.0536 -0.1727
 6288SOL    HW130323   2.855   4.642   0.087  0.5288 -2.0791 -0.9039
 6288SOL    HW230324   2.907   0.009  17.664  0.2338 -0.2265 -0.3255
 6289SOL     OW30325   4.648   4.376   8.612 -0.3102  0.7995  1.1276
 6289SOL    HW130326   4.658   4.286   8.645  1.5104  0.2010 -1.0570
 6289SOL    HW230327   4.576   4.407   8.668 -1.0612 -0.2089  0.7216
 6290SOL     OW30328   1.941   4.595   7.355 -0.6807  0.2263 -0.1950
 6290SOL    HW130329   2.005   4.596   7.426 -1.2337  0.1773  0.3057
 6290SOL    HW230330   1.870   4.548   7.399 -1.7564  3.2397  1.3131
 6291SOL     OW30331   4.667   1.066   3.882 -0.0320  0.2932  0.0336
 6291SOL    HW130332   4.696   1.040   3.794  2.1364 -1.6651  1.3415
 6291SOL    HW230333   4.581   1.096   3.852 -0.2203 -1.2228 -0.9531
 6292SOL     OW30334   0.023   0.228   4.247  0.1220 -0.0850  0.3126
 6292SOL    HW130335   0.075   0.245   4.325 -0.6567 -3.3690  1.5143
 6292SOL    HW230336   0.020   0.133   4.254 -1.3282 -0.1096 -0.5203
 6293SOL     OW30337   0.126   2.850   2.849  0.4738  0.1664 -0.2126
 6293SOL    HW130338   0.077   2.832   2.929 -0.7368  3.1501 -0.3141
 6293SOL    HW230339   0.206   2.799   2.865 -0.2394 -0.6255  0.8408
 6294SOL     OW30340   3.351   0.931   3.687  0.0871 -0.2180 -0.0067
 6294SOL    HW130341   3.347   0.974   3.773  1.1504 -0.0394 -0.0479
 6294SOL    HW230342   3.432   0.970   3.655 -0.2428  1.5084  1.2494
 6295SOL     OW30343   4.545   3.361   7.415 -0.5655 -0.0072 -0.0832
 6295SOL    HW130344   4.507   3.399   7.494 -2.1677 -1.6480 -0.0601
 6295SOL    HW230345   4.539   3.266   7.431 -0.7447  0.1077  0.5447
 6296SOL     OW30346   2.634   2.731   2.748 -0.1832 -0.1703 -0.4231
 6296SOL    HW130347   2.640   2.645   2.789  0.5167  0.4753  0.8167
 6296SOL    HW230348   2.724   2.754   2.726 -0.2587 -0.5157 -1.1176
 6297SOL     OW30349   2.402   3.751   4.786  0.1717 -0.0106  0.7144
 6297SOL    HW130350   2.473   3.766   4.849 -0.8974  0.1246  1.9002
 6297SOL    HW230351   2.456   3.704   4.722 -0.9432  0.3995 -0.5050
 6298SOL     OW30352   2.805   2.498   3.546 -0.3575  0.1875 -0.0275
 6298SOL    HW130353   2.843   2.585   3.556 -2.6788  1.1264  0.6140
 6298SOL    HW230354   2.713   2.509   3.567 -0.3244  0.3642  0.0218
 6299SOL     OW30355   3.703   3.183  14.635  0.0008 -0.6106 -0.0966
 6299SOL    HW130356   3.727   3.274  14.620 -0.1933 -0.7104 -1.0203
 6299SOL    HW230357   3.659   3.192  14.719 -0.5027 -0.4976 -0.3692
 6300SOL     OW30358   0.843   0.806   4.552 -0.3525  0.6861 -0.4845
 6300SOL    HW130359   0.828   0.862   4.476 -1.8918  0.1341 -0.5892
 6300SOL    HW230360   0.771   0.836   4.608  0.5481  1.7926  0.0990
 6301SOL     OW30361   0.352   0.933  16.120  0.1158 -0.0666  0.5107
 6301SOL    HW130362   0.261   0.956  16.107 -0.2879 -1.6405  0.5343
 6301SOL    HW230363   0.337   0.842  16.146 -0.5644  0.1159  0.7549
 6302SOL     OW30364   0.897   2.202   4.569  0.1465 -0.1065  0.5469
 6302SOL    HW130365   0.956   2.266   4.608  0.0700 -0.6091  1.5010
 6302SOL    HW230366   0.922   2.212   4.477 -1.9835  2.9548  0.3009
 6303SOL     OW30367   3.789   3.142   5.187  0.6530  0.1553 -0.2702
 6303SOL    HW130368   3.771   3.194   5.265  1.3260  2.1358 -1.4422
 6303SOL    HW230369   3.853   3.197   5.141  2.5279 -1.4478  0.3942
 6304SOL     OW30370   0.594   0.937   6.041  0.1789 -0.3049  0.4067
 6304SOL    HW130371   0.511   0.968   6.004 -0.4465 -2.0527  0.3388
 6304SOL    HW230372   0.562   0.855   6.078  3.1790 -1.7126 -0.1243
 6305SOL     OW30373   4.051   4.521  15.140  0.3389 -0.3903 -0.1791
 6305SOL    HW130374   4.006   4.521  15.225 -0.8207 -1.1475 -0.7900
 6305SOL    HW230375   4.120   4.460  15.165  0.3026 -0.8750 -1.2328
 6306SOL     OW30376   2.304   1.137   6.909 -0.0214 -0.3522  0.2970
 6306SOL    HW130377   2.292   1.078   6.983  1.0897  0.0916  0.8344
 6306SOL    HW230378   2.228   1.194   6.913  0.2844  0.1773 -1.3088
 6307SOL     OW30379   4.594   3.873   2.520  0.1972  0.4854 -0.3305
 6307SOL    HW130380   4.640   3.855   2.602  0.4595  0.1986 -0.5445
 6307SOL    HW230381   4.649   3.834   2.453 -0.0058  1.6672 -1.1700
 6308SOL     OW30382   4.699   1.049   5.434 -0.2478 -0.4718 -0.1690
 6308SOL    HW130383   0.072   1.029   5.433  0.0862  1.1012 -1.0746
 6308SOL    HW230384   4.680   1.090   5.349  1.6956  0.7508 -0.0229
 6309SOL     OW30385   1.648   4.276   7.665  0.1264  0.1588  0.9501
 6309SOL    HW130386   1.621   4.351   7.719  0.1969 -0.9608  2.5228
 6309SOL    HW230387   1.691   4.217   7.726  0.4753 -0.3707  0.1968
 6310SOL     OW30388   1.463   1.111   8.631 -0.1475 -0.2691  0.0519
 6310SOL    HW130389   1.541   1.083   8.679 -0.0115 -1.9807 -1.1726
 6310SOL    HW230390   1.404   1.036   8.643  0.4284 -0.7228  0.0166
 6311SOL     OW30391   2.817   3.322   1.405 -0.2716 -0.4857 -0.4343
 6311SOL    HW130392   2.758   3.362   1.342 -2.1307 -1.7553  0.5181
 6311SOL    HW230393   2.849   3.249   1.351 -2.0497 -1.8186  0.3263
 6312SOL     OW30394   3.678   1.874   2.414  0.6564 -0.0813 -0.0181
 6312SOL    HW130395   3.656   1.782   2.401  0.8834  0.1734 -2.1470
 6312SOL    HW230396   3.593   1.896   2.454  0.4874 -0.7849  0.0192
 6313SOL     OW30397   2.754   1.725   7.806 -0.2499 -0.4308  0.1107
 6313SOL    HW130398   2.791   1.639   7.787  0.5178  0.3475 -1.9811
 6313SOL    HW230399   2.740   1.727   7.900 -0.0978 -2.4186  0.1818
 6314SOL     OW30400   0.859   2.299   0.250 -0.5214  0.0288  0.6477
 6314SOL    HW130401   0.904   2.219   0.223 -0.7128  0.3759 -0.6905
 6314SOL    HW230402   0.937   2.330   0.296 -2.1146  2.5737  1.6294
 6315SOL     OW30403   3.725   2.445  10.540 -0.6199  0.2527 -0.4963
 6315SOL    HW130404   3.792   2.501  10.579  0.2093 -0.4940 -0.8276
 6315SOL    HW230405   3.657   2.454  10.607  1.3290  2.3156  1.2110
 6316SOL     OW30406   3.891   0.901   5.829 -0.2443 -0.0916  0.4779
 6316SOL    HW130407   3.894   0.917   5.923  0.8846  1.3777  0.1871
 6316SOL    HW230408   3.850   0.815   5.832 -0.5251  0.0407  0.4905
 6317SOL     OW30409   3.968   0.463   7.265 -0.3392 -0.6206  0.4267
 6317SOL    HW130410   3.891   0.462   7.323 -0.2046  0.2637  0.6127
 6317SOL    HW230411   3.929   0.502   7.186  0.3039 -0.7135  0.0653
 6318SOL     OW30412   1.869   2.701   5.901 -0.1928  0.1422 -0.1738
 6318SOL    HW130413   1.905   2.626   5.948  0.3131 -0.2921 -1.2507
 6318SOL    HW230414   1.953   2.738   5.873 -0.4198 -1.5133 -2.9859
 6319SOL     OW30415   2.282   1.342   8.714  0.2063 -0.1634 -0.8303
 6319SOL    HW130416   2.254   1.359   8.804 -0.5464  0.2624 -1.1491
 6319SOL    HW230417   2.231   1.263   8.696 -0.0296 -0.3662  0.7581
 6320SOL     OW30418   2.055   3.597  13.071  0.0796 -0.1042  0.1760
 6320SOL    HW130419   1.964   3.567  13.066 -0.1138  0.3763  0.8139
 6320SOL    HW230420   2.040   3.673  13.127 -0.4279  0.9138 -1.3537
 6321SOL     OW30421   3.172   3.483   7.356 -0.3252 -0.0987 -0.1966
 6321SOL    HW130422   3.100   3.537   7.323 -1.1475 -0.9876  0.1392
 6321SOL    HW230423   3.211   3.537   7.424 -0.2925 -1.7533  1.0894
 6322SOL     OW30424   0.094   2.900   8.978  0.6727 -0.3914  0.2822
 6322SOL    HW130425   0.168   2.880   9.035  1.0026 -1.6839 -0.5887
 6322SOL    HW230426   0.026   2.895   9.045  0.7406  0.3594  0.4086
 6323SOL     OW30427   2.037   1.927   5.999  0.2211 -0.0634 -0.2803
 6323SOL    HW130428   2.108   1.874   6.037  0.6806  2.6842  2.7715
 6323SOL    HW230429   2.080   2.012   6.010  0.5573 -0.0304 -1.8673
 6324SOL     OW30430   3.693   4.157  11.750  0.7146 -0.4985  0.3646
 6324SOL    HW130431   3.728   4.073  11.778  2.5913  0.1547 -0.0310
 6324SOL    HW230432   3.721   4.166  11.659  1.4112  0.7245  0.7041
 6325SOL     OW30433   4.247   3.857   8.102 -0.0348 -0.1697 -0.2061
 6325SOL    HW130434   4.230   3.811   8.184 -2.4601 -0.8343 -1.0780
 6325SOL    HW230435   4.198   3.803   8.040  0.8030 -0.7674 -0.3513
 6326SOL     OW30436   1.551   0.242   7.145 -0.1296  0.1557 -0.0396
 6326SOL    HW130437   1.622   0.182   7.124  1.2981  0.9275  2.5922
 6326SOL    HW230438   1.572   0.311   7.083 -0.4452  0.4797  0.2148
 6327SOL     OW30439   0.466   1.509   3.018 -0.1394 -0.0992  0.5594
 6327SOL    HW130440   0.477   1.559   3.099  1.6139  1.5250 -0.6940
 6327SOL    HW230441   0.449   1.418   3.042 -1.0841  0.3473  1.5972
 6328SOL     OW30442   2.255   0.873  15.725  0.7063 -0.5403 -0.4901
 6328SOL    HW130443   2.331   0.824  15.756  0.7996  0.4672  0.8580
 6328SOL    HW230444   2.300   0.951  15.691 -0.5427 -0.3714 -1.7382
 6329SOL     OW30445   0.216   3.513  13.551  0.2970 -0.1947 -0.0105
 6329SOL    HW130446   0.129   3.473  13.550  1.5747 -2.8817 -1.2806
 6329SOL    HW230447   0.263   3.463  13.485  0.2481 -0.0676 -0.1415
 6330SOL     OW30448   0.845   0.038   1.526 -0.3089 -0.1396  0.0782
 6330SOL    HW130449   0.828   4.720   1.612  1.2305  1.2729  1.0284
 6330SOL    HW230450   0.926   4.712   1.504 -1.0166 -0.5622 -1.6183
 6331SOL     OW30451   0.448   1.816   4.345  0.0142 -0.2088 -0.4621
 6331SOL    HW130452   0.381   1.847   4.284  0.1872 -1.8133 -1.4983
 6331SOL    HW230453   0.487   1.735   4.310 -0.0862 -0.7011  0.5739
 6332SOL     OW30454   4.411   4.398  12.287 -0.4099  0.3940 -0.1413
 6332SOL    HW130455   4.425   4.373  12.195  1.2473 -2.1124  0.8054
 6332SOL    HW230456   4.496   4.438  12.306 -1.8520  3.7625 -0.7472
 6333SOL     OW30457   3.833   0.769   1.054  0.0095  0.1374 -0.4649
 6333SOL    HW130458   3.830   0.847   1.109  3.6948  1.3915 -2.0128
 6333SOL    HW230459   3.811   0.713   1.129 -0.5339 -0.5804 -1.1597
 6334SOL     OW30460   0.741   3.246   2.740 -0.3648 -0.0256  0.7007
 6334SOL    HW130461   0.676   3.188   2.781 -0.6924 -0.5196 -0.5117
 6334SOL    HW230462   0.697   3.279   2.662  1.3874  0.1058 -0.2208
 6335SOL     OW30463   4.438   2.343   9.000  0.4758 -0.4662 -0.5617
 6335SOL    HW130464   4.433   2.417   8.940 -2.2648  0.8492  1.3272
 6335SOL    HW230465   4.407   2.272   8.943 -0.3150 -0.0267 -0.6807
 6336SOL     OW30466   1.053   4.508  15.782 -0.1386 -0.5513 -0.5131
 6336SOL    HW130467   1.028   4.493  15.691 -0.4552 -0.8268 -0.3811
 6336SOL    HW230468   1.113   4.435  15.799 -0.2838 -0.2731  1.1470
 6337SOL     OW30469   0.639   2.277  13.418  0.0516 -0.0717 -1.0755
 6337SOL    HW130470   0.607   2.280  13.508 -1.8642  3.4273 -1.8533
 6337SOL    HW230471   0.581   2.327  13.360  0.5151 -0.2521 -1.7033
 6338SOL     OW30472   1.484   1.294   2.719 -0.3399 -0.4333 -0.0001
 6338SOL    HW130473   1.487   1.389   2.722  1.1370 -0.4429 -0.7656
 6338SOL    HW230474   1.439   1.273   2.638 -1.8372  0.8018  0.5255
 6339SOL     OW30475   3.368   3.377   9.537  0.1944  0.4418  0.5475
 6339SOL    HW130476   3.449   3.385   9.587 -1.6075 -1.0659  3.6954
 6339SOL    HW230477   3.322   3.459   9.554 -4.2833 -2.1512  1.2038
 6340SOL     OW30478   3.969   1.640   4.920 -0.6294  0.1885 -0.7127
 6340SOL    HW130479   3.893   1.584   4.902 -0.9455  0.2364  0.4583
 6340SOL    HW230480   3.970   1.650   5.015  0.8765  1.4796 -0.8648
 6341SOL     OW30481   4.206   1.365   6.152 -0.0235 -0.2167  0.5096
 6341SOL    HW130482   4.240   1.326   6.233 -0.2098  1.1310  1.2481
 6341SOL    HW230483   4.204   1.459   6.168 -0.6556 -0.3331  1.1130
 6342SOL     OW30484   0.337   1.779   8.161  0.2424 -0.6330  0.4167
 6342SOL    HW130485   0.318   1.715   8.092  0.3784  0.4043 -0.5845
 6342SOL    HW230486   0.398   1.735   8.220  0.7751  0.0186  0.3545
 6343SOL     OW30487   1.751   4.025   1.012 -0.1571 -0.1971 -0.0429
 6343SOL    HW130488   1.749   4.025   0.917 -0.4943 -0.1455 -0.0369
 6343SOL    HW230489   1.762   4.119   1.027  4.0005 -1.0258  2.1492
 6344SOL     OW30490   2.913   3.036   5.359 -0.5200 -0.4143 -0.3068
 6344SOL    HW130491   2.916   3.093   5.436 -0.1741 -0.9618  0.0873
 6344SOL    HW230492   2.819   3.018   5.355 -0.2811 -1.6182 -0.5414
 6345SOL     OW30493   0.448   1.099  12.639  0.3966  0.0418  0.2430
 6345SOL    HW130494   0.436   1.041  12.563  1.2488  0.6592 -0.3625
 6345SOL    HW230495   0.527   1.060  12.676  0.2423 -0.0774  0.4478
 6346SOL     OW30496   0.318   3.571  14.877  0.2184 -0.2020  0.3095
 6346SOL    HW130497   0.383   3.511  14.914 -0.3229 -0.9517  0.0362
 6346SOL    HW230498   0.366   3.593  14.797  0.3719  0.2229  0.5146
 6347SOL     OW30499   2.129   0.547  16.047  0.3916  0.5757  0.5394
 6347SOL    HW130500   2.117   0.463  16.003 -1.3048  0.6605  0.8425
 6347SOL    HW230501   2.101   0.603  15.974  0.0913 -0.7100 -0.3183
 6348SOL     OW30502   3.245   3.272  10.953  0.2185  0.2701 -0.6051
 6348SOL    HW130503   3.272   3.301  10.866 -0.0641  1.8242 -0.1716
 6348SOL    HW230504   3.321   3.290  11.007  1.9347 -0.8139 -2.6487
 6349SOL     OW30505   0.588   2.607   3.529 -0.6726 -0.0125  0.0972
 6349SOL    HW130506   0.661   2.547   3.544  0.8883  1.7099 -0.6554
 6349SOL    HW230507   0.594   2.652   3.613  0.7444  0.2877 -0.1784
 6350SOL     OW30508   3.176   4.589   9.070  0.1722  0.1319  0.6864
 6350SOL    HW130509   3.162   4.597   8.976  1.1360  2.5557  0.7422
 6350SOL    HW230510   3.121   4.513   9.091  0.4276 -1.0651 -2.9802
 6351SOL     OW30511   0.360   0.764  14.312 -0.2148 -0.1911 -0.0913
 6351SOL    HW130512   0.296   0.707  14.354  0.5879  0.3069  1.7977
 6351SOL    HW230513   0.406   0.694  14.267  1.3129  0.3114  0.7063
 6352SOL     OW30514   2.650   1.476   6.612  0.3228 -0.0866  0.3669
 6352SOL    HW130515   2.619   1.399   6.659 -2.3232  1.4018  1.0804
 6352SOL    HW230516   2.741   1.461   6.636  0.2150 -2.3109 -0.6645
 6353SOL     OW30517   0.301   0.350  15.035 -0.0922 -0.4941  0.0385
 6353SOL    HW130518   0.314   0.401  14.955  1.2841  0.2787  0.7578
 6353SOL    HW230519   0.275   0.426  15.087  2.5427 -0.6381  1.5542
 6354SOL     OW30520   2.763   3.898   3.844  0.4375 -0.1348  0.1453
 6354SOL    HW130521   2.733   3.887   3.753  0.3834 -1.9956  0.3793
 6354SOL    HW230522   2.682   3.868   3.886  0.5213 -0.9043 -0.2272
 6355SOL     OW30523   2.158   0.614   7.642  0.0552  0.7204 -0.2415
 6355SOL    HW130524   2.235   0.615   7.586 -0.2816 -0.5531 -0.7107
 6355SOL    HW230525   2.166   0.527   7.680 -1.5954  0.6157 -0.1233
 6356SOL     OW30526   2.545   1.830   7.321  0.2338  0.2898 -0.3160
 6356SOL    HW130527   2.637   1.814   7.299  0.0282 -2.1760  0.5602
 6356SOL    HW230528   2.519   1.748   7.362 -2.3325  0.2447 -2.0128
 6357SOL     OW30529   4.018   3.008   3.343  0.3529  0.1954 -0.6495
 6357SOL    HW130530   3.971   3.086   3.314 -0.3626 -0.2817 -0.7960
 6357SOL    HW230531   4.068   2.975   3.269 -0.5445 -0.3299 -1.0268
 6358SOL     OW30532   4.467   3.997   4.391 -0.0858  0.2712  0.3515
 6358SOL    HW130533   4.559   4.021   4.382  0.2201  0.1170  2.8711
 6358SOL    HW230534   4.457   3.925   4.330 -0.0343  1.2747 -0.8393
 6359SOL     OW30535   2.992   2.054   8.708  0.4675  0.4194 -0.5972
 6359SOL    HW130536   2.942   2.081   8.631 -1.8660  0.8306  1.0429
 6359SOL    HW230537   3.039   1.975   8.683  1.3750  1.3758 -1.9068
 6360SOL     OW30538   0.078   1.215   2.068 -0.4407  0.1138 -0.2787
 6360SOL    HW130539   0.084   1.120   2.079 -2.1326  0.0701  0.2973
 6360SOL    HW230540   0.018   1.255   2.130  0.3712  0.8237  0.0505
 6361SOL     OW30541   2.332   3.864   8.475  0.0322  0.1663 -0.2251
 6361SOL    HW130542   2.236   3.859   8.480 -0.0346 -0.6859 -2.2771
 6361SOL    HW230543   2.346   3.771   8.492 -1.6561 -0.2679 -1.1647
 6362SOL     OW30544   4.554   3.510   2.121 -0.0077  0.4888  0.2245
 6362SOL    HW130545   4.533   3.510   2.028 -0.4727 -0.5208  0.3298
 6362SOL    HW230546   4.489   3.446   2.152 -0.5216 -0.6860 -3.2409
 6363SOL     OW30547   2.621   2.985   3.558  0.3626 -0.7647 -0.2733
 6363SOL    HW130548   2.675   2.920   3.513  2.1043  0.9117 -0.6097
 6363SOL    HW230549   2.606   3.047   3.487 -1.1791 -1.9494 -0.9729
 6364SOL     OW30550   1.697   1.470   8.087 -0.0197  0.4168 -0.4072
 6364SOL    HW130551   1.649   1.481   8.005 -0.4811 -0.9074 -0.3191
 6364SOL    HW230552   1.777   1.496   8.041  0.0205 -1.8855 -1.6286
 6365SOL     OW30553   4.229   2.078   5.101  0.0995  0.2869 -0.1881
 6365SOL    HW130554   4.261   2.118   5.020 -0.3224  0.9415 -0.0292
 6365SOL    HW230555   4.296   2.026   5.145 -1.4285 -1.1641  0.4365
 6366SOL     OW30556   1.342   1.171   6.248  0.2965  0.2803 -0.4790
 6366SOL    HW130557   1.367   1.210   6.332 -0.0351 -1.8486  0.6320
 6366SOL    HW230558   1.429   1.133   6.232 -0.2421 -1.0813 -0.1867
 6367SOL     OW30559   3.801   0.225  11.072 -0.6425 -0.1941 -0.0869
 6367SOL    HW130560   3.882   0.273  11.053  1.2033 -3.2267  0.0082
 6367SOL    HW230561   3.825   0.147  11.022 -0.2234  0.6352 -1.1774
 6368SOL     OW30562   4.337   1.821   2.543  0.4582 -0.0531  0.1349
 6368SOL    HW130563   4.400   1.792   2.477 -0.6265  0.1164 -0.9616
 6368SOL    HW230564   4.283   1.873   2.484  2.0062  1.4691  0.0473
 6369SOL     OW30565   4.044   2.697   7.485 -0.0411 -0.5558 -0.1620
 6369SOL    HW130566   4.047   2.692   7.580 -1.7207  0.8580 -0.0431
 6369SOL    HW230567   4.093   2.776   7.463 -0.2112 -0.3510  0.2012
 6370SOL     OW30568   2.714   3.665   5.441 -0.0687 -0.0734  0.4697
 6370SOL    HW130569   2.800   3.651   5.401  0.4945  1.2311  1.2140
 6370SOL    HW230570   2.727   3.751   5.480 -0.2881 -0.1324  0.6761
 6371SOL     OW30571   2.543   4.162   4.084  0.0053 -0.0246  0.3773
 6371SOL    HW130572   2.449   4.147   4.080 -0.1906  1.3261 -0.1655
 6371SOL    HW230573   2.564   4.208   4.002 -1.0506  1.5689  0.9981
 6372SOL     OW30574   3.752   2.457   3.121  0.3059 -1.2715 -0.2800
 6372SOL    HW130575   3.705   2.441   3.039 -1.5391  0.4361  0.4542
 6372SOL    HW230576   3.689   2.421   3.184 -0.7456  0.9567 -0.0449
 6373SOL     OW30577   3.097   2.537   8.115  0.2237 -0.9265  0.0198
 6373SOL    HW130578   3.096   2.512   8.023 -0.4003  0.4109 -0.3367
 6373SOL    HW230579   3.121   2.629   8.122  1.7370 -1.2846 -0.4745
 6374SOL     OW30580   0.447   1.161  13.377  0.3457 -0.0041 -0.1880
 6374SOL    HW130581   0.437   1.193  13.288 -1.3897 -1.7419 -0.6385
 6374SOL    HW230582   0.525   1.106  13.373  0.9104  0.6609  1.7376
 6375SOL     OW30583   1.072   4.506   3.641  0.0075  0.1988  0.0123
 6375SOL    HW130584   1.016   4.570   3.685  1.8545  1.3050  0.7751
 6375SOL    HW230585   1.009   4.455   3.590 -1.8788  1.7639  0.7983
 6376SOL     OW30586   2.647   0.150   8.248 -0.2068  0.3843 -0.0095
 6376SOL    HW130587   2.560   0.167   8.211 -1.5473 -0.9916  2.5171
 6376SOL    HW230588   2.632   0.127   8.340 -1.1507  2.1538  0.2842
 6377SOL     OW30589   2.636   0.463  10.524 -0.4714 -0.5094 -0.3010
 6377SOL    HW130590   2.553   0.434  10.486 -0.8871 -1.7397  1.5501
 6377SOL    HW230591   2.635   0.414  10.606  0.7876  0.1780  0.1161
 6378SOL     OW30592   3.879   4.339   6.335 -0.1869 -0.1594  0.8700
 6378SOL    HW130593   3.808   4.398   6.307 -0.3985 -0.1305  1.4722
 6378SOL    HW230594   3.863   4.257   6.289 -1.4509 -0.2512  1.4762
 6379SOL     OW30595   0.996   4.496   2.952  0.0399 -0.0132 -0.1964
 6379SOL    HW130596   1.069   4.440   2.926 -1.9687 -2.2471 -0.9882
 6379SOL    HW230597   1.021   4.510   3.043  1.9693 -0.2808 -0.6669
 6380SOL     OW30598   0.278   3.235   3.496 -0.3997 -0.1700  0.8102
 6380SOL    HW130599   0.303   3.201   3.411  1.5745  2.1613  0.4456
 6380SOL    HW230600   0.310   3.166   3.554  0.0581 -0.9319 -0.3499
 6381SOL     OW30601   2.999   2.597  13.204  0.2798 -0.5180  0.0437
 6381SOL    HW130602   3.089   2.571  13.184  1.2462  2.6885  0.2649
 6381SOL    HW230603   3.008   2.689  13.229 -0.4099  0.4560 -3.2524
 6382SOL     OW30604   0.863   1.998   9.342 -0.4684 -0.4012  0.1788
 6382SOL    HW130605   0.864   1.904   9.362  1.5451 -0.7704 -1.6248
 6382SOL    HW230606   0.947   2.018   9.383 -1.4053  0.3468  1.7547
 6383SOL     OW30607   3.645   1.875   3.549 -0.1979 -0.3306 -0.2829
 6383SOL    HW130608   3.630   1.781   3.559 -0.2562 -0.4861 -1.8672
 6383SOL    HW230609   3.606   1.912   3.628  0.6307  0.6893 -0.3600
 6384SOL     OW30610   0.183   0.259   4.467 -0.0774  0.2014 -0.2318
 6384SOL    HW130611   0.272   0.225   4.480  0.4471  1.1116 -1.4663
 6384SOL    HW230612   0.134   0.229   4.543  0.1729 -0.9799 -0.5364
 6385SOL     OW30613   1.802   3.131  15.195  0.1566  0.8339 -0.1910
 6385SOL    HW130614   1.827   3.210  15.148 -1.6672  1.5440  0.0591
 6385SOL    HW230615   1.866   3.147  15.264  0.8047 -2.3317 -0.0554
 6386SOL     OW30616   1.626   0.592   8.202 -0.5792  0.2495 -0.1222
 6386SOL    HW130617   1.573   0.514   8.187 -0.8182  0.0533  1.7299
 6386SOL    HW230618   1.556   0.657   8.195  1.1756  2.2023  0.4122
 6387SOL     OW30619   2.112   0.688   8.419  0.0366 -0.2807 -0.2044
 6387SOL    HW130620   2.130   0.685   8.513 -0.5753 -0.5261 -0.0923
 6387SOL    HW230621   2.029   0.736   8.422  1.6852  2.6449 -1.8024
 6388SOL     OW30622   1.975   0.214   0.516 -0.0378 -0.0241 -0.6213
 6388SOL    HW130623   1.938   0.283   0.460 -2.2111 -0.8352 -0.1930
 6388SOL    HW230624   1.916   0.208   0.591  2.1521 -0.5055  1.0388
 6389SOL     OW30625   2.543   2.862   6.253  0.4962 -0.0461  0.3894
 6389SOL    HW130626   2.568   2.937   6.199 -1.2488  0.4847  0.2833
 6389SOL    HW230627   2.606   2.793   6.231 -0.1484 -1.0871  1.7698
 6390SOL     OW30628   3.293   1.519   7.987  0.2078 -0.1867 -0.1589
 6390SOL    HW130629   3.319   1.567   8.066 -1.7674 -0.5554  0.7126
 6390SOL    HW230630   3.302   1.432   8.027 -1.3441  0.0779  0.7441
 6391SOL     OW30631   4.591   1.680   4.742 -0.5415  0.1021  0.6689
 6391SOL    HW130632   4.552   1.640   4.819  1.1264 -0.1453  1.3687
 6391SOL    HW230633   4.672   1.713   4.780 -0.8589  1.3726  0.2571
 6392SOL     OW30634   1.875   0.387   2.334 -0.1785 -0.3273  0.2565
 6392SOL    HW130635   1.936   0.339   2.278  2.1790  1.9818  0.8566
 6392SOL    HW230636   1.933   0.391   2.410 -1.2110 -2.3697  1.1801
 6393SOL     OW30637   3.208   2.749   1.427 -0.3578 -0.7747 -0.8670
 6393SOL    HW130638   3.152   2.758   1.503 -1.1338  0.2085 -1.5635
 6393SOL    HW230639   3.288   2.788   1.463  0.3403 -1.1092 -2.0648
 6394SOL     OW30640   0.231   3.667  11.376  0.1884  0.5949  0.1359
 6394SOL    HW130641   0.321   3.660  11.344  0.6493  3.2278  0.8838
 6394SOL    HW230642   0.238   3.744  11.432 -0.5326 -0.0320  1.0838
 6395SOL     OW30643   0.584   2.663  16.483 -0.4502 -0.3034  0.3081
 6395SOL    HW130644   0.615   2.654  16.393  0.4367  0.9499  0.4981
 6395SOL    HW230645   0.655   2.622  16.533 -0.4899 -0.0568  0.5668
 6396SOL     OW30646   0.160   3.205  14.614 -0.5277  0.0754  0.1342
 6396SOL    HW130647   0.132   3.265  14.683 -2.0803  0.5424 -0.8859
 6396SOL    HW230648   0.107   3.251  14.548  1.9676  1.4314 -0.9244
 6397SOL     OW30649   0.371   2.146   4.621 -0.3434 -0.3843 -0.1020
 6397SOL    HW130650   0.311   2.182   4.555  0.2115  1.6007  0.4638
 6397SOL    HW230651   0.316   2.151   4.699 -0.3249 -1.2777 -0.0295
 6398SOL     OW30652   3.030   0.635   1.032  0.6773 -0.0036  0.0374
 6398SOL    HW130653   2.942   0.631   0.994  0.5147  0.9912  0.3011
 6398SOL    HW230654   3.026   0.725   1.065  0.5854  0.0755 -0.1906
 6399SOL     OW30655   3.586   4.396   4.206  0.5880  0.5908 -0.1083
 6399SOL    HW130656   3.597   4.460   4.136 -1.9510  0.5433 -0.5652
 6399SOL    HW230657   3.566   4.458   4.276 -1.1252 -0.9365  0.7501
 6400SOL     OW30658   1.135   1.174   0.113  0.3000 -0.0549 -0.1571
 6400SOL    HW130659   1.105   1.233   0.044 -1.3799 -0.3685  0.3102
 6400SOL    HW230660   1.107   1.087   0.083 -2.0373  1.2678 -1.7982
 6401SOL     OW30661   0.075   2.933   7.832  0.3634  0.0523  0.1572
 6401SOL    HW130662   0.074   2.838   7.839 -1.1472  0.0539  0.1285
 6401SOL    HW230663   0.137   2.961   7.898 -0.2755 -4.2055  2.5592
 6402SOL     OW30664   0.468   2.338   8.170 -0.1135 -0.3190 -0.2086
 6402SOL    HW130665   0.560   2.362   8.159 -0.1489 -0.0887 -0.0194
 6402SOL    HW230666   0.478   2.293   8.253 -0.9382 -2.2817 -1.1667
 6403SOL     OW30667   3.619   1.761   5.168  0.7596 -0.3303 -0.1959
 6403SOL    HW130668   3.593   1.827   5.233 -0.3644 -0.9612 -0.0097
 6403SOL    HW230669   3.644   1.820   5.097 -2.8730  1.1071 -0.2839
 6404SOL     OW30670   2.189   4.218   0.690 -0.3144  0.6108  0.1242
 6404SOL    HW130671   2.186   4.307   0.725  0.6056  1.3104 -1.5822
 6404SOL    HW230672   2.105   4.221   0.644 -0.6595  0.0903  0.7148
 6405SOL     OW30673   0.546   4.620   6.935 -0.5058  0.5067  0.1643
 6405SOL    HW130674   0.580   4.531   6.939  0.0590  0.6659 -1.0763
 6405SOL    HW230675   0.596   4.664   6.866 -1.4214  0.3766 -0.5800
 6406SOL     OW30676   3.522   0.692   5.908 -0.1779 -0.4185  0.0242
 6406SOL    HW130677   3.481   0.779   5.914  0.2453 -0.1438 -0.9797
 6406SOL    HW230678   3.447   0.634   5.902  0.3528 -0.9633 -1.2390
 6407SOL     OW30679   3.103   3.129   5.184 -0.1071  0.5526 -0.1773
 6407SOL    HW130680   3.183   3.095   5.225 -0.3171 -0.7667 -0.8508
 6407SOL    HW230681   3.033   3.093   5.238 -1.6561  0.0117 -2.5776
 6408SOL     OW30682   3.767   4.348  14.715 -0.2732  0.0610  0.0056
 6408SOL    HW130683   3.805   4.293  14.647 -0.6408  0.9624 -0.9451
 6408SOL    HW230684   3.716   4.415  14.669  1.4621  2.7273  1.9469
 6409SOL     OW30685   2.736   4.062   3.191 -0.1907  0.4230 -0.6270
 6409SOL    HW130686   2.804   4.066   3.259  0.6389 -0.0532 -1.4282
 6409SOL    HW230687   2.655   4.038   3.236  0.0879  0.8726  0.1262
 6410SOL     OW30688   3.367   4.493   3.048  0.5078 -0.3264 -0.1086
 6410SOL    HW130689   3.276   4.474   3.072  1.0729 -1.6904  0.9936
 6410SOL    HW230690   3.367   4.545   2.968 -1.2111 -1.5515 -0.9019
 6411SOL     OW30691   1.572   3.231   3.182  0.6583 -0.3811 -0.6965
 6411SOL    HW130692   1.509   3.299   3.157  2.6624  1.2004 -1.4087
 6411SOL    HW230693   1.582   3.180   3.102  0.7520  0.2606 -1.0927
 6412SOL     OW30694   4.630   0.431   6.359  0.7614 -0.3978  0.2674
 6412SOL    HW130695   4.645   0.445   6.452 -1.8674 -0.5695  0.7030
 6412SOL    HW230696   4.617   0.336   6.365 -1.0607 -0.2435 -1.2996
 6413SOL     OW30697   1.923   0.156   8.039  0.3713 -0.3107  0.2650
 6413SOL    HW130698   1.884   0.219   8.099  0.5851 -0.4752  0.5764
 6413SOL    HW230699   1.844   0.120   7.999  1.3653 -0.5481 -1.5053
 6414SOL     OW30700   2.753   4.236   4.752 -0.1674  0.4188 -0.3265
 6414SOL    HW130701   2.726   4.159   4.701 -1.4956  1.2796 -0.9064
 6414SOL    HW230702   2.754   4.312   4.694 -3.6810 -0.5073 -1.5950
 6415SOL     OW30703   2.292   2.123   4.130  0.1432  0.1417  0.8160
 6415SOL    HW130704   2.283   2.189   4.198 -0.6709  0.7811  0.0799
 6415SOL    HW230705   2.209   2.136   4.083  0.2326 -1.0156  0.3292
 6416SOL     OW30706   3.573   3.828   7.662  0.0695 -0.2097 -0.1243
 6416SOL    HW130707   3.599   3.760   7.600 -0.9230  0.5694 -1.4104
 6416SOL    HW230708   3.558   3.779   7.743 -0.2191 -0.8461 -0.5597
 6417SOL     OW30709   1.389   1.465  10.224 -0.2716 -0.2280  0.3167
 6417SOL    HW130710   1.440   1.387  10.201  0.1671  0.4415 -0.9643
 6417SOL    HW230711   1.428   1.534  10.170 -1.7033  0.4013  0.0786
 6418SOL     OW30712   1.285   2.624   6.688 -0.1675  0.2674  0.1344
 6418SOL    HW130713   1.256   2.678   6.761 -0.6013  0.0867  0.0949
 6418SOL    HW230714   1.365   2.596   6.733  1.8404  2.3613 -2.1448
 6419SOL     OW30715   3.090   4.412   3.258 -0.4492 -0.8106 -0.2261
 6419SOL    HW130716   3.163   4.353   3.277 -1.5276 -1.5895  1.4773
 6419SOL    HW230717   3.025   4.389   3.324 -2.5592  0.8714 -1.7549
 6420SOL     OW30718   0.918   2.134   8.546  0.0374  0.0077  0.3163
 6420SOL    HW130719   0.923   2.134   8.641 -2.0112 -1.0568  0.4219
 6420SOL    HW230720   0.945   2.043   8.536 -0.3691 -0.1514  0.6699
 6421SOL     OW30721   2.106   0.300  12.211  0.5579  0.2309 -0.0482
 6421SOL    HW130722   2.075   0.211  12.224  1.2430  0.4278  3.0035
 6421SOL    HW230723   2.166   0.310  12.285  0.5771 -0.2201 -0.0025
 6422SOL     OW30724   0.262   0.529   4.403  0.3146 -0.7295 -0.3672
 6422SOL    HW130725   0.266   0.523   4.308  0.7435 -0.0491 -0.3912
 6422SOL    HW230726   0.236   0.438   4.421  0.6682 -0.7000  0.2891
 6423SOL     OW30727   0.882   0.281  13.763  0.0754 -0.1358  0.2211
 6423SOL    HW130728   0.823   0.303  13.835 -0.7602 -0.7321 -0.2761
 6423SOL    HW230729   0.836   0.292  13.680  0.8612 -1.3008 -0.3817
 6424SOL     OW30730   3.468   0.462   4.081  0.0366 -0.0042  0.8844
 6424SOL    HW130731   3.465   0.485   4.173  0.1546  0.4600  0.7695
 6424SOL    HW230732   3.507   0.374   4.075  1.1463  0.6744 -1.8249
 6425SOL     OW30733   3.572   1.212  14.358  0.1042  0.7390  0.3577
 6425SOL    HW130734   3.568   1.164  14.441 -0.2075  0.1999  0.0316
 6425SOL    HW230735   3.623   1.287  14.386  0.8636  0.8646 -1.3753
 6426SOL     OW30736   3.172   2.157   5.924 -0.1953 -0.2315  0.4321
 6426SOL    HW130737   3.193   2.099   5.997  2.2249 -0.2199 -0.2646
 6426SOL    HW230738   3.223   2.233   5.951  0.8180 -0.2656 -1.3386
 6427SOL     OW30739   0.044   4.052   8.995 -0.4574  0.1279 -0.0258
 6427SOL    HW130740   4.700   4.066   9.065  1.2571 -0.9507  1.7792
 6427SOL    HW230741   4.708   4.079   8.923 -2.4115 -0.0017  1.4383
 6428SOL     OW30742   2.225   2.941   9.035  0.4098 -0.0259 -0.8782
 6428SOL    HW130743   2.258   2.852   9.024  1.6572  0.6538 -2.7407
 6428SOL    HW230744   2.271   2.968   9.114 -2.8669 -0.2508  1.1237
 6429SOL     OW30745   4.452   4.027   3.741 -0.1604 -0.2727 -0.2178
 6429SOL    HW130746   4.476   3.945   3.784  0.5879 -1.9791 -3.9949
 6429SOL    HW230747   4.521   4.034   3.676 -0.3136  1.9302 -0.1685
 6430SOL     OW30748   4.071   0.960  16.914  0.1668 -0.5979 -0.6709
 6430SOL    HW130749   4.083   0.875  16.957  0.9529  0.0950  0.4463
 6430SOL    HW230750   4.134   1.014  16.960  0.5249 -2.0424  0.5256
 6431SOL     OW30751   4.126   3.356   1.918  0.2415  0.2707  0.3329
 6431SOL    HW130752   4.090   3.386   2.001  1.9583  1.9576  0.4655
 6431SOL    HW230753   4.144   3.262   1.925 -0.2027  0.1628  0.0567
 6432SOL     OW30754   3.254   3.063   1.343 -0.4987 -0.1576 -0.0121
 6432SOL    HW130755   3.264   2.970   1.365  0.7595  0.0240  0.1598
 6432SOL    HW230756   3.166   3.076   1.378  0.0092  1.0510  0.8010
 6433SOL     OW30757   1.346   1.112   3.675  0.9349  0.7362 -0.5831
 6433SOL    HW130758   1.421   1.165   3.650  0.1707  2.2178  0.2224
 6433SOL    HW230759   1.338   1.080   3.585  0.4761 -2.3071  0.5592
 6434SOL     OW30760   2.666   1.735  10.658  0.5990 -0.1993 -0.1284
 6434SOL    HW130761   2.606   1.770  10.593  1.3190 -0.4545 -0.9272
 6434SOL    HW230762   2.700   1.815  10.700  2.2087 -1.0865  0.2682
 6435SOL     OW30763   4.543   0.608   7.714  0.3523  0.2609  0.2751
 6435SOL    HW130764   4.518   0.593   7.805  2.0528 -0.8427  0.5741
 6435SOL    HW230765   4.636   0.626   7.729 -0.1069  0.5340  2.7815
 6436SOL     OW30766   0.614   1.645   2.470 -0.7547  0.1335 -0.5901
 6436SOL    HW130767   0.677   1.574   2.458 -1.3091 -0.8425  2.3789
 6436SOL    HW230768   0.569   1.658   2.386 -1.1195  0.7008 -0.3090
 6437SOL     OW30769   0.579   0.057  16.388 -0.6805 -0.3986  0.5149
 6437SOL    HW130770   0.642   4.706  16.378  1.9101  2.0907 -0.9082
 6437SOL    HW230771   0.542   0.061  16.299 -2.0841  0.3992  1.1307
 6438SOL     OW30772   0.483   1.675   3.234  0.4397  0.6405  0.0820
 6438SOL    HW130773   0.426   1.615   3.283  0.1906  0.2271 -0.7146
 6438SOL    HW230774   0.558   1.689   3.292 -1.0878  0.4266  2.1179
 6439SOL     OW30775   4.288   2.544   3.485 -0.4520  0.0708  0.0376
 6439SOL    HW130776   4.265   2.556   3.577  0.1369 -3.0088  0.5968
 6439SOL    HW230777   4.366   2.491   3.498 -1.0762 -0.5416  1.3177
 6440SOL     OW30778   1.024   1.864   5.763 -0.0643 -0.2852 -0.2827
 6440SOL    HW130779   1.044   1.890   5.853  0.0788 -0.9416 -0.1253
 6440SOL    HW230780   1.108   1.885   5.722  0.4603  0.0922  0.9615
 6441SOL     OW30781   2.322   1.128   3.986  0.0494 -0.3210 -0.4646
 6441SOL    HW130782   2.412   1.159   3.972  0.0301  0.3475  0.8555
 6441SOL    HW230783   2.300   1.057   3.926  0.8574 -0.2774 -0.8156
 6442SOL     OW30784   2.547   2.150  14.829 -0.4582  0.9989  0.5996
 6442SOL    HW130785   2.524   2.059  14.810  1.2702  0.5739  0.5564
 6442SOL    HW230786   2.494   2.160  14.908 -1.0698  2.7891 -0.0393
 6443SOL     OW30787   1.615   1.606   8.859  0.0002  0.4759 -0.1955
 6443SOL    HW130788   1.524   1.611   8.887  0.1094  1.8231 -0.0482
 6443SOL    HW230789   1.663   1.565   8.931 -2.1045 -0.9734  0.3806
 6444SOL     OW30790   1.842   0.111   6.362  0.1365 -0.3325  0.2440
 6444SOL    HW130791   1.835   0.203   6.334  2.2134  0.9874  4.1481
 6444SOL    HW230792   1.927   0.104   6.405 -0.0342 -0.9088  0.4851
 6445SOL     OW30793   1.341   2.728  14.890  0.0356  0.1739  0.5304
 6445SOL    HW130794   1.315   2.800  14.947  0.9869  0.1449  1.0092
 6445SOL    HW230795   1.258   2.711  14.846  0.7591  0.3968 -0.9088
 6446SOL     OW30796   2.117   3.993   6.369  0.5580  0.5266 -0.0929
 6446SOL    HW130797   2.212   3.997   6.372  0.6461 -3.1442  2.4280
 6446SOL    HW230798   2.101   4.030   6.282  3.8166 -1.7571 -1.6381
 6447SOL     OW30799   3.711   2.889  16.597 -0.0394 -0.0813  0.1561
 6447SOL    HW130800   3.655   2.921  16.527  1.2840  1.2057 -0.3244
 6447SOL    HW230801   3.658   2.917  16.672  1.5059  2.7792  0.2077
 6448SOL     OW30802   2.255   2.302   9.122 -0.2587 -0.5140 -0.2897
 6448SOL    HW130803   2.306   2.227   9.152  1.1756  0.1862 -0.9813
 6448SOL    HW230804   2.306   2.328   9.046 -0.9472  0.6197 -0.3613
 6449SOL     OW30805   3.396   4.478   7.463  0.0066  0.2695  0.1075
 6449SOL    HW130806   3.355   4.554   7.421 -0.6764 -0.2592 -0.1909
 6449SOL    HW230807   3.489   4.501   7.466  0.1625 -0.4681  0.8636
 6450SOL     OW30808   0.889   2.450   5.179  0.0198 -0.2578 -0.1642
 6450SOL    HW130809   0.943   2.464   5.101  0.8555  0.1509  0.4901
 6450SOL    HW230810   0.840   2.532   5.189  0.3677 -0.1759  0.8581
 6451SOL     OW30811   3.704   4.431   0.284  0.3691  0.2900 -0.2739
 6451SOL    HW130812   3.697   4.516   0.326 -2.6210 -0.0691 -0.0332
 6451SOL    HW230813   3.610   4.422   0.271  0.9714 -1.6712 -3.5725
 6452SOL     OW30814   3.043   1.538   2.451 -0.0467  0.2555 -0.7716
 6452SOL    HW130815   3.000   1.539   2.537 -0.2448  0.8012 -0.8807
 6452SOL    HW230816   3.036   1.449   2.415  1.6495 -0.3985  0.4713
 6453SOL     OW30817   4.512   3.965  15.456 -0.2397  0.4703  0.0714
 6453SOL    HW130818   4.523   3.877  15.493 -1.2915 -0.4872 -1.8780
 6453SOL    HW230819   4.590   3.983  15.403 -0.4977  0.3564 -0.3485
 6454SOL     OW30820   4.422   2.502   2.745  0.2913 -0.6361  0.5240
 6454SOL    HW130821   4.503   2.478   2.700 -1.7768 -1.2056 -2.9104
 6454SOL    HW230822   4.413   2.433   2.812  0.5801 -2.0898 -0.9286
 6455SOL     OW30823   0.864   1.202   9.438  0.0670 -0.5305  0.7509
 6455SOL    HW130824   0.876   1.150   9.358  2.9235  0.8292  0.3090
 6455SOL    HW230825   0.930   1.158   9.492 -0.1271 -0.3345  1.1451
 6456SOL     OW30826   3.306   0.520   1.764  0.4293  0.1407 -0.2837
 6456SOL    HW130827   3.232   0.486   1.814 -0.4359  0.2766 -1.4539
 6456SOL    HW230828   3.325   0.607   1.797 -3.2090  0.8908 -0.1250
 6457SOL     OW30829   4.378   2.098   8.858 -0.5334 -0.3759 -0.1928
 6457SOL    HW130830   4.373   2.013   8.814 -2.9518  0.6372 -1.8587
 6457SOL    HW230831   4.427   2.077   8.938  2.3402  2.1573 -1.2955
 6458SOL     OW30832   3.098   2.399  17.371 -0.0002  0.4945  0.1795
 6458SOL    HW130833   3.164   2.467  17.362  0.7098 -0.3770 -1.1499
 6458SOL    HW230834   3.023   2.421  17.316  1.3723  1.1052 -1.4527
 6459SOL     OW30835   0.142   3.828   7.742  0.1497  0.3357  0.2931
 6459SOL    HW130836   0.110   3.750   7.698 -1.9071 -0.0644  2.4703
 6459SOL    HW230837   0.216   3.859   7.689 -0.4780  0.4137 -0.5288
 6460SOL     OW30838   3.989   4.513   0.851  0.2409 -0.3829 -0.3100
 6460SOL    HW130839   4.084   4.512   0.858  0.2049 -0.5170  0.1786
 6460SOL    HW230840   3.959   4.501   0.941 -1.6124  1.3217 -0.7068
 6461SOL     OW30841   1.200   3.115  14.688 -0.1082  0.1858 -0.7522
 6461SOL    HW130842   1.132   3.154  14.743  2.8569  2.5408  1.3042
 6461SOL    HW230843   1.215   3.183  14.622 -1.3952  1.1295 -0.0534
 6462SOL     OW30844   3.428   0.597  17.618 -0.8803 -0.0826  0.1661
 6462SOL    HW130845   3.409   0.503  17.616  0.6441 -0.3816  0.0655
 6462SOL    HW230846   3.486   0.614  17.544 -0.7672 -0.4249  0.1767
 6463SOL     OW30847   0.124   0.672   6.385 -0.2131  0.0442 -0.0451
 6463SOL    HW130848   0.062   0.688   6.314 -1.0900  1.8384  1.1311
 6463SOL    HW230849   0.068   0.689   6.461  0.2098 -1.0990  0.5367
 6464SOL     OW30850   1.595   3.123   6.158  0.5746  0.2699  0.6360
 6464SOL    HW130851   1.681   3.095   6.127  0.6242 -1.5432  2.4648
 6464SOL    HW230852   1.529   3.063   6.122 -0.3366  1.2054  0.7592
 6465SOL     OW30853   1.152   1.791   6.701 -0.0326  0.1867 -0.2987
 6465SOL    HW130854   1.196   1.875   6.715  0.1636 -0.1434  1.1140
 6465SOL    HW230855   1.172   1.787   6.608  0.4876 -1.4307 -0.1264
 6466SOL     OW30856   4.098   1.683   8.140 -0.3771  0.0083  0.0562
 6466SOL    HW130857   4.173   1.729   8.103 -1.2056  0.1848 -1.3830
 6466SOL    HW230858   4.065   1.735   8.213  0.6415 -0.1325  0.6269
 6467SOL     OW30859   2.145   2.234  10.707  0.0367 -0.2845  0.1755
 6467SOL    HW130860   2.194   2.206  10.784  0.7908 -0.5917 -0.4174
 6467SOL    HW230861   2.163   2.159  10.650  0.8897 -0.2856  0.4542
 6468SOL     OW30862   4.265   2.625   3.747 -0.2666  0.0497  0.3185
 6468SOL    HW130863   4.350   2.667   3.738  0.1634 -0.9501 -0.3381
 6468SOL    HW230864   4.215   2.683   3.804 -0.4005  0.9413 -0.7187
 6469SOL     OW30865   0.877   2.357   7.685  0.3376  0.5800 -0.3896
 6469SOL    HW130866   0.972   2.344   7.683  0.4711  1.5214 -0.0765
 6469SOL    HW230867   0.854   2.329   7.596  0.6161 -0.8923 -0.0077
 6470SOL     OW30868   3.669   3.353   1.137 -0.1935 -0.1829  0.1730
 6470SOL    HW130869   3.623   3.397   1.208  0.1705  0.4908 -0.0068
 6470SOL    HW230870   3.724   3.287   1.179  1.7041  1.2814 -0.0389
 6471SOL     OW30871   2.853   1.408   4.346 -0.2552 -0.0541  0.6124
 6471SOL    HW130872   2.885   1.335   4.293 -1.1531  1.0228 -1.4006
 6471SOL    HW230873   2.819   1.369   4.426  1.3368 -1.1530  0.7470
 6472SOL     OW30874   2.180   2.901  15.068  0.8040 -0.3975 -0.0001
 6472SOL    HW130875   2.129   2.903  15.149 -1.5243  0.2904 -1.4984
 6472SOL    HW230876   2.265   2.941  15.089  0.3759  0.0786  0.8154
 6473SOL     OW30877   1.205   4.024   7.538  0.3897  0.1862 -0.1411
 6473SOL    HW130878   1.218   3.991   7.449  0.7154  0.4533 -0.1932
 6473SOL    HW230879   1.110   4.031   7.546  0.3827  0.4780 -0.4925
 6474SOL     OW30880   2.361   1.741  13.529  0.1517  0.1664 -0.1406
 6474SOL    HW130881   2.396   1.721  13.442 -2.9895 -1.9373 -0.9588
 6474SOL    HW230882   2.297   1.670  13.540 -0.3610  0.4934 -1.0049
 6475SOL     OW30883   2.334   1.148   8.203 -0.0592 -0.2241 -0.0683
 6475SOL    HW130884   2.405   1.115   8.259 -1.8011 -1.2036  1.5383
 6475SOL    HW230885   2.315   1.237   8.233  1.1815 -0.0804  0.2908
 6476SOL     OW30886   1.975   2.750   1.183 -0.1428  0.4251 -0.2156
 6476SOL    HW130887   2.035   2.790   1.246  0.2938  1.0321 -1.0037
 6476SOL    HW230888   2.003   2.659   1.188 -0.7075  0.2104 -0.9038
 6477SOL     OW30889   2.426   4.246   5.896  0.0065 -0.4871 -0.6124
 6477SOL    HW130890   2.416   4.241   5.991  1.9841 -1.3664 -0.4385
 6477SOL    HW230891   2.418   4.341   5.892  0.4676 -0.2895  3.3607
 6478SOL     OW30892   0.469   1.373  14.879 -0.2312  0.5865 -0.6628
 6478SOL    HW130893   0.439   1.320  14.952  2.2103 -0.8655 -0.6919
 6478SOL    HW230894   0.439   1.335  14.796 -0.0339 -0.6035 -0.1860
 6479SOL     OW30895   1.558   3.272  10.764 -0.4686 -0.2824  0.2602
 6479SOL    HW130896   1.624   3.203  10.750  0.7697  0.7689  0.8823
 6479SOL    HW230897   1.537   3.303  10.676 -2.1844 -1.7870  0.1455
 6480SOL     OW30898   4.651   0.855  10.204 -0.3258 -0.2965  0.0300
 6480SOL    HW130899   4.682   0.886  10.118  1.0999 -1.6509  0.0648
 6480SOL    HW230900   4.656   0.932  10.260 -0.0327 -0.7438  0.6145
 6481SOL     OW30901   1.257   2.559   9.083  0.2260  0.3403 -0.4465
 6481SOL    HW130902   1.322   2.499   9.046  0.1734 -0.6817  1.1295
 6481SOL    HW230903   1.215   2.500   9.144  1.1228  0.3646  0.1956
 6482SOL     OW30904   4.197   0.478   8.491  0.8420  0.2728  0.3655
 6482SOL    HW130905   4.175   0.400   8.440  0.4417  2.3529 -2.6267
 6482SOL    HW230906   4.139   0.475   8.568  0.9800 -0.8774  0.4231
 6483SOL     OW30907   2.128   0.026   8.170  0.6176  0.1116 -0.1368
 6483SOL    HW130908   2.178   0.070   8.238 -1.7097  1.9797  0.3495
 6483SOL    HW230909   2.077   0.096   8.131  1.3702 -0.0684 -1.4336
 6484SOL     OW30910   2.183   3.454  14.916  0.1141  0.6179  0.9371
 6484SOL    HW130911   2.216   3.440  14.827  0.0004 -1.9189  1.2780
 6484SOL    HW230912   2.237   3.527  14.946 -1.1983  1.5476  1.0088
 6485SOL     OW30913   4.451   2.260  11.624  0.0121  0.7079  0.0790
 6485SOL    HW130914   4.369   2.293  11.587  0.8205  0.9207 -1.5551
 6485SOL    HW230915   4.441   2.258  11.719 -1.9999 -0.7236 -0.1555
 6486SOL     OW30916   1.649   1.029   9.065  0.2725 -0.1867  0.7940
 6486SOL    HW130917   1.735   1.049   9.029 -0.6176  0.0546 -1.1830
 6486SOL    HW230918   1.636   0.948   9.015 -0.9855  0.1719  0.5338
 6487SOL     OW30919   3.738   1.993  11.192 -0.1367 -0.2965 -0.4829
 6487SOL    HW130920   3.737   2.050  11.269  1.1830  0.9512 -1.4001
 6487SOL    HW230921   3.833   1.977  11.192  0.2254  1.8947 -1.2847
 6488SOL     OW30922   4.129   2.325   6.268  0.0410 -0.0049  0.0464
 6488SOL    HW130923   4.101   2.417   6.262  2.0792  0.5753 -0.7339
 6488SOL    HW230924   4.217   2.336   6.303  0.9537 -2.1629 -1.6022
 6489SOL     OW30925   2.634   1.831  16.222 -0.2314 -0.1768 -0.5816
 6489SOL    HW130926   2.720   1.871  16.211 -0.5982  1.1591  1.4809
 6489SOL    HW230927   2.628   1.788  16.136 -0.3135  0.4992 -0.9170
 6490SOL     OW30928   0.139   2.317  10.895  0.2849 -0.0377 -0.0749
 6490SOL    HW130929   0.071   2.269  10.942 -0.0527  0.7986  0.3057
 6490SOL    HW230930   0.123   2.305  10.802  0.1894 -1.7610  0.1666
 6491SOL     OW30931   4.642   4.274   2.602 -0.0700  0.6206  0.1150
 6491SOL    HW130932   4.625   4.183   2.623  0.5001  0.8773  1.6530
 6491SOL    HW230933   4.646   4.275   2.506 -0.8463  1.3409  0.0807
 6492SOL     OW30934   3.262   4.586  11.206  0.1410 -0.0161 -0.0984
 6492SOL    HW130935   3.235   4.654  11.268 -1.2206  0.8874 -1.6631
 6492SOL    HW230936   3.357   4.583  11.213  0.0853 -0.2839  0.5388
 6493SOL     OW30937   2.768   3.333   4.284 -0.7128 -0.8273  0.3640
 6493SOL    HW130938   2.731   3.253   4.244 -1.1109 -0.3284 -0.2666
 6493SOL    HW230939   2.862   3.315   4.279 -0.3756  1.1266 -0.2787
 6494SOL     OW30940   2.440   1.888  14.831 -0.2344 -0.0861  0.3061
 6494SOL    HW130941   2.388   1.870  14.752  0.1153 -2.9998  0.7603
 6494SOL    HW230942   2.487   1.807  14.848  3.1956  1.6364 -0.7980
 6495SOL     OW30943   2.919   2.939  10.810  0.3756 -0.6257 -0.1881
 6495SOL    HW130944   2.968   2.921  10.729  2.2731  1.3039  0.5541
 6495SOL    HW230945   2.988   2.989  10.854  1.2048 -1.0839 -0.9736
 6496SOL     OW30946   3.518   0.783   4.730  0.2249 -0.3177 -0.5233
 6496SOL    HW130947   3.547   0.705   4.777 -1.7019  1.2418  3.1977
 6496SOL    HW230948   3.608   0.814   4.725 -0.0209  0.5420  0.6134
 6497SOL     OW30949   1.973   1.219   9.399 -0.2614  0.3063  0.6300
 6497SOL    HW130950   1.891   1.266   9.387  0.6879  1.2539 -2.2158
 6497SOL    HW230951   2.035   1.292   9.395 -1.1241  1.2451  4.3825
 6498SOL     OW30952   3.453   2.837   6.216  0.1214 -0.8728 -0.6876
 6498SOL    HW130953   3.487   2.875   6.297  1.1448 -3.2445 -0.0161
 6498SOL    HW230954   3.377   2.889   6.189  0.5050  0.0831  0.0493
 6499SOL     OW30955   0.420   4.408   2.779 -0.2433 -0.1612  0.3172
 6499SOL    HW130956   0.451   4.457   2.856  0.5923  0.2633 -0.2861
 6499SOL    HW230957   0.481   4.335   2.777 -0.5237 -0.4471  1.9421
 6500SOL     OW30958   4.233   1.480   8.265  0.0724  0.9454 -0.4954
 6500SOL    HW130959   4.165   1.534   8.225 -0.8688 -0.6716 -1.0630
 6500SOL    HW230960   4.309   1.519   8.222  0.6548  0.8026  0.3775
 6501SOL     OW30961   3.177   3.167   0.189  0.0852  0.3044 -0.4521
 6501SOL    HW130962   3.259   3.208   0.219 -0.1297  0.2379  0.2351
 6501SOL    HW230963   3.208   3.077   0.188  0.8840  0.6065 -1.9583
 6502SOL     OW30964   0.658   2.087   6.240  0.2032 -0.1009 -0.2374
 6502SOL    HW130965   0.713   2.157   6.276 -0.1700 -0.4768  1.0565
 6502SOL    HW230966   0.648   2.116   6.150 -1.2652 -2.4305 -0.8282
 6503SOL     OW30967   2.227   4.705   5.167  0.3479  0.6956 -0.4116
 6503SOL    HW130968   2.235   4.714   5.072  0.6073 -0.1072 -0.4727
 6503SOL    HW230969   2.308   0.028   5.193  0.0131  2.2260 -1.9694
 6504SOL     OW30970   1.603   3.783   5.990 -0.2761 -0.2566 -0.8218
 6504SOL    HW130971   1.626   3.799   6.081 -0.1993  1.7159 -1.1884
 6504SOL    HW230972   1.507   3.786   5.993 -0.2880 -0.2951 -1.1099
 6505SOL     OW30973   1.130   2.110   0.486  0.2316 -0.0721 -0.2541
 6505SOL    HW130974   1.183   2.039   0.448  2.1442 -0.0224  2.3377
 6505SOL    HW230975   1.045   2.069   0.500  0.9075 -1.7831 -1.0196
 6506SOL     OW30976   2.640   0.223   5.622 -0.5069 -0.2984 -0.4841
 6506SOL    HW130977   2.635   0.152   5.558  2.1227  0.0424 -1.1031
 6506SOL    HW230978   2.722   0.197   5.665 -1.7051 -2.9854  0.2193
 6507SOL     OW30979   0.000   2.528   7.248 -0.1230  0.0080 -0.1158
 6507SOL    HW130980   4.692   2.603   7.196  1.2065  0.5530 -0.0758
 6507SOL    HW230981   4.709   2.461   7.181  0.4182 -1.3947  1.2001
 6508SOL     OW30982   2.822   4.337   2.065 -0.2472  0.2358  0.4378
 6508SOL    HW130983   2.824   4.416   2.010 -0.3658  0.7606  1.1827
 6508SOL    HW230984   2.737   4.352   2.107  0.1042 -0.1933  1.3018
 6509SOL     OW30985   1.289   2.613   4.691  0.3555 -0.3530 -0.4727
 6509SOL    HW130986   1.375   2.656   4.691 -0.1913  0.7579 -1.0645
 6509SOL    HW230987   1.248   2.657   4.616 -1.5231  1.3158  1.5731
 6510SOL     OW30988   3.165   3.691   1.912  0.1725 -0.3597  0.3033
 6510SOL    HW130989   3.216   3.628   1.862  0.3817  0.3731 -0.4048
 6510SOL    HW230990   3.092   3.688   1.851  0.3691 -0.4873  0.0765
 6511SOL     OW30991   3.918   2.932   9.391  0.0255  0.2231 -0.8528
 6511SOL    HW130992   3.848   2.867   9.396  0.7933 -0.5545 -0.2386
 6511SOL    HW230993   3.946   2.954   9.480  0.2829 -2.3736 -0.2842
 6512SOL     OW30994   4.489   1.040   4.682 -0.3005 -0.1648 -0.4044
 6512SOL    HW130995   4.487   0.945   4.696 -1.3556 -0.2312 -0.9900
 6512SOL    HW230996   4.411   1.056   4.628  0.3934  0.8837 -1.0898
 6513SOL     OW30997   1.718   2.022   2.388 -0.4004 -0.1852  0.1023
 6513SOL    HW130998   1.630   2.056   2.406 -1.0245 -1.6976 -0.0561
 6513SOL    HW230999   1.767   2.098   2.419 -1.5329 -0.4638  2.6036
 6514SOL     OW31000   2.189   1.372   3.689 -0.7650 -0.0745 -0.1439
 6514SOL    HW131001   2.242   1.451   3.698  1.1873 -1.6018  1.6761
 6514SOL    HW231002   2.233   1.318   3.623 -0.4084 -0.6741  0.5907
 6515SOL     OW31003   4.311   2.532   7.349 -0.5928 -0.3231  0.0729
 6515SOL    HW131004   4.325   2.460   7.287  0.9610  0.6989 -0.7440
 6515SOL    HW231005   4.330   2.611   7.299 -1.1463 -0.9687 -1.1712
 6516SOL     OW31006   3.945   4.410   5.470 -0.1945 -0.0232  0.0910
 6516SOL    HW131007   3.973   4.492   5.428  2.5495 -1.6593 -1.2674
 6516SOL    HW231008   3.964   4.341   5.406  3.2104  0.3173  0.7361
 6517SOL     OW31009   2.257   3.127   7.473  0.3322 -0.2332 -0.0758
 6517SOL    HW131010   2.292   3.059   7.531 -1.2777  0.9090  2.2183
 6517SOL    HW231011   2.286   3.101   7.385  1.7755  1.8195 -0.1869
 6518SOL     OW31012   1.448   1.987   6.967  0.1134  0.0132  0.1094
 6518SOL    HW131013   1.532   2.004   6.925 -0.7049  1.2607 -1.0215
 6518SOL    HW231014   1.452   1.896   6.995 -1.9104 -0.3357 -0.7295
 6519SOL     OW31015   1.150   0.293   2.120 -0.6403 -0.8904  0.5721
 6519SOL    HW131016   1.075   0.253   2.076  0.0341 -0.1481 -1.2097
 6519SOL    HW231017   1.221   0.256   2.069 -1.7180 -1.2076 -0.6968
 6520SOL     OW31018   1.119   1.340   3.756 -0.0249  0.0310  0.1192
 6520SOL    HW131019   1.184   1.270   3.752  0.1482  0.0072  3.1273
 6520SOL    HW231020   1.034   1.300   3.739 -0.5278  1.0497  0.2500
 6521SOL     OW31021   4.373   3.079   8.444  0.2831  0.5079  0.1472
 6521SOL    HW131022   4.406   3.079   8.354 -3.7359 -0.9616 -1.2779
 6521SOL    HW231023   4.284   3.046   8.433  0.4023  0.6685 -1.3024
 6522SOL     OW31024   0.581   3.598   9.876  0.3435  0.1087 -0.2654
 6522SOL    HW131025   0.559   3.616   9.967 -0.0167  0.9717 -0.5250
 6522SOL    HW231026   0.607   3.684   9.842 -2.6373 -0.0398 -2.9772
 6523SOL     OW31027   3.135   2.271   7.523  0.1917  0.2166  0.5139
 6523SOL    HW131028   3.199   2.319   7.471  0.6793 -2.4148 -1.3229
 6523SOL    HW231029   3.052   2.268   7.475  0.6269  1.2569 -0.2988
 6524SOL     OW31030   2.878   1.329   6.398 -0.1903 -0.4214  0.1027
 6524SOL    HW131031   2.882   1.295   6.309 -0.8583 -1.2368  0.3847
 6524SOL    HW231032   2.785   1.342   6.417 -0.2805  1.2467 -1.4682
 6525SOL     OW31033   4.338   0.224   8.915 -0.0347 -0.0843  0.0133
 6525SOL    HW131034   4.313   0.294   8.976  0.5754  0.8426 -0.7943
 6525SOL    HW231035   4.254   0.181   8.899  1.3082 -2.5849 -0.3171
 6526SOL     OW31036   3.009   2.813   4.354  0.0832  0.0661  0.4697
 6526SOL    HW131037   3.094   2.797   4.397  0.6278 -1.2647 -1.0900
 6526SOL    HW231038   3.020   2.760   4.275 -0.4613  2.6438 -1.3187
 6527SOL     OW31039   4.611   1.458   7.450  0.4693  0.2594  0.2974
 6527SOL    HW131040   4.702   1.464   7.422  0.0791 -1.2253 -1.2839
 6527SOL    HW231041   4.620   1.389   7.516 -3.0662  0.8614  1.3918
 6528SOL     OW31042   3.791   0.747   4.478 -0.3168  0.4658  0.1323
 6528SOL    HW131043   3.795   0.652   4.485 -0.9961  0.4344  0.0709
 6528SOL    HW231044   3.863   0.772   4.536 -0.7855 -1.7096  1.6384
 6529SOL     OW31045   1.500   2.495   6.835 -0.4202  0.0676 -0.0650
 6529SOL    HW131046   1.554   2.569   6.862 -0.7355  0.3761 -0.2775
 6529SOL    HW231047   1.563   2.434   6.798 -0.6525 -1.2640  1.7179
 6530SOL     OW31048   2.929   1.330   9.218  0.0301  0.6047  0.1123
 6530SOL    HW131049   2.928   1.337   9.313 -0.4551  1.4387  0.0497
 6530SOL    HW231050   2.962   1.241   9.209 -1.6664 -0.0336  0.1214
 6531SOL     OW31051   0.961   1.652   2.592 -0.9349 -0.2643  0.0996
 6531SOL    HW131052   0.920   1.611   2.515  0.7891  1.6615 -1.8573
 6531SOL    HW231053   1.046   1.674   2.553 -0.3541 -1.5068  0.6968
 6532SOL     OW31054   1.277   2.307   8.880  0.3155  0.3924 -0.7752
 6532SOL    HW131055   1.281   2.284   8.788  0.1826  0.0132 -0.6860
 6532SOL    HW231056   1.371   2.291   8.893  0.3545  1.1386 -0.1234
 6533SOL     OW31057   0.933   1.888   3.031  0.4892 -0.2291 -0.2244
 6533SOL    HW131058   0.943   1.839   2.950 -4.7502  0.9422 -1.5426
 6533SOL    HW231059   0.919   1.979   3.006  0.7023 -0.1191  0.0435
 6534SOL     OW31060   2.603   1.073   4.469 -0.0345  0.0995  0.0414
 6534SOL    HW131061   2.525   1.075   4.524  0.6705 -2.5957  1.0957
 6534SOL    HW231062   2.568   1.119   4.393 -2.0522 -1.0560  0.2507
 6535SOL     OW31063   1.319   0.797   7.263  0.0850  0.3240 -0.2641
 6535SOL    HW131064   1.335   0.808   7.169  3.9902 -1.0361  0.2494
 6535SOL    HW231065   1.224   0.804   7.267 -0.0120 -0.0183 -1.9152
 6536SOL     OW31066   3.283   0.797   7.118  0.0442 -0.1590 -0.6334
 6536SOL    HW131067   3.187   0.798   7.119  0.0700  2.2811 -0.4651
 6536SOL    HW231068   3.303   0.878   7.071 -1.1596 -0.5569 -1.8397
 6537SOL     OW31069   0.579   2.593   6.987 -0.1540 -0.5482 -0.4306
 6537SOL    HW131070   0.614   2.509   6.957  1.0763  0.1181 -0.8585
 6537SOL    HW231071   0.644   2.659   6.963  0.8268 -1.0496  0.8652
 6538SOL     OW31072   1.207   0.290   5.395  0.1335  0.3941 -0.3570
 6538SOL    HW131073   1.252   0.220   5.442 -1.1864 -0.4474 -0.3311
 6538SOL    HW231074   1.272   0.310   5.328  0.6324 -0.6027 -0.1827
 6539SOL     OW31075   1.611   0.576  10.092  0.4865 -0.0225 -0.1368
 6539SOL    HW131076   1.574   0.567  10.180 -1.2434  0.5615 -0.8052
 6539SOL    HW231077   1.602   0.488  10.056 -0.3411  0.1600 -0.3721
 6540SOL     OW31078   3.052   0.092   8.676  0.6444 -0.1806 -0.3796
 6540SOL    HW131079   2.997   0.130   8.608  3.1285  1.0198 -1.7166
 6540SOL    HW231080   3.069   0.007   8.636  0.5523 -1.4762  2.3198
 6541SOL     OW31081   1.534   2.835  16.202 -0.2604  0.5604  0.2541
 6541SOL    HW131082   1.525   2.798  16.114 -0.8791  1.3378 -0.0082
 6541SOL    HW231083   1.468   2.903  16.188 -1.1185 -0.0426  1.4233
 6542SOL     OW31084   1.801   2.599  11.173  0.6923  0.1767  0.3654
 6542SOL    HW131085   1.819   2.651  11.252  1.3971  0.9628 -0.3101
 6542SOL    HW231086   1.770   2.674  11.122 -1.7396  1.4287  3.6184
 6543SOL     OW31087   3.266   3.946   6.709  0.0514  0.5793  0.4309
 6543SOL    HW131088   3.362   3.938   6.713 -0.1007 -1.3240  0.3590
 6543SOL    HW231089   3.252   3.902   6.793 -0.4679 -0.0636  0.0060
 6544SOL     OW31090   0.343   4.597  17.612  0.2898 -0.1158  0.2976
 6544SOL    HW131091   0.321   4.512  17.574 -0.5818  1.1404 -1.9823
 6544SOL    HW231092   0.341   4.569   0.019  2.1096 -0.3224  0.2721
 6545SOL     OW31093   3.741   4.536   6.613  0.0275 -0.5600 -0.2798
 6545SOL    HW131094   3.817   4.593   6.624 -0.4068 -0.3171  1.5781
 6545SOL    HW231095   3.776   4.448   6.629 -0.2713 -0.5979  0.1766
 6546SOL     OW31096   2.283   0.508   5.328  0.5122  0.4012 -0.5206
 6546SOL    HW131097   2.200   0.492   5.282  0.9877  4.0538 -2.6587
 6546SOL    HW231098   2.291   0.603   5.321  0.9938  0.3564 -0.5159
 6547SOL     OW31099   3.465   2.517   0.114  0.6554 -0.6122  0.3218
 6547SOL    HW131100   3.423   2.600   0.135  0.1273 -1.0535  0.9928
 6547SOL    HW231101   3.555   2.544   0.131 -0.9133  3.3254  2.3525
 6548SOL     OW31102   3.752   1.033   0.176  0.1539  0.1048 -0.0500
 6548SOL    HW131103   3.712   1.086   0.245 -1.2227 -0.4811 -0.4051
 6548SOL    HW231104   3.841   1.070   0.180 -0.0432  0.6549 -0.6656
 6549SOL     OW31105   4.274   0.328   4.260 -0.0762  0.3854 -0.0815
 6549SOL    HW131106   4.325   0.292   4.187 -0.5684  1.1161 -0.7865
 6549SOL    HW231107   4.187   0.287   4.253  0.5715 -1.1596  0.8242
 6550SOL     OW31108   2.429   0.744   9.739 -0.3816  0.0607  0.1653
 6550SOL    HW131109   2.496   0.706   9.683  0.9011  2.2172  0.2499
 6550SOL    HW231110   2.358   0.680   9.748  0.4316 -0.6232  1.8449
 6551SOL     OW31111   1.106   3.233   9.335 -0.2167 -0.0438 -0.8167
 6551SOL    HW131112   1.095   3.318   9.377 -0.1678  0.1167 -1.1301
 6551SOL    HW231113   1.044   3.186   9.391  0.5392 -0.4169 -0.3014
 6552SOL     OW31114   2.726   2.836   5.567 -0.6125  0.0834 -0.2136
 6552SOL    HW131115   2.721   2.777   5.492  0.7741  1.0973 -1.1007
 6552SOL    HW231116   2.820   2.848   5.583 -0.9194  3.0145 -0.6525
 6553SOL     OW31117   0.995   2.477   2.519  0.3716 -0.1616  0.9375
 6553SOL    HW131118   0.935   2.495   2.447 -0.2016 -1.5489  1.0637
 6553SOL    HW231119   1.034   2.563   2.536  0.9000 -0.2897  0.3368
 6554SOL     OW31120   3.822   3.698   2.477  0.8499 -0.6511  0.3436
 6554SOL    HW131121   3.793   3.610   2.450 -0.5224  0.0675 -0.5586
 6554SOL    HW231122   3.916   3.701   2.458  0.6862 -1.8842 -0.7258
 6555SOL     OW31123   0.892   2.736   7.732 -0.1814 -0.7468 -0.4741
 6555SOL    HW131124   0.986   2.754   7.730 -0.3662  0.3764  0.7673
 6555SOL    HW231125   0.885   2.683   7.811  0.6581 -0.3430 -0.1270
 6556SOL     OW31126   2.540   2.328   2.040  0.5491  0.4124  0.0208
 6556SOL    HW131127   2.537   2.287   2.126 -1.0337 -0.7708 -0.5813
 6556SOL    HW231128   2.591   2.408   2.035  0.0437  0.7109 -0.3857
 6557SOL     OW31129   3.078   1.310   2.076 -0.6128 -0.1979  0.0033
 6557SOL    HW131130   3.088   1.215   2.078  1.1097 -0.0158 -0.2023
 6557SOL    HW231131   3.114   1.333   1.990 -3.6739 -0.0722 -1.2764
 6558SOL     OW31132   3.131   3.585   0.248  0.1179 -0.6811  0.1602
 6558SOL    HW131133   3.157   3.503   0.291  2.2918 -0.3824 -0.5991
 6558SOL    HW231134   3.129   3.640   0.326  1.2534 -0.2749 -0.1018
 6559SOL     OW31135   2.410   1.738   9.356 -0.1539  0.9192  0.3390
 6559SOL    HW131136   2.475   1.807   9.345 -0.2405  0.5073 -2.6733
 6559SOL    HW231137   2.376   1.768   9.440 -0.8812  2.6038 -0.5657
 6560SOL     OW31138   3.955   3.493   5.867 -0.4373 -0.5821  0.6192
 6560SOL    HW131139   3.937   3.556   5.937 -1.7288 -1.9297  1.4919
 6560SOL    HW231140   3.866   3.459   5.867 -0.3236 -0.8602 -1.0109
 6561SOL     OW31141   1.477   0.948   6.038 -0.4358  0.1133  0.6368
 6561SOL    HW131142   1.546   0.909   6.091  0.0268  2.9080  2.1185
 6561SOL    HW231143   1.403   0.898   6.074 -0.9500  0.4383  0.0269
 6562SOL     OW31144   3.762   1.709   3.331  0.8302 -0.3756  0.5962
 6562SOL    HW131145   3.769   1.672   3.419 -0.7632 -2.2392 -0.0732
 6562SOL    HW231146   3.853   1.739   3.320  0.6777  0.6123  1.9786
 6563SOL     OW31147   0.828   2.013  15.188  0.4635  0.6365  0.1154
 6563SOL    HW131148   0.813   1.929  15.143  1.2368  0.4887  0.1332
 6563SOL    HW231149   0.795   2.069  15.118 -1.0807 -0.3301  0.0850
 6564SOL     OW31150   2.461   1.360   5.891  0.3624 -0.0077  0.0898
 6564SOL    HW131151   2.525   1.302   5.931  1.0013  0.7081  0.1059
 6564SOL    HW231152   2.481   1.347   5.798 -0.2066  2.0041 -0.3272
 6565SOL     OW31153   2.976   3.126  12.544  0.1570 -0.0578 -0.2483
 6565SOL    HW131154   2.938   3.039  12.554 -0.2059  0.1592  0.2076
 6565SOL    HW231155   3.005   3.153  12.631 -1.6117 -1.6665  0.8287
 6566SOL     OW31156   1.254   3.891   2.022 -0.9211  0.4173 -0.4707
 6566SOL    HW131157   1.326   3.862   1.966  0.4760  1.1739  0.9193
 6566SOL    HW231158   1.211   3.807   2.036  0.6617 -0.4128 -0.5492
 6567SOL     OW31159   2.892   0.953  17.220  0.1237 -0.0486 -0.6292
 6567SOL    HW131160   2.844   0.896  17.281 -1.3168  1.4309 -0.3655
 6567SOL    HW231161   2.982   0.920  17.224 -0.1487 -0.7073  0.1471
 6568SOL     OW31162   1.796   0.948   2.153  0.6976 -0.3687  0.1640
 6568SOL    HW131163   1.750   0.948   2.237  0.0877 -1.8589 -0.1690
 6568SOL    HW231164   1.820   0.855   2.148  0.6233 -0.4094  0.5241
 6569SOL     OW31165   4.675   4.145   6.996  0.4063 -0.0091 -0.0109
 6569SOL    HW131166   4.711   4.091   6.926 -0.7206 -0.8002  0.0269
 6569SOL    HW231167   0.027   4.208   7.001  0.8690 -0.4296 -1.4183
 6570SOL     OW31168   3.888   0.800   5.408  0.0550  0.9407  0.0436
 6570SOL    HW131169   3.919   0.862   5.474 -0.6158  0.1764  1.0781
 6570SOL    HW231170   3.905   0.720   5.458 -1.4966  0.5295 -0.0782
 6571SOL     OW31171   2.623   1.566  11.914 -0.4118 -0.6237  0.3677
 6571SOL    HW131172   2.582   1.626  11.852 -0.0276  0.8144  1.4976
 6571SOL    HW231173   2.546   1.562  11.972  0.9359 -1.7015  2.0848
 6572SOL     OW31174   1.536   0.103   4.258  0.1388  0.0487  0.0162
 6572SOL    HW131175   1.585   0.025   4.231 -1.3853 -0.9234  0.0706
 6572SOL    HW231176   1.599   0.172   4.241 -0.0978  0.2908  0.1320
 6573SOL     OW31177   1.430   4.321   4.657  0.1275 -0.1332 -0.2837
 6573SOL    HW131178   1.519   4.343   4.682 -0.2363  1.3484 -0.2900
 6573SOL    HW231179   1.391   4.324   4.744 -1.1097  2.8503 -0.9553
 6574SOL     OW31180   4.346   3.064   5.737  0.0919 -0.0790  0.0720
 6574SOL    HW131181   4.266   3.043   5.785 -0.3571  0.3186 -0.5064
 6574SOL    HW231182   4.395   2.988   5.771 -2.0081 -1.2672  0.4217
 6575SOL     OW31183   2.892   1.888   3.211 -0.7302  0.1495  0.2111
 6575SOL    HW131184   2.899   1.978   3.243 -2.2979  0.0854  0.7358
 6575SOL    HW231185   2.972   1.878   3.159 -2.3564  1.6259 -2.5658
 6576SOL     OW31186   2.583   3.285   7.931 -0.3654 -0.3150 -0.2196
 6576SOL    HW131187   2.647   3.355   7.920  1.5726 -2.0140  0.3312
 6576SOL    HW231188   2.516   3.339   7.972  0.4293  1.7658 -1.6607
 6577SOL     OW31189   3.377   1.361   2.566 -0.2988  0.1462  0.0883
 6577SOL    HW131190   3.349   1.269   2.571  2.5914 -0.8235 -1.4791
 6577SOL    HW231191   3.465   1.355   2.605 -0.6243 -0.5933  0.7203
 6578SOL     OW31192   2.705   0.559  11.352 -0.1478 -0.1156 -0.5170
 6578SOL    HW131193   2.672   0.559  11.262 -0.7795 -0.9028 -0.2911
 6578SOL    HW231194   2.651   0.630  11.387  1.1332  0.9688 -0.7631
 6579SOL     OW31195   2.403   4.504   1.838 -0.1642  0.2754 -0.0824
 6579SOL    HW131196   2.335   4.545   1.892 -0.0480  1.6890 -0.9926
 6579SOL    HW231197   2.469   4.573   1.842  1.0535 -0.8796 -0.3949
 6580SOL     OW31198   3.968   2.710   5.529  0.3195 -0.4032  1.0015
 6580SOL    HW131199   3.974   2.673   5.617 -0.7668 -1.3122  0.6851
 6580SOL    HW231200   4.061   2.735   5.528  0.6951 -1.8134 -0.1856
 6581SOL     OW31201   0.667   3.379  13.899 -0.7044  0.6149  0.2593
 6581SOL    HW131202   0.751   3.408  13.934 -0.8840  1.5514 -0.0783
 6581SOL    HW231203   0.612   3.436  13.954  0.1707  1.2603  0.4647
 6582SOL     OW31204   3.442   2.215   2.797  0.3818 -0.0695  0.2193
 6582SOL    HW131205   3.427   2.232   2.890  3.2586 -1.4564  0.9506
 6582SOL    HW231206   3.452   2.120   2.792  3.0039  0.2510 -0.9267
 6583SOL     OW31207   3.591   0.689   2.544  0.0482  0.0827 -0.6268
 6583SOL    HW131208   3.522   0.749   2.517 -2.5839 -1.6686  2.3017
 6583SOL    HW231209   3.535   0.617   2.571  1.0777  0.0455  1.3780
 6584SOL     OW31210   1.889   2.675   0.928 -0.2735 -0.4943 -0.8678
 6584SOL    HW131211   1.932   2.715   1.004 -1.5444 -0.4626 -0.1662
 6584SOL    HW231212   1.890   2.756   0.876 -0.8321  1.3654  2.0214
 6585SOL     OW31213   3.329   3.722  12.490 -0.0561 -0.3691  0.0734
 6585SOL    HW131214   3.329   3.760  12.402  0.8718  1.3922  0.8509
 6585SOL    HW231215   3.362   3.796  12.539  2.0318 -0.9943 -0.3953
 6586SOL     OW31216   2.011   2.152   8.818 -0.3262 -0.0874  0.0740
 6586SOL    HW131217   1.991   2.187   8.731  2.7494  0.4843 -0.4159
 6586SOL    HW231218   2.038   2.231   8.864  1.1919 -0.4796 -0.1246
 6587SOL     OW31219   3.373   2.142   9.132  0.2685  0.1483 -0.3439
 6587SOL    HW131220   3.363   2.061   9.083  1.5139 -0.3195  0.1587
 6587SOL    HW231221   3.293   2.189   9.108  0.6531  1.1765  0.3545
 6588SOL     OW31222   4.648   3.872   1.842  1.1863  0.8906  0.6252
 6588SOL    HW131223   4.568   3.923   1.851  0.9267  0.3874  1.1565
 6588SOL    HW231224   4.714   3.942   1.847 -0.5099  2.5052  0.4094
 6589SOL     OW31225   3.641   3.775  12.586  0.0440 -0.1197  0.2442
 6589SOL    HW131226   3.726   3.733  12.595  0.6014  1.0099  0.3065
 6589SOL    HW231227   3.665   3.834  12.514  1.1680 -0.4800  0.3316
 6590SOL     OW31228   1.084   2.243  14.298  0.1930  0.7611  0.4094
 6590SOL    HW131229   1.018   2.312  14.307  0.1489  0.5752  1.5447
 6590SOL    HW231230   1.031   2.166  14.317  2.6267 -1.3500 -1.5616
 6591SOL     OW31231   3.139   1.043  10.086 -0.5699  0.2637 -0.6981
 6591SOL    HW131232   3.104   0.957  10.110 -1.0936  1.0441  1.2960
 6591SOL    HW231233   3.082   1.101  10.137 -0.6811  1.5081 -2.2255
 6592SOL     OW31234   1.467   4.477   1.098  0.4845  0.2834  0.7504
 6592SOL    HW131235   1.543   4.461   1.042 -1.3032 -1.5556 -1.1300
 6592SOL    HW231236   1.393   4.431   1.058  2.1345 -0.7438 -1.1219
 6593SOL     OW31237   3.144   3.938  17.342  0.1741 -0.0094  0.1354
 6593SOL    HW131238   3.159   3.980  17.426 -0.3721 -1.3737  0.9246
 6593SOL    HW231239   3.188   3.856  17.365 -0.5447 -0.1786  0.8739
 6594SOL     OW31240   0.081   4.201   1.623 -0.2097 -0.3581 -0.8113
 6594SOL    HW131241   0.113   4.241   1.704 -0.7940 -0.8536 -0.3327
 6594SOL    HW231242   0.147   4.135   1.599 -0.4948 -0.6825 -0.7047
 6595SOL     OW31243   1.702   2.009  16.933  0.2774 -0.0073 -0.0124
 6595SOL    HW131244   1.636   1.981  16.869  0.6046 -1.4812  0.2872
 6595SOL    HW231245   1.780   1.975  16.889  0.3314 -2.1580  1.7326
 6596SOL     OW31246   1.598   4.175  14.422 -0.0386  0.7661 -0.1767
 6596SOL    HW131247   1.546   4.118  14.366  2.7833  0.0211 -2.0061
 6596SOL    HW231248   1.573   4.262  14.391  0.3426  0.3475 -1.6157
 6597SOL     OW31249   0.455   2.614   8.126 -0.3600  0.0585  0.0430
 6597SOL    HW131250   0.444   2.526   8.163 -0.2064 -0.3253 -0.8438
 6597SOL    HW231251   0.411   2.668   8.192  0.7319  1.4193 -0.3716
 6598SOL     OW31252   3.639   3.230   7.563  0.1315  0.3485 -0.6478
 6598SOL    HW131253   3.647   3.166   7.634  0.9673 -1.8784 -2.7242
 6598SOL    HW231254   3.576   3.297   7.589 -0.4741 -0.2708 -0.5107
 6599SOL     OW31255   4.634   2.256   6.431 -0.5277  0.8082 -0.2338
 6599SOL    HW131256   4.672   2.206   6.359  1.0595  1.1529  0.3746
 6599SOL    HW231257   4.712   2.282   6.479 -0.5772 -1.7732  1.2359
 6600SOL     OW31258   4.699   4.396   4.060  0.2932 -0.3431 -0.2301
 6600SOL    HW131259   4.712   4.337   3.986  0.0146  0.6153 -1.0466
 6600SOL    HW231260   4.678   4.477   4.012 -1.3400 -0.1095  0.8828
 6601SOL     OW31261   2.013   0.060   2.912  0.1920  0.4015 -0.2942
 6601SOL    HW131262   1.959   0.137   2.929  0.6584  0.7141 -0.2260
 6601SOL    HW231263   1.996   0.037   2.821 -0.0701  0.0545 -0.1582
 6602SOL     OW31264   4.681   1.694   3.844 -0.3624  0.4705  0.1027
 6602SOL    HW131265   0.033   1.718   3.902  0.0903 -0.2129 -0.1791
 6602SOL    HW231266   4.626   1.650   3.908 -0.4413 -0.2419 -0.4500
 6603SOL     OW31267   1.868   4.356   3.967 -0.1272 -0.2300  0.3473
 6603SOL    HW131268   1.779   4.329   3.944 -0.0664 -0.6659  0.6250
 6603SOL    HW231269   1.844   4.436   4.014  4.1466  0.0565  2.0826
 6604SOL     OW31270   1.826   2.057  15.925  0.4811  0.4805 -0.2365
 6604SOL    HW131271   1.822   2.026  16.016 -0.9130 -1.7577 -1.0531
 6604SOL    HW231272   1.916   2.045  15.895  0.8017 -2.1079  1.7919
 6605SOL     OW31273   3.873   2.355   6.970 -0.0108 -0.4408  0.5226
 6605SOL    HW131274   3.782   2.332   6.992  0.2590  0.0096  2.1012
 6605SOL    HW231275   3.859   2.413   6.896  0.7573 -3.6103 -2.1194
 6606SOL     OW31276   4.107   3.205   2.925 -0.4562 -0.1899  0.3182
 6606SOL    HW131277   4.050   3.283   2.926 -0.8347 -0.3983 -2.9467
 6606SOL    HW231278   4.167   3.233   2.856 -0.6365  0.8160  0.5622
 6607SOL     OW31279   3.189   1.796  13.946  0.7071 -0.0689 -0.2735
 6607SOL    HW131280   3.277   1.833  13.945  0.7943 -0.2520  0.2728
 6607SOL    HW231281   3.190   1.737  14.022  0.1169  0.0626 -0.1649
 6608SOL     OW31282   1.274   2.219  11.247 -0.2662 -0.0107 -0.1466
 6608SOL    HW131283   1.336   2.253  11.312 -0.6531 -1.4302  0.9628
 6608SOL    HW231284   1.199   2.250  11.297 -0.6265  0.6932 -1.1201
 6609SOL     OW31285   2.204   3.773  14.477 -0.5155  0.4446  0.5976
 6609SOL    HW131286   2.138   3.837  14.506  0.3570 -0.2412  4.1818
 6609SOL    HW231287   2.189   3.703  14.541  2.9566  0.7141  1.7032
 6610SOL     OW31288   3.130   0.568   9.890 -0.3254 -0.0951 -0.0852
 6610SOL    HW131289   3.056   0.624   9.867  0.4828  0.1540 -2.1093
 6610SOL    HW231290   3.114   0.550   9.983 -1.0050  2.3676  0.2822
 6611SOL     OW31291   0.959   3.094   3.730  0.5330  0.2791  0.3545
 6611SOL    HW131292   1.028   3.101   3.663  2.4557 -1.7649  2.1080
 6611SOL    HW231293   0.943   2.999   3.734  0.2971  0.2962 -0.1571
 6612SOL     OW31294   1.221   0.816   7.678 -0.4082 -0.0385 -0.6333
 6612SOL    HW131295   1.157   0.887   7.681 -0.9563 -0.5121 -1.1171
 6612SOL    HW231296   1.170   0.736   7.664 -0.3828  0.1040 -1.5683
 6613SOL     OW31297   1.411   3.836  13.098  0.6790  0.4336  0.2930
 6613SOL    HW131298   1.334   3.782  13.081  1.4758 -1.0392  1.3579
 6613SOL    HW231299   1.445   3.798  13.180  0.9910 -0.2614 -0.1562
 6614SOL     OW31300   1.784   3.504   9.065 -0.6272 -0.1493  0.2235
 6614SOL    HW131301   1.748   3.486   9.152 -2.5200  4.8631  0.5074
 6614SOL    HW231302   1.745   3.438   9.007 -2.1905 -0.5929  1.7784
 6615SOL     OW31303   1.959   3.305   7.701  0.2208  0.3931 -0.2038
 6615SOL    HW131304   1.971   3.277   7.611 -0.7123  0.6070 -0.4012
 6615SOL    HW231305   1.902   3.381   7.690  0.9307  0.7994 -1.0571
 6616SOL     OW31306   2.778   3.784   8.623 -0.2958  0.3034 -0.1095
 6616SOL    HW131307   2.789   3.703   8.573 -3.3678 -0.5879  0.6386
 6616SOL    HW231308   2.736   3.836   8.555  0.1872  1.0482  0.1639
 6617SOL     OW31309   0.352   0.537   2.719 -0.4497 -0.1988  0.0726
 6617SOL    HW131310   0.311   0.608   2.769 -0.8053 -0.9021  0.7760
 6617SOL    HW231311   0.299   0.469   2.760 -2.0183  1.5581  0.9338
 6618SOL     OW31312   0.108   3.148   4.645  0.4320  0.5846 -0.2277
 6618SOL    HW131313   0.071   3.138   4.732 -1.5733  2.7764 -0.8192
 6618SOL    HW231314   0.073   3.071   4.601  1.1696 -0.7566  1.5823
 6619SOL     OW31315   2.869   4.400   3.451 -0.0305 -0.4231  0.0769
 6619SOL    HW131316   2.944   4.408   3.511 -0.7303  0.0800  0.8897
 6619SOL    HW231317   2.825   4.485   3.452 -2.8196 -1.8531  0.3021
 6620SOL     OW31318   1.864   2.074  14.760  0.0266 -0.2192 -0.0732
 6620SOL    HW131319   1.779   2.078  14.803  0.7035  2.1256  1.0641
 6620SOL    HW231320   1.832   2.080  14.670 -3.9848 -1.5702  1.2865
 6621SOL     OW31321   3.852   4.638   3.001  0.0432 -0.1315 -0.2224
 6621SOL    HW131322   3.836   4.708   2.938  0.1729  0.9602  0.9595
 6621SOL    HW231323   3.817   4.563   2.952  0.1891 -0.4907  0.2209
 6622SOL     OW31324   2.708   3.497   6.451  0.8844  0.6870  0.0042
 6622SOL    HW131325   2.653   3.465   6.522 -2.1551  0.8454 -2.2764
 6622SOL    HW231326   2.730   3.582   6.489  1.6790  1.2521 -1.7331
 6623SOL     OW31327   2.159   1.926   6.718 -0.1166 -0.0065  0.0371
 6623SOL    HW131328   2.132   1.890   6.803  0.1485 -2.3032 -0.8406
 6623SOL    HW231329   2.247   1.946   6.748 -0.6010  0.6892  0.9856
 6624SOL     OW31330   2.095   1.741  11.430 -0.0369  0.0085  0.3294
 6624SOL    HW131331   2.127   1.702  11.349 -0.2686  1.6705 -0.5660
 6624SOL    HW231332   2.172   1.795  11.448 -0.3609  0.7171 -0.4050
 6625SOL     OW31333   0.167   4.289  14.340  0.4983 -0.3867  0.5367
 6625SOL    HW131334   0.093   4.288  14.280  1.5603  0.7279 -0.7998
 6625SOL    HW231335   0.129   4.235  14.409  1.6205 -1.6079  0.2049
 6626SOL     OW31336   0.899   1.221   4.286 -0.9110  0.1434 -0.8555
 6626SOL    HW131337   0.979   1.274   4.292  0.1491 -1.5078 -0.5153
 6626SOL    HW231338   0.844   1.274   4.228 -1.8728  2.0344  1.7638
 6627SOL     OW31339   2.373   1.498   3.403 -0.0205  0.3798 -0.2464
 6627SOL    HW131340   2.373   1.521   3.311  0.7484  1.9323  0.1461
 6627SOL    HW231341   2.462   1.517   3.430 -0.5926 -0.8390  2.5705
 6628SOL     OW31342   3.858   0.634  10.633 -0.5224 -0.5670 -0.1040
 6628SOL    HW131343   3.946   0.652  10.666 -0.2297 -2.6425  0.2829
 6628SOL    HW231344   3.822   0.722  10.622  0.1299 -0.2049  0.6776
 6629SOL     OW31345   3.279   1.582   2.985  0.2391 -0.7229  0.7753
 6629SOL    HW131346   3.338   1.584   2.910 -2.1242  1.0157 -1.0888
 6629SOL    HW231347   3.273   1.674   3.011 -0.8748 -0.8850  1.0922
 6630SOL     OW31348   0.344   0.190   3.104 -0.0034 -0.1154 -0.1191
 6630SOL    HW131349   0.315   0.150   3.022  1.2375  1.8524 -1.5321
 6630SOL    HW231350   0.366   0.116   3.161 -0.3699  0.1913  0.4236
 6631SOL     OW31351   1.705   1.574   9.127 -0.1294  0.0354 -0.5791
 6631SOL    HW131352   1.764   1.638   9.166  1.6597 -2.2752  0.4983
 6631SOL    HW231353   1.625   1.593   9.174  1.2365  0.1876  1.6708
 6632SOL     OW31354   1.933   3.534  13.659 -0.3153  0.0337  0.0989
 6632SOL    HW131355   1.941   3.615  13.708 -2.1299  0.2260  0.0460
 6632SOL    HW231356   1.863   3.489  13.706 -0.4888  1.0089  0.7533
 6633SOL     OW31357   3.919   2.561   4.488 -0.2604  0.2186 -0.0564
 6633SOL    HW131358   4.014   2.552   4.499  0.0450  1.5888 -1.4324
 6633SOL    HW231359   3.898   2.501   4.417  0.0453  1.4262 -1.1859
 6634SOL     OW31360   3.358   0.332  17.615 -0.0346 -0.7072  0.0677
 6634SOL    HW131361   3.396   0.246  17.596 -0.3502 -0.9218  0.4281
 6634SOL    HW231362   3.321   0.352  17.528  2.0535 -1.7124 -1.0543
 6635SOL     OW31363   1.489   3.753   4.155 -0.0412 -0.4378  0.3283
 6635SOL    HW131364   1.559   3.811   4.186  0.3783 -0.6059 -0.2925
 6635SOL    HW231365   1.492   3.686   4.223 -1.4616 -1.2672 -0.4436
 6636SOL     OW31366   2.969   1.194   0.468 -0.1005 -0.2156 -0.1413
 6636SOL    HW131367   2.902   1.219   0.532  0.8740  0.0263  0.7898
 6636SOL    HW231368   2.993   1.281   0.436 -0.7717 -0.8535 -2.4023
 6637SOL     OW31369   1.476   1.663   9.615 -0.2808  0.1164 -0.0658
 6637SOL    HW131370   1.541   1.599   9.643 -2.5916 -0.6184  3.5480
 6637SOL    HW231371   1.414   1.650   9.686 -0.0707 -0.7591 -0.0396
 6638SOL     OW31372   3.579   4.062   9.151  0.0498 -0.4965 -0.0639
 6638SOL    HW131373   3.643   4.132   9.141  1.3499 -1.3351  2.3060
 6638SOL    HW231374   3.515   4.111   9.100 -0.6709 -1.9382 -0.5452
 6639SOL     OW31375   2.570   3.381  14.531  0.2106  0.6141 -0.3191
 6639SOL    HW131376   2.490   3.409  14.575  0.4244  0.2477  0.3150
 6639SOL    HW231377   2.544   3.350  14.444 -1.5423  2.7680 -0.5407
 6640SOL     OW31378   4.709   1.357  12.519 -0.2847 -0.4433 -0.3282
 6640SOL    HW131379   4.654   1.428  12.552 -0.4947 -0.9619  0.4330
 6640SOL    HW231380   4.643   1.288  12.522 -1.4117  0.6697  0.7004
 6641SOL     OW31381   0.964   1.693   5.512 -0.5650  0.1223 -0.4496
 6641SOL    HW131382   0.996   1.604   5.525 -0.6982 -0.0390 -1.2066
 6641SOL    HW231383   1.030   1.724   5.449 -1.0615  0.9217 -0.5743
 6642SOL     OW31384   4.643   4.696   6.006  0.3740  0.6327 -0.3294
 6642SOL    HW131385   4.578   0.046   5.998 -0.3506  0.0469  0.3692
 6642SOL    HW231386   4.644   4.676   6.100  1.7930  1.6396 -0.1378
 6643SOL     OW31387   1.895   3.053   4.382  0.2149  0.1373 -0.1569
 6643SOL    HW131388   1.848   3.074   4.462  0.7344 -0.1927  0.2356
 6643SOL    HW231389   1.985   3.031   4.406 -0.5581 -5.1375 -1.9092
 6644SOL     OW31390   4.097   2.996  10.498  0.0997 -0.1824  0.2795
 6644SOL    HW131391   4.122   3.082  10.465  0.9712 -0.7698 -0.5930
 6644SOL    HW231392   4.181   2.951  10.485 -0.6652 -1.3252 -0.7106
 6645SOL     OW31393   0.871   4.688   3.769  0.1934 -0.0409 -0.6427
 6645SOL    HW131394   0.896   0.044   3.820  1.5850 -1.0404  0.1627
 6645SOL    HW231395   0.780   4.709   3.748  0.3866 -0.2218 -1.6637
 6646SOL     OW31396   0.483   2.799   9.361  0.1626 -0.4941 -0.1232
 6646SOL    HW131397   0.551   2.732   9.365  0.3482 -0.2104  1.5251
 6646SOL    HW231398   0.526   2.881   9.387 -1.4387  0.7884 -1.5060
 6647SOL     OW31399   1.612   3.260   2.780 -0.4721  0.5673  0.2282
 6647SOL    HW131400   1.579   3.349   2.770  0.1479  1.0717  2.6371
 6647SOL    HW231401   1.703   3.289   2.789 -0.7289  1.4110  0.1295
 6648SOL     OW31402   1.123   2.122   6.961 -0.1139  0.3840  0.4205
 6648SOL    HW131403   1.099   2.214   6.956 -0.4471  0.3846  2.1085
 6648SOL    HW231404   1.061   2.090   7.026 -0.0799  3.0827  1.7723
 6649SOL     OW31405   0.120   1.964   8.271 -0.0884 -0.0648 -0.7504
 6649SOL    HW131406   0.172   2.043   8.260  1.7621 -1.1382  0.2321
 6649SOL    HW231407   0.191   1.904   8.248 -0.4592 -1.6529  2.3145
 6650SOL     OW31408   3.628   1.380   1.602 -0.7454  0.1299  0.0707
 6650SOL    HW131409   3.575   1.446   1.558  0.9492  0.7039 -1.0848
 6650SOL    HW231410   3.603   1.379   1.694 -0.5432 -1.1790  0.1204
 6651SOL     OW31411   0.180   2.985   7.590 -0.4449  0.0010  0.4556
 6651SOL    HW131412   0.191   2.897   7.554  2.1058  0.7619 -0.6109
 6651SOL    HW231413   0.142   2.975   7.678 -0.9263  0.6841  0.3211
 6652SOL     OW31414   2.455   2.382   8.482  0.1730  0.4526 -0.1304
 6652SOL    HW131415   2.429   2.326   8.556  0.8122 -1.5391 -1.4077
 6652SOL    HW231416   2.369   2.405   8.447 -0.2294 -1.7970 -0.6023
 6653SOL     OW31417   2.742   0.880   2.571  0.5328 -0.4705  0.1910
 6653SOL    HW131418   2.804   0.878   2.498  0.1601  0.8546 -0.1590
 6653SOL    HW231419   2.789   0.940   2.630 -0.3890 -1.0833  1.5220
 6654SOL     OW31420   0.271   4.307   2.120  0.7851 -0.1219  0.0832
 6654SOL    HW131421   0.362   4.335   2.125  0.9484 -0.5226 -0.7607
 6654SOL    HW231422   0.238   4.385   2.164 -1.0328 -1.8315  1.7493
 6655SOL     OW31423   0.631   2.987   9.441 -0.6588  0.2430 -0.0188
 6655SOL    HW131424   0.684   3.041   9.384  1.7916 -0.9537  1.1304
 6655SOL    HW231425   0.695   2.966   9.510 -0.4009  1.6437  0.1511
 6656SOL     OW31426   1.926   2.939   3.372  0.4725 -0.2685 -0.2178
 6656SOL    HW131427   1.990   2.972   3.309 -0.8961 -0.9261 -1.9358
 6656SOL    HW231428   1.958   2.971   3.457 -2.4762 -2.4240  1.7113
 6657SOL     OW31429   3.479   0.118   3.535 -0.0340  0.2469  0.1740
 6657SOL    HW131430   3.392   0.139   3.570  1.2467  2.0527  2.2106
 6657SOL    HW231431   3.494   0.024   3.545 -0.5466  0.4405  2.6825
 6658SOL     OW31432   0.462   0.942   2.834 -0.0536 -0.3703  0.2244
 6658SOL    HW131433   0.516   0.937   2.754 -0.0883 -0.8941  0.2374
 6658SOL    HW231434   0.498   1.018   2.880 -0.0104 -1.1388  1.4701
 6659SOL     OW31435   0.212   2.331   5.621  0.0819 -0.6939  0.0548
 6659SOL    HW131436   0.176   2.245   5.642 -2.0660  0.3063  0.4437
 6659SOL    HW231437   0.262   2.307   5.543 -0.0041 -1.7866  0.3483
 6660SOL     OW31438   1.704   4.004   5.799 -0.3825  0.2761 -0.8835
 6660SOL    HW131439   1.757   4.061   5.856 -1.9948 -1.6205  2.5007
 6660SOL    HW231440   1.719   3.917   5.835 -0.8923  0.3053 -0.6003
 6661SOL     OW31441   2.196   4.099   1.666  0.4105  0.1091  0.3541
 6661SOL    HW131442   2.192   4.129   1.575 -2.4961 -0.4543  0.3022
 6661SOL    HW231443   2.177   4.182   1.709  0.6197  0.1015  0.4584
 6662SOL     OW31444   4.133   2.347  16.338 -0.9619 -0.0285 -0.1499
 6662SOL    HW131445   4.118   2.391  16.255 -1.0624 -0.8810 -0.5890
 6662SOL    HW231446   4.161   2.421  16.392 -0.5824  0.2143 -0.6835
 6663SOL     OW31447   2.541   4.589   2.633 -0.5889 -0.1950  0.1734
 6663SOL    HW131448   2.581   4.636   2.706  1.6702  1.1840 -1.9196
 6663SOL    HW231449   2.613   4.606   2.572 -0.2783  2.8773  1.3900
 6664SOL     OW31450   0.452   0.512   3.671  0.1641 -0.8869 -0.1063
 6664SOL    HW131451   0.387   0.562   3.720  1.5530 -0.5762  1.4406
 6664SOL    HW231452   0.474   0.439   3.729  0.4086  0.1103  1.0511
 6665SOL     OW31453   1.677   0.089  14.722  0.0371  0.0498  0.2277
 6665SOL    HW131454   1.688   0.105  14.816  0.9823  0.7181  0.0067
 6665SOL    HW231455   1.585   0.107  14.704 -0.1359 -1.5294 -0.4367
 6666SOL     OW31456   4.323   4.546  12.643 -0.4774  0.2429  1.0339
 6666SOL    HW131457   4.397   4.582  12.594 -1.3336  0.8843  0.2125
 6666SOL    HW231458   4.272   4.624  12.666  0.5074  1.7062 -1.8154
 6667SOL     OW31459   1.726   3.464   9.519 -0.2690  0.2233 -0.0681
 6667SOL    HW131460   1.659   3.517   9.474  0.2038  1.7419  1.0056
 6667SOL    HW231461   1.711   3.381   9.473  0.1016 -0.2835  0.7398
 6668SOL     OW31462   0.512   1.318   3.347 -0.3465 -0.1400  0.7867
 6668SOL    HW131463   0.538   1.395   3.396  1.4863  0.2977 -0.8819
 6668SOL    HW231464   0.594   1.270   3.354 -1.1637 -1.6333  0.1668
 6669SOL     OW31465   1.046   2.750   5.264  0.2999 -0.6456 -0.1072
 6669SOL    HW131466   1.049   2.781   5.174 -1.4862  1.9839  0.7270
 6669SOL    HW231467   0.992   2.814   5.311 -0.5177  1.1882 -3.4960
 6670SOL     OW31468   4.217   1.947  14.963  0.3233  0.1226 -0.4510
 6670SOL    HW131469   4.245   1.990  15.044 -0.4137  0.0038 -0.1345
 6670SOL    HW231470   4.138   1.991  14.932 -0.4301 -0.7333  0.2395
 6671SOL     OW31471   4.686   4.662   8.889 -0.1648  0.0596 -0.1594
 6671SOL    HW131472   4.661   4.637   8.978 -2.2839  0.0783 -0.7387
 6671SOL    HW231473   0.029   0.008   8.916 -1.5766  0.6165  1.8252
 6672SOL     OW31474   2.154   4.412  17.228  0.1398  0.2232 -0.5381
 6672SOL    HW131475   2.223   4.450  17.282  0.7535  0.5315 -1.5401
 6672SOL    HW231476   2.149   4.328  17.274  0.5522 -0.0409 -0.9707
 6673SOL     OW31477   0.555   1.816  10.434  0.3915 -0.0540 -0.4823
 6673SOL    HW131478   0.547   1.834  10.340  1.8395  1.6300 -0.2782
 6673SOL    HW231479   0.613   1.883  10.470 -2.2697  0.6461  2.4779
 6674SOL     OW31480   1.108   1.962   1.393  0.5321  0.0262  0.6613
 6674SOL    HW131481   1.061   2.006   1.322  1.1228  3.0449  2.1539
 6674SOL    HW231482   1.152   1.894   1.341  0.4812  1.1097 -0.8094
 6675SOL     OW31483   0.062   1.833   5.653  0.2818 -0.1502  0.2725
 6675SOL    HW131484   0.096   1.790   5.731  1.0702  0.2465  0.1454
 6675SOL    HW231485   0.125   1.802   5.588  0.0225 -1.0092  0.4250
 6676SOL     OW31486   2.876   2.903   2.232  0.1104  0.3119  0.4341
 6676SOL    HW131487   2.965   2.887   2.203 -0.1189  1.2038 -0.7711
 6676SOL    HW231488   2.888   2.992   2.266  3.5696 -0.3461  0.9125
 6677SOL     OW31489   0.046   3.565   8.986 -0.2922 -0.0494  0.3281
 6677SOL    HW131490   0.103   3.501   9.028 -0.0744 -0.6309 -0.8442
 6677SOL    HW231491   0.098   3.575   8.906 -0.3416 -1.3449  0.1265
 6678SOL     OW31492   2.066   2.487   1.235  0.2928 -0.1499  0.2706
 6678SOL    HW131493   2.018   2.414   1.196  2.0307 -1.1941  0.0834
 6678SOL    HW231494   2.136   2.442   1.282  0.2749 -1.6044 -1.0832
 6679SOL     OW31495   0.189   1.484  12.296 -0.5040  0.1872  0.9409
 6679SOL    HW131496   0.106   1.453  12.259  0.4657  0.0659 -1.1463
 6679SOL    HW231497   0.205   1.562  12.243 -1.0919 -0.3009  0.0314
 6680SOL     OW31498   1.711   3.669   5.770 -0.1599  0.4990 -0.3691
 6680SOL    HW131499   1.778   3.611   5.807  0.8219  0.0885 -2.7496
 6680SOL    HW231500   1.665   3.702   5.847 -0.3091 -1.3978  0.3574
 6681SOL     OW31501   1.847   3.460   3.150 -0.6369 -0.0273 -1.3317
 6681SOL    HW131502   1.774   3.458   3.088  0.0321  4.5655 -2.1940
 6681SOL    HW231503   1.914   3.418   3.095  1.4462  2.0089 -0.3324
 6682SOL     OW31504   3.091   3.394   4.523 -0.1210 -0.8235 -0.2136
 6682SOL    HW131505   3.179   3.395   4.561 -2.2428 -1.4764  4.5862
 6682SOL    HW231506   3.052   3.330   4.582  1.9869 -2.8863 -1.0443
 6683SOL     OW31507   3.734   0.829   1.916  0.6081 -0.4379  0.0363
 6683SOL    HW131508   3.809   0.809   1.860 -0.3353  0.2574 -1.4899
 6683SOL    HW231509   3.774   0.866   1.995  0.9296 -1.6206  0.4279
 6684SOL     OW31510   3.580   2.182  11.037  0.1540 -0.0433 -0.1636
 6684SOL    HW131511   3.636   2.218  10.968  0.4707 -1.2208 -0.5178
 6684SOL    HW231512   3.629   2.100  11.046 -3.4714 -2.1866 -0.3049
 6685SOL     OW31513   0.042   4.160   4.565  0.0716  0.1826 -0.2542
 6685SOL    HW131514   0.095   4.082   4.579 -1.6127 -1.2439 -1.8265
 6685SOL    HW231515   0.101   4.223   4.523  1.4042 -0.2865  0.8916
 6686SOL     OW31516   0.295   1.192   5.367  0.0017  0.2728  0.3159
 6686SOL    HW131517   0.370   1.248   5.387 -1.2310  1.1058  2.5589
 6686SOL    HW231518   0.227   1.258   5.350 -0.4600 -0.2036  0.3058
 6687SOL     OW31519   2.418   2.426   2.446  0.1607  0.2873 -0.2305
 6687SOL    HW131520   2.354   2.498   2.441 -1.8582 -1.4428  0.5890
 6687SOL    HW231521   2.490   2.477   2.409 -0.7360 -0.2326 -2.6737
 6688SOL     OW31522   3.532   1.874   5.425  0.4292  0.1390  0.1557
 6688SOL    HW131523   3.553   1.851   5.516  0.1974 -1.4512 -0.1835
 6688SOL    HW231524   3.565   1.964   5.424 -0.1148  0.3224 -1.2321
 6689SOL     OW31525   0.217   1.167   3.459  0.5524 -0.4942 -0.0688
 6689SOL    HW131526   0.247   1.221   3.533 -2.3633 -0.2867  0.9678
 6689SOL    HW231527   0.303   1.126   3.452  1.9758  2.4094 -0.0294
 6690SOL     OW31528   0.849   1.945   4.653  0.5512 -0.0721  0.4145
 6690SOL    HW131529   0.887   2.032   4.648 -1.1276  0.5488 -1.4521
 6690SOL    HW231530   0.756   1.969   4.647  1.0600  1.5576 -0.7234
 6691SOL     OW31531   1.858   3.470   4.452 -0.2545  0.4417  0.2058
 6691SOL    HW131532   1.909   3.436   4.526  0.1224  0.6671  0.0488
 6691SOL    HW231533   1.782   3.413   4.453 -1.5429  2.1196 -1.7325
 6692SOL     OW31534   3.914   4.506  12.047  0.1607 -0.0034  0.2885
 6692SOL    HW131535   3.898   4.591  12.007 -1.8816 -0.0392  1.0453
 6692SOL    HW231536   3.849   4.506  12.118  0.2779  0.1681  0.3979
 6693SOL     OW31537   2.628   0.425   3.269  0.3892 -0.2680 -0.2399
 6693SOL    HW131538   2.646   0.428   3.363  0.2155 -0.8514 -0.1870
 6693SOL    HW231539   2.622   0.518   3.249 -0.9800  0.0634  1.6461
 6694SOL     OW31540   3.053   3.754   4.685 -0.3094  0.2384  0.2475
 6694SOL    HW131541   3.094   3.692   4.746 -2.0793 -0.3887  0.8006
 6694SOL    HW231542   3.124   3.777   4.624 -1.0937  0.6240 -0.5162
 6695SOL     OW31543   3.804   1.214  10.691  0.0065 -0.0753 -0.1903
 6695SOL    HW131544   3.729   1.201  10.632  0.0075  3.1698 -0.9175
 6695SOL    HW231545   3.879   1.168  10.655 -0.6601 -2.1942  1.0881
 6696SOL     OW31546   3.647   1.769   6.114  0.1228 -0.1815 -0.6448
 6696SOL    HW131547   3.605   1.758   6.199  1.2908 -0.7172 -0.1254
 6696SOL    HW231548   3.602   1.706   6.058  0.6845 -1.8467  0.7770
 6697SOL     OW31549   1.318   4.270  12.657  0.3685  0.6287  0.1798
 6697SOL    HW131550   1.340   4.230  12.741  1.0347  1.3222  0.3381
 6697SOL    HW231551   1.398   4.316  12.631  1.1257  0.8663  2.9489
 6698SOL     OW31552   3.299   4.039   1.385 -0.1837  0.6431  0.0972
 6698SOL    HW131553   3.227   4.011   1.329 -1.0099  0.4277  1.2554
 6698SOL    HW231554   3.276   3.985   1.461  2.1936 -0.4273  0.0546
 6699SOL     OW31555   1.203   3.998   8.801  0.0219  0.1024 -0.1603
 6699SOL    HW131556   1.230   3.936   8.869  0.6548  1.2522  0.6425
 6699SOL    HW231557   1.172   4.066   8.861 -0.1255 -2.6997  2.9431
 6700SOL     OW31558   2.652   4.027   4.965 -1.0998 -0.1493  0.3068
 6700SOL    HW131559   2.719   3.967   4.931 -1.3185 -0.3352  0.2043
 6700SOL    HW231560   2.659   4.098   4.902 -1.8561  3.0815  3.8921
 6701SOL     OW31561   1.297   4.364   1.387 -0.1883 -0.0114 -0.7841
 6701SOL    HW131562   1.209   4.402   1.394 -0.7987 -1.5776  0.0467
 6701SOL    HW231563   1.342   4.436   1.343  1.0912  1.5513  3.0919
 6702SOL     OW31564   0.166   3.551   8.720 -0.1332 -0.0902 -0.5492
 6702SOL    HW131565   0.135   3.603   8.646  0.7406  0.4093 -0.5634
 6702SOL    HW231566   0.228   3.616   8.752 -0.6945  0.9292 -1.5881
 6703SOL     OW31567   4.314   4.685  17.141 -0.2177  0.2380 -0.4551
 6703SOL    HW131568   4.375   0.031  17.171  0.2487  0.7985 -2.6477
 6703SOL    HW231569   4.337   4.674  17.049  1.0233  2.4724 -0.4052
 6704SOL     OW31570   0.958   3.990   1.680 -0.1244 -0.3601  0.0444
 6704SOL    HW131571   1.047   3.968   1.654  0.0663 -0.7264  0.9786
 6704SOL    HW231572   0.950   3.962   1.772 -1.5028 -0.0776  0.0165
 6705SOL     OW31573   1.513   3.663   3.365 -0.1324  0.2109  0.2996
 6705SOL    HW131574   1.428   3.699   3.342 -0.2127  0.6095  1.2274
 6705SOL    HW231575   1.480   3.586   3.411 -1.5373 -0.2841 -1.5615
 6706SOL     OW31576   0.952   4.131  10.577 -0.2587  0.1477  0.1192
 6706SOL    HW131577   1.010   4.124  10.653 -2.0507 -0.7794  1.3930
 6706SOL    HW231578   0.875   4.175  10.612  0.1139 -0.5112  1.7552
 6707SOL     OW31579   1.468   2.652   3.222 -0.3981 -0.2174 -0.4017
 6707SOL    HW131580   1.394   2.665   3.163  0.4865 -2.1801 -1.9650
 6707SOL    HW231581   1.541   2.630   3.163  0.4961 -0.1080  0.6655
 6708SOL     OW31582   1.983   4.568   9.155  0.6422  0.1008 -0.6333
 6708SOL    HW131583   1.981   4.521   9.072  1.2043 -1.3667  0.1915
 6708SOL    HW231584   1.889   4.589   9.159  0.8461  0.8688  0.0863
 6709SOL     OW31585   3.119   0.695  11.419  0.6576 -0.5263  0.2367
 6709SOL    HW131586   3.192   0.750  11.389 -0.2910  0.4081 -0.3792
 6709SOL    HW231587   3.155   0.609  11.398  0.9564 -0.0164 -1.3360
 6710SOL     OW31588   0.450   3.626  15.247 -0.2297  0.1469  0.3331
 6710SOL    HW131589   0.509   3.699  15.227  1.5175 -1.3632 -0.0546
 6710SOL    HW231590   0.485   3.589  15.328  0.0914  0.9484  0.5586
 6711SOL     OW31591   3.184   2.422   7.048 -0.0591 -0.1184  0.0031
 6711SOL    HW131592   3.244   2.496   7.061  0.7559 -0.9885  1.2347
 6711SOL    HW231593   3.149   2.404   7.135 -0.4846 -1.2417 -0.4009
 6712SOL     OW31594   3.539   2.513   7.021  0.3465  0.1337 -0.0430
 6712SOL    HW131595   3.530   2.573   6.948  1.4284 -1.2303 -1.2979
 6712SOL    HW231596   3.466   2.541   7.077 -0.3890  0.0165 -0.9550
 6713SOL     OW31597   4.090   3.023  11.261  0.2889  0.5738 -0.1924
 6713SOL    HW131598   4.178   3.034  11.298 -1.0694  1.7047  2.6902
 6713SOL    HW231599   4.058   3.110  11.284  1.6113  0.7987  0.8339
 6714SOL     OW31600   4.114   4.221   3.409 -0.2669 -0.0102 -0.1190
 6714SOL    HW131601   4.053   4.188   3.344  1.2510 -2.0327 -0.4920
 6714SOL    HW231602   4.146   4.142   3.452 -0.2358 -0.0475 -0.2123
 6715SOL     OW31603   2.221   0.410   4.171  0.0846  0.7551 -0.7179
 6715SOL    HW131604   2.166   0.474   4.217  0.3412  0.4899 -0.0415
 6715SOL    HW231605   2.311   0.442   4.173  0.5403 -0.4784 -1.7717
 6716SOL     OW31606   2.348   2.823   9.540 -0.2231  0.3808 -0.2744
 6716SOL    HW131607   2.369   2.892   9.603  0.1860 -0.7967  0.8897
 6716SOL    HW231608   2.392   2.746   9.577 -1.5404 -1.1885 -1.9610
 6717SOL     OW31609   3.306   2.718   2.576  0.4475 -0.1800  0.0846
 6717SOL    HW131610   3.371   2.776   2.537  0.5837 -1.6336 -1.8015
 6717SOL    HW231611   3.305   2.649   2.511  2.1800 -0.4668  0.3783
 6718SOL     OW31612   3.082   2.328  13.522 -0.2583  0.0961  0.3069
 6718SOL    HW131613   3.025   2.278  13.581 -1.1430 -0.6380 -1.1641
 6718SOL    HW231614   3.061   2.420  13.537  1.1162  0.0544  2.5121
 6719SOL     OW31615   0.098   0.130   9.033  0.7076  0.0046  0.0747
 6719SOL    HW131616   0.108   0.163   9.123 -1.1152 -1.6131  0.8802
 6719SOL    HW231617   0.171   0.172   8.987  0.9854  0.7094  1.1566
 6720SOL     OW31618   0.373   2.731  12.510 -0.1423 -0.5565 -0.2976
 6720SOL    HW131619   0.388   2.812  12.559 -0.8925 -1.6834  1.8033
 6720SOL    HW231620   0.403   2.757  12.423 -0.0127 -0.8829 -0.3491
 6721SOL     OW31621   2.232   0.565   9.898  0.3700 -0.5178 -0.0903
 6721SOL    HW131622   2.161   0.503   9.880 -2.1848  2.1456  0.7986
 6721SOL    HW231623   2.288   0.528   9.830  0.7292  2.4509 -1.4215
 6722SOL     OW31624   2.428   0.969  12.561  0.3384 -0.3380  0.0876
 6722SOL    HW131625   2.475   1.051  12.577 -0.4469  0.6940 -2.9685
 6722SOL    HW231626   2.505   0.914  12.551 -0.6659 -1.5275 -1.0568
 6723SOL     OW31627   3.793   3.039   2.585 -0.1023 -0.5071  0.0146
 6723SOL    HW131628   3.837   2.962   2.548 -0.2683  0.8792 -2.9974
 6723SOL    HW231629   3.875   3.085   2.607 -0.9988  0.5432  1.1588
 6724SOL     OW31630   1.002   3.451  14.942  0.1781 -0.8126  0.4730
 6724SOL    HW131631   1.007   3.418  15.031  0.0099 -0.7060  0.5218
 6724SOL    HW231632   0.983   3.369  14.896  0.3410 -1.2452  1.1936
 6725SOL     OW31633   0.331   2.565   5.376  0.2446  0.1482 -0.3786
 6725SOL    HW131634   0.349   2.471   5.366  1.8326  0.5891 -1.5441
 6725SOL    HW231635   0.369   2.576   5.463  0.5486  0.1997 -0.5179
 6726SOL     OW31636   2.081   4.313  16.536 -0.0471 -0.5501  0.4171
 6726SOL    HW131637   2.094   4.403  16.565  0.9298 -0.7895  0.7488
 6726SOL    HW231638   2.172   4.283  16.541 -0.0447 -0.5895  0.1273
 6727SOL     OW31639   3.138   3.199   7.307 -0.5915  0.2162  0.1375
 6727SOL    HW131640   3.064   3.239   7.260 -0.8265  0.3735  0.6410
 6727SOL    HW231641   3.175   3.278   7.347  1.6326 -1.1327  0.7091
 6728SOL     OW31642   2.785   1.784   6.007  0.5853  0.1609  0.2730
 6728SOL    HW131643   2.774   1.864   5.955 -0.3490  1.9069  3.1575
 6728SOL    HW231644   2.702   1.738   6.000  0.7771  0.2123 -2.2029
 6729SOL     OW31645   2.710   1.295  15.726 -0.1243 -0.5724  0.5142
 6729SOL    HW131646   2.630   1.248  15.700  0.0444  0.5419 -2.0658
 6729SOL    HW231647   2.723   1.336  15.640 -2.5335 -1.5180 -0.3028
 6730SOL     OW31648   1.463   2.469   4.034  0.1904 -0.1907 -0.1108
 6730SOL    HW131649   1.406   2.514   3.971  0.5534 -0.6954 -0.7981
 6730SOL    HW231650   1.541   2.523   4.037  1.6752 -2.1795 -2.8921
 6731SOL     OW31651   4.004   0.484   0.745 -0.2739  0.4331  0.2688
 6731SOL    HW131652   3.986   0.390   0.750 -0.0349  0.3052 -1.2403
 6731SOL    HW231653   4.061   0.489   0.668 -1.5614 -2.0589 -0.8592
 6732SOL     OW31654   3.443   1.115   7.217 -0.1226 -0.4175  0.6674
 6732SOL    HW131655   3.459   1.197   7.264  1.6310 -0.6549  0.4852
 6732SOL    HW231656   3.521   1.062   7.229 -0.3247 -1.3671 -2.1134
 6733SOL     OW31657   2.290   1.462   1.835 -0.4472 -0.2785 -0.0365
 6733SOL    HW131658   2.367   1.475   1.780  0.0208  1.0343  0.9164
 6733SOL    HW231659   2.331   1.474   1.921 -0.6186  1.3144 -0.1655
 6734SOL     OW31660   2.249   3.877   8.151  0.0687  0.0971  0.6639
 6734SOL    HW131661   2.294   3.903   8.070 -1.0143  0.7425  0.2776
 6734SOL    HW231662   2.321   3.854   8.210  0.8697 -1.0670 -0.7505
 6735SOL     OW31663   0.719   0.587   3.650  0.0590 -0.4800  0.1385
 6735SOL    HW131664   0.636   0.539   3.648 -0.4911  0.4529  0.3055
 6735SOL    HW231665   0.784   0.518   3.661 -0.5341 -1.0357  0.1514
 6736SOL     OW31666   3.532   2.926   3.921 -0.3025  0.2990 -0.1199
 6736SOL    HW131667   3.576   2.860   3.974 -4.4578  0.7766  3.9749
 6736SOL    HW231668   3.522   2.998   3.983 -2.3265  0.0150 -0.1188
 6737SOL     OW31669   4.570   2.922  16.968  0.9426  0.2900  0.3509
 6737SOL    HW131670   4.534   2.939  16.882 -0.0569 -0.1108  0.6931
 6737SOL    HW231671   4.608   2.834  16.963 -1.7447 -0.8761  0.4998
 6738SOL     OW31672   2.021   0.210   2.163 -0.1962 -0.2030 -0.6724
 6738SOL    HW131673   2.011   0.171   2.076  0.1487  0.1462 -0.8734
 6738SOL    HW231674   2.018   0.135   2.222  1.7680  0.0163 -0.3103
 6739SOL     OW31675   4.562   4.560   1.133  0.1269 -0.0085 -0.2670
 6739SOL    HW131676   4.522   4.564   1.220 -1.0235 -0.7195 -0.7571
 6739SOL    HW231677   4.639   4.616   1.139  1.1944 -1.2611 -2.2847
 6740SOL     OW31678   4.355   3.509  12.751  0.2802 -0.2054  0.3479
 6740SOL    HW131679   4.332   3.539  12.839 -0.6489 -0.4901  0.2026
 6740SOL    HW231680   4.437   3.461  12.762  0.6837 -0.0192 -1.8144
 6741SOL     OW31681   4.480   4.013   8.202  0.1831  0.3434 -0.0957
 6741SOL    HW131682   4.441   4.048   8.282  1.3016  0.6860  0.3089
 6741SOL    HW231683   4.419   3.944   8.176  1.8345 -0.9110 -0.6589
 6742SOL     OW31684   2.648   0.909   3.910  0.0285  0.8480 -0.2474
 6742SOL    HW131685   2.598   0.883   3.987  3.1782  0.7935  1.7903
 6742SOL    HW231686   2.736   0.887   3.941 -0.0209  2.0750  0.7235
 6743SOL     OW31687   2.787   0.073  11.549  0.0527 -0.3187 -0.6603
 6743SOL    HW131688   2.731   0.078  11.627 -2.6128  0.0976 -2.6047
 6743SOL    HW231689   2.859   0.133  11.568 -1.5919  0.9851  1.4821
 6744SOL     OW31690   2.457   4.192   2.998 -0.3868 -0.4975 -0.1726
 6744SOL    HW131691   2.545   4.155   2.998 -0.4495 -0.6313 -0.8903
 6744SOL    HW231692   2.414   4.128   3.054 -1.4554 -2.4180 -3.1992
 6745SOL     OW31693   3.781   4.670   8.564 -0.1030 -0.3729 -0.4238
 6745SOL    HW131694   3.724   0.005   8.511 -1.6562  1.9054  3.7009
 6745SOL    HW231695   3.806   4.604   8.499 -1.9425  0.5931 -2.1076
 6746SOL     OW31696   0.158   2.788   4.978 -0.3092  0.3238 -0.0242
 6746SOL    HW131697   0.200   2.705   5.003 -0.7159  0.5732  1.4990
 6746SOL    HW231698   0.073   2.769   5.017 -1.4228  1.4706 -1.8939
 6747SOL     OW31699   3.300   0.350  14.733 -0.7304 -0.2329  0.0652
 6747SOL    HW131700   3.308   0.416  14.664  1.5471  0.0324  0.5835
 6747SOL    HW231701   3.214   0.374  14.769 -0.6094  3.0903 -1.8849
 6748SOL     OW31702   0.051   2.534   6.793 -0.0870 -0.5088  0.4649
 6748SOL    HW131703   0.139   2.561   6.817  1.0812 -1.9522 -2.3109
 6748SOL    HW231704   0.021   2.609   6.742  1.1942 -1.0173 -1.0030
 6749SOL     OW31705   0.540   3.478  15.450 -0.4178 -0.6210  0.7650
 6749SOL    HW131706   0.581   3.474  15.537  2.3691  0.7316 -0.5266
 6749SOL    HW231707   0.620   3.468  15.399 -0.2278  0.3676  0.8618
 6750SOL     OW31708   3.041   2.762  17.350  0.0270  0.5587 -0.2569
 6750SOL    HW131709   3.029   2.847  17.391 -2.6731  0.0195  0.0983
 6750SOL    HW231710   2.956   2.722  17.371 -0.7106  1.6482 -1.1687
 6751SOL     OW31711   2.680   1.910   4.139  0.3271  0.3114 -0.3109
 6751SOL    HW131712   2.725   1.968   4.078  0.6666  0.6703  0.2755
 6751SOL    HW231713   2.754   1.883   4.193  0.0613  1.3740  0.5971
 6752SOL     OW31714   3.745   3.548   7.850 -0.0315 -0.2070  0.5015
 6752SOL    HW131715   3.693   3.471   7.870  1.3041 -1.4586 -0.8073
 6752SOL    HW231716   3.813   3.498   7.805 -0.6815  1.5360 -2.3642
 6753SOL     OW31717   4.663   0.230  15.098  0.2082  0.3242 -0.1796
 6753SOL    HW131718   4.588   0.257  15.045 -1.1336 -0.5898  1.2719
 6753SOL    HW231719   4.685   0.149  15.051  2.0769  0.4922  0.4189
 6754SOL     OW31720   2.487   1.545  10.652  0.4541 -0.0196  0.5764
 6754SOL    HW131721   2.544   1.622  10.653  2.3849 -1.4211 -0.8876
 6754SOL    HW231722   2.438   1.562  10.733  1.1249 -0.6321  1.1002
 6755SOL     OW31723   3.666   3.114  11.752 -0.2454 -0.0637 -0.0318
 6755SOL    HW131724   3.691   3.025  11.728 -0.1873 -0.2872  0.8621
 6755SOL    HW231725   3.625   3.139  11.669  1.4821  0.5549 -0.7008
 6756SOL     OW31726   2.535   1.185   4.247 -0.1041  0.0038  0.2442
 6756SOL    HW131727   2.474   1.233   4.192 -0.6399  0.3277  1.1269
 6756SOL    HW231728   2.606   1.248   4.251  0.6676 -0.6802 -2.6482
 6757SOL     OW31729   1.447   4.681   5.286 -0.2268 -0.0786  0.0610
 6757SOL    HW131730   1.365   4.698   5.239 -0.0960 -1.9753 -0.8357
 6757SOL    HW231731   1.468   4.590   5.266 -1.0213 -0.9928  3.4061
 6758SOL     OW31732   2.392   2.381   2.723  0.1958 -0.5877 -0.3158
 6758SOL    HW131733   2.357   2.391   2.634 -3.5353 -0.1573  1.1952
 6758SOL    HW231734   2.479   2.354   2.692  0.9932  1.9491 -0.2487
 6759SOL     OW31735   3.075   1.915   5.216  0.4834 -0.2420  0.2195
 6759SOL    HW131736   3.117   1.934   5.300 -0.8215 -1.0447  1.0464
 6759SOL    HW231737   3.029   1.995   5.191 -0.1521  0.1413  2.5890
 6760SOL     OW31738   3.160   4.514   5.389 -0.3853 -0.3456 -0.0236
 6760SOL    HW131739   3.131   4.548   5.473 -1.1911  0.6047 -0.6884
 6760SOL    HW231740   3.150   4.586   5.327 -1.0149  0.6488  1.2527
 6761SOL     OW31741   1.256   2.074   1.985 -0.0737  0.7647 -0.4134
 6761SOL    HW131742   1.166   2.075   1.952 -0.2933  0.5334  0.1660
 6761SOL    HW231743   1.252   1.992   2.036 -0.7922  1.0015 -0.0787
 6762SOL     OW31744   2.508   2.656   7.255 -0.2945  0.2668  0.0537
 6762SOL    HW131745   2.539   2.615   7.336 -1.0231 -0.0364  0.1821
 6762SOL    HW231746   2.422   2.617   7.240  0.3475 -0.7928 -0.7849
 6763SOL     OW31747   2.627   0.163   3.203  0.1225  0.0315 -0.3435
 6763SOL    HW131748   2.627   0.251   3.241 -0.4697  0.5192 -1.4737
 6763SOL    HW231749   2.690   0.176   3.132  1.6002  0.7705  1.0835
 6764SOL     OW31750   1.758   0.369   6.528 -0.1336  0.2064  0.1367
 6764SOL    HW131751   1.845   0.402   6.554 -0.3397 -0.7983  2.1601
 6764SOL    HW231752   1.757   0.386   6.434 -0.4861  3.0017  0.6625
 6765SOL     OW31753   4.700   3.253   6.583 -0.5755  0.5998 -0.2484
 6765SOL    HW131754   4.607   3.267   6.565 -1.1278 -1.5534  0.9194
 6765SOL    HW231755   4.705   3.158   6.596 -0.6901  0.3493 -2.0567
 6766SOL     OW31756   2.118   1.439   8.902  0.8347 -0.7460  0.3356
 6766SOL    HW131757   2.095   1.531   8.892  0.2206 -0.9203  0.1390
 6766SOL    HW231758   2.041   1.402   8.944  1.8914  1.3421  4.1872
 6767SOL     OW31759   3.489   3.789   1.146  0.5781 -0.0710 -0.1696
 6767SOL    HW131760   3.583   3.770   1.149  0.8889  0.9394 -3.7633
 6767SOL    HW231761   3.491   3.884   1.158  0.5628 -0.2594  1.3693
 6768SOL     OW31762   3.005   2.416   6.087 -0.1220  0.1837  0.6344
 6768SOL    HW131763   3.003   2.511   6.090  0.7676  0.2321 -0.1845
 6768SOL    HW231764   2.914   2.392   6.068  0.2043 -1.2176  0.8002
 6769SOL     OW31765   2.003   0.180   4.957 -0.8741 -0.1064 -0.1916
 6769SOL    HW131766   1.942   0.120   4.914 -0.9242 -1.1688  1.3792
 6769SOL    HW231767   2.081   0.125   4.952 -0.1218  0.8711  0.8153
 6770SOL     OW31768   0.713   4.294   7.657  0.1040 -0.1478 -0.3300
 6770SOL    HW131769   0.697   4.388   7.653  1.8325  0.1681  0.0660
 6770SOL    HW231770   0.641   4.259   7.605  0.0102  1.2514 -1.1301
 6771SOL     OW31771   1.860   0.764   2.957  0.3606  0.0858 -0.4207
 6771SOL    HW131772   1.916   0.714   2.897 -0.5642 -0.5997 -0.7111
 6771SOL    HW231773   1.932   0.798   3.010 -0.2639 -0.1442  0.5689
 6772SOL     OW31774   4.397   0.111   1.897  0.3405 -0.3544 -0.2156
 6772SOL    HW131775   4.427   0.058   1.823 -0.6057 -1.2751  0.0662
 6772SOL    HW231776   4.428   0.058   1.970  0.1512 -0.0169  0.1087
 6773SOL     OW31777   2.786   1.541  14.596  0.3079 -0.4310 -0.4974
 6773SOL    HW131778   2.789   1.458  14.644 -0.6266 -0.2915 -0.2045
 6773SOL    HW231779   2.866   1.581  14.630 -0.7800  0.2939  1.2079
 6774SOL     OW31780   1.127   1.813   7.138 -0.0656  0.1406  0.0663
 6774SOL    HW131781   1.212   1.810   7.181 -0.8231 -2.3824  1.3516
 6774SOL    HW231782   1.142   1.773   7.052  1.0632  0.3456  0.1745
 6775SOL     OW31783   2.692   3.200   6.863  0.7692  0.3682  0.0337
 6775SOL    HW131784   2.716   3.139   6.933 -0.6973 -0.2607 -0.0106
 6775SOL    HW231785   2.600   3.177   6.850 -0.2239  3.7050  1.1734
 6776SOL     OW31786   3.911   4.540  17.355  0.3575  0.0439  0.4758
 6776SOL    HW131787   3.832   4.528  17.303  0.4179 -0.0435  0.4027
 6776SOL    HW231788   3.986   4.526  17.297 -0.1887 -1.2090  0.0738
 6777SOL     OW31789   4.694   1.468  12.147 -0.0080  0.4153 -0.1572
 6777SOL    HW131790   4.685   1.409  12.073  0.0539 -1.2023  1.1076
 6777SOL    HW231791   4.642   1.536  12.105 -2.8891 -2.0335 -0.5457
 6778SOL     OW31792   2.833   4.044   0.656  0.4329  0.1898  0.5523
 6778SOL    HW131793   2.920   4.019   0.687  1.0493  0.5524 -0.8699
 6778SOL    HW231794   2.851   4.061   0.563  1.3455  0.4780  0.7774
 6779SOL     OW31795   1.222   1.217  12.936  0.0989  0.4550 -0.2048
 6779SOL    HW131796   1.295   1.191  12.993 -0.4222  2.6567  1.4883
 6779SOL    HW231797   1.182   1.134  12.913  1.3426 -0.1564 -0.1499
 6780SOL     OW31798   4.142   3.881   4.457  0.0085 -0.2159  0.5490
 6780SOL    HW131799   4.154   3.840   4.371 -0.3639  1.8156 -0.4725
 6780SOL    HW231800   4.202   3.955   4.461 -2.6438  1.8352  1.8925
 6781SOL     OW31801   0.023   0.008  10.249 -0.7090 -0.5683  0.2185
 6781SOL    HW131802   0.039   0.101  10.269  0.8736 -0.3019 -2.2523
 6781SOL    HW231803   4.688   0.008  10.172  0.7375 -4.4813 -0.8066
 6782SOL     OW31804   4.450   2.443   1.515 -0.0067  0.3370  0.0198
 6782SOL    HW131805   4.490   2.522   1.480 -0.7016  0.6365 -0.0977
 6782SOL    HW231806   4.527   2.388   1.530 -0.4278 -0.3024 -0.1360
 6783SOL     OW31807   2.120   4.486  13.907  0.6190  0.5737  0.0386
 6783SOL    HW131808   2.148   4.461  13.995  0.1117  3.7434  1.0890
 6783SOL    HW231809   2.183   4.553  13.882  1.6104 -0.0228  0.9361
 6784SOL     OW31810   2.783   2.180   2.961  0.6717 -0.3327  0.0843
 6784SOL    HW131811   2.861   2.223   2.997  0.0949 -0.2700  1.2517
 6784SOL    HW231812   2.768   2.225   2.878 -0.0483  0.7111  0.7840
 6785SOL     OW31813   1.670   1.528  12.857  0.2834 -0.6769  0.3639
 6785SOL    HW131814   1.656   1.479  12.938  2.3486 -2.0998 -0.1133
 6785SOL    HW231815   1.588   1.510  12.812  0.1902  0.8040 -0.0408
 6786SOL     OW31816   2.575   2.144   4.568  0.0303 -0.3624  0.0820
 6786SOL    HW131817   2.512   2.074   4.553 -1.3265  0.5613  1.5029
 6786SOL    HW231818   2.588   2.127   4.661 -0.4199 -0.3036  0.1552
 6787SOL     OW31819   1.620   2.696  11.869 -0.4076  0.0290 -0.0904
 6787SOL    HW131820   1.626   2.605  11.900  2.6777  0.3833  0.3514
 6787SOL    HW231821   1.704   2.733  11.896  0.3979 -2.2299  0.5103
 6788SOL     OW31822   3.496   1.298   3.807 -0.1467  0.0957 -0.2655
 6788SOL    HW131823   3.514   1.290   3.713  2.4295  4.2673 -0.0968
 6788SOL    HW231824   3.586   1.306   3.838 -1.3967 -0.8584  3.5682
 6789SOL     OW31825   0.212   2.568   5.128 -0.5172 -0.2384  0.1348
 6789SOL    HW131826   0.284   2.582   5.189  1.3326  0.7410 -2.2771
 6789SOL    HW231827   0.159   2.504   5.175 -2.1231 -1.4798 -3.2924
 6790SOL     OW31828   0.087   1.636   3.222  0.1676 -0.2404  0.1334
 6790SOL    HW131829   0.129   1.706   3.173  0.8307  0.9257  2.3474
 6790SOL    HW231830   0.155   1.605   3.282 -0.2112  2.2684  1.8461
 6791SOL     OW31831   3.334   4.550   4.286 -0.6498 -0.2430 -0.3360
 6791SOL    HW131832   3.333   4.463   4.326 -0.0205 -0.8588 -1.6439
 6791SOL    HW231833   3.336   4.525   4.193  0.5658  1.1107 -0.6751
 6792SOL     OW31834   3.815   0.957   6.962  0.3012  0.1487 -0.0581
 6792SOL    HW131835   3.792   0.936   6.871 -0.0311 -0.9472  0.2854
 6792SOL    HW231836   3.871   1.031   6.937  0.0813 -0.1656 -1.4533
 6793SOL     OW31837   1.789   0.895   1.817 -0.1051 -1.0946  0.3024
 6793SOL    HW131838   1.857   0.831   1.837  0.9099  0.0414  0.5015
 6793SOL    HW231839   1.826   0.941   1.741 -0.7777 -0.5916  0.2819
 6794SOL     OW31840   4.613   3.180   9.196 -0.3223 -0.5859 -0.6552
 6794SOL    HW131841   4.636   3.234   9.272 -0.1853  0.2583 -1.3123
 6794SOL    HW231842   4.526   3.148   9.221 -0.7919  0.0544 -1.5122
 6795SOL     OW31843   2.904   0.265  14.504  0.2528  0.1011  0.2117
 6795SOL    HW131844   2.809   0.255  14.507  0.1070  1.4794  0.2388
 6795SOL    HW231845   2.925   0.193  14.563 -0.2232  0.2114  0.5151
 6796SOL     OW31846   0.792   1.800   3.233 -0.4408  0.8346  0.3748
 6796SOL    HW131847   0.819   1.709   3.218 -0.0603  1.0898 -0.4829
 6796SOL    HW231848   0.836   1.843   3.160  0.3335  2.2015  1.6379
 6797SOL     OW31849   2.636   3.024   1.867  0.6215  0.7526 -0.2356
 6797SOL    HW131850   2.715   2.970   1.869  0.0009 -0.0925  1.0442
 6797SOL    HW231851   2.572   2.963   1.829  1.3027 -0.2763  0.2727
 6798SOL     OW31852   2.053   2.362   9.331  0.2917  0.4687  0.3341
 6798SOL    HW131853   2.127   2.416   9.357  1.7631 -0.7658 -1.3365
 6798SOL    HW231854   2.100   2.292   9.286  0.1216  0.8061 -0.3632
 6799SOL     OW31855   2.986   3.083  12.250  0.0812  0.6229 -0.3225
 6799SOL    HW131856   2.997   3.072  12.344  1.8704  2.0209 -0.3532
 6799SOL    HW231857   3.049   3.153  12.231  0.0597  1.3405  2.2888
 6800SOL     OW31858   4.498   3.897   8.786 -0.0147  0.0498  0.1446
 6800SOL    HW131859   4.420   3.940   8.749 -0.2309 -1.0429 -0.6613
 6800SOL    HW231860   4.475   3.897   8.878  2.0181 -0.4572  0.6553
 6801SOL     OW31861   2.635   2.592   7.909  0.0960  0.3235 -0.3745
 6801SOL    HW131862   2.691   2.564   7.981  0.8943 -1.2475 -1.5997
 6801SOL    HW231863   2.659   2.684   7.913 -0.3361  0.4388 -0.4462
 6802SOL     OW31864   2.385   1.890  17.456  0.4292 -0.3924  0.1831
 6802SOL    HW131865   2.346   1.874  17.370  0.2617  0.5303  0.0789
 6802SOL    HW231866   2.313   1.917  17.513 -0.1352 -1.9296  0.1812
 6803SOL     OW31867   2.077   3.953   9.639 -0.2119  0.4537  0.1054
 6803SOL    HW131868   1.985   3.957   9.665  0.0270  5.1085  0.3200
 6803SOL    HW231869   2.105   4.007   9.713  1.8406  0.7362 -0.8812
 6804SOL     OW31870   1.264   1.238   9.438  0.6092 -0.0236 -0.0728
 6804SOL    HW131871   1.210   1.249   9.360  0.7224 -0.9376 -0.2838
 6804SOL    HW231872   1.206   1.186   9.494 -1.0096  1.0359 -0.7807
 6805SOL     OW31873   0.518   4.184   7.511 -0.2116  0.2030  0.0710
 6805SOL    HW131874   0.441   4.145   7.551  0.8571 -0.0060  1.9766
 6805SOL    HW231875   0.482   4.254   7.457 -0.4296  1.0460  1.3194
 6806SOL     OW31876   2.686   1.355  13.509 -0.1092 -0.1453  0.2138
 6806SOL    HW131877   2.770   1.355  13.557  0.4392  1.8968 -0.7280
 6806SOL    HW231878   2.687   1.444  13.475 -2.8636 -1.0608 -2.2010
 6807SOL     OW31879   0.854   1.630   3.945 -0.7810 -0.5246  0.5602
 6807SOL    HW131880   0.913   1.676   4.005  1.2446 -1.2830 -0.8420
 6807SOL    HW231881   0.859   1.685   3.867  0.6706 -2.6269 -0.8257
 6808SOL     OW31882   0.476   0.805  15.901 -0.2747  0.5638 -0.6219
 6808SOL    HW131883   0.543   0.868  15.877 -0.5023  0.4613 -1.5308
 6808SOL    HW231884   0.415   0.849  15.960  1.4043  3.2864 -0.9118
 6809SOL     OW31885   0.020   3.170   8.288 -0.4977 -0.0230 -0.4378
 6809SOL    HW131886   0.087   3.205   8.231 -0.4729 -0.4990 -0.6989
 6809SOL    HW231887   0.029   3.078   8.265  2.4169 -0.1839  1.3327
 6810SOL     OW31888   2.575   0.030   2.320  0.0889  0.3442  0.3142
 6810SOL    HW131889   2.544   0.087   2.391 -0.4864  1.2800 -0.6950
 6810SOL    HW231890   2.659   0.071   2.300 -0.1287  0.6349 -0.0100
 6811SOL     OW31891   0.535   0.287  12.850 -0.2088  0.4076  0.5235
 6811SOL    HW131892   0.587   0.238  12.787 -0.6728 -0.6529  0.9763
 6811SOL    HW231893   0.554   0.377  12.821  0.3560 -0.3662 -1.4920
 6812SOL     OW31894   0.966   0.221   2.435  0.5489  0.2257 -1.0708
 6812SOL    HW131895   1.054   0.188   2.417  0.7262  0.2789 -0.2999
 6812SOL    HW231896   0.909   0.171   2.378 -2.6671  2.5555  0.1367
 6813SOL     OW31897   1.778   1.389   9.379  0.9723 -0.4360 -0.1407
 6813SOL    HW131898   1.706   1.336   9.412  2.5297 -2.9453 -0.7662
 6813SOL    HW231899   1.726   1.467   9.361  0.6652 -0.4731  0.6112
 6814SOL     OW31900   1.069   0.556  12.349 -0.5282  0.5319 -0.8972
 6814SOL    HW131901   1.157   0.535  12.319  1.1283  2.3446  2.7793
 6814SOL    HW231902   1.021   0.491  12.297  1.0985 -2.2387  1.0639
 6815SOL     OW31903   1.490   1.113   9.979  0.0190 -0.0154 -0.1924
 6815SOL    HW131904   1.510   1.020   9.986 -1.5824 -0.2735  0.8864
 6815SOL    HW231905   1.505   1.146  10.067  2.1864  0.3058 -0.6815
 6816SOL     OW31906   3.248   4.164   0.358  0.0858 -0.0014 -0.0780
 6816SOL    HW131907   3.297   4.086   0.388  0.9775  0.5006 -0.2236
 6816SOL    HW231908   3.201   4.127   0.284  0.3677 -0.3192 -0.0997
 6817SOL     OW31909   3.859   2.223   9.098 -0.0753 -0.3022 -0.4030
 6817SOL    HW131910   3.855   2.184   9.186 -0.6865 -1.9565 -1.1603
 6817SOL    HW231911   3.829   2.312   9.117  0.0089 -0.6528  1.4366
 6818SOL     OW31912   3.457   2.690   6.820 -0.4299 -0.1000 -0.2355
 6818SOL    HW131913   3.388   2.723   6.877  0.7386 -2.1729  2.3554
 6818SOL    HW231914   3.408   2.627   6.769 -1.4734  0.6214 -0.1197
 6819SOL     OW31915   3.071   1.412  15.994  0.3430  0.0384  0.3636
 6819SOL    HW131916   3.149   1.379  16.037  1.6842 -0.3141 -2.3167
 6819SOL    HW231917   3.020   1.333  15.977  0.0056 -0.0763  1.9151
 6820SOL     OW31918   0.697   2.290   8.920  0.5512 -0.0524  0.3559
 6820SOL    HW131919   0.616   2.242   8.935  0.2562 -0.1894 -1.6094
 6820SOL    HW231920   0.743   2.227   8.865  0.6087  0.9983 -0.8147
 6821SOL     OW31921   2.152   4.481   8.830  0.0473  0.1550 -0.3818
 6821SOL    HW131922   2.233   4.530   8.842 -1.3653  1.8929  1.9945
 6821SOL    HW231923   2.172   4.463   8.738  2.7738 -0.0407  0.2352
 6822SOL     OW31924   4.667   3.623   4.310  0.0380  0.4398  0.0693
 6822SOL    HW131925   4.694   3.715   4.309  0.1353  0.4218  1.3436
 6822SOL    HW231926   4.720   3.586   4.380 -0.9998 -0.2145  0.5002
 6823SOL     OW31927   4.144   3.915   8.985 -0.0430  0.1768 -0.9711
 6823SOL    HW131928   4.228   3.928   9.030 -0.1543  0.7261 -0.9226
 6823SOL    HW231929   4.082   3.965   9.038  0.0823  0.3508 -0.9852
 6824SOL     OW31930   3.161   2.344   3.253  0.0672 -0.1479  0.1669
 6824SOL    HW131931   3.230   2.341   3.319 -0.6743 -1.8532  0.8625
 6824SOL    HW231932   3.154   2.438   3.241  1.5498  0.0119  0.5829
 6825SOL     OW31933   0.200   3.577   6.151  0.0712  0.4905 -0.2628
 6825SOL    HW131934   0.208   3.563   6.245 -1.9626 -1.4722 -0.4013
 6825SOL    HW231935   0.190   3.490   6.113  0.7791  0.9075 -1.4199
 6826SOL     OW31936   1.742   2.675   3.339 -0.2205 -0.6580  0.3521
 6826SOL    HW131937   1.647   2.676   3.346 -0.3689 -0.2719 -1.6810
 6826SOL    HW231938   1.764   2.707   3.427 -1.3076  0.9328  0.0352
 6827SOL     OW31939   1.747   4.132   0.272  0.2121  0.0464  0.3459
 6827SOL    HW131940   1.757   4.225   0.251  1.1408 -0.4507 -1.4193
 6827SOL    HW231941   1.829   4.092   0.243 -0.0774 -1.1799  1.1684
 6828SOL     OW31942   4.441   2.092   5.402  0.3590 -0.2971  0.3862
 6828SOL    HW131943   4.351   2.092   5.434  0.8203  0.9119  1.6778
 6828SOL    HW231944   4.479   2.046   5.477  1.1347  0.9561  0.7625
 6829SOL     OW31945   2.472   2.041   8.925 -0.0032  0.7075 -0.0619
 6829SOL    HW131946   2.540   2.109   8.927  0.7402 -0.0051 -1.1461
 6829SOL    HW231947   2.445   2.032   9.017 -1.2441 -1.3923 -0.6407
 6830SOL     OW31948   0.009   4.041   9.584 -0.4916  0.2946 -0.0922
 6830SOL    HW131949   4.674   3.970   9.551 -0.5788  0.4046 -0.1787
 6830SOL    HW231950   0.096   4.004   9.565 -0.2089  1.0223 -0.1992
 6831SOL     OW31951   2.407   2.216   7.441  0.0910  0.2078 -0.2151
 6831SOL    HW131952   2.315   2.219   7.416 -0.4830 -0.2040  1.8794
 6831SOL    HW231953   2.410   2.124   7.468  0.1876  0.4066  0.4462
 6832SOL     OW31954   2.654   0.180   0.709  0.0485  0.4510 -0.7339
 6832SOL    HW131955   2.665   0.225   0.792 -0.4035  0.3861 -0.6380
 6832SOL    HW231956   2.681   0.089   0.725  1.1197  0.9570  0.3524
 6833SOL     OW31957   1.577   4.099   3.715  0.0599  0.7020 -0.1526
 6833SOL    HW131958   1.596   4.186   3.749 -0.9969  1.0602 -0.4907
 6833SOL    HW231959   1.581   4.043   3.793 -1.4320  0.7490 -0.0497
 6834SOL     OW31960   1.027   3.130   1.429 -0.2132 -0.3596 -0.2962
 6834SOL    HW131961   1.025   3.072   1.505 -1.6820 -1.3304 -1.0951
 6834SOL    HW231962   0.986   3.084   1.357 -1.4590 -2.1889  1.6011
 6835SOL     OW31963   4.230   2.262  12.651 -0.5176  0.9489 -0.1012
 6835SOL    HW131964   4.214   2.206  12.576  0.1456  0.6867 -0.0497
 6835SOL    HW231965   4.306   2.223  12.695  0.6182  0.3700 -2.5804
 6836SOL     OW31966   1.572   3.655  16.604 -0.2914  0.7266  0.4053
 6836SOL    HW131967   1.576   3.626  16.696  2.8800 -0.9583 -0.2699
 6836SOL    HW231968   1.665   3.653  16.581 -0.0341  1.7442  1.3659
 6837SOL     OW31969   2.373   4.159   7.104 -0.4390 -0.3010  0.4735
 6837SOL    HW131970   2.381   4.066   7.127 -0.1818  0.1877  2.3732
 6837SOL    HW231971   2.300   4.190   7.157 -0.4137 -1.5236  1.2449
 6838SOL     OW31972   1.400   0.853  11.685 -0.1821 -0.9121  0.3872
 6838SOL    HW131973   1.446   0.848  11.768  1.1982 -2.7088 -0.4776
 6838SOL    HW231974   1.471   0.880  11.626 -0.0540  0.3587  1.1295
 6839SOL     OW31975   0.911   1.748   2.159  0.1638 -0.1673 -0.0094
 6839SOL    HW131976   0.946   1.787   2.079 -1.6514 -1.2273 -1.3139
 6839SOL    HW231977   0.947   1.806   2.226  0.7967 -1.2750  0.6167
 6840SOL     OW31978   1.372   1.784   4.378  0.0235 -0.8438  0.5177
 6840SOL    HW131979   1.456   1.758   4.341 -0.6867  1.2688 -2.5322
 6840SOL    HW231980   1.394   1.783   4.471 -3.6197  1.5720  1.4082
 6841SOL     OW31981   4.573   1.031  16.685 -0.5018  0.3054 -0.5758
 6841SOL    HW131982   4.573   0.936  16.667  0.6986  0.8247 -3.3392
 6841SOL    HW231983   4.550   1.034  16.777 -0.3525 -1.5158 -0.4691
 6842SOL     OW31984   4.011   2.997  14.134  0.1168  0.6465  0.1183
 6842SOL    HW131985   3.919   3.023  14.142 -0.0772  0.1238 -0.4119
 6842SOL    HW231986   4.057   3.078  14.116  1.8639 -0.3409  0.1308
 6843SOL     OW31987   2.014   2.233  16.530  0.1552  0.5952 -0.5237
 6843SOL    HW131988   2.101   2.269  16.542  0.5016 -0.4317 -0.0116
 6843SOL    HW231989   1.974   2.286  16.599 -0.9886 -1.4411  0.3682
 6844SOL     OW31990   0.175   3.195  13.614  0.0714 -0.6146  0.3569
 6844SOL    HW131991   0.137   3.124  13.665  1.4707 -1.5082  0.1664
 6844SOL    HW231992   0.264   3.161  13.602  0.6655  0.5546  1.4151
 6845SOL     OW31993   0.373   4.551   4.413  0.6043 -0.0893 -0.6965
 6845SOL    HW131994   0.386   4.598   4.496  0.6319  1.0896 -1.3573
 6845SOL    HW231995   0.339   4.464   4.431  1.1540 -0.4074 -1.2004
 6846SOL     OW31996   4.455   2.666   2.030  0.5455  0.8055  0.1878
 6846SOL    HW131997   4.431   2.679   1.938  1.6727  1.0823 -0.0653
 6846SOL    HW231998   4.399   2.590   2.050  0.7000  0.6822  0.1475
 6847SOL     OW31999   2.241   0.953   5.925  0.3067 -0.1909  0.9260
 6847SOL    HW132000   2.317   0.996   5.885  0.4598 -0.9947  0.3596
 6847SOL    HW232001   2.224   0.876   5.870 -3.4225  0.2344  1.4782
 6848SOL     OW32002   2.890   1.943   2.678  0.7255  0.2449 -0.1202
 6848SOL    HW132003   2.978   1.907   2.689  1.5095  1.6819 -1.6463
 6848SOL    HW232004   2.908   2.037   2.681  1.4340  0.0976  0.2909
 6849SOL     OW32005   4.095   0.031   3.615  0.2526 -0.0623  0.2509
 6849SOL    HW132006   4.087   0.094   3.543  1.4548  0.8016  0.8770
 6849SOL    HW232007   4.187   0.006   3.621  0.0238 -0.9280  0.1731
 6850SOL     OW32008   3.601   3.073   6.679 -0.0720  0.0227  0.3724
 6850SOL    HW132009   3.641   3.049   6.763 -0.5254  1.6130  1.0439
 6850SOL    HW232010   3.671   3.129   6.645 -0.3311 -0.6859 -1.3345
 6851SOL     OW32011   1.807   2.479   7.127 -0.0215 -0.0623  0.0310
 6851SOL    HW132012   1.835   2.484   7.036  0.0972 -1.6150 -0.0155
 6851SOL    HW232013   1.876   2.521   7.178  0.9751  0.3850 -1.6996
 6852SOL     OW32014   0.533   2.934   6.568  0.2512 -0.1858 -0.4274
 6852SOL    HW132015   0.553   3.017   6.611  1.3469  0.1703 -1.6517
 6852SOL    HW232016   0.620   2.911   6.535 -0.6802  0.2591 -3.1437
 6853SOL     OW32017   4.475   4.169  15.640  0.1017 -0.3020  0.2625
 6853SOL    HW132018   4.490   4.123  15.558 -0.1475 -1.7608  1.0447
 6853SOL    HW232019   4.545   4.128  15.692  0.8590  1.3819  0.5827
 6854SOL     OW32020   3.777   1.329   2.369 -0.2006 -0.7435  0.4407
 6854SOL    HW132021   3.800   1.407   2.319 -3.4738  0.4770  0.8533
 6854SOL    HW232022   3.746   1.272   2.298  0.5326 -0.5560 -0.0322
 6855SOL     OW32023   2.544   1.048   3.697  0.0703  0.2449 -0.3455
 6855SOL    HW132024   2.567   1.129   3.742  1.2680 -0.0249 -0.4698
 6855SOL    HW232025   2.567   0.982   3.763 -1.8890 -2.0254 -1.9739
 6856SOL     OW32026   1.566   4.224   8.738 -0.3953 -0.1816 -0.1760
 6856SOL    HW132027   1.513   4.238   8.659  0.4301  1.9959 -0.3627
 6856SOL    HW232028   1.515   4.257   8.812 -1.5157 -2.1333 -0.0926
 6857SOL     OW32029   3.119   1.870   3.061 -0.0707 -0.4174 -1.0122
 6857SOL    HW132030   3.136   1.937   2.995  0.0253  0.0438 -0.5137
 6857SOL    HW232031   3.200   1.869   3.113 -1.2969  1.4125  0.9172
 6858SOL     OW32032   4.024   2.124   2.182  0.6588  0.5439  0.3998
 6858SOL    HW132033   3.962   2.053   2.165  1.3053  1.1172 -4.4282
 6858SOL    HW232034   4.006   2.190   2.115  0.0925 -0.4414 -0.4197
 6859SOL     OW32035   0.606   1.727   4.845 -0.7360 -0.3143  0.0889
 6859SOL    HW132036   0.599   1.810   4.799 -1.1319 -1.0462 -1.1787
 6859SOL    HW232037   0.696   1.696   4.828 -0.7824  0.6466 -1.8746
 6860SOL     OW32038   1.979   2.231   6.909 -0.2665  0.7421 -0.3682
 6860SOL    HW132039   2.009   2.225   6.818 -0.4127 -2.3997 -0.2232
 6860SOL    HW232040   2.030   2.163   6.953 -3.8504 -1.1694  0.7899
 6861SOL     OW32041   1.562   1.197   2.344 -0.3991  0.6996  0.7755
 6861SOL    HW132042   1.487   1.183   2.287  0.6897  0.2453 -0.5377
 6861SOL    HW232043   1.624   1.227   2.277 -1.6372 -0.8243 -1.0474
 6862SOL     OW32044   0.411   2.934   3.216 -0.0423  0.6456 -0.1547
 6862SOL    HW132045   0.447   2.854   3.179  2.6569  0.7994  2.1122
 6862SOL    HW232046   0.359   2.895   3.286  0.5249  0.4323  0.1483
 6863SOL     OW32047   2.062   2.176   3.999 -0.3769 -0.0507  0.0500
 6863SOL    HW132048   2.003   2.206   3.930 -1.7270 -1.4123  0.6057
 6863SOL    HW232049   2.057   2.081   3.988  0.4023 -0.5897  4.3854
 6864SOL     OW32050   2.006   0.073  17.122 -0.3854 -0.3462 -0.1149
 6864SOL    HW132051   1.945   0.013  17.164 -1.9224  0.4277 -1.2395
 6864SOL    HW232052   2.095   0.037  17.123 -0.6320 -0.9480  0.1222
 6865SOL     OW32053   1.725   0.152   3.987 -0.5204 -0.1426  0.0555
 6865SOL    HW132054   1.792   0.128   4.051  0.4481  0.6235 -0.6776
 6865SOL    HW232055   1.685   0.066   3.974 -0.4017 -0.1983  0.0558
 6866SOL     OW32056   0.552   3.118   6.876 -0.1584 -0.3265 -0.1617
 6866SOL    HW132057   0.615   3.046   6.868 -2.0736 -1.9021 -1.0521
 6866SOL    HW232058   0.606   3.192   6.850 -1.3290  0.6156  0.0682
 6867SOL     OW32059   1.660   1.569  10.462  0.3519  0.0746 -0.8651
 6867SOL    HW132060   1.604   1.603  10.392 -1.8841 -1.6987  0.0643
 6867SOL    HW232061   1.745   1.603  10.435 -0.2037  1.5144 -0.7939
 6868SOL     OW32062   2.430   2.753   6.670  0.0003  0.4677 -0.4644
 6868SOL    HW132063   2.390   2.728   6.753 -1.1658  0.9818 -0.8804
 6868SOL    HW232064   2.516   2.711   6.670  0.3629  1.2152  1.0262
 6869SOL     OW32065   2.294   1.953   4.842  0.2698  0.1272 -0.3668
 6869SOL    HW132066   2.304   1.860   4.862 -0.4496  0.2615  0.6184
 6869SOL    HW232067   2.225   1.953   4.775 -0.4854  2.0975  0.4170
 6870SOL     OW32068   4.301   0.011   9.606  0.3481 -0.4358  0.5618
 6870SOL    HW132069   4.288   0.103   9.583  0.1128 -0.7678 -0.6166
 6870SOL    HW232070   4.240   4.716   9.679  0.1979 -2.4756 -0.0243
 6871SOL     OW32071   2.508   3.001   6.992  0.0839 -0.0024  0.1156
 6871SOL    HW132072   2.467   3.051   7.063  0.1605 -0.5504  0.5489
 6871SOL    HW232073   2.472   3.037   6.911  0.7780  1.0981  0.2849
 6872SOL     OW32074   3.688   3.950   0.599 -0.5266 -0.0039  0.4226
 6872SOL    HW132075   3.723   4.006   0.530  0.0744 -0.9310 -0.0277
 6872SOL    HW232076   3.724   4.006   0.668  1.2683  0.4802 -0.9133
 6873SOL     OW32077   0.600   3.872   9.842 -0.1693  0.5068  0.3641
 6873SOL    HW132078   0.535   3.939   9.863  0.2259  1.3484 -1.1200
 6873SOL    HW232079   0.574   3.850   9.753  0.8851  0.8097 -0.0151
 6874SOL     OW32080   2.745   4.127   2.902  0.0071  0.1284  0.0888
 6874SOL    HW132081   2.783   4.046   2.938  0.2643 -0.2024 -0.9263
 6874SOL    HW232082   2.777   4.190   2.966  0.3191 -1.2835  1.3335
 6875SOL     OW32083   2.360   0.063   6.503  0.0655  0.3128 -0.3307
 6875SOL    HW132084   2.434   0.060   6.565  1.8602  1.3889 -2.4222
 6875SOL    HW232085   2.377   4.710   6.445  1.2285  0.1193  0.2492
 6876SOL     OW32086   0.290   2.305   7.942 -0.3296  0.1329  0.0141
 6876SOL    HW132087   0.367   2.272   7.896  0.1822  0.0420  0.9389
 6876SOL    HW232088   0.327   2.331   8.026 -0.5402 -0.8840  0.4127
 6877SOL     OW32089   3.142   0.232  13.747  0.6194 -0.0793 -0.2263
 6877SOL    HW132090   3.152   0.317  13.706 -0.7565 -0.5448 -1.5301
 6877SOL    HW232091   3.047   0.223  13.750  0.5789  1.1156  1.7852
 6878SOL     OW32092   0.266   0.456   8.795 -0.5268  0.3932 -0.2710
 6878SOL    HW132093   0.175   0.430   8.810  0.1746 -0.2403  2.9920
 6878SOL    HW232094   0.294   0.365   8.780  0.0496  0.1555  2.2562
 6879SOL     OW32095   1.736   4.596   6.484 -0.1496 -0.2621  0.0299
 6879SOL    HW132096   1.662   4.620   6.427  0.5621 -1.2935 -1.3016
 6879SOL    HW232097   1.775   4.683   6.489 -0.2580 -0.4617  4.1474
 6880SOL     OW32098   4.352   3.318   3.137 -0.1947  0.2907 -0.4252
 6880SOL    HW132099   4.371   3.395   3.084  2.0068  0.2498  0.3110
 6880SOL    HW232100   4.256   3.311   3.135 -0.2078 -0.5926  2.8926
 6881SOL     OW32101   1.736   4.560   2.266  0.0152  0.6366  0.2737
 6881SOL    HW132102   1.706   4.567   2.356 -0.4817  1.4055  0.0490
 6881SOL    HW232103   1.768   4.470   2.272  0.2620  0.7939  1.2284
 6882SOL     OW32104   3.935   1.660   6.230  0.3783 -0.3634 -0.9026
 6882SOL    HW132105   4.007   1.625   6.178  0.9624 -0.7110  0.1285
 6882SOL    HW232106   3.907   1.745   6.197 -1.7340 -1.1636 -1.1311
 6883SOL     OW32107   3.959   0.428   8.911  0.1682 -0.1491 -0.1878
 6883SOL    HW132108   3.895   0.478   8.962 -0.1269  0.8190 -1.5034
 6883SOL    HW232109   3.946   0.342   8.952  0.6782 -0.3824 -0.5140
 6884SOL     OW32110   0.634   0.814  16.600  0.3662  0.0481 -0.1197
 6884SOL    HW132111   0.726   0.798  16.620  0.3807 -0.8271 -0.8532
 6884SOL    HW232112   0.633   0.778  16.511  1.0812  0.7812 -0.4273
 6885SOL     OW32113   3.078   1.809   6.781  0.4195  0.1667  0.2605
 6885SOL    HW132114   3.083   1.882   6.842  0.6930 -0.0508  0.4981
 6885SOL    HW232115   3.171   1.795   6.763  0.4234 -0.5154  0.7976
 6886SOL     OW32116   1.872   2.138   2.701 -0.5804  0.1558 -0.2689
 6886SOL    HW132117   1.946   2.179   2.747 -2.2006 -1.1322  3.4215
 6886SOL    HW232118   1.859   2.192   2.623 -1.6910 -0.9496 -0.8566
 6887SOL     OW32119   1.546   1.019   2.811  0.1494  0.4965 -0.2754
 6887SOL    HW132120   1.532   1.054   2.899  0.8971  1.1986 -0.4268
 6887SOL    HW232121   1.509   1.099   2.773  2.0431  0.9972 -1.0668
 6888SOL     OW32122   2.861   1.191   3.103 -0.1076 -0.4445  0.0370
 6888SOL    HW132123   2.950   1.159   3.088 -0.6407 -1.9128  0.0193
 6888SOL    HW232124   2.889   1.275   3.140 -1.6525  0.3049 -0.4878
 6889SOL     OW32125   2.617   0.870  11.755  0.1348 -0.0216 -0.2608
 6889SOL    HW132126   2.712   0.866  11.766  0.3538  1.8118 -1.3997
 6889SOL    HW232127   2.608   0.847  11.662  0.1369 -1.4048  0.0751
 6890SOL     OW32128   3.068   0.202   9.212 -0.0658  0.0669 -0.1017
 6890SOL    HW132129   3.147   0.150   9.223 -0.6153 -0.4103  1.7520
 6890SOL    HW232130   3.079   0.218   9.119  0.9102 -1.0787 -0.1801
 6891SOL     OW32131   4.436   1.111   7.548  0.5970 -0.8946  0.1864
 6891SOL    HW132132   4.512   1.162   7.577 -0.2925  1.8899 -2.4261
 6891SOL    HW232133   4.474   1.025   7.565 -0.1489 -1.1358  0.6342
 6892SOL     OW32134   3.870   3.514   1.499  0.3448 -0.0458  0.0529
 6892SOL    HW132135   3.861   3.594   1.550  0.9722  0.0565  0.0055
 6892SOL    HW232136   3.829   3.535   1.415  0.2014 -2.7626 -0.5738
 6893SOL     OW32137   1.620   0.005  11.666  0.1016 -0.3233  0.7738
 6893SOL    HW132138   1.666   4.716  11.749  0.9407  1.8677  0.5561
 6893SOL    HW232139   1.648   0.091  11.635  0.5479 -0.4140  0.9263
 6894SOL     OW32140   4.388   2.870  16.713  0.2209 -0.3806  0.4229
 6894SOL    HW132141   4.329   2.883  16.639 -3.2737 -0.7839  3.1416
 6894SOL    HW232142   4.334   2.912  16.779  0.1156  1.1004 -0.6133
 6895SOL     OW32143   0.398   1.615   6.695 -0.3932  0.4974  0.1659
 6895SOL    HW132144   0.306   1.637   6.704 -0.2252  1.2302  0.0515
 6895SOL    HW232145   0.431   1.704   6.704 -1.7952  0.8330  1.8320
 6896SOL     OW32146   1.577   4.340   2.637  0.0472  0.3061  0.3655
 6896SOL    HW132147   1.563   4.352   2.730  2.1569  0.4156  0.6709
 6896SOL    HW232148   1.629   4.419   2.620 -1.8146  1.0653 -1.9151
 6897SOL     OW32149   3.450   0.435   7.407  0.0023  0.2363  0.2134
 6897SOL    HW132150   3.419   0.416   7.319  1.9209  1.2882 -0.6768
 6897SOL    HW232151   3.378   0.493   7.431  0.7511  2.0056 -1.8881
 6898SOL     OW32152   0.788   4.566   2.784  0.5008  0.4602 -0.3506
 6898SOL    HW132153   0.833   4.644   2.749  2.0048  0.9098  2.5504
 6898SOL    HW232154   0.856   4.524   2.835  0.2933  0.3285 -0.1848
 6899SOL     OW32155   0.322   2.083  14.309 -0.4972  0.2180  0.4719
 6899SOL    HW132156   0.265   2.040  14.373 -0.8475  0.4736  0.3301
 6899SOL    HW232157   0.364   2.145  14.369  1.6193 -0.9259  0.1521
 6900SOL     OW32158   1.320   3.390   4.850  0.1595 -0.1156 -0.1792
 6900SOL    HW132159   1.233   3.425   4.870 -0.6103 -1.5193 -1.0102
 6900SOL    HW232160   1.326   3.306   4.896  0.2863  0.1417  0.2734
 6901SOL     OW32161   2.236   0.189   2.749 -0.0257 -0.3999  0.1297
 6901SOL    HW132162   2.203   0.114   2.798 -0.3032 -1.0554 -1.0457
 6901SOL    HW232163   2.196   0.169   2.664  0.7420  0.2618 -0.3940
 6902SOL     OW32164   0.504   1.817  10.162 -0.1147 -0.4480  0.4354
 6902SOL    HW132165   0.500   1.842  10.070  0.1195  0.9392  0.7995
 6902SOL    HW232166   0.544   1.732  10.147  2.3170  0.8219 -0.2403
 6903SOL     OW32167   1.368   3.291   6.202 -0.3502 -0.2355 -0.4442
 6903SOL    HW132168   1.440   3.236   6.172 -1.4607 -2.1593  0.3745
 6903SOL    HW232169   1.409   3.377   6.206  2.2433 -1.5339  1.4705
 6904SOL     OW32170   3.535   1.122  17.062  0.0977  0.2595 -0.1926
 6904SOL    HW132171   3.545   1.204  17.111 -1.5400 -1.4885  3.0626
 6904SOL    HW232172   3.531   1.055  17.129 -1.4214 -0.5255 -1.0515
 6905SOL     OW32173   0.863   2.957  14.624 -0.6804 -0.4241 -0.2855
 6905SOL    HW132174   0.918   2.969  14.701 -1.9955  2.0629  0.2706
 6905SOL    HW232175   0.774   2.949  14.658 -0.4892 -1.4430 -0.0177
 6906SOL     OW32176   4.655   1.607   2.567  0.2194  0.3642 -0.7963
 6906SOL    HW132177   4.619   1.538   2.622 -0.0394 -0.6826 -2.2774
 6906SOL    HW232178   4.700   1.551   2.504 -0.4111  0.3817 -1.2709
 6907SOL     OW32179   1.142   3.170  13.628 -0.0192 -0.0366 -0.7270
 6907SOL    HW132180   1.073   3.217  13.674  0.5302  0.1811 -0.1401
 6907SOL    HW232181   1.085   3.104  13.586  0.4363 -0.9705  0.1330
 6908SOL     OW32182   0.810   0.864  14.545 -0.4468 -0.0764 -0.3055
 6908SOL    HW132183   0.776   0.946  14.508  0.7571  0.5660  0.0262
 6908SOL    HW232184   0.736   0.810  14.517  0.3418 -1.3334  0.0659
 6909SOL     OW32185   1.767   4.404   0.201 -0.3032 -1.0375  0.7568
 6909SOL    HW132186   1.687   4.383   0.153 -0.0082  1.2704 -0.7122
 6909SOL    HW232187   1.770   4.498   0.216  1.0118 -1.2130  1.5554
 6910SOL     OW32188   2.391   4.649   8.799 -0.1699  0.2713  0.2832
 6910SOL    HW132189   2.396   4.631   8.705 -0.8247  1.7366 -0.0259
 6910SOL    HW232190   2.380   0.022   8.785  0.1390  0.4312  1.1590
 6911SOL     OW32191   3.199   3.460   8.445  0.6609  0.3293 -0.1639
 6911SOL    HW132192   3.139   3.509   8.388  1.3273  2.0909  0.6619
 6911SOL    HW232193   3.253   3.524   8.490  0.6217 -0.1392  0.5509
 6912SOL     OW32194   0.074   3.470   7.364 -0.9175 -0.3167 -0.3031
 6912SOL    HW132195   0.000   3.410   7.355 -0.5934 -0.3290 -2.8762
 6912SOL    HW232196   0.117   3.446   7.282  1.4638 -0.3706  0.9749
 6913SOL     OW32197   1.389   0.224   3.453 -0.1121  0.0512  0.3115
 6913SOL    HW132198   1.351   0.232   3.365  2.1114 -0.8267 -0.7305
 6913SOL    HW232199   1.340   0.145   3.476 -0.5241 -0.6008 -2.8480
 6914SOL     OW32200   1.308   4.423   5.798  0.0834 -0.4466  0.9212
 6914SOL    HW132201   1.222   4.416   5.755  0.2475  0.5859  0.4345
 6914SOL    HW232202   1.297   4.506   5.843 -0.8541 -0.3503  0.5243
 6915SOL     OW32203   2.603   3.013  10.433  0.1624  0.1263  0.3431
 6915SOL    HW132204   2.668   3.049  10.493  0.4240  2.6821 -1.4809
 6915SOL    HW232205   2.656   2.947  10.389 -1.6293 -0.5704 -0.7967
 6916SOL     OW32206   1.067   1.512   0.671  0.2907  0.1539 -0.0038
 6916SOL    HW132207   1.120   1.476   0.741  0.8297  3.6537  1.3816
 6916SOL    HW232208   1.118   1.495   0.592 -0.6584 -2.0563 -0.1357
 6917SOL     OW32209   0.166   0.797   1.826 -0.4567 -0.0794 -0.1031
 6917SOL    HW132210   0.161   0.883   1.785 -1.3052 -0.1023 -0.0388
 6917SOL    HW232211   0.177   0.750   1.743  0.6255 -0.6425  0.3458
 6918SOL     OW32212   1.455   2.206   5.624  0.0842  0.1128 -0.4924
 6918SOL    HW132213   1.495   2.120   5.637  1.4717  0.6240 -1.4092
 6918SOL    HW232214   1.529   2.236   5.572  1.2610 -1.5674  0.1960
 6919SOL     OW32215   1.651   1.111   6.248  0.7074 -0.1573 -0.1285
 6919SOL    HW132216   1.706   1.186   6.225  0.8748 -0.7129 -1.5375
 6919SOL    HW232217   1.708   1.083   6.320 -0.1169 -1.0604  0.1651
 6920SOL     OW32218   4.490   0.762  13.141  0.2054 -0.3778 -0.4737
 6920SOL    HW132219   4.576   0.719  13.138  0.1406 -0.5895  0.8987
 6920SOL    HW232220   4.500   0.767  13.236 -2.1955 -0.9861 -0.2001
 6921SOL     OW32221   2.803   0.678   8.826  0.6877 -0.0717  0.5158
 6921SOL    HW132222   2.800   0.711   8.736  0.4796 -2.8611 -0.4838
 6921SOL    HW232223   2.768   0.748   8.882 -0.0417  0.0495 -0.0899
 6922SOL     OW32224   2.195   0.963   2.443 -0.0381 -0.0609  0.5095
 6922SOL    HW132225   2.281   0.994   2.412 -1.5613 -0.5547 -4.2655
 6922SOL    HW232226   2.197   0.868   2.452 -0.1486 -0.3286 -2.4094
 6923SOL     OW32227   4.019   4.311   6.049 -0.0322  0.1740 -0.3888
 6923SOL    HW132228   4.063   4.361   5.980  0.0209 -0.4228 -0.7846
 6923SOL    HW232229   3.932   4.350   6.054 -1.1475 -2.5246  1.4427
 6924SOL     OW32230   2.815   4.448  11.411  0.3746  1.0564  0.1967
 6924SOL    HW132231   2.794   4.360  11.442 -0.9718  0.3550 -2.7082
 6924SOL    HW232232   2.832   4.433  11.318  1.1336  2.8744  0.0414
 6925SOL     OW32233   0.562   1.696  15.335 -0.2562 -0.2061 -0.0127
 6925SOL    HW132234   0.511   1.650  15.268 -1.3803  2.8671 -1.2475
 6925SOL    HW232235   0.520   1.781  15.329  0.1746  0.0221  0.2584
 6926SOL     OW32236   2.898   1.127   5.358 -0.0125  0.4015  0.0381
 6926SOL    HW132237   2.975   1.146   5.303 -0.2303 -0.4019 -0.5453
 6926SOL    HW232238   2.835   1.150   5.289 -1.5000  1.1290  1.6535
 6927SOL     OW32239   1.305   4.474  16.100 -0.5985 -0.2575 -0.7990
 6927SOL    HW132240   1.359   4.429  16.035  1.4240 -1.3574  1.6794
 6927SOL    HW232241   1.378   4.519  16.142 -1.6368  0.0021  0.7041
 6928SOL     OW32242   2.810   0.282  10.931 -0.7061 -0.6000 -0.1299
 6928SOL    HW132243   2.800   0.289  11.026 -1.0798 -0.2883 -0.1959
 6928SOL    HW232244   2.743   0.334  10.887  0.9683  3.4261  2.0193
 6929SOL     OW32245   0.088   4.270   5.519 -0.3828  0.1018 -0.1993
 6929SOL    HW132246   0.054   4.356   5.540  3.3115  2.1563 -2.6494
 6929SOL    HW232247   0.012   4.216   5.541  0.0402 -1.0096 -1.4823
 6930SOL     OW32248   2.599   1.330   6.270 -0.0247  0.5320  0.2987
 6930SOL    HW132249   2.520   1.359   6.315 -1.3034 -3.3461  0.4994
 6930SOL    HW232250   2.610   1.243   6.306  0.0236  1.4506  2.4868
 6931SOL     OW32251   0.531   0.347   6.460  0.5877 -0.3925 -0.3059
 6931SOL    HW132252   0.450   0.298   6.445 -1.6197  2.0574  3.5595
 6931SOL    HW232253   0.512   0.370   6.551 -0.4481 -1.7844 -0.1669
 6932SOL     OW32254   1.283   1.728   8.682 -0.3457 -0.0292  0.6480
 6932SOL    HW132255   1.295   1.683   8.765  3.3091 -1.1809 -0.5309
 6932SOL    HW232256   1.320   1.663   8.623  0.0235  0.2309  0.5984
 6933SOL     OW32257   0.042   3.579   7.602 -0.2051  0.0991 -0.1493
 6933SOL    HW132258   0.113   3.544   7.655 -1.3625 -2.1829 -0.1049
 6933SOL    HW232259   0.058   3.536   7.518  1.1391 -0.9044  0.6198
 6934SOL     OW32260   4.412   1.008   3.291 -0.1651 -0.2769 -0.3209
 6934SOL    HW132261   4.450   1.058   3.363 -1.8102 -3.0631  2.4927
 6934SOL    HW232262   4.487   1.007   3.232  0.4794 -0.2242  0.4948
 6935SOL     OW32263   0.265   0.789   1.058  0.2143  0.6529 -0.2830
 6935SOL    HW132264   0.317   0.825   1.130 -2.0101  0.8498  1.2025
 6935SOL    HW232265   0.304   0.702   1.049  1.3051  1.1058  0.0274
 6936SOL     OW32266   1.642   1.233  11.552  0.5402 -0.3824 -0.3397
 6936SOL    HW132267   1.622   1.142  11.533 -2.6842  0.6818 -1.9481
 6936SOL    HW232268   1.598   1.240  11.637  0.2253  1.7761 -0.6626
 6937SOL     OW32269   3.035   2.812   8.836  0.1536  0.2023  0.1455
 6937SOL    HW132270   3.022   2.745   8.903  2.7925  2.1828  2.6813
 6937SOL    HW232271   3.104   2.863   8.878 -1.2254 -0.2194  2.9121
 6938SOL     OW32272   1.198   4.179  10.983  0.6255 -0.3332  0.1578
 6938SOL    HW132273   1.245   4.261  10.964  1.8507 -0.9275  0.6185
 6938SOL    HW232274   1.214   4.135  10.900  1.8585 -0.0266  0.2328
 6939SOL     OW32275   0.133   0.477   8.032  0.0924 -0.2181  0.0416
 6939SOL    HW132276   0.155   0.431   8.113 -0.7523 -0.9471 -0.1491
 6939SOL    HW232277   0.082   0.408   7.989 -0.5845  0.5295 -0.3527
 6940SOL     OW32278   1.746   2.208   3.882  0.2087  0.2967 -0.4211
 6940SOL    HW132279   1.710   2.128   3.920 -1.2072  1.1269 -0.0020
 6940SOL    HW232280   1.751   2.270   3.954 -0.5566  2.7765 -2.4913
 6941SOL     OW32281   2.902   1.185   1.176  0.2068 -0.3208 -0.0171
 6941SOL    HW132282   2.939   1.103   1.144  0.9339  1.2519 -3.1328
 6941SOL    HW232283   2.808   1.169   1.163  0.6895 -2.6931 -0.5657
 6942SOL     OW32284   0.317   1.853   8.730  0.3540  0.2047  0.0822
 6942SOL    HW132285   0.294   1.946   8.730 -0.3410  0.0349  1.4058
 6942SOL    HW232286   0.404   1.840   8.691  0.0354 -2.7415  0.3692
 6943SOL     OW32287   2.155   0.441   2.079  0.3964 -0.4151  0.0609
 6943SOL    HW132288   2.110   0.416   1.998  0.6926 -1.2071  0.1480
 6943SOL    HW232289   2.132   0.365   2.132  0.9889 -0.4504  0.2690
 6944SOL     OW32290   2.593   2.274   7.035 -0.3123  0.3127 -0.3376
 6944SOL    HW132291   2.541   2.350   7.009  2.7845  2.9113  1.0833
 6944SOL    HW232292   2.667   2.291   6.977  0.6911  0.6501  1.0404
 6945SOL     OW32293   3.220   1.091   5.328 -0.1507  0.6820 -0.2854
 6945SOL    HW132294   3.292   1.057   5.381  0.3862  0.1064 -1.3847
 6945SOL    HW232295   3.217   1.185   5.348 -0.9222  0.3935  0.9386
 6946SOL     OW32296   4.626   3.029   9.490 -0.5379  0.3524  0.7020
 6946SOL    HW132297   4.606   2.935   9.501  1.9663 -0.5580 -2.7159
 6946SOL    HW232298   4.544   3.073   9.468 -0.6945  0.5654  1.7245
 6947SOL     OW32299   2.727   4.395   3.165 -0.3091 -0.3525 -1.0005
 6947SOL    HW132300   2.808   4.443   3.183 -1.5082  1.1437  0.4517
 6947SOL    HW232301   2.715   4.338   3.241 -3.5619  0.0750 -1.1595
 6948SOL     OW32302   0.255   3.868   7.460 -0.0598 -0.5687  0.4208
 6948SOL    HW132303   0.317   3.795   7.462  0.1606 -0.4545 -2.0131
 6948SOL    HW232304   0.203   3.836   7.386  0.4995 -0.4920 -0.0023
 6949SOL     OW32305   0.185   4.091  15.916 -0.2909  0.0636 -0.2913
 6949SOL    HW132306   0.217   4.006  15.945 -0.2843  0.5223  1.0472
 6949SOL    HW232307   0.100   4.075  15.875 -0.8906  0.5577  0.7648
 6950SOL     OW32308   3.646   2.642   3.819  0.4969  0.2003 -0.4155
 6950SOL    HW132309   3.638   2.679   3.907 -1.0957 -1.4270  0.1051
 6950SOL    HW232310   3.741   2.642   3.809  0.6865  0.0844  1.3457
 6951SOL     OW32311   4.480   0.595   3.322  0.0169  0.3882 -0.2239
 6951SOL    HW132312   4.546   0.658   3.292  0.0641 -0.4056 -1.7692
 6951SOL    HW232313   4.408   0.653   3.344  0.0680  0.4055 -0.1016
 6952SOL     OW32314   2.241   0.191   0.583  0.1314 -0.1525 -0.0849
 6952SOL    HW132315   2.146   0.198   0.574  0.3334  0.0209 -2.2397
 6952SOL    HW232316   2.271   0.273   0.621 -1.3364 -0.9776  2.8505
 6953SOL     OW32317   2.468   3.981   1.913  0.3851  0.1240 -0.2178
 6953SOL    HW132318   2.474   4.076   1.903 -0.4810  0.2115  0.1321
 6953SOL    HW232319   2.393   3.967   1.970  0.3840 -1.9978 -0.7253
 6954SOL     OW32320   0.715   3.600   5.235  0.2419 -0.4451  0.0238
 6954SOL    HW132321   0.637   3.612   5.290 -1.1011  0.2004 -2.0107
 6954SOL    HW232322   0.710   3.677   5.178  3.3176 -0.1926  0.1030
 6955SOL     OW32323   3.578   0.045  12.032 -0.2651  0.4092  0.0263
 6955SOL    HW132324   3.665   0.048  11.993 -0.4495 -1.6844 -0.5345
 6955SOL    HW232325   3.590   4.712  12.111  0.7780  0.3250 -0.1921
 6956SOL     OW32326   3.690   2.872   1.758 -0.2142  0.1856  0.6142
 6956SOL    HW132327   3.748   2.944   1.782  1.1652 -0.5302 -0.5280
 6956SOL    HW232328   3.722   2.866   1.668  0.7322  2.9928  0.7809
 6957SOL     OW32329   0.189   0.249   8.247  0.6894  0.7283  0.0378
 6957SOL    HW132330   0.184   0.216   8.158  1.1602  0.3169  0.1632
 6957SOL    HW232331   0.251   0.185   8.282 -0.0428  0.1118  0.2076
 6958SOL     OW32332   1.027   4.695   8.294  0.1027 -0.4776 -0.3026
 6958SOL    HW132333   0.954   4.656   8.246  0.1874 -0.0916 -0.7437
 6958SOL    HW232334   1.081   4.616   8.290  1.5893  0.4989  0.4034
 6959SOL     OW32335   3.411   2.810   2.090 -0.2737 -0.0931 -0.9839
 6959SOL    HW132336   3.421   2.720   2.121 -0.5218  0.0332 -0.5381
 6959SOL    HW232337   3.453   2.804   2.004  0.5257  1.2309 -0.6869
 6960SOL     OW32338   1.721   1.554   3.477 -0.7437 -0.7023  0.2092
 6960SOL    HW132339   1.694   1.485   3.417  0.7846  1.1397 -2.5846
 6960SOL    HW232340   1.804   1.521   3.512 -1.1009  1.4500  3.1384
 6961SOL     OW32341   3.864   2.517   6.016 -0.1891 -0.2297 -0.2075
 6961SOL    HW132342   3.775   2.547   6.032  0.9012  2.9809 -0.2008
 6961SOL    HW232343   3.882   2.486   6.104  1.5222 -1.6773 -1.0693
 6962SOL     OW32344   4.444   0.192   7.951 -0.8199 -0.0266 -0.2614
 6962SOL    HW132345   4.377   0.158   7.892  0.0207  2.8846 -2.8750
 6962SOL    HW232346   4.452   0.128   8.022 -0.0229  1.4561  0.9855
 6963SOL     OW32347   1.508   2.724   8.662 -0.1175  0.3952 -0.1330
 6963SOL    HW132348   1.525   2.634   8.634 -0.8467  0.3373 -0.3879
 6963SOL    HW232349   1.533   2.719   8.755  0.4536 -0.4302 -0.3299
 6964SOL     OW32350   1.562   0.749   1.726  0.0548  0.3928 -0.8220
 6964SOL    HW132351   1.608   0.688   1.784  1.1529  0.8769 -1.1744
 6964SOL    HW232352   1.625   0.821   1.739 -0.0572  0.1862  0.9434
 6965SOL     OW32353   4.556   4.444  13.680 -0.5436  0.2784 -0.4179
 6965SOL    HW132354   4.633   4.468  13.629 -0.5914 -1.7653 -1.4665
 6965SOL    HW232355   4.492   4.430  13.610 -2.6841  1.2300  1.3563
 6966SOL     OW32356   4.111   0.089   8.870 -0.3898  0.0612  0.3132
 6966SOL    HW132357   4.073   0.119   8.788 -0.5317 -0.1055  0.3164
 6966SOL    HW232358   4.028   0.100   8.918 -0.2530  1.5007  0.2227
 6967SOL     OW32359   0.566   0.383   4.053  0.2829 -1.0084 -0.5856
 6967SOL    HW132360   0.580   0.379   4.147 -0.5840  0.7345 -0.3761
 6967SOL    HW232361   0.471   0.372   4.058  0.3926 -1.6513 -0.0134
 6968SOL     OW32362   0.171   3.018   3.761 -0.3724  0.3012 -0.5407
 6968SOL    HW132363   0.251   3.019   3.708  0.3438  1.8489  0.5751
 6968SOL    HW232364   0.118   3.066   3.698 -1.2072  0.4546  0.2680
 6969SOL     OW32365   3.191   3.548  14.902 -0.5992  0.1228 -0.6777
 6969SOL    HW132366   3.167   3.640  14.890 -1.0218  0.1984  0.7436
 6969SOL    HW232367   3.120   3.503  14.856  0.3034 -2.0729  0.0877
 6970SOL     OW32368   3.717   0.665   6.888 -0.2687  0.1421 -0.2699
 6970SOL    HW132369   3.630   0.634   6.909  0.0318 -1.9205 -2.0956
 6970SOL    HW232370   3.699   0.743   6.835  2.2859 -0.4362 -2.0036
 6971SOL     OW32371   1.417   1.291   6.477 -1.0817 -0.3502 -0.2086
 6971SOL    HW132372   1.498   1.251   6.508 -0.7801 -0.3393 -0.9619
 6971SOL    HW232373   1.427   1.383   6.499 -0.3061 -0.4736 -0.0597
 6972SOL     OW32374   0.286   1.886   2.494 -0.7560  0.4433  0.4594
 6972SOL    HW132375   0.318   1.825   2.560 -0.0574  0.0831 -0.2119
 6972SOL    HW232376   0.360   1.903   2.435 -2.0680  1.7320 -0.8318
 6973SOL     OW32377   0.677   3.885   9.183 -1.0031 -0.5063  0.4394
 6973SOL    HW132378   0.662   3.818   9.117 -1.7660  0.6015 -0.5224
 6973SOL    HW232379   0.680   3.959   9.122  0.0662 -2.1679 -1.5003
 6974SOL     OW32380   2.771   3.793   9.922 -0.1398 -0.5908  0.3671
 6974SOL    HW132381   2.855   3.819   9.883  0.2192 -1.3952  0.5991
 6974SOL    HW232382   2.719   3.778   9.843 -1.6250 -1.9334  1.6249
 6975SOL     OW32383   1.159   0.002  16.010 -0.4416 -0.3949 -0.1537
 6975SOL    HW132384   1.208   4.645  15.984 -2.2806 -0.8497 -2.2210
 6975SOL    HW232385   1.204   0.052  15.941  2.2705 -0.1023  1.8074
 6976SOL     OW32386   3.873   2.750   8.066  0.8259 -0.4111 -0.3992
 6976SOL    HW132387   3.883   2.801   8.147  0.1670 -2.2043  0.8274
 6976SOL    HW232388   3.829   2.672   8.100  2.3315  0.2122  2.9473
 6977SOL     OW32389   3.874   2.372   3.804 -0.5188 -0.5004 -0.7144
 6977SOL    HW132390   3.873   2.342   3.713  0.6702  0.4674 -1.0491
 6977SOL    HW232391   3.915   2.457   3.790 -0.3566 -0.0232  2.7022
 6978SOL     OW32392   3.589   3.204  11.982  0.2702 -0.2421  0.1795
 6978SOL    HW132393   3.500   3.229  11.957 -0.5232 -2.4237  0.7994
 6978SOL    HW232394   3.622   3.157  11.905  3.1096 -0.0728  1.2983
 6979SOL     OW32395   1.379   1.719  15.574 -0.1091 -0.2638 -0.0762
 6979SOL    HW132396   1.472   1.716  15.598 -0.3844 -1.9564  0.6844
 6979SOL    HW232397   1.352   1.801  15.615 -0.9657  0.9638 -3.0888
 6980SOL     OW32398   3.919   3.194   6.191  0.3447  0.2563  0.7936
 6980SOL    HW132399   3.926   3.205   6.286  2.0960 -0.4557  0.7605
 6980SOL    HW232400   3.975   3.269   6.173  3.2924 -1.9023  0.8878
 6981SOL     OW32401   0.740   0.515  10.358  0.3304 -0.2118 -0.0049
 6981SOL    HW132402   0.802   0.460  10.406  0.8230  1.1118  0.8453
 6981SOL    HW232403   0.777   0.602  10.368  0.4273 -0.1621 -0.7530
 6982SOL     OW32404   2.355   0.270   6.320 -0.3353 -0.0978 -0.4083
 6982SOL    HW132405   2.438   0.317   6.321 -0.2825 -0.2028  0.1862
 6982SOL    HW232406   2.377   0.183   6.353  1.6363  0.9361  0.9416
 6983SOL     OW32407   1.486   1.425   4.587 -0.1505  0.3859  0.2534
 6983SOL    HW132408   1.437   1.395   4.511  2.4803 -1.8507 -0.5843
 6983SOL    HW232409   1.577   1.399   4.571 -0.5872 -1.7334  1.2563
 6984SOL     OW32410   0.285   4.568  11.135 -0.2142 -0.0026  1.0083
 6984SOL    HW132411   0.354   4.632  11.153  0.7959 -0.7597 -0.1217
 6984SOL    HW232412   0.331   4.491  11.102 -1.2399  0.1966 -0.8725
 6985SOL     OW32413   2.664   3.311   5.777  0.2439  0.1012  0.2366
 6985SOL    HW132414   2.665   3.407   5.774  1.7796  0.0721 -0.1927
 6985SOL    HW232415   2.749   3.290   5.816 -1.1861 -0.9496  2.7957
 6986SOL     OW32416   4.689   0.072   0.886 -0.6357 -0.3531 -0.6617
 6986SOL    HW132417   0.043   0.016   0.908 -0.7456  0.0185  0.6340
 6986SOL    HW232418   4.653   0.079   0.974 -1.3078 -0.6519 -0.9083
 6987SOL     OW32419   2.792   0.079  15.894 -0.2955 -0.6595  0.2664
 6987SOL    HW132420   2.762   0.105  15.807 -0.4760  0.5535  0.6981
 6987SOL    HW232421   2.882   0.048  15.883 -0.4026 -0.6484 -0.6746
 6988SOL     OW32422   3.941   4.455   1.095 -0.0300  0.2914 -0.1054
 6988SOL    HW132423   3.972   4.486   1.180 -0.7035 -1.3946  0.7565
 6988SOL    HW232424   3.972   4.364   1.091 -2.1736 -0.5183  2.1641
 6989SOL     OW32425   2.892   1.470   7.473  0.3245 -0.2314  0.2348
 6989SOL    HW132426   2.954   1.539   7.495 -1.5936  1.7647 -0.6412
 6989SOL    HW232427   2.901   1.422   7.556 -0.5415 -0.9109 -0.0652
 6990SOL     OW32428   3.736   3.809   7.179 -0.0326  0.0844  0.1580
 6990SOL    HW132429   3.642   3.826   7.173 -0.0272 -0.6513 -2.1035
 6990SOL    HW232430   3.752   3.741   7.114  2.3472  0.1012  0.7234
 6991SOL     OW32431   1.350   1.644  11.159  0.5635 -0.3814 -0.3814
 6991SOL    HW132432   1.357   1.549  11.150  0.2241 -0.3615 -0.8974
 6991SOL    HW232433   1.439   1.670  11.137  0.3125  2.5338  1.9980
 6992SOL     OW32434   2.447   4.315   8.959 -0.8201 -0.4741 -0.0538
 6992SOL    HW132435   2.501   4.244   8.993  0.4487 -0.0564 -1.1910
 6992SOL    HW232436   2.366   4.265   8.944  2.1418 -5.1922 -0.1820
 6993SOL     OW32437   0.812   3.778   7.963  0.1803  0.0248  0.0455
 6993SOL    HW132438   0.825   3.754   7.871  2.0071  0.8465  0.0929
 6993SOL    HW232439   0.721   3.765   7.989  0.0164  3.1025  1.0044
 6994SOL     OW32440   1.469   0.654   2.586  0.1174 -0.2323  0.0981
 6994SOL    HW132441   1.549   0.612   2.555 -1.7546 -0.8378 -3.8953
 6994SOL    HW232442   1.506   0.694   2.665 -2.1958  1.5710  0.2690
 6995SOL     OW32443   4.002   4.231   5.246 -0.1381 -0.3618 -0.3298
 6995SOL    HW132444   4.021   4.282   5.167 -2.4323  2.3181  0.8462
 6995SOL    HW232445   3.933   4.170   5.220 -0.7119 -0.5222  1.5589
 6996SOL     OW32446   0.954   4.706   7.358 -0.7099 -0.4484 -0.2470
 6996SOL    HW132447   0.905   0.024   7.286 -0.5965  1.3060  0.6217
 6996SOL    HW232448   0.901   4.711   7.438  3.0708  0.0429  2.2397
 6997SOL     OW32449   4.561   1.789   8.613  0.0387  0.0216 -0.3831
 6997SOL    HW132450   4.640   1.735   8.615  0.2189  0.2593 -0.8641
 6997SOL    HW232451   4.538   1.762   8.524  1.8546  0.2764 -0.9271
 6998SOL     OW32452   3.729   3.414  16.108  0.1832  0.0992  0.3210
 6998SOL    HW132453   3.648   3.435  16.061 -1.9176 -3.3889  2.3948
 6998SOL    HW232454   3.793   3.436  16.040 -0.2018 -1.7007 -0.6033
 6999SOL     OW32455   1.755   2.366   4.094 -0.3956  0.4578 -0.0898
 6999SOL    HW132456   1.801   2.379   4.176 -0.5418 -1.1117  0.2491
 6999SOL    HW232457   1.731   2.457   4.075 -1.4552  0.3470  0.7011
 7000SOL     OW32458   4.670   0.279   2.246  0.2598  0.2346 -0.3303
 7000SOL    HW132459   4.620   0.212   2.293 -0.8814  0.3457 -1.3890
 7000SOL    HW232460   4.602   0.317   2.190  1.6040 -1.5331 -3.1434
 7001SOL     OW32461   2.405   4.720   0.830 -0.2149  0.1406  0.2926
 7001SOL    HW132462   2.389   0.047   0.749 -0.6151 -0.6927 -0.1135
 7001SOL    HW232463   2.438   0.067   0.889 -0.3451  1.0721 -0.7094
 7002SOL     OW32464   1.509   3.611   6.688  0.1085  0.0999  0.3448
 7002SOL    HW132465   1.457   3.674   6.737  0.7396 -0.2959  1.5223
 7002SOL    HW232466   1.582   3.669   6.665  1.5546 -0.4965  3.5167
 7003SOL     OW32467   2.847   1.278   3.946  0.3686 -0.3464  0.0111
 7003SOL    HW132468   2.917   1.231   3.901 -0.4731  0.2219 -1.8790
 7003SOL    HW232469   2.879   1.263   4.035 -0.0974 -1.0598  0.0673
 7004SOL     OW32470   2.435   0.785   6.222  0.6252 -0.2200 -0.1794
 7004SOL    HW132471   2.503   0.847   6.196  0.6749 -0.3867 -0.4445
 7004SOL    HW232472   2.397   0.764   6.137 -1.7692  2.6718  0.1527
 7005SOL     OW32473   3.158   3.651   2.692  0.1569 -0.0867 -0.4284
 7005SOL    HW132474   3.075   3.695   2.674 -0.3330 -0.0493  1.8757
 7005SOL    HW232475   3.186   3.636   2.602  1.0327 -0.6006 -0.0684
 7006SOL     OW32476   2.951   2.147   3.287 -0.3480  0.0874  0.5219
 7006SOL    HW132477   2.953   2.156   3.382  0.2711  1.6242  0.3663
 7006SOL    HW232478   3.023   2.204   3.260 -0.0778 -1.0724 -1.1919
 7007SOL     OW32479   3.304   3.635   3.273  0.0034 -0.0050 -0.6268
 7007SOL    HW132480   3.366   3.708   3.272  0.5123 -0.4319 -0.3008
 7007SOL    HW232481   3.288   3.631   3.368  0.5579 -1.2245 -0.5844
 7008SOL     OW32482   2.926   0.356   6.090  0.1221  0.1844  0.0719
 7008SOL    HW132483   2.901   0.283   6.032 -2.7069  0.7657  0.5437
 7008SOL    HW232484   2.905   0.316   6.175  0.9614 -1.6540 -0.5721
 7009SOL     OW32485   2.340   1.680   7.108 -0.0832 -0.2451  0.3234
 7009SOL    HW132486   2.391   1.634   7.175  0.9165 -0.0829 -0.3248
 7009SOL    HW232487   2.407   1.738   7.073 -0.7513  0.8462  0.8486
 7010SOL     OW32488   0.161   2.723   7.513 -0.3530 -0.3238 -0.3432
 7010SOL    HW132489   0.243   2.680   7.536 -1.1806 -1.5465  0.3145
 7010SOL    HW232490   0.094   2.657   7.530 -0.7066 -0.1580 -1.1180
 7011SOL     OW32491   3.153   2.996   9.119 -0.4696 -0.6954 -0.2561
 7011SOL    HW132492   3.153   3.062   9.050  0.6746 -1.1892 -0.7247
 7011SOL    HW232493   3.115   3.047   9.190  3.2320  1.1628  0.3640
 7012SOL     OW32494   3.914   0.767  12.090 -0.7179 -0.1240 -0.0255
 7012SOL    HW132495   3.997   0.789  12.132 -1.3114 -0.3658  1.2961
 7012SOL    HW232496   3.914   0.801  12.001  0.5209  0.1317  0.0682
 7013SOL     OW32497   3.021   3.832  11.025  0.0896 -0.0930 -0.1058
 7013SOL    HW132498   3.073   3.758  10.993  1.0982  0.6016 -0.0792
 7013SOL    HW232499   2.936   3.789  11.040  0.4021  0.2939  2.6428
 7014SOL     OW32500   4.209   0.352   5.645 -0.5896 -0.1099  0.2129
 7014SOL    HW132501   4.148   0.311   5.584  1.2566 -1.2514 -0.8621
 7014SOL    HW232502   4.242   0.429   5.599 -1.6412 -1.6252 -3.0931
 7015SOL     OW32503   1.890   2.966   6.963 -0.1482 -0.9213 -0.1309
 7015SOL    HW132504   1.903   2.981   6.870 -0.4012 -1.1064 -0.1971
 7015SOL    HW232505   1.855   2.877   6.959  0.7254 -1.3839  2.0405
 7016SOL     OW32506   4.414   0.844   4.221 -0.0099 -0.0282  0.2463
 7016SOL    HW132507   4.368   0.873   4.300  0.8626  1.3081  0.2579
 7016SOL    HW232508   4.470   0.920   4.203 -1.4456  1.1717  0.8009
 7017SOL     OW32509   0.880   1.282  14.198  0.2149 -0.3324 -0.2686
 7017SOL    HW132510   0.807   1.300  14.256  0.4471  1.5739 -0.5609
 7017SOL    HW232511   0.916   1.206  14.243 -0.8814 -0.6162  0.1177
 7018SOL     OW32512   0.305   0.391   2.433 -0.5833  0.1286 -0.0966
 7018SOL    HW132513   0.215   0.359   2.445 -0.8223  0.6214 -0.5831
 7018SOL    HW232514   0.343   0.376   2.519 -0.9713 -1.0869 -0.1426
 7019SOL     OW32515   0.246   2.769   6.345 -0.3491 -0.2622  0.1318
 7019SOL    HW132516   0.204   2.845   6.385  0.8947  1.1196 -1.1573
 7019SOL    HW232517   0.245   2.707   6.417 -0.1233  0.1060  0.4521
 7020SOL     OW32518   2.769   2.044   3.924 -0.8010 -0.0206 -0.2602
 7020SOL    HW132519   2.702   2.054   3.856 -0.5070 -1.9670 -0.8241
 7020SOL    HW232520   2.792   2.136   3.938  1.4067 -0.3827 -1.6853
 7021SOL     OW32521   0.338   0.933  14.091 -0.3094  0.2466  0.0280
 7021SOL    HW132522   0.395   0.873  14.043 -0.9953 -0.8518  0.6122
 7021SOL    HW232523   0.342   0.907  14.183 -1.6036 -5.6183 -1.5590
 7022SOL     OW32524   2.489   1.305   7.037  1.0373  0.0220  0.1110
 7022SOL    HW132525   2.403   1.311   7.078 -0.0956 -0.3811 -2.1877
 7022SOL    HW232526   2.457   1.260   6.958 -0.4407 -0.3028  0.8853
 7023SOL     OW32527   1.456   3.290   8.558 -1.0778  0.3385  0.4164
 7023SOL    HW132528   1.546   3.323   8.552 -0.3008 -1.7759  0.3849
 7023SOL    HW232529   1.471   3.196   8.571 -0.4291  0.4073  0.1409
 7024SOL     OW32530   1.435   0.758   7.872 -0.6466 -0.4162 -0.3509
 7024SOL    HW132531   1.348   0.778   7.837 -1.2330 -0.4831  1.0288
 7024SOL    HW232532   1.437   0.825   7.941 -1.1625  1.0649 -1.7712
 7025SOL     OW32533   3.730   1.644  10.705 -0.0801 -0.5001 -0.0133
 7025SOL    HW132534   3.651   1.608  10.663 -1.0148  0.0218  1.3226
 7025SOL    HW232535   3.773   1.694  10.636 -1.8135  1.1409  0.0918
 7026SOL     OW32536   1.355   2.688  11.793 -0.4330 -0.4860  0.6486
 7026SOL    HW132537   1.293   2.697  11.865  0.3547 -1.5768  1.4552
 7026SOL    HW232538   1.447   2.688  11.820 -0.4035 -0.9978  0.5467
 7027SOL     OW32539   0.986   1.876   4.443 -0.4309  0.1614  0.2858
 7027SOL    HW132540   0.921   1.904   4.378  0.9900  1.3680 -0.6265
 7027SOL    HW232541   0.932   1.880   4.522  0.2952 -0.1370  0.7966
 7028SOL     OW32542   3.241   2.941  16.867 -0.2898  0.4335  0.4298
 7028SOL    HW132543   3.252   2.998  16.944  4.2439 -1.3036  1.0674
 7028SOL    HW232544   3.167   2.885  16.888  0.4531 -0.9508 -0.6666
 7029SOL     OW32545   2.113   2.041   9.058  0.4656 -0.4118 -0.8171
 7029SOL    HW132546   2.105   2.062   8.965 -0.2112 -0.4333 -0.7608
 7029SOL    HW232547   2.160   1.958   9.045 -0.7178 -1.2321  0.2837
 7030SOL     OW32548   2.417   4.176   9.633 -0.4090 -0.0385 -0.0751
 7030SOL    HW132549   2.343   4.236   9.618 -0.1069 -0.0180 -1.5017
 7030SOL    HW232550   2.405   4.132   9.549 -0.2845  0.5707 -0.4155
 7031SOL     OW32551   3.007   0.343   9.778  0.7627 -0.1421 -0.7175
 7031SOL    HW132552   2.992   0.270   9.838  1.3090 -1.8441 -2.6534
 7031SOL    HW232553   3.051   0.412   9.828 -1.1172 -1.3611  2.5759
 7032SOL     OW32554   4.002   1.988   9.774  0.1887 -0.2676  0.0267
 7032SOL    HW132555   4.015   2.031   9.859 -0.1626 -1.6959  0.7983
 7032SOL    HW232556   4.081   1.934   9.770  1.4839  1.6429 -0.2377
 7033SOL     OW32557   2.931   0.416   0.688 -0.2077  0.1989  0.0183
 7033SOL    HW132558   2.919   0.420   0.593  0.0452  0.1636 -0.0131
 7033SOL    HW232559   2.887   0.496   0.718  0.4881  0.4623  0.3437
 7034SOL     OW32560   2.189   1.311   4.397 -0.2995  0.3410 -0.0345
 7034SOL    HW132561   2.163   1.400   4.421 -0.0511  0.7249 -1.1553
 7034SOL    HW232562   2.205   1.316   4.302  0.5109  2.2660  0.2006
 7035SOL     OW32563   2.385   0.183   5.699  0.0720  0.4014 -0.3037
 7035SOL    HW132564   2.351   0.202   5.612 -3.4657 -1.2709  0.7405
 7035SOL    HW232565   2.473   0.221   5.700 -0.0058  0.5074  2.0769
 7036SOL     OW32566   3.349   3.428   5.487  0.0142  0.1212  0.0120
 7036SOL    HW132567   3.408   3.355   5.468 -1.5784 -1.2644  0.3882
 7036SOL    HW232568   3.283   3.383   5.539 -0.4479 -1.1296 -1.6328
 7037SOL     OW32569   2.863   2.996   6.261 -0.8850 -0.4921 -0.0824
 7037SOL    HW132570   2.840   3.030   6.175  0.8426 -0.8724 -0.6907
 7037SOL    HW232571   2.851   3.075   6.313  0.1065 -2.7642  3.6659
 7038SOL     OW32572   1.127   3.375   5.451 -0.1221  0.3692  0.5320
 7038SOL    HW132573   1.037   3.387   5.422 -0.3113 -2.8527 -0.1860
 7038SOL    HW232574   1.127   3.429   5.530 -0.3104  0.9721  0.1211
 7039SOL     OW32575   0.868   4.683   7.630 -0.3903  0.4958  0.0630
 7039SOL    HW132576   0.793   4.638   7.669  0.2539 -2.7991 -2.5790
 7039SOL    HW232577   0.889   0.033   7.692  1.8523 -0.9177  0.8976
 7040SOL     OW32578   3.660   0.239   3.358  0.0929 -0.1545  0.1835
 7040SOL    HW132579   3.723   0.276   3.420 -2.1317  1.4323  1.4825
 7040SOL    HW232580   3.594   0.205   3.418 -0.1724 -1.7610 -1.0149
 7041SOL     OW32581   3.807   4.128   1.074  0.1878  0.4144 -0.2506
 7041SOL    HW132582   3.750   4.189   1.120 -1.0544 -1.4263  0.6378
 7041SOL    HW232583   3.790   4.143   0.981  0.3888 -0.3899 -0.4170
 7042SOL     OW32584   2.199   0.817   6.818 -0.3025  0.0657  0.1278
 7042SOL    HW132585   2.169   0.739   6.864  0.3472  1.0149  2.2076
 7042SOL    HW232586   2.194   0.880   6.890 -0.4885  0.2039 -0.0052
 7043SOL     OW32587   3.573   3.246   2.831  0.0267 -0.1952 -0.5642
 7043SOL    HW132588   3.644   3.308   2.811  0.5880 -0.5992  0.1552
 7043SOL    HW232589   3.553   3.232   2.738  5.6887  0.8418 -1.9388
 7044SOL     OW32590   3.506   0.161  15.755 -0.0773  0.5112  0.1175
 7044SOL    HW132591   3.414   0.177  15.733 -0.6710 -2.3743  0.5364
 7044SOL    HW232592   3.553   0.244  15.763 -1.2612  1.0266  1.7509
 7045SOL     OW32593   2.443   1.317   0.643 -0.5582  0.2963  0.2925
 7045SOL    HW132594   2.381   1.292   0.574  0.5798  0.9398 -0.9560
 7045SOL    HW232595   2.416   1.405   0.667 -1.6037  0.1441 -0.2772
 7046SOL     OW32596   2.923   1.137  17.441  0.4094  0.4572  0.0806
 7046SOL    HW132597   2.829   1.135  17.422 -0.1096 -0.4408  2.7821
 7046SOL    HW232598   2.935   1.056  17.391 -1.0368 -0.2762  0.9187
 7047SOL     OW32599   0.939   1.676   5.150 -0.1545  0.0895 -0.0359
 7047SOL    HW132600   0.970   1.704   5.064 -0.4553 -1.2659 -0.5767
 7047SOL    HW232601   0.948   1.581   5.141 -0.3208  0.1870 -1.1495
 7048SOL     OW32602   0.488   1.229   6.105  0.0879 -0.6151  0.3835
 7048SOL    HW132603   0.500   1.275   6.189  2.1398 -1.3353  0.4967
 7048SOL    HW232604   0.421   1.162   6.118 -2.1004  1.4875 -0.1444
 7049SOL     OW32605   4.536   3.730   8.056 -0.4609 -0.2208  0.5276
 7049SOL    HW132606   4.490   3.665   8.003  3.2018 -3.1378  0.9679
 7049SOL    HW232607   4.492   3.813   8.036  0.9799  0.9077  2.0768
 7050SOL     OW32608   1.873   1.493   5.084 -0.0232  0.8475  0.4134
 7050SOL    HW132609   1.930   1.500   5.008  0.1559  2.7352  0.7213
 7050SOL    HW232610   1.892   1.578   5.123  1.8660  2.1348 -3.4337
 7051SOL     OW32611   4.299   1.050   4.426  0.2241  0.0974  0.7197
 7051SOL    HW132612   4.236   0.980   4.413  0.1012 -0.4160  4.1180
 7051SOL    HW232613   4.249   1.125   4.394  0.4528  0.4578  1.2009
 7052SOL     OW32614   0.353   3.069   6.217  0.2067  0.5242  0.6625
 7052SOL    HW132615   0.422   3.128   6.186 -0.1958  0.6762  0.0486
 7052SOL    HW232616   0.322   3.039   6.132  0.5200  0.8281  0.4440
 7053SOL     OW32617   0.854   2.965   4.303 -0.1793 -0.2556  0.3093
 7053SOL    HW132618   0.779   2.909   4.286  0.4042 -0.7038 -0.7941
 7053SOL    HW232619   0.849   2.976   4.398  0.4377 -0.3141  0.3472
 7054SOL     OW32620   4.194   3.026  16.534  0.2479  0.0520  0.1542
 7054SOL    HW132621   4.173   2.973  16.456  0.1912 -1.4016  1.1552
 7054SOL    HW232622   4.113   3.017  16.584  0.6182  0.9122  0.9131
 7055SOL     OW32623   1.579   3.989   6.760 -0.0530  0.1479 -0.2447
 7055SOL    HW132624   1.592   3.905   6.715  0.5066  0.9273 -1.5392
 7055SOL    HW232625   1.639   4.041   6.706 -0.8082  1.0129 -0.2646
 7056SOL     OW32626   4.579   0.277   3.931 -0.3604  0.2204 -0.1867
 7056SOL    HW132627   4.497   0.227   3.922 -0.0504 -0.5596  1.2012
 7056SOL    HW232628   4.568   0.328   4.011 -1.1641  1.3869 -1.0546
 7057SOL     OW32629   2.438   2.177   5.616 -0.4063  0.4631  0.6339
 7057SOL    HW132630   2.466   2.265   5.590 -0.1043 -0.3292 -1.7000
 7057SOL    HW232631   2.385   2.206   5.691 -2.1179  2.2213 -1.2374
 7058SOL     OW32632   1.673   1.990  13.189 -0.0174  0.2445  0.3069
 7058SOL    HW132633   1.617   2.015  13.116 -0.9036  1.1790  1.3076
 7058SOL    HW232634   1.677   2.066  13.247  0.1131  1.2456 -1.0161
 7059SOL     OW32635   1.038   0.843   7.270  0.1190 -0.3768  0.1437
 7059SOL    HW132636   0.969   0.856   7.204 -0.2024  2.3044  1.0229
 7059SOL    HW232637   1.042   0.919   7.328 -2.5291 -0.8291  0.9153
 7060SOL     OW32638   0.420   0.754   7.105 -0.2472  0.5675  0.2835
 7060SOL    HW132639   0.464   0.675   7.073 -0.2412 -0.1831  2.1865
 7060SOL    HW232640   0.408   0.726   7.195 -0.1427  2.5184  0.8980
 7061SOL     OW32641   4.135   3.248   9.248 -0.1414  0.3479 -0.4791
 7061SOL    HW132642   4.135   3.344   9.258  0.8334  0.2699  0.2576
 7061SOL    HW232643   4.051   3.223   9.210 -1.7868  1.8424  2.1685
 7062SOL     OW32644   1.995   1.048   9.877 -0.4939  0.6495  0.1120
 7062SOL    HW132645   1.972   1.051   9.784  0.8175  0.5325 -0.2296
 7062SOL    HW232646   2.071   0.989   9.873  0.7429  2.1101  1.9747
 7063SOL     OW32647   3.971   1.107   4.738  0.8807  0.1393 -0.1177
 7063SOL    HW132648   3.986   1.138   4.649 -0.8506 -0.0514 -0.4720
 7063SOL    HW232649   3.882   1.137   4.753  0.6812 -0.4429 -0.1575
 7064SOL     OW32650   0.407   0.420   3.315 -1.0696  0.0072 -0.1029
 7064SOL    HW132651   0.350   0.343   3.313 -1.7340  0.4385  1.6867
 7064SOL    HW232652   0.356   0.462   3.246  1.6911 -0.0254 -2.1277
 7065SOL     OW32653   1.593   0.524   6.719  0.8416 -1.0236  0.3681
 7065SOL    HW132654   1.550   0.592   6.666 -0.3442 -3.6063 -1.9734
 7065SOL    HW232655   1.606   0.450   6.660 -1.5894 -0.9179 -0.2916
 7066SOL     OW32656   0.276   3.986   2.107  0.3031  0.1091  0.4499
 7066SOL    HW132657   0.280   4.076   2.076  0.5117 -0.3090 -0.7511
 7066SOL    HW232658   0.255   3.935   2.029  0.3558  1.2661 -0.3044
 7067SOL     OW32659   3.369   1.303   2.132 -1.0631 -0.4688  0.6820
 7067SOL    HW132660   3.406   1.265   2.053 -1.9050 -1.2013  0.6389
 7067SOL    HW232661   3.344   1.392   2.107 -2.3992 -1.5780 -1.9422
 7068SOL     OW32662   3.316   3.240   3.860 -0.4346 -0.1397  0.0468
 7068SOL    HW132663   3.247   3.276   3.915  0.8566 -1.0555  2.2755
 7068SOL    HW232664   3.329   3.316   3.803  2.5961 -0.5657  0.1339
 7069SOL     OW32665   1.571   3.628  12.937  0.4755  0.8423  0.4288
 7069SOL    HW132666   1.543   3.641  12.847 -0.1358  1.6300  0.7346
 7069SOL    HW232667   1.505   3.675  12.988 -0.3058 -1.8493  1.8671
 7070SOL     OW32668   2.085   3.910   9.286  0.0804 -0.4721  0.3553
 7070SOL    HW132669   2.167   3.897   9.237 -0.6668  1.1769 -1.3493
 7070SOL    HW232670   2.028   3.902   9.210 -0.2525 -0.4695  0.6061
 7071SOL     OW32671   2.495   0.480   3.811  0.4959 -0.0043  0.3256
 7071SOL    HW132672   2.404   0.481   3.840 -0.3762 -1.1622 -2.4596
 7071SOL    HW232673   2.504   0.387   3.792  0.5142 -0.1876  1.2292
 7072SOL     OW32674   3.435   0.764   6.274 -0.0658  0.0861  0.1331
 7072SOL    HW132675   3.400   0.836   6.325 -1.1112  0.8196 -1.6076
 7072SOL    HW232676   3.392   0.779   6.190  1.5852  0.6971 -0.6043
 7073SOL     OW32677   0.830   3.870   0.628 -0.9881 -0.2426 -0.3805
 7073SOL    HW132678   0.760   3.808   0.650 -1.8084 -0.1115 -2.6475
 7073SOL    HW232679   0.833   3.936   0.697  1.2199 -1.3162  0.5637
 7074SOL     OW32680   3.386   2.666   3.275 -0.8857  0.1522 -0.2646
 7074SOL    HW132681   3.367   2.635   3.363 -2.7214  0.2660 -0.6301
 7074SOL    HW232682   3.453   2.732   3.297  0.8839 -1.3005 -1.2818
 7075SOL     OW32683   0.313   4.407   5.135 -0.1856 -0.5204  0.6173
 7075SOL    HW132684   0.320   4.328   5.188 -1.2923 -0.3640  1.0052
 7075SOL    HW232685   0.353   4.465   5.200  0.3819 -1.8781  1.4688
 7076SOL     OW32686   1.324   2.411   7.057 -0.2666 -0.5657 -0.3258
 7076SOL    HW132687   1.288   2.492   7.095  2.4648  0.4090  0.1905
 7076SOL    HW232688   1.382   2.444   6.988  0.5440 -0.7565  0.2709
 7077SOL     OW32689   2.609   3.108  16.769 -0.2393  0.2822 -0.3639
 7077SOL    HW132690   2.516   3.102  16.747 -0.2537 -1.7828  0.3105
 7077SOL    HW232691   2.629   3.201  16.757 -0.4317  0.2485 -0.9854
 7078SOL     OW32692   1.973   2.036   3.400 -0.5231  0.1089 -0.3273
 7078SOL    HW132693   1.905   2.103   3.389 -0.8228 -0.2576 -0.7139
 7078SOL    HW232694   1.997   2.015   3.310  0.4604  0.2375 -0.0965
 7079SOL     OW32695   4.652   2.849  10.955 -0.1684 -0.3441  0.0545
 7079SOL    HW132696   4.595   2.895  10.893  1.7506  2.0670  0.1115
 7079SOL    HW232697   0.019   2.871  10.923 -0.0194 -0.4764  0.3777
 7080SOL     OW32698   3.890   0.486   5.006 -0.4676 -0.2571 -0.1887
 7080SOL    HW132699   3.916   0.420   5.069 -1.0181  0.5817  0.9355
 7080SOL    HW232700   3.926   0.563   5.049 -0.6162  0.0356 -0.5788
 7081SOL     OW32701   3.363   3.966   4.681 -0.0211  0.3589  0.5584
 7081SOL    HW132702   3.314   3.899   4.634  0.6030  1.1722 -1.2241
 7081SOL    HW232703   3.447   3.968   4.636 -0.5795  1.0300 -0.4495
 7082SOL     OW32704   4.323   1.698  12.503 -0.1696 -0.0021  0.0387
 7082SOL    HW132705   4.359   1.715  12.416 -1.4297 -0.1727 -0.5180
 7082SOL    HW232706   4.307   1.790  12.523  1.2291  0.0678  0.8558
 7083SOL     OW32707   2.018   2.574   8.085 -0.0936 -0.5318 -0.5445
 7083SOL    HW132708   1.956   2.589   8.156  2.6509  0.3299  1.6336
 7083SOL    HW232709   1.987   2.491   8.048  1.0241 -0.0334 -2.6198
 7084SOL     OW32710   4.233   1.120  13.739 -0.2527  0.2036 -0.1050
 7084SOL    HW132711   4.265   1.064  13.810  0.1108 -0.8338 -1.0924
 7084SOL    HW232712   4.289   1.107  13.662 -0.0761 -0.4357  0.1320
 7085SOL     OW32713   1.413   1.562   2.750 -0.3928  0.3054  0.1791
 7085SOL    HW132714   1.468   1.640   2.758  0.9311 -0.4418 -1.5853
 7085SOL    HW232715   1.340   1.589   2.695 -2.0921 -2.4328  1.1187
 7086SOL     OW32716   3.595   1.576   7.784 -0.1156 -0.0142 -0.8147
 7086SOL    HW132717   3.648   1.626   7.847  0.6623 -1.2763 -0.4690
 7086SOL    HW232718   3.511   1.618   7.802  0.8685  2.4521 -1.9046
 7087SOL     OW32719   0.459   0.072   1.215  0.8713  0.2856  0.3286
 7087SOL    HW132720   0.547   0.035   1.213  0.0762 -1.7067  1.9204
 7087SOL    HW232721   0.441   0.069   1.309  1.5970  0.4742  0.4721
 7088SOL     OW32722   0.335   2.094   7.124 -0.5943  0.1268 -0.4182
 7088SOL    HW132723   0.252   2.142   7.123 -0.1429  0.8911 -1.5064
 7088SOL    HW232724   0.366   2.092   7.214  0.0494  0.9345 -0.6174
 7089SOL     OW32725   0.186   0.692   5.539  0.1771  0.3929  0.7760
 7089SOL    HW132726   0.169   0.775   5.583  2.6959  1.1864  0.2559
 7089SOL    HW232727   0.271   0.664   5.575 -0.2615 -0.9202  0.7934
 7090SOL     OW32728   0.326   3.335  11.503  0.6078  0.0638 -0.3328
 7090SOL    HW132729   0.410   3.321  11.459 -0.1154 -0.2819 -1.6244
 7090SOL    HW232730   0.353   3.415  11.548 -0.7408 -1.4483  3.1160
 7091SOL     OW32731   1.461   3.036   7.800 -0.6379  0.0029 -0.4019
 7091SOL    HW132732   1.486   3.098   7.868  1.1586 -0.7774 -0.3639
 7091SOL    HW232733   1.447   3.106   7.736 -1.7875  0.9660  0.9042
 7092SOL     OW32734   2.021   0.505   6.525 -0.6348  0.2945 -0.1094
 7092SOL    HW132735   2.009   0.575   6.461  1.3333  3.5943  3.1513
 7092SOL    HW232736   2.105   0.528   6.563 -0.7153 -0.8082  0.7284
 7093SOL     OW32737   0.499   3.935   1.432 -0.9885  0.2624 -0.2151
 7093SOL    HW132738   0.583   3.933   1.477 -0.0544  1.0474 -1.9030
 7093SOL    HW232739   0.518   3.913   1.341 -1.4628  1.8669 -0.7015
 7094SOL     OW32740   2.993   0.220   8.919  0.5857  0.1965 -0.3326
 7094SOL    HW132741   2.993   0.181   8.832  1.2331 -1.5485  0.4322
 7094SOL    HW232742   3.085   0.211   8.944  1.2346  1.5225 -2.2966
 7095SOL     OW32743   2.799   0.398  13.411  0.3006 -0.7732  0.1575
 7095SOL    HW132744   2.889   0.365  13.414  0.3249 -0.7844 -0.6426
 7095SOL    HW232745   2.800   0.463  13.481  1.4301  1.4152 -1.8730
 7096SOL     OW32746   4.131   1.080   0.865  0.0821 -0.0644 -0.1127
 7096SOL    HW132747   4.066   1.132   0.817 -0.0608  0.3058  0.4804
 7096SOL    HW232748   4.209   1.097   0.811 -0.8673  0.5167 -1.3191
 7097SOL     OW32749   2.121   3.166  16.575 -0.1528  0.2114  0.3419
 7097SOL    HW132750   2.056   3.236  16.574 -0.7868 -0.3533  1.4427
 7097SOL    HW232751   2.065   3.098  16.539  2.6013 -3.1702  2.4530
 7098SOL     OW32752   3.431   1.514  13.188  0.3449 -0.0981 -0.4039
 7098SOL    HW132753   3.453   1.603  13.216  0.7855 -0.0160 -1.0326
 7098SOL    HW232754   3.516   1.473  13.203  0.5577  1.0707  1.7317
 7099SOL     OW32755   3.196   2.908  16.210  0.0245  0.1680  0.0826
 7099SOL    HW132756   3.143   2.932  16.134 -1.5728  0.3566  1.2380
 7099SOL    HW232757   3.245   2.834  16.175 -1.4104 -0.7773  0.0681
 7100SOL     OW32758   2.115   1.542   4.707 -0.0875  0.3970  0.2879
 7100SOL    HW132759   2.155   1.573   4.626 -0.7094 -1.0438 -0.5674
 7100SOL    HW232760   2.179   1.474   4.729 -1.1186  0.0696  2.2402
 7101SOL     OW32761   2.347   4.055  14.584  0.4235 -0.1489 -0.5016
 7101SOL    HW132762   2.330   3.962  14.595  0.8880 -0.4227 -2.1768
 7101SOL    HW232763   2.259   4.092  14.592  0.6030  0.2662 -0.4321
 7102SOL     OW32764   0.849   2.631  16.612 -0.1564  0.4499 -0.2821
 7102SOL    HW132765   0.863   2.594  16.525 -2.1242  0.0472 -0.4230
 7102SOL    HW232766   0.939   2.634  16.645 -0.4938  1.4372  0.5624
 7103SOL     OW32767   2.478   3.058   8.209  0.3602  0.1116 -0.5285
 7103SOL    HW132768   2.443   3.139   8.246  1.4013 -0.2504  1.2720
 7103SOL    HW232769   2.423   3.048   8.132 -1.5926  0.0687  0.8638
 7104SOL     OW32770   1.197   3.697  14.908  0.0596  0.2660 -0.1423
 7104SOL    HW132771   1.261   3.734  14.847 -1.7706  2.5274 -0.7072
 7104SOL    HW232772   1.237   3.712  14.993 -0.0668 -1.2677  0.1822
 7105SOL     OW32773   0.948   3.380   9.558  0.8203  0.8890 -0.2902
 7105SOL    HW132774   0.900   3.386   9.641  1.5684 -0.2641  0.2223
 7105SOL    HW232775   0.946   3.286   9.540 -0.0126  0.9548 -0.5560
 7106SOL     OW32776   2.744   4.050  13.509  0.2236  0.6828  0.5060
 7106SOL    HW132777   2.812   4.033  13.443  1.5872  1.6007  1.6801
 7106SOL    HW232778   2.788   4.123  13.552 -0.5927  1.6531 -0.3147
 7107SOL     OW32779   2.921   3.894   3.067  0.3593  0.0993  0.2512
 7107SOL    HW132780   2.854   3.891   3.135 -0.2444  0.3812 -0.3364
 7107SOL    HW232781   2.948   3.804   3.083 -0.7811  0.0079  1.6448
 7108SOL     OW32782   3.450   2.258  15.750  0.0611 -0.1838  0.2066
 7108SOL    HW132783   3.387   2.296  15.811 -0.9054 -0.1419 -0.8127
 7108SOL    HW232784   3.395   2.207  15.689  0.6261  0.2470 -0.6628
 7109SOL     OW32785   3.505   1.662   3.671  0.6030 -0.2803 -0.6562
 7109SOL    HW132786   3.410   1.660   3.674  0.6309 -0.1558  0.1800
 7109SOL    HW232787   3.529   1.574   3.642  0.9204  0.5873 -3.0875
 7110SOL     OW32788   3.016   0.822   3.277  0.7132  1.0467  0.3249
 7110SOL    HW132789   2.975   0.771   3.347  2.1991  0.1016  0.5109
 7110SOL    HW232790   3.092   0.867   3.314  1.4993  0.4134 -0.5164
 7111SOL     OW32791   2.946   3.101  15.787 -0.3276 -0.3708 -0.0368
 7111SOL    HW132792   2.988   3.065  15.708 -0.3516 -1.2171  0.3355
 7111SOL    HW232793   2.855   3.074  15.775 -0.3425 -0.3474  0.0236
 7112SOL     OW32794   4.397   4.411   2.933  0.0098  0.1218  0.1304
 7112SOL    HW132795   4.322   4.445   2.883  0.0606  1.1486  0.7686
 7112SOL    HW232796   4.378   4.317   2.932 -0.7596  0.2720 -0.0099
 7113SOL     OW32797   2.183   0.730   5.812  0.0765 -0.6448  0.2398
 7113SOL    HW132798   2.103   0.693   5.850 -0.2782  0.1367  0.2600
 7113SOL    HW232799   2.166   0.740   5.718  0.5893  2.2455  0.4433
 7114SOL     OW32800   1.760   0.737   4.266  0.8456 -0.6497 -0.1889
 7114SOL    HW132801   1.716   0.678   4.204 -0.3148  1.4599 -1.3736
 7114SOL    HW232802   1.680   0.784   4.293  1.5894  0.8221 -0.5437
 7115SOL     OW32803   0.679   1.237  17.476  0.5024  0.5501 -0.0499
 7115SOL    HW132804   0.747   1.200  17.420  2.0825  0.7630  1.7176
 7115SOL    HW232805   0.745   1.275  17.534 -1.8689  1.2216  2.2026
 7116SOL     OW32806   3.401   2.523   3.915 -0.3523 -0.0368  0.2411
 7116SOL    HW132807   3.419   2.454   3.979  0.5276  1.5656  1.7030
 7116SOL    HW232808   3.490   2.538   3.882 -0.8836  0.7498 -0.8608
 7117SOL     OW32809   4.454   2.546   4.619 -0.3161 -0.2152  0.0806
 7117SOL    HW132810   4.457   2.542   4.714  0.2924  2.2008  0.1693
 7117SOL    HW232811   4.427   2.637   4.602  0.1086 -0.2076 -0.5709
 7118SOL     OW32812   3.532   0.335   3.714 -0.6786 -1.0764  0.4861
 7118SOL    HW132813   3.617   0.301   3.743  0.1975  0.4714 -0.2359
 7118SOL    HW232814   3.470   0.274   3.754  0.3276 -1.4623  1.4382
 7119SOL     OW32815   4.718   2.546   3.258 -0.0707  0.0166 -0.4612
 7119SOL    HW132816   4.644   2.484   3.255  1.5075 -1.9361  0.8913
 7119SOL    HW232817   0.047   2.523   3.336 -1.0176  1.0004  0.4284
 7120SOL     OW32818   2.158   2.582  10.870  0.3578  0.8410  0.2190
 7120SOL    HW132819   2.239   2.539  10.899  1.3537  3.5424  1.5273
 7120SOL    HW232820   2.098   2.538  10.930  3.1831  0.0403  2.4320
 7121SOL     OW32821   3.287   0.166  12.275  0.4141  0.0266 -0.5161
 7121SOL    HW132822   3.359   0.195  12.219 -0.5462  0.2212 -1.6744
 7121SOL    HW232823   3.232   0.135  12.203 -1.5842 -4.3210  2.8844
 7122SOL     OW32824   0.416   2.602  17.667  0.3466 -0.3512  0.2837
 7122SOL    HW132825   0.446   2.693  17.661 -0.7763  0.0241  0.3370
 7122SOL    HW232826   0.323   2.621  17.679  0.1970 -0.0386 -1.4185
 7123SOL     OW32827   4.176   1.066  14.505  0.2509 -0.3584  0.6785
 7123SOL    HW132828   4.214   1.142  14.460 -0.3963 -1.2264 -1.3352
 7123SOL    HW232829   4.252   1.022  14.544  1.4993  0.1430 -1.2014
 7124SOL     OW32830   0.673   1.314   4.130 -0.7844  0.0352 -0.2287
 7124SOL    HW132831   0.682   1.255   4.054  0.7841  1.4356 -1.1247
 7124SOL    HW232832   0.617   1.383   4.094  0.0389  1.7069  1.7431
 7125SOL     OW32833   0.074   4.300   6.538 -0.1730 -0.5916  0.1048
 7125SOL    HW132834   4.699   4.294   6.531 -0.5496  2.2517  2.5150
 7125SOL    HW232835   0.110   4.286   6.451  0.0039  0.2754  0.0311
 7126SOL     OW32836   2.183   3.641   1.449 -0.1449  0.2771  0.2070
 7126SOL    HW132837   2.127   3.571   1.416 -1.4681  1.4626 -0.0451
 7126SOL    HW232838   2.142   3.713   1.401 -0.6465 -0.3471 -0.3010
 7127SOL     OW32839   0.152   3.428   5.279 -0.4091 -0.3836  0.2827
 7127SOL    HW132840   0.209   3.505   5.280  1.6069 -1.9236  3.4454
 7127SOL    HW232841   0.065   3.464   5.295  0.5660  1.2463  1.9747
 7128SOL     OW32842   0.235   1.724   9.812  0.4956 -0.4489  0.1359
 7128SOL    HW132843   0.166   1.757   9.870  0.4195 -0.3721  0.0019
 7128SOL    HW232844   0.256   1.633   9.833  0.2920 -0.3794  0.6440
 7129SOL     OW32845   4.693   2.409   2.658 -0.6810  0.4497  0.8964
 7129SOL    HW132846   0.039   2.376   2.719  0.5568 -0.4227 -0.9463
 7129SOL    HW232847   0.010   2.489   2.619  2.4766 -0.9903  0.9858
 7130SOL     OW32848   3.729   4.284  13.069 -0.4607  0.0285 -0.1180
 7130SOL    HW132849   3.705   4.269  12.977 -0.1945 -0.8641 -0.0376
 7130SOL    HW232850   3.648   4.300  13.119 -0.6372 -0.7639 -0.1541
 7131SOL     OW32851   4.383   4.699   5.710 -0.2323  0.0230 -0.1058
 7131SOL    HW132852   4.432   0.055   5.678  2.7484 -1.5887  0.5868
 7131SOL    HW232853   4.451   4.645   5.750 -1.2399 -0.4820  0.9122
 7132SOL     OW32854   0.266   1.434  10.636 -0.8109  0.4741 -0.3452
 7132SOL    HW132855   0.332   1.377  10.597 -0.2696  1.7650 -1.3383
 7132SOL    HW232856   0.299   1.519  10.608  1.1639  0.7620  2.7796
 7133SOL     OW32857   4.433   0.885   0.106 -0.0414 -0.1014  0.0021
 7133SOL    HW132858   4.449   0.969   0.150  0.3279 -0.8374  1.2576
 7133SOL    HW232859   4.477   0.897   0.022  0.3185 -0.9767  0.0710
 7134SOL     OW32860   1.143   0.622   2.309  0.2156 -0.5893  0.5289
 7134SOL    HW132861   1.134   0.593   2.219  2.1677 -0.6734  0.3581
 7134SOL    HW232862   1.066   0.573   2.338 -0.3501 -1.5448 -2.5690
 7135SOL     OW32863   1.478   2.725   2.802 -0.3711 -0.1896 -0.2545
 7135SOL    HW132864   1.555   2.762   2.758  0.3527 -1.2623  0.1108
 7135SOL    HW232865   1.522   2.687   2.878 -1.0851  0.1033  0.3011
 7136SOL     OW32866   4.543   1.069  16.943  0.5448  0.4034 -0.1125
 7136SOL    HW132867   4.456   1.068  16.981  0.7810 -1.1253  0.3901
 7136SOL    HW232868   4.587   1.134  16.997  2.0225 -1.2781  0.7099
 7137SOL     OW32869   2.161   4.509   5.357  0.0510  0.3746 -0.1251
 7137SOL    HW132870   2.074   4.523   5.322  0.3617  1.8522 -0.3395
 7137SOL    HW232871   2.205   4.573   5.300  1.3887 -1.1536 -0.8197
 7138SOL     OW32872   3.230   3.198   1.624  0.0487 -0.3355  0.2375
 7138SOL    HW132873   3.291   3.187   1.551 -0.0243  1.3032 -0.0647
 7138SOL    HW232874   3.156   3.244   1.586 -0.7600 -0.8369  1.2084
 7139SOL     OW32875   3.187   0.892   2.472 -0.3876  0.4622  0.0548
 7139SOL    HW132876   3.154   0.912   2.560 -0.8370  0.0186 -0.0089
 7139SOL    HW232877   3.263   0.949   2.472 -0.0873  0.0547  1.1284
 7140SOL     OW32878   2.000   2.293  13.569  0.2879 -0.8773  0.1213
 7140SOL    HW132879   1.999   2.277  13.475 -2.6918 -2.3799  0.4211
 7140SOL    HW232880   1.981   2.387  13.573  1.1327 -0.6831 -0.3646
 7141SOL     OW32881   4.295   0.726   2.117  0.2227 -0.2457  0.6231
 7141SOL    HW132882   4.243   0.715   2.197 -1.8679 -0.9278 -0.8198
 7141SOL    HW232883   4.309   0.635   2.091  1.0240 -1.0819  3.9354
 7142SOL     OW32884   1.995   1.314   2.589 -0.6809  0.2248  0.3964
 7142SOL    HW132885   1.991   1.300   2.495  1.2904  2.0643  0.0412
 7142SOL    HW232886   1.905   1.300   2.619 -2.4402  0.9127 -4.5621
 7143SOL     OW32887   4.180   1.987   4.640 -0.2451 -0.4046  0.3997
 7143SOL    HW132888   4.244   1.938   4.588  2.2672  0.9805  2.1737
 7143SOL    HW232889   4.193   1.954   4.729  1.3479  1.1254  0.7466
 7144SOL     OW32890   4.569   3.569   9.601  0.3568  0.0160 -0.1545
 7144SOL    HW132891   4.639   3.605   9.547  0.8252 -1.5667 -0.5973
 7144SOL    HW232892   4.605   3.556   9.688 -0.8352  2.3673  0.6896
 7145SOL     OW32893   0.212   3.032  12.336 -0.0052 -0.0907  0.0514
 7145SOL    HW132894   0.236   3.064  12.249  0.7512 -1.0628 -0.1037
 7145SOL    HW232895   0.166   2.951  12.313 -1.9160  1.0315 -0.0050
 7146SOL     OW32896   1.143   2.251   7.514 -0.2250 -0.9335 -0.2899
 7146SOL    HW132897   1.190   2.168   7.520  3.4975  1.0541 -1.8426
 7146SOL    HW232898   1.199   2.276   7.441  0.7952  1.2402  1.2454
 7147SOL     OW32899   3.548   3.559   4.770 -0.1066 -0.1588 -0.0811
 7147SOL    HW132900   3.549   3.491   4.703 -0.7825 -0.9207  0.6812
 7147SOL    HW232901   3.632   3.537   4.810  0.4866 -0.8371 -1.7347
 7148SOL     OW32902   1.648   0.540   7.416  0.2441 -0.3744  0.5129
 7148SOL    HW132903   1.634   0.554   7.322  0.1179 -0.6578  0.4905
 7148SOL    HW232904   1.583   0.600   7.452  1.0145  1.8180 -1.7367
 7149SOL     OW32905   4.080   2.433   4.119 -0.3797 -0.3944  0.2539
 7149SOL    HW132906   4.153   2.400   4.067 -0.9215  0.1325 -0.8475
 7149SOL    HW232907   4.118   2.502   4.173 -0.9957  0.1342  0.0200
 7150SOL     OW32908   2.046   1.189   6.557 -0.4008 -0.5537  0.2157
 7150SOL    HW132909   1.996   1.132   6.615  0.5890  0.8275  2.3987
 7150SOL    HW232910   2.021   1.274   6.594 -0.6960  0.1415 -1.5694
 7151SOL     OW32911   0.072   3.630   9.476 -0.0579 -0.0028  0.4438
 7151SOL    HW132912   0.048   3.715   9.439  1.4263  0.8404  1.4190
 7151SOL    HW232913   0.166   3.647   9.477  0.3248 -2.0578 -1.4183
 7152SOL     OW32914   4.509   3.380   1.784 -0.3764  0.2961 -0.6333
 7152SOL    HW132915   4.504   3.475   1.796  0.2456 -0.0922  2.7185
 7152SOL    HW232916   4.604   3.376   1.779 -0.2493  0.5382  1.4322
 7153SOL     OW32917   1.818   0.341  10.030  0.3586  0.2610  0.9862
 7153SOL    HW132918   1.785   0.335   9.940  0.0423  1.1697  1.0358
 7153SOL    HW232919   1.760   0.301  10.094 -0.1853  0.9250  0.9066
 7154SOL     OW32920   0.018   2.815   4.347  0.1900 -0.6599 -0.0623
 7154SOL    HW132921   4.707   2.790   4.260  0.5120 -0.0296 -0.3588
 7154SOL    HW232922   4.659   2.795   4.396  0.3471  0.9387  0.8412
 7155SOL     OW32923   0.302   1.912   9.643 -0.4774  0.4485 -0.0127
 7155SOL    HW132924   0.307   1.835   9.699 -2.7128 -0.0784 -0.5667
 7155SOL    HW232925   0.325   1.979   9.708 -1.4664 -1.7406  2.6069
 7156SOL     OW32926   4.695   3.149  14.940 -0.1642 -0.0200 -0.3462
 7156SOL    HW132927   4.670   3.225  14.888  0.0263 -0.6429 -1.3398
 7156SOL    HW232928   4.610   3.119  14.974  0.3481 -0.8141  0.2242
 7157SOL     OW32929   2.958   3.001   1.495  0.2077 -0.0404  0.5679
 7157SOL    HW132930   2.995   2.924   1.539  1.5002  0.1250 -0.2379
 7157SOL    HW232931   2.914   3.051   1.564 -0.7521  0.0183 -0.0818
 7158SOL     OW32932   1.385   0.154   2.070  0.1423  0.3248  0.1503
 7158SOL    HW132933   1.467   0.164   2.020 -0.0030 -0.6594 -0.3003
 7158SOL    HW232934   1.418   0.123   2.154  0.9143  0.0074 -0.2584
 7159SOL     OW32935   0.508   1.350   8.904  0.2042 -0.3965  0.3745
 7159SOL    HW132936   0.483   1.442   8.905 -1.1176 -0.7540  0.5085
 7159SOL    HW232937   0.452   1.315   8.834 -0.1655 -1.0786  1.0036
 7160SOL     OW32938   1.944   0.342   2.997 -0.0254 -0.4415  0.1543
 7160SOL    HW132939   2.029   0.372   2.964 -0.3683 -0.3865 -0.6690
 7160SOL    HW232940   1.947   0.376   3.086  0.2097 -1.2623  0.4658
 7161SOL     OW32941   3.449   2.250   0.139  0.3502  0.2703  0.3824
 7161SOL    HW132942   3.494   2.243   0.223  2.8327  0.6337 -0.9093
 7161SOL    HW232943   3.451   2.343   0.118 -0.5760  0.2487  0.2014
 7162SOL     OW32944   0.774   3.586   2.154 -0.5003 -0.0954  0.5565
 7162SOL    HW132945   0.775   3.666   2.206 -1.6543  1.0351 -1.1616
 7162SOL    HW232946   0.823   3.524   2.208  2.7154  0.4287 -1.6953
 7163SOL     OW32947   3.281   4.314   4.446  0.9089  0.1072  0.0142
 7163SOL    HW132948   3.223   4.317   4.522 -0.4005  0.5882 -0.9957
 7163SOL    HW232949   3.363   4.283   4.482 -0.0025  0.0106  1.9745
 7164SOL     OW32950   3.245   3.972   5.391  0.1869  0.1655 -0.9590
 7164SOL    HW132951   3.290   3.888   5.394 -1.5741 -0.7065  1.5169
 7164SOL    HW232952   3.272   3.994   5.302 -2.0738  0.9227 -1.4631
 7165SOL     OW32953   2.414   2.209  16.690 -0.5903 -0.1949 -0.1240
 7165SOL    HW132954   2.430   2.122  16.654  2.7151 -0.4829  2.0245
 7165SOL    HW232955   2.347   2.193  16.757  0.1363  1.4391  1.0072
 7166SOL     OW32956   2.420   1.144   7.892  0.2965 -0.3747 -0.0396
 7166SOL    HW132957   2.447   1.236   7.901 -1.2051  0.1576 -0.9402
 7166SOL    HW232958   2.430   1.114   7.982 -1.6347  2.4714  1.1139
 7167SOL     OW32959   3.092   1.031   4.442 -0.4427  0.2136 -0.1236
 7167SOL    HW132960   3.076   1.007   4.533  1.2226 -0.8911 -0.1311
 7167SOL    HW232961   3.004   1.023   4.403 -0.2735 -0.5409 -0.3413
 7168SOL     OW32962   0.402   0.852   8.752 -0.0509  0.1064 -0.0400
 7168SOL    HW132963   0.320   0.810   8.727 -1.0768 -0.3684  4.2034
 7168SOL    HW232964   0.393   0.853   8.847 -2.4527 -0.3884 -0.2780
 7169SOL     OW32965   0.722   3.433   0.607  0.6460  0.3231 -0.2767
 7169SOL    HW132966   0.706   3.526   0.622  0.5736  0.3904 -0.7937
 7169SOL    HW232967   0.806   3.447   0.563  1.0770  2.8870  1.3739
 7170SOL     OW32968   1.891   1.025   6.730  0.1771  0.0690  0.7857
 7170SOL    HW132969   1.845   0.942   6.731 -1.8045  1.1548 -0.0393
 7170SOL    HW232970   1.895   1.052   6.822  1.7238 -0.7159  0.9502
 7171SOL     OW32971   0.978   0.034   1.044  0.6650 -0.3114 -0.1252
 7171SOL    HW132972   0.908   0.085   1.084  1.9079  0.2425  1.3489
 7171SOL    HW232973   1.004   0.090   0.971  0.7980  1.6604  1.4229
 7172SOL     OW32974   3.230   2.500   7.854 -0.6628 -0.1426  0.0389
 7172SOL    HW132975   3.296   2.515   7.786 -1.3738 -0.6692 -0.7649
 7172SOL    HW232976   3.185   2.420   7.824  1.0707 -1.7111  1.5925
 7173SOL     OW32977   2.968   3.565   9.720  0.8059 -0.2548  0.0561
 7173SOL    HW132978   2.992   3.642   9.772  0.1914 -0.5336  0.7474
 7173SOL    HW232979   2.929   3.588   9.636  0.1701  2.6588  1.1373
 7174SOL     OW32980   0.204   0.334   2.067 -0.0348 -0.0058 -0.2240
 7174SOL    HW132981   0.123   0.327   2.118 -0.6088  3.4651 -0.6662
 7174SOL    HW232982   0.194   0.424   2.037  0.4662 -0.0068 -0.3817
 7175SOL     OW32983   3.009   0.494  10.168  0.4237  0.2160 -0.8436
 7175SOL    HW132984   3.024   0.534  10.254 -1.4747 -2.5335  0.7671
 7175SOL    HW232985   3.019   0.401  10.188 -1.6635  0.2315  0.2912
 7176SOL     OW32986   2.762   3.814  12.762 -0.0810 -0.1599  0.1743
 7176SOL    HW132987   2.808   3.742  12.805 -0.0389 -0.9717 -1.2287
 7176SOL    HW232988   2.708   3.769  12.697 -0.1655  1.4705 -0.8735
 7177SOL     OW32989   2.831   1.228   2.422  0.2384 -0.5131  0.5292
 7177SOL    HW132990   2.859   1.278   2.499 -0.7549  2.9317 -1.3319
 7177SOL    HW232991   2.912   1.195   2.385 -1.2907 -2.7872 -0.7422
 7178SOL     OW32992   1.436   4.650   3.396 -0.2415  0.2337 -0.2690
 7178SOL    HW132993   1.406   4.560   3.406  1.4247 -0.2803  0.0345
 7178SOL    HW232994   1.452   4.660   3.302  0.8057 -1.0755 -0.2221
 7179SOL     OW32995   0.376   0.120   4.602  0.0198  0.2919  0.3597
 7179SOL    HW132996   0.431   0.117   4.681  1.0302  0.8250 -0.3316
 7179SOL    HW232997   0.310   0.055   4.625 -0.1257  0.0621 -0.7195
 7180SOL     OW32998   0.878   3.437   5.944  0.2687 -0.7064 -0.1572
 7180SOL    HW132999   0.894   3.443   5.850 -0.7010  2.4934 -0.1195
 7180SOL    HW233000   0.938   3.507   5.968 -0.2707 -0.1478 -0.4550
 7181SOL     OW33001   3.601   4.118   3.620 -0.7249  0.2156  0.8392
 7181SOL    HW133002   3.683   4.097   3.666  0.2911  1.9066 -0.1999
 7181SOL    HW233003   3.629   4.182   3.554 -1.3176 -0.6909 -0.2901
 7182SOL     OW33004   1.085   3.373   7.643 -0.2788  0.8593  0.2955
 7182SOL    HW133005   1.143   3.367   7.567 -1.0771  1.4380 -0.3660
 7182SOL    HW233006   1.011   3.321   7.613 -1.6128  2.2472  1.1524
 7183SOL     OW33007   4.505   1.651  12.056  0.5398 -0.2275 -0.2448
 7183SOL    HW133008   4.492   1.701  11.974  2.4323  1.8257  0.7095
 7183SOL    HW233009   4.433   1.590  12.044 -0.1369  0.6204 -0.5629
 7184SOL     OW33010   0.207   2.092   5.371  0.1016  1.1176 -0.3019
 7184SOL    HW133011   0.214   2.183   5.341 -2.2182  1.1029 -0.8738
 7184SOL    HW233012   0.134   2.068   5.313  0.4907 -0.6748 -0.0740
 7185SOL     OW33013   4.609   4.492   2.790 -0.4031 -0.2218  0.1896
 7185SOL    HW133014   4.557   4.446   2.856  1.1394  0.0161  1.5873
 7185SOL    HW233015   4.661   4.420   2.751  1.0224  0.0716  1.5491
 7186SOL     OW33016   3.404   3.278  14.717  0.0965 -0.0609 -0.6378
 7186SOL    HW133017   3.470   3.226  14.763 -1.3733 -1.3466  0.0073
 7186SOL    HW233018   3.322   3.232  14.732 -0.4150  0.9664 -0.2675
 7187SOL     OW33019   1.187   2.828   6.910  0.0377  0.0560 -0.1343
 7187SOL    HW133020   1.238   2.777   6.973 -0.2437 -0.7295 -0.5525
 7187SOL    HW233021   1.253   2.857   6.847  1.4700 -2.7604  0.0554
 7188SOL     OW33022   2.457   1.383   3.150 -0.5347  0.2800  0.0600
 7188SOL    HW133023   2.416   1.361   3.067  1.0851 -1.6795 -0.2366
 7188SOL    HW233024   2.537   1.332   3.137  0.5151  2.2552 -1.1011
 7189SOL     OW33025   3.949   0.963   8.304  0.4083 -0.2066  0.0750
 7189SOL    HW133026   3.971   0.871   8.290  0.7511  0.1081 -1.3950
 7189SOL    HW233027   3.960   0.973   8.399  1.8567 -0.8432 -0.0287
 7190SOL     OW33028   4.660   1.715   3.452 -0.3666  0.0985 -0.4939
 7190SOL    HW133029   0.004   1.697   3.521 -1.2533  2.0753  0.8263
 7190SOL    HW233030   4.714   1.722   3.374  0.5485 -0.8139  0.0500
 7191SOL     OW33031   2.626   0.420   8.025  0.1103 -0.1264  0.3609
 7191SOL    HW133032   2.551   0.371   8.058 -0.5140  0.8099  0.3467
 7191SOL    HW233033   2.581   0.504   8.016  0.2898 -0.1353 -0.6073
 7192SOL     OW33034   2.531   2.904  15.445 -0.3822 -0.3895  0.5606
 7192SOL    HW133035   2.438   2.912  15.469 -0.5266  1.3946 -0.5092
 7192SOL    HW233036   2.521   2.894  15.350 -4.3249  0.5338  0.8774
 7193SOL     OW33037   1.916   1.441   4.017  0.0139 -0.7136 -0.5845
 7193SOL    HW133038   1.830   1.418   3.980 -1.1190  2.2349  0.1977
 7193SOL    HW233039   1.944   1.361   4.061  0.2373 -0.1812  0.2547
 7194SOL     OW33040   1.760   4.429  10.044 -0.1249 -0.0903 -0.4955
 7194SOL    HW133041   1.849   4.396  10.055 -0.7438 -1.3736  0.6494
 7194SOL    HW233042   1.776   4.442   9.951 -0.4639 -1.3737 -0.7337
 7195SOL     OW33043   1.377   4.392   3.433 -0.0996  0.4171 -0.0719
 7195SOL    HW133044   1.407   4.360   3.348  1.3917  1.3243  0.1071
 7195SOL    HW233045   1.324   4.320   3.468  0.0310  1.5780  2.4763
 7196SOL     OW33046   0.035   2.942  10.708 -0.4697  0.2581  0.3064
 7196SOL    HW133047   4.702   2.909  10.636 -1.6635  1.9566  0.4164
 7196SOL    HW233048   0.120   2.901  10.695 -0.2022  0.8535  0.1758
 7197SOL     OW33049   2.767   2.825   7.961 -0.2757 -0.2868 -0.2426
 7197SOL    HW133050   2.834   2.872   7.912  2.0471 -0.0642  3.2023
 7197SOL    HW233051   2.755   2.870   8.044 -0.8515  0.7527 -0.8897
 7198SOL     OW33052   4.319   2.833   4.179  0.0849 -0.0676 -0.7785
 7198SOL    HW133053   4.368   2.828   4.097 -0.8670 -0.4015 -1.3222
 7198SOL    HW233054   4.306   2.927   4.193 -0.7634 -0.1674 -0.8673
 7199SOL     OW33055   0.028   0.566  12.428 -0.2453  0.0933  0.4583
 7199SOL    HW133056   0.122   0.569  12.414  0.1098  3.1230  3.6054
 7199SOL    HW233057   0.023   0.492  12.488 -1.3448 -0.1525  0.0645
 7200SOL     OW33058   4.328   3.737  16.094  0.3109 -0.2968 -0.0585
 7200SOL    HW133059   4.264   3.789  16.141  2.9871  1.9056  1.1030
 7200SOL    HW233060   4.258   3.681  16.060  1.1018  0.3924 -2.8664
 7201SOL     OW33061   3.848   0.985  14.224  0.3421  0.1522 -0.7978
 7201SOL    HW133062   3.864   1.069  14.268  0.1406  0.6416 -1.6651
 7201SOL    HW233063   3.753   0.978  14.235  0.4710 -3.5021 -1.9501
 7202SOL     OW33064   0.394   1.499  15.201  0.0734  0.3194 -0.2595
 7202SOL    HW133065   0.306   1.518  15.170 -0.4635 -0.9791  0.4336
 7202SOL    HW233066   0.402   1.409  15.168 -0.4461  0.0068  0.4706
 7203SOL     OW33067   0.873   2.606  16.121  0.1122  0.0567 -0.8577
 7203SOL    HW133068   0.805   2.665  16.152  1.4192  0.8311  0.5933
 7203SOL    HW233069   0.885   2.559  16.204  0.8540 -0.5961 -1.3389
 7204SOL     OW33070   2.437   0.845  14.261  0.3601  1.1371  0.7583
 7204SOL    HW133071   2.498   0.783  14.220  0.5273  2.3427 -0.8377
 7204SOL    HW233072   2.412   0.808  14.346 -2.6976  1.1947 -0.1351
 7205SOL     OW33073   3.077   4.691   3.745  0.2206  0.1070  0.1492
 7205SOL    HW133074   3.079   0.058   3.783 -0.3024 -0.0900  0.6303
 7205SOL    HW233075   3.107   4.707   3.655 -2.1636  2.3757 -0.2606
 7206SOL     OW33076   2.095   0.260  10.747  0.6707  0.8167 -0.0602
 7206SOL    HW133077   2.095   0.282  10.653  0.2456 -1.3751 -0.5693
 7206SOL    HW233078   2.138   0.175  10.742  0.1680  0.6917 -2.6323
 7207SOL     OW33079   1.451   1.283   9.788 -0.1770  0.3254 -0.3797
 7207SOL    HW133080   1.458   1.217   9.856  0.3066  0.6472 -0.1160
 7207SOL    HW233081   1.526   1.254   9.736 -1.5229 -2.1881 -0.9467
 7208SOL     OW33082   3.349   1.109   1.633  0.3481  0.1625  0.4036
 7208SOL    HW133083   3.305   1.046   1.576 -1.5525  1.3020  0.5932
 7208SOL    HW233084   3.433   1.067   1.649  1.0827  1.2147 -0.6845
 7209SOL     OW33085   0.092   3.184  12.825 -0.0525  0.1022  0.9480
 7209SOL    HW133086   0.026   3.253  12.818 -0.3361 -0.5129 -2.5603
 7209SOL    HW233087   0.174   3.232  12.827 -1.3297  2.3558 -0.1095
 7210SOL     OW33088   0.800   4.124  15.010  0.1784  0.1658 -0.2478
 7210SOL    HW133089   0.758   4.193  14.959 -0.3580  0.1225  0.1315
 7210SOL    HW233090   0.726   4.065  15.024  1.7984 -2.0358 -1.1191
 7211SOL     OW33091   1.696   2.923   5.191 -0.0246 -0.1052  0.2681
 7211SOL    HW133092   1.628   2.858   5.176  0.0027 -0.2825  0.9087
 7211SOL    HW233093   1.655   2.982   5.255  1.8914  0.9513  0.5349
 7212SOL     OW33094   1.341   2.519   6.265 -0.4898 -0.0856 -0.3217
 7212SOL    HW133095   1.419   2.503   6.213 -0.6768 -3.0214  0.2629
 7212SOL    HW233096   1.325   2.431   6.300 -1.1647  1.0189  2.1471
 7213SOL     OW33097   4.634   3.648   8.298 -0.0749 -0.4710  0.0758
 7213SOL    HW133098   4.575   3.575   8.315 -0.7539 -0.6269 -2.9535
 7213SOL    HW233099   4.575   3.696   8.239 -0.5059 -0.4577  0.5177
 7214SOL     OW33100   1.801   4.149   4.729 -0.2405 -0.3101 -0.1218
 7214SOL    HW133101   1.750   4.124   4.806  2.4612  1.2123  2.1445
 7214SOL    HW233102   1.890   4.159   4.762 -0.6005 -1.3954  1.1778
 7215SOL     OW33103   2.327   2.213   6.479 -0.0163 -0.0069  0.0620
 7215SOL    HW133104   2.369   2.257   6.406  0.3609  0.3325  0.4781
 7215SOL    HW233105   2.395   2.148   6.499  0.8527 -0.2208 -3.7366
 7216SOL     OW33106   2.861   2.389   2.299  0.0010 -0.1682  0.0184
 7216SOL    HW133107   2.869   2.447   2.374 -1.1564  0.7602 -0.5718
 7216SOL    HW233108   2.937   2.428   2.256 -0.7281  1.0395 -0.1712
 7217SOL     OW33109   3.919   2.365   2.465 -0.0468 -0.3483  0.2216
 7217SOL    HW133110   3.896   2.341   2.554  0.5045  0.6886  0.6376
 7217SOL    HW233111   3.893   2.457   2.459  0.0625 -0.3874 -0.8423
 7218SOL     OW33112   4.443   2.487   9.249 -0.2725  0.1373  0.4642
 7218SOL    HW133113   4.476   2.445   9.169  2.6169  1.8417  0.7385
 7218SOL    HW233114   4.402   2.560   9.202 -0.5525 -0.7320 -0.6582
 7219SOL     OW33115   1.841   2.950  14.184  0.3287  0.1401  0.0316
 7219SOL    HW133116   1.900   2.875  14.198  0.8399  0.2206 -1.7549
 7219SOL    HW233117   1.849   2.970  14.091 -0.0666  1.2345  0.2345
 7220SOL     OW33118   3.215   1.623   5.604  0.4519  0.6725 -0.2492
 7220SOL    HW133119   3.280   1.646   5.537 -0.2296 -0.5772 -1.3470
 7220SOL    HW233120   3.242   1.680   5.676  0.4001  3.4191 -2.3847
 7221SOL     OW33121   1.961   2.360  15.112  0.2972 -0.0115 -0.2105
 7221SOL    HW133122   1.908   2.408  15.049 -0.5840 -4.3523 -2.7972
 7221SOL    HW233123   1.975   2.439  15.163 -2.0593 -0.2606  0.8450
 7222SOL     OW33124   1.621   3.946   7.956 -0.0281 -0.4595 -0.4684
 7222SOL    HW133125   1.595   3.855   7.974  0.7579 -1.0818 -2.4329
 7222SOL    HW233126   1.689   3.968   8.019 -0.5709 -0.4338  0.1162
 7223SOL     OW33127   3.098   0.959   4.710 -0.1484 -0.1159  0.6298
 7223SOL    HW133128   3.190   0.954   4.736  0.8307  3.3386 -2.1052
 7223SOL    HW233129   3.051   1.014   4.773  1.5167 -0.7655  2.4421
 7224SOL     OW33130   4.423   3.211   9.431  0.1473  0.5264  0.6645
 7224SOL    HW133131   4.393   3.287   9.481 -0.4334 -0.9712  2.6104
 7224SOL    HW233132   4.340   3.167   9.411  1.1740 -2.4539  3.0137
 7225SOL     OW33133   4.148   0.384  11.794  0.3046 -0.1549 -0.9901
 7225SOL    HW133134   4.059   0.355  11.815 -0.8274  2.1366 -2.6983
 7225SOL    HW233135   4.204   0.350  11.864 -2.3487  1.5080  1.9382
 7226SOL     OW33136   4.373   1.183  17.569  0.0050 -0.0420  0.0626
 7226SOL    HW133137   4.465   1.210  17.566  0.2093 -0.6960  0.2395
 7226SOL    HW233138   4.328   1.263  17.543 -0.7018 -0.0588  1.2283
 7227SOL     OW33139   4.443   1.586   8.856  0.0254 -0.5716 -0.1000
 7227SOL    HW133140   4.516   1.644   8.876 -1.2374  0.5145  1.2415
 7227SOL    HW233141   4.482   1.539   8.781  0.1921  0.0226 -0.3817
 7228SOL     OW33142   0.739   1.139   3.433 -0.6674 -0.2964 -0.3363
 7228SOL    HW133143   0.787   1.132   3.516  1.0526 -3.9480 -1.6587
 7228SOL    HW233144   0.784   1.075   3.378 -0.8042 -1.3688  0.8002
 7229SOL     OW33145   4.222   1.505  15.770  0.6289 -0.6477 -0.1961
 7229SOL    HW133146   4.208   1.572  15.703 -1.7158 -0.8987  0.0406
 7229SOL    HW233147   4.161   1.446  15.728  2.5917 -2.2632 -0.7643
 7230SOL     OW33148   2.606   2.520   0.927 -0.3227 -0.1759  0.4007
 7230SOL    HW133149   2.513   2.534   0.909 -0.1077  0.5612 -0.1409
 7230SOL    HW233150   2.633   2.604   0.964  0.5721  0.8295 -2.5966
 7231SOL     OW33151   3.054   3.773   0.054 -0.0829  0.4411 -0.1302
 7231SOL    HW133152   3.039   3.698   0.112 -2.1654 -0.5523 -1.9566
 7231SOL    HW233153   3.130   3.743   0.004 -0.7964  2.1637 -2.2652
 7232SOL     OW33154   2.732   3.283   6.136  0.4733  0.1543  0.1932
 7232SOL    HW133155   2.826   3.301   6.141  1.0344 -2.5744 -0.7254
 7232SOL    HW233156   2.710   3.376   6.138  1.6056  0.4464 -0.4280
 7233SOL     OW33157   0.918   1.695  17.467  0.3590 -0.0381 -0.2022
 7233SOL    HW133158   0.979   1.622  17.457 -0.0380 -0.1862 -1.6426
 7233SOL    HW233159   0.843   1.663  17.417  1.6405 -0.7544 -1.6679
 7234SOL     OW33160   2.569   3.993   7.447 -1.0018 -0.2288  0.1224
 7234SOL    HW133161   2.496   4.055   7.438  1.0139  2.1646  0.1895
 7234SOL    HW233162   2.640   4.057   7.455  0.2652 -1.6752  0.3302
 7235SOL     OW33163   3.796   2.440  17.528  0.1506 -0.7254  0.3046
 7235SOL    HW133164   3.724   2.456  17.468  0.1864  1.4484  0.8242
 7235SOL    HW233165   3.854   2.514  17.509 -0.5624 -0.6461 -1.5026
 7236SOL     OW33166   1.446   0.429  12.562  0.1657 -0.7573 -0.3743
 7236SOL    HW133167   1.514   0.467  12.618 -1.3299 -0.3608  1.1790
 7236SOL    HW233168   1.404   0.364  12.618  0.5224 -1.8585 -1.3870
 7237SOL     OW33169   0.367   4.216   5.306  0.0699 -0.2577  0.2884
 7237SOL    HW133170   0.298   4.218   5.372 -0.1855  1.3280 -0.0383
 7237SOL    HW233171   0.403   4.304   5.321  1.5208 -0.9321  0.8329
 7238SOL     OW33172   2.605   0.064  10.071  0.1289  0.2069 -0.0139
 7238SOL    HW133173   2.525   0.016  10.050  0.0234  0.1422  0.5329
 7238SOL    HW233174   2.570   0.119  10.141 -1.1810 -1.4636  0.6398
 7239SOL     OW33175   4.623   0.840   8.209  0.3955  0.0926 -0.0020
 7239SOL    HW133176   4.539   0.872   8.244 -0.0778 -0.5469 -0.5627
 7239SOL    HW233177   4.672   0.922   8.219 -0.0820  0.3843 -0.0108
 7240SOL     OW33178   1.852   2.654   5.340  0.4103 -0.2983 -0.0719
 7240SOL    HW133179   1.829   2.575   5.292 -1.6989 -0.1502  0.6735
 7240SOL    HW233180   1.772   2.651   5.392  1.0301  3.6682  1.1457
 7241SOL     OW33181   1.358   3.531   5.670  0.4661 -0.3250 -0.4948
 7241SOL    HW133182   1.302   3.455   5.687  0.7971  0.2483  3.0896
 7241SOL    HW233183   1.279   3.584   5.656  0.4001 -0.1783  0.4340
 7242SOL     OW33184   1.860   3.406  15.205 -0.7260  0.3777  0.5333
 7242SOL    HW133185   1.792   3.415  15.272 -0.8142  1.4631  0.3042
 7242SOL    HW233186   1.936   3.420  15.261 -1.5378  1.6701  1.3242
 7243SOL     OW33187   0.801   2.534   2.333  0.1690  0.2709 -0.0560
 7243SOL    HW133188   0.711   2.548   2.362  0.2711  1.3302 -0.2475
 7243SOL    HW233189   0.801   2.556   2.240  3.4085  0.3576 -0.0368
 7244SOL     OW33190   1.221   3.677   2.466  0.0472 -0.6592 -0.5311
 7244SOL    HW133191   1.177   3.744   2.415 -1.0390  0.2519  1.5950
 7244SOL    HW233192   1.302   3.721   2.493  0.5731 -1.3781 -0.9368
 7245SOL     OW33193   2.992   1.186  12.515 -0.4250  0.1371  0.5156
 7245SOL    HW133194   2.928   1.159  12.449  1.0937 -0.8773 -0.5381
 7245SOL    HW233195   3.067   1.135  12.486 -1.1249 -0.8327  0.3998
 7246SOL     OW33196   1.999   4.179   3.743  0.2223 -0.6820  0.2104
 7246SOL    HW133197   1.948   4.255   3.768  1.2922  0.4751 -1.1400
 7246SOL    HW233198   1.930   4.115   3.722  1.7785 -2.8754  1.7934
 7247SOL     OW33199   2.318   3.696   7.434  0.4122  0.3204 -0.0063
 7247SOL    HW133200   2.297   3.602   7.443 -1.8385  0.6717 -1.4849
 7247SOL    HW233201   2.389   3.708   7.497 -0.3064 -1.1530  1.0951
 7248SOL     OW33202   4.458   1.721   7.025  0.0998 -0.0420 -0.0459
 7248SOL    HW133203   4.435   1.665   7.099 -0.9917  0.1096 -0.2754
 7248SOL    HW233204   4.489   1.665   6.953  1.4153  0.6510 -0.0115
 7249SOL     OW33205   4.186   1.059  16.213  0.6047 -0.5305  0.1812
 7249SOL    HW133206   4.214   1.031  16.300 -1.5255  1.0929  1.3766
 7249SOL    HW233207   4.214   0.988  16.154  0.2419 -0.2486 -0.3263
 7250SOL     OW33208   0.407   0.244   6.699 -0.3500 -0.3453  0.0773
 7250SOL    HW133209   0.355   0.166   6.680 -2.5647  0.2552  3.5816
 7250SOL    HW233210   0.485   0.201   6.736 -0.4282  0.3110  1.0036
 7251SOL     OW33211   3.661   3.279   5.429 -0.6955  0.1511 -0.3658
 7251SOL    HW133212   3.673   3.219   5.502 -1.9495  0.4324  0.0689
 7251SOL    HW233213   3.678   3.364   5.469 -0.6340 -0.5850  1.1462
 7252SOL     OW33214   0.745   1.851   5.204  0.2785  0.4970  0.5096
 7252SOL    HW133215   0.773   1.887   5.288 -1.1055  5.2694 -1.0993
 7252SOL    HW233216   0.822   1.795   5.190 -1.3323 -1.7984  0.8034
 7253SOL     OW33217   1.114   3.679   8.255 -0.2078 -0.1875 -0.1747
 7253SOL    HW133218   1.066   3.608   8.211 -0.2471  0.1526 -0.6791
 7253SOL    HW233219   1.119   3.640   8.342 -1.8533  0.6255  0.2956
 7254SOL     OW33220   4.680   1.257   1.223 -0.2511  0.1634 -0.1247
 7254SOL    HW133221   4.634   1.280   1.143  2.4027 -1.4338 -2.1066
 7254SOL    HW233222   4.645   1.311   1.294 -0.2578 -0.5565  0.4216
 7255SOL     OW33223   2.331   0.983   5.087  0.2362  0.0653 -0.2214
 7255SOL    HW133224   2.283   0.901   5.099  0.9061 -0.0215  1.8546
 7255SOL    HW233225   2.376   0.967   5.005  1.0920  2.6787 -0.2482
 7256SOL     OW33226   3.495   2.014  15.623  0.0878  0.9032 -0.0115
 7256SOL    HW133227   3.402   2.002  15.641 -0.0257 -0.3814 -1.4360
 7256SOL    HW233228   3.535   2.003  15.710  2.1227  1.1620 -0.9112
 7257SOL     OW33229   2.400   4.590   8.531 -0.3502 -0.1016  0.6595
 7257SOL    HW133230   2.320   4.539   8.518  0.0399 -0.6683  0.4772
 7257SOL    HW233231   2.469   4.539   8.488 -0.4164  0.8140 -0.5372
 7258SOL     OW33232   0.443   3.134   5.175  0.2831  0.5223 -0.6850
 7258SOL    HW133233   0.481   3.075   5.239 -1.2197  0.6562  0.3191
 7258SOL    HW233234   0.486   3.104   5.095  1.6817 -0.2650  0.3620
 7259SOL     OW33235   1.801   4.058   6.662 -0.6487 -0.1356  0.0301
 7259SOL    HW133236   1.838   4.050   6.574 -1.1822 -1.5739 -0.0626
 7259SOL    HW233237   1.837   3.981   6.706 -0.6972 -0.2126 -0.0644
 7260SOL     OW33238   2.256   2.116  10.959  0.0202  0.4872 -0.1303
 7260SOL    HW133239   2.254   2.094  11.052 -0.5022  1.8427  0.1720
 7260SOL    HW233240   2.344   2.155  10.957 -0.3176  1.4779  3.3166
 7261SOL     OW33241   3.911   3.216   1.247  0.5485 -0.9143  0.5134
 7261SOL    HW133242   3.977   3.272   1.205 -0.8150 -1.0378 -1.7630
 7261SOL    HW233243   3.942   3.217   1.338 -3.3896  3.0389  1.7642
 7262SOL     OW33244   1.584   1.801   2.581 -0.3878  0.5562  0.1830
 7262SOL    HW133245   1.628   1.854   2.515 -0.2080  0.7357  0.4444
 7262SOL    HW233246   1.562   1.873   2.640  1.1363  0.2784  1.0809
 7263SOL     OW33247   3.554   3.114   6.013  0.2664  0.2412  0.2905
 7263SOL    HW133248   3.492   3.095   5.943 -0.1038 -1.1935  0.9981
 7263SOL    HW233249   3.497   3.149   6.082 -1.6924 -0.7698 -0.8122
 7264SOL     OW33250   2.610   1.736   7.040 -0.4212  0.4081  0.2888
 7264SOL    HW133251   2.610   1.737   6.944 -0.4207  0.0228  0.2852
 7264SOL    HW233252   2.679   1.802   7.043  0.2204 -0.3019  1.3252
 7265SOL     OW33253   3.255   3.246   6.752  0.0342  0.2691  0.5717
 7265SOL    HW133254   3.324   3.192   6.790 -1.0209 -1.0762  0.5902
 7265SOL    HW233255   3.288   3.328   6.788 -0.0145  0.2399  0.6837
 7266SOL     OW33256   0.596   2.943   8.909  0.3163  0.3435 -0.5254
 7266SOL    HW133257   0.667   2.922   8.848 -0.5786 -0.9309 -1.1514
 7266SOL    HW233258   0.613   2.876   8.974 -1.6411  0.7524  0.4221
 7267SOL     OW33259   1.782   3.200   4.179 -1.0264 -0.3994  0.7083
 7267SOL    HW133260   1.811   3.126   4.232 -0.0163 -0.7603 -0.3516
 7267SOL    HW233261   1.858   3.258   4.178  0.3558 -2.2082  1.6642
 7268SOL     OW33262   0.126   0.472   3.962 -0.3737  0.2015  0.1515
 7268SOL    HW133263   0.166   0.525   3.893 -0.4766 -2.1318 -1.6811
 7268SOL    HW233264   0.031   0.485   3.968 -0.4030 -1.1028  2.1825
 7269SOL     OW33265   4.312   0.305   5.225 -0.0658  0.1497  0.0772
 7269SOL    HW133266   4.373   0.265   5.287 -2.3559 -0.8746  1.6523
 7269SOL    HW233267   4.248   0.238   5.201 -0.6014  0.0253  1.8641
 7270SOL     OW33268   2.837   1.053  12.049  0.3969  0.5868  0.1319
 7270SOL    HW133269   2.825   0.990  11.978  1.9021 -1.2632  1.5043
 7270SOL    HW233270   2.870   0.995  12.117 -2.5250  0.9894  1.8788
 7271SOL     OW33271   4.178   3.435   8.311  0.1647  0.1285 -0.1665
 7271SOL    HW133272   4.160   3.488   8.388  2.0790  0.7385 -0.1400
 7271SOL    HW233273   4.167   3.501   8.243  3.8631 -0.4354 -1.3380
 7272SOL     OW33274   2.206   3.611   1.741  0.3412 -0.1123  0.4468
 7272SOL    HW133275   2.192   3.705   1.748 -1.3871 -0.4264  1.4081
 7272SOL    HW233276   2.167   3.577   1.660  0.7879  2.7132 -0.9368
 7273SOL     OW33277   2.829   3.965   7.957 -0.8886  0.5831  0.4888
 7273SOL    HW133278   2.819   4.059   7.945 -2.3194  0.2996 -0.6393
 7273SOL    HW233279   2.923   3.965   7.976 -0.7909  0.4334  0.0031
 7274SOL     OW33280   3.902   0.906   7.316 -0.1928  0.7913  0.3708
 7274SOL    HW133281   3.945   0.958   7.384  1.6652  0.0778 -0.2366
 7274SOL    HW233282   3.913   0.818   7.353  0.0232  0.6641  0.0031
 7275SOL     OW33283   3.733   2.229   8.093 -0.5529 -0.1100  0.3470
 7275SOL    HW133284   3.786   2.220   8.013 -0.0179  0.0074  0.6928
 7275SOL    HW233285   3.655   2.269   8.054  0.3712  0.7061 -0.6884
 7276SOL     OW33286   1.101   3.475  11.942  0.2311 -0.2068 -0.0473
 7276SOL    HW133287   1.095   3.476  11.846  2.8097  0.7947 -0.2035
 7276SOL    HW233288   1.165   3.403  11.945  2.0399  1.3381 -1.0200
 7277SOL     OW33289   1.244   4.375   9.761  0.1199 -0.7900 -0.4246
 7277SOL    HW133290   1.203   4.291   9.783 -1.5150 -0.5911 -2.7297
 7277SOL    HW233291   1.326   4.351   9.717  0.8903 -1.5059  1.3997
 7278SOL     OW33292   3.061   4.562   8.266 -0.1226 -0.3340 -0.2140
 7278SOL    HW133293   3.156   4.567   8.256 -0.0849  1.3507  0.8585
 7278SOL    HW233294   3.029   4.613   8.192 -0.4009  0.2934  0.3312
 7279SOL     OW33295   4.205   3.424   6.625 -0.3471  0.7231  0.7781
 7279SOL    HW133296   4.234   3.488   6.560  0.9627 -0.6973 -0.0365
 7279SOL    HW233297   4.249   3.466   6.699 -1.4503  1.7883  0.8133
 7280SOL     OW33298   3.982   3.682  13.178 -0.3550 -0.2474  0.0390
 7280SOL    HW133299   3.938   3.711  13.098 -0.9335 -0.3522  0.3151
 7280SOL    HW233300   4.055   3.743  13.179 -2.1005  1.8105  1.0178
 7281SOL     OW33301   2.198   0.477   3.858  0.3798  0.1548  0.2864
 7281SOL    HW133302   2.153   0.465   3.942 -0.0259  1.6806  0.2844
 7281SOL    HW233303   2.238   0.390   3.850 -0.4190 -0.2155  0.3382
 7282SOL     OW33304   3.553   3.949  15.820  0.0176 -0.0413  0.1593
 7282SOL    HW133305   3.569   4.022  15.761 -1.1361  0.0478 -0.0316
 7282SOL    HW233306   3.537   3.994  15.903  0.9395 -0.5131  0.6057
 7283SOL     OW33307   1.550   1.319   8.467 -0.2629  0.1663 -0.1089
 7283SOL    HW133308   1.526   1.227   8.481  0.4993  0.0433  0.4265
 7283SOL    HW233309   1.633   1.316   8.420  0.2604  2.9561  0.6513
 7284SOL     OW33310   1.836   2.102   1.984  0.6042 -0.2274  0.0239
 7284SOL    HW133311   1.741   2.107   1.981  0.4589 -1.7818  2.1249
 7284SOL    HW233312   1.856   2.017   2.023  1.3412 -0.5670 -1.1016
 7285SOL     OW33313   3.213   1.984  12.832 -0.6475 -0.3322 -0.1340
 7285SOL    HW133314   3.292   2.038  12.833  0.6760 -2.2527 -1.7455
 7285SOL    HW233315   3.152   2.035  12.886 -0.2015 -1.3866  1.3766
 7286SOL     OW33316   2.776   1.637  13.598 -0.1904 -0.7468  0.9479
 7286SOL    HW133317   2.699   1.611  13.648 -0.3580 -1.9808  0.0487
 7286SOL    HW233318   2.757   1.727  13.574  1.6121 -0.4356  0.6583
 7287SOL     OW33319   0.834   2.194   5.963 -0.2615 -0.1917  0.4757
 7287SOL    HW133320   0.749   2.155   5.983 -0.4098  0.7858  1.7815
 7287SOL    HW233321   0.899   2.153   6.021 -0.3797  0.0774  0.7999
 7288SOL     OW33322   1.067   3.454   0.310 -0.8004  0.0196 -0.0801
 7288SOL    HW133323   1.050   3.493   0.396 -0.1000 -0.5541  0.3134
 7288SOL    HW233324   1.066   3.361   0.331 -0.9998  0.3818  1.4896
 7289SOL     OW33325   4.068   3.757   3.750 -0.3578 -0.0411  0.3802
 7289SOL    HW133326   3.994   3.815   3.737 -0.2792 -0.0723 -0.2341
 7289SOL    HW233327   4.037   3.681   3.700 -2.4491  2.7732 -2.6010
 7290SOL     OW33328   3.048   4.663   7.612  0.0219  0.0677 -0.1970
 7290SOL    HW133329   3.100   4.660   7.692 -1.4262 -2.0765  0.6526
 7290SOL    HW233330   2.966   4.686   7.655  1.4241  1.5267  1.7183
 7291SOL     OW33331   0.584   4.563   7.652 -0.0784  0.1225  0.1317
 7291SOL    HW133332   0.526   4.517   7.713 -1.4204  0.7770 -0.6400
 7291SOL    HW233333   0.550   4.651   7.670 -1.0362 -0.0712 -0.7568
 7292SOL     OW33334   2.736   3.641  10.513 -0.1777 -0.2553  0.5026
 7292SOL    HW133335   2.745   3.722  10.463 -1.4352 -0.4580 -0.0411
 7292SOL    HW233336   2.735   3.673  10.603 -0.1065  0.4969  0.2343
 7293SOL     OW33337   4.333   1.204   6.387  0.3988  0.8060 -0.6098
 7293SOL    HW133338   4.365   1.267   6.452  0.0465 -1.4266  1.7163
 7293SOL    HW233339   4.403   1.140   6.400 -0.4195  0.3971  1.7185
 7294SOL     OW33340   0.174   2.530  16.352 -0.3014 -0.3530  0.8864
 7294SOL    HW133341   0.171   2.536  16.448  1.5321  0.0470  0.9343
 7294SOL    HW233342   0.252   2.476  16.340 -0.0101  0.3728 -0.4715
 7295SOL     OW33343   0.221   2.767  13.544 -0.2981 -0.4606 -0.4222
 7295SOL    HW133344   0.159   2.729  13.482  0.0683 -2.1372  0.2371
 7295SOL    HW233345   0.203   2.727  13.628 -1.4320  0.5818 -0.1759
 7296SOL     OW33346   0.466   4.514  15.418 -0.4087  0.3270  0.3526
 7296SOL    HW133347   0.427   4.600  15.405  0.8901  1.2409  2.5567
 7296SOL    HW233348   0.391   4.467  15.453 -0.1861  0.4766  1.0336
 7297SOL     OW33349   3.739   4.425  14.228  0.1898  0.2643  0.3408
 7297SOL    HW133350   3.727   4.393  14.138 -3.9857 -2.8221  2.0339
 7297SOL    HW233351   3.668   4.376  14.270 -0.0984  0.3663 -0.0288
 7298SOL     OW33352   2.885   3.381   9.885 -0.6044 -0.4199  0.5118
 7298SOL    HW133353   2.943   3.437   9.834  0.3737 -0.9737  1.0343
 7298SOL    HW233354   2.921   3.384   9.973 -1.1287  1.6188  0.6527
 7299SOL     OW33355   4.179   1.881   5.376 -0.1409  0.0186  0.1156
 7299SOL    HW133356   4.115   1.951   5.391 -0.7157 -0.0336 -2.1385
 7299SOL    HW233357   4.130   1.799   5.373 -1.6549  0.9843 -1.5077
 7300SOL     OW33358   4.168   4.649   6.842  0.3680  0.4096 -0.3407
 7300SOL    HW133359   4.138   4.664   6.931  0.9883 -0.6712  0.0458
 7300SOL    HW233360   4.246   4.595   6.849 -0.2025  0.0336  2.9439
 7301SOL     OW33361   1.343   4.209   4.054  0.0388  0.1619  0.1097
 7301SOL    HW133362   1.254   4.177   4.041  1.1340 -2.5430 -0.7294
 7301SOL    HW233363   1.326   4.301   4.033 -1.6778 -0.6132 -1.9946
 7302SOL     OW33364   0.826   4.652  11.100 -0.4515  0.2156  0.2875
 7302SOL    HW133365   0.750   4.630  11.046 -0.1923  2.8933 -1.1537
 7302SOL    HW233366   0.821   4.592  11.175  1.6250 -0.5310 -0.1532
 7303SOL     OW33367   1.825   4.139   9.070 -0.9010  0.9615 -0.1665
 7303SOL    HW133368   1.788   4.223   9.096 -0.4938  0.6564  1.3555
 7303SOL    HW233369   1.808   4.121   8.977 -0.2363 -0.8998  0.0666
 7304SOL     OW33370   0.873   4.156   2.110  0.1547 -0.0232 -0.0084
 7304SOL    HW133371   0.832   4.158   2.196  0.1382  0.0394 -0.0177
 7304SOL    HW233372   0.841   4.235   2.066  1.9177 -0.1345 -1.4911
 7305SOL     OW33373   2.895   4.041  15.983 -0.4228 -0.2333 -0.4548
 7305SOL    HW133374   2.806   4.004  15.981  0.3143 -1.8864 -2.3064
 7305SOL    HW233375   2.927   3.996  16.061 -0.4737 -1.1706 -0.9818
 7306SOL     OW33376   3.348   4.357   5.264 -0.1865 -0.7900 -0.4421
 7306SOL    HW133377   3.312   4.446   5.257 -0.0014 -0.7045 -0.2960
 7306SOL    HW233378   3.267   4.309   5.282 -1.3306  1.1947 -0.1981
 7307SOL     OW33379   0.134   4.108   0.132 -0.5652 -0.1834  0.2021
 7307SOL    HW133380   0.108   4.021   0.163 -0.1187  0.1661  1.5495
 7307SOL    HW233381   0.112   4.167   0.203 -0.9040 -1.6570  1.3277
 7308SOL     OW33382   3.619   3.480   6.732 -0.0160  0.0921 -0.1064
 7308SOL    HW133383   3.633   3.420   6.658  0.1385 -0.5496  0.4484
 7308SOL    HW233384   3.581   3.423   6.798  0.2110  1.0318  0.8353
 7309SOL     OW33385   3.751   3.235  15.194  0.0961  0.5405 -0.2290
 7309SOL    HW133386   3.663   3.260  15.223 -0.4242 -1.4108 -0.1625
 7309SOL    HW233387   3.765   3.277  15.109  3.3517  1.2910  0.6498
 7310SOL     OW33388   1.727   0.370   0.443  0.3304 -0.4029  0.0086
 7310SOL    HW133389   1.734   0.414   0.527  0.4937 -0.5042  0.0480
 7310SOL    HW233390   1.760   0.438   0.384 -4.0804  0.8010 -1.0774
 7311SOL     OW33391   4.605   1.029   7.024  0.2499 -0.0066 -0.2732
 7311SOL    HW133392   4.526   1.026   7.077  1.3460  2.2874  1.4625
 7311SOL    HW233393   4.663   1.089   7.071 -0.9395 -0.2245  1.4637
 7312SOL     OW33394   3.833   2.174   7.195 -0.2639 -0.1036 -0.1920
 7312SOL    HW133395   3.863   2.218   7.116 -0.1849 -1.0691 -0.6956
 7312SOL    HW233396   3.763   2.237   7.215 -1.3646 -1.8673  1.5958
 7313SOL     OW33397   3.517   4.198   6.500  0.3891 -0.2310  0.5608
 7313SOL    HW133398   3.529   4.230   6.410 -1.8124  0.5458  0.5322
 7313SOL    HW233399   3.569   4.118   6.504  1.2854  0.3806  1.1980
 7314SOL     OW33400   4.167   0.241  15.249  0.6200  0.7300  0.8528
 7314SOL    HW133401   4.149   0.234  15.155  1.3363  0.6535  0.7245
 7314SOL    HW233402   4.094   0.193  15.289  1.2784 -0.7782  0.2426
 7315SOL     OW33403   2.252   4.384   9.506 -0.4193 -0.4743 -0.5395
 7315SOL    HW133404   2.219   4.347   9.425 -2.0666 -2.2905  0.9680
 7315SOL    HW233405   2.276   4.474   9.484 -1.5505 -0.1390 -0.4019
 7316SOL     OW33406   1.298   2.041   7.472  0.3451  0.1094 -0.1166
 7316SOL    HW133407   1.334   2.037   7.384  1.4013  0.5310  0.2954
 7316SOL    HW233408   1.353   1.985   7.527  0.6570  0.0818 -0.4586
 7317SOL     OW33409   2.048   1.545   2.258  0.1359  0.1605 -0.2642
 7317SOL    HW133410   2.055   1.450   2.253  0.0757  0.1438 -0.0124
 7317SOL    HW233411   2.120   1.545   2.321  1.0548 -1.7796 -1.3347
 7318SOL     OW33412   4.111   0.141   3.198  0.6592  0.2870  0.2033
 7318SOL    HW133413   4.058   0.188   3.132  0.2152  1.6104  1.4974
 7318SOL    HW233414   4.143   0.069   3.145 -1.5655 -0.8515  0.3902
 7319SOL     OW33415   2.578   3.592   2.014  0.4646  0.2348  0.8170
 7319SOL    HW133416   2.576   3.666   1.953  1.9681  1.4175  2.2070
 7319SOL    HW233417   2.501   3.551   1.974  1.3741 -0.9199  0.2330
 7320SOL     OW33418   3.396   4.536   1.179  0.6653 -0.1306  0.0664
 7320SOL    HW133419   3.352   4.462   1.136  0.2508  0.6707 -0.8942
 7320SOL    HW233420   3.481   4.493   1.192  0.3494 -0.3330  1.3774
 7321SOL     OW33421   3.195   1.970   2.298  0.5134 -0.0304 -0.1079
 7321SOL    HW133422   3.247   1.902   2.254 -0.4959  0.2418 -1.7511
 7321SOL    HW233423   3.116   1.918   2.315  0.4476  0.2093  0.3170
 7322SOL     OW33424   3.817   2.777   8.908 -0.1392 -0.6776 -0.1573
 7322SOL    HW133425   3.728   2.745   8.922  0.1615 -0.9966  0.9709
 7322SOL    HW233426   3.866   2.726   8.973  2.9430 -0.7030 -2.4833
 7323SOL     OW33427   2.356   1.604   6.207 -0.4050 -0.3957 -0.1265
 7323SOL    HW133428   2.428   1.612   6.268  0.6973 -1.1078 -1.3343
 7323SOL    HW233429   2.283   1.567   6.256  1.0337 -0.2918  2.0680
 7324SOL     OW33430   3.316   1.452   3.363  0.2834  0.2115 -0.1947
 7324SOL    HW133431   3.347   1.423   3.277  1.4977 -0.2314  0.3861
 7324SOL    HW233432   3.270   1.375   3.396  0.0965  0.8110  0.9304
 7325SOL     OW33433   3.803   0.652   0.629  0.0701  0.4109  0.2561
 7325SOL    HW133434   3.854   0.581   0.668 -0.7807  0.3297  1.2018
 7325SOL    HW233435   3.857   0.721   0.668 -0.6609  0.8239  0.5301
 7326SOL     OW33436   0.674   3.514   6.734 -0.3905  0.7333 -0.2122
 7326SOL    HW133437   0.736   3.443   6.722 -1.0924  0.1969 -0.7045
 7326SOL    HW233438   0.590   3.468   6.729 -0.5497  1.1997 -1.6991
 7327SOL     OW33439   2.844   1.361   1.875  0.2787  0.2015  0.0189
 7327SOL    HW133440   2.814   1.350   1.966 -1.4107 -1.0806 -0.7059
 7327SOL    HW233441   2.860   1.455   1.879 -1.0189  0.3744  1.2076
 7328SOL     OW33442   1.834   1.716  11.910  0.1172 -0.0401  0.6683
 7328SOL    HW133443   1.862   1.706  12.001  0.8993 -1.2107  0.2976
 7328SOL    HW233444   1.901   1.665  11.863  0.7610  0.2674  1.2601
 7329SOL     OW33445   1.189   1.273   8.188  0.3674 -0.1113  0.6158
 7329SOL    HW133446   1.198   1.188   8.144  0.9046 -1.4469  3.3447
 7329SOL    HW233447   1.102   1.266   8.229  0.2403 -0.4717  0.2887
 7330SOL     OW33448   4.439   2.009   9.712 -0.6471  1.0118 -0.1176
 7330SOL    HW133449   4.395   2.090   9.688  1.1602  1.5240 -1.6081
 7330SOL    HW233450   4.360   1.956   9.724 -0.3226  0.7803  1.0278
 7331SOL     OW33451   0.383   1.555   7.445 -0.0024 -0.3992 -0.0827
 7331SOL    HW133452   0.431   1.493   7.390 -0.9152  1.0585 -2.5167
 7331SOL    HW233453   0.369   1.633   7.392  0.8008  0.0250  0.3349
 7332SOL     OW33454   2.986   1.078   9.246 -0.1772 -0.6950  0.1133
 7332SOL    HW133455   3.058   1.032   9.290  1.2302  0.3962 -1.0671
 7332SOL    HW233456   2.921   1.030   9.297 -1.3977 -0.1882 -1.0021
 7333SOL     OW33457   1.222   3.089   3.924 -0.3395  0.0860 -0.0789
 7333SOL    HW133458   1.301   3.048   3.959 -1.3655 -0.5931  1.4293
 7333SOL    HW233459   1.159   3.083   3.996 -2.1429  2.5242 -1.4469
 7334SOL     OW33460   3.044   0.680   7.073 -0.4619  0.1579 -0.0955
 7334SOL    HW133461   3.096   0.604   7.097 -0.9976  0.5237  2.1750
 7334SOL    HW233462   2.954   0.653   7.091 -0.3701 -0.7594 -1.0266
 7335SOL     OW33463   2.824   0.156   2.296  0.3216 -0.2943 -0.5903
 7335SOL    HW133464   2.841   0.250   2.284  0.3744 -0.2118  0.1721
 7335SOL    HW233465   2.882   0.149   2.372 -1.4153 -0.4755  0.6929
 7336SOL     OW33466   0.649   1.545  16.657 -0.1866 -0.2805  0.5672
 7336SOL    HW133467   0.581   1.494  16.701  0.3337 -1.7050 -0.2685
 7336SOL    HW233468   0.675   1.479  16.593 -0.4357 -1.7404  1.9723
 7337SOL     OW33469   4.429   1.018  13.399  0.3034  0.0461 -0.1999
 7337SOL    HW133470   4.446   1.087  13.463 -1.5695 -1.0411  1.5018
 7337SOL    HW233471   4.495   0.954  13.424 -1.7229 -2.0658 -0.2905
 7338SOL     OW33472   0.614   4.221   2.810 -0.3189 -0.1875 -0.0337
 7338SOL    HW133473   0.669   4.273   2.752 -0.0134 -1.5848 -0.9931
 7338SOL    HW233474   0.630   4.258   2.897 -0.3798  2.8040 -1.2953
 7339SOL     OW33475   3.713   2.959   2.246  0.6507 -0.3469 -0.2553
 7339SOL    HW133476   3.765   3.025   2.291 -0.8928  1.5794 -1.2790
 7339SOL    HW233477   3.687   3.002   2.164  0.7419 -1.2001 -0.7246
 7340SOL     OW33478   2.152   3.822  14.115  0.1301 -0.0883 -0.4280
 7340SOL    HW133479   2.183   3.845  14.203  1.6282 -0.0969 -0.9570
 7340SOL    HW233480   2.230   3.782  14.078 -0.6411 -0.1198 -1.9966
 7341SOL     OW33481   1.443   3.063  11.397  0.0484 -0.0646 -0.4151
 7341SOL    HW133482   1.358   3.106  11.388 -0.1350 -0.1889  0.6238
 7341SOL    HW233483   1.490   3.125  11.454 -3.2320  1.2671  0.8395
 7342SOL     OW33484   1.705   3.702   5.107 -0.1627  0.3404 -0.4073
 7342SOL    HW133485   1.663   3.670   5.187 -0.1251 -0.8003 -0.8435
 7342SOL    HW233486   1.646   3.662   5.042 -0.6458  0.4864 -0.0597
 7343SOL     OW33487   1.924   3.308   4.688  0.0725  0.4606  0.1980
 7343SOL    HW133488   2.001   3.252   4.691 -0.5449 -0.4330 -0.6846
 7343SOL    HW233489   1.849   3.258   4.721 -0.7467  2.0567  0.7383
 7344SOL     OW33490   0.831   0.821   5.622  0.1449  0.0557 -0.4761
 7344SOL    HW133491   0.763   0.817   5.555  0.4202  1.6347 -0.8403
 7344SOL    HW233492   0.808   0.894   5.679 -0.7526 -1.1352  0.7126
 7345SOL     OW33493   1.524   2.117  12.336 -0.5162  0.1553  0.4057
 7345SOL    HW133494   1.446   2.087  12.383 -0.8386 -0.3814 -0.4747
 7345SOL    HW233495   1.591   2.136  12.402  0.8350 -2.0152 -0.3639
 7346SOL     OW33496   4.591   3.034   8.715 -0.4812  0.1281 -0.2341
 7346SOL    HW133497   4.638   3.064   8.792  0.4458 -0.5592 -0.5409
 7346SOL    HW233498   4.564   3.120   8.680 -1.2468 -1.0401 -2.5567
 7347SOL     OW33499   4.701   1.732   9.228  0.1967 -0.3624 -0.1864
 7347SOL    HW133500   0.027   1.730   9.311  0.5424  0.0110 -0.3667
 7347SOL    HW233501   0.060   1.712   9.177  0.5665 -0.0991  0.2866
 7348SOL     OW33502   3.745   1.804   0.361 -0.0647 -0.0946  0.0216
 7348SOL    HW133503   3.672   1.744   0.378 -2.7341  2.3216 -2.9000
 7348SOL    HW233504   3.804   1.767   0.426 -1.0687 -0.9280  0.4673
 7349SOL     OW33505   3.048   2.277  16.192  0.0620 -0.4902 -0.2123
 7349SOL    HW133506   3.123   2.218  16.197  0.1550 -0.4553 -1.1501
 7349SOL    HW233507   3.000   2.237  16.119  0.0426  1.2511 -1.1420
 7350SOL     OW33508   0.904   0.967   2.090  0.3943 -0.3369 -0.1483
 7350SOL    HW133509   0.817   0.985   2.054 -0.0824 -0.7650  0.8063
 7350SOL    HW233510   0.923   0.877   2.063 -1.5218 -1.4253  2.2277
 7351SOL     OW33511   3.336   0.564   6.741  0.1580 -0.1520  0.2038
 7351SOL    HW133512   3.381   0.575   6.824 -0.0275  1.0082  0.1500
 7351SOL    HW233513   3.246   0.582   6.769 -0.7652 -1.6650 -1.7193
 7352SOL     OW33514   4.694   0.521   5.765  0.1021  0.3192  0.5045
 7352SOL    HW133515   4.614   0.476   5.792  0.3288  0.5100  1.5107
 7352SOL    HW233516   4.696   0.589   5.832 -0.7312 -1.1733  2.0521
 7353SOL     OW33517   0.089   0.998   4.560 -0.1340 -0.0449  0.0804
 7353SOL    HW133518   0.080   0.955   4.646 -0.8688 -0.0334  0.0095
 7353SOL    HW233519   0.090   0.921   4.502  2.1150 -1.1691  1.5956
 7354SOL     OW33520   4.065   3.830  15.173  0.9403 -0.1993  0.1119
 7354SOL    HW133521   4.059   3.878  15.091  1.1485 -0.1012  0.1542
 7354SOL    HW233522   4.127   3.765  15.140  2.5333  1.1571  0.4607
 7355SOL     OW33523   2.298   2.466   6.064  0.2623  0.0297  0.5397
 7355SOL    HW133524   2.265   2.538   6.117 -1.0014  0.1095 -0.3526
 7355SOL    HW233525   2.322   2.529   5.996 -0.7388 -0.6783 -0.4606
 7356SOL     OW33526   1.676   3.607   9.765 -0.6843 -0.4180 -0.0540
 7356SOL    HW133527   1.674   3.518   9.729  0.0591 -0.4314 -0.0557
 7356SOL    HW233528   1.703   3.587   9.854 -1.3836 -0.7536  0.0864
 7357SOL     OW33529   4.562   0.315  16.336  0.0967  0.3278 -0.3426
 7357SOL    HW133530   4.555   0.279  16.425 -0.7545  1.7208  0.1437
 7357SOL    HW233531   4.622   0.252  16.296  1.0368  0.6327  0.5839
 7358SOL     OW33532   2.218   4.491   4.103 -0.0780  0.0484 -0.0580
 7358SOL    HW133533   2.190   4.433   4.173  1.0068 -0.4341 -0.0288
 7358SOL    HW233534   2.241   4.426   4.037  0.0392 -0.2696  0.2968
 7359SOL     OW33535   0.953   3.687  14.654  1.3141  0.8501  0.4215
 7359SOL    HW133536   0.923   3.778  14.655  1.4843  0.9064  0.5246
 7359SOL    HW233537   0.870   3.639  14.651  2.0895 -0.4300 -0.3965
 7360SOL     OW33538   1.116   2.401   9.248 -0.0400  0.0020  0.5648
 7360SOL    HW133539   1.152   2.352   9.322  0.9081 -0.6240 -0.3180
 7360SOL    HW233540   1.087   2.479   9.295 -0.0949 -0.1516  0.7841
 7361SOL     OW33541   3.440   0.836   0.982 -0.1282 -0.2151  0.4113
 7361SOL    HW133542   3.471   0.869   0.898  0.7183 -0.6651  0.5443
 7361SOL    HW233543   3.362   0.892   0.982 -0.1241 -0.2084  0.8421
 7362SOL     OW33544   2.184   0.842   2.101  0.4752 -0.2890  0.1993
 7362SOL    HW133545   2.271   0.874   2.127  1.5089 -1.6649 -1.5160
 7362SOL    HW233546   2.154   0.932   2.087 -1.6012 -1.1402 -0.7551
 7363SOL     OW33547   0.502   3.692   4.152 -0.0244  0.4950 -0.5245
 7363SOL    HW133548   0.580   3.636   4.147  1.2632  2.3936 -1.7312
 7363SOL    HW233549   0.501   3.724   4.243 -1.4328  0.7134 -0.6180
 7364SOL     OW33550   0.805   2.242   4.891 -0.4013 -0.3248 -0.0038
 7364SOL    HW133551   0.862   2.293   4.834  2.4201 -0.0154  3.0620
 7364SOL    HW233552   0.727   2.238   4.836 -0.8923  2.4756  0.4593
 7365SOL     OW33553   0.857   1.034   9.238  0.2196  0.1544  0.0249
 7365SOL    HW133554   0.933   1.062   9.187  1.7987 -2.5471  0.9016
 7365SOL    HW233555   0.798   0.998   9.171 -0.0533 -1.3898  1.1046
 7366SOL     OW33556   4.009   2.648  16.430 -0.0248 -0.0797 -0.1171
 7366SOL    HW133557   3.940   2.583  16.416  0.6492 -0.9184  0.4969
 7366SOL    HW233558   4.080   2.593  16.462 -0.1125 -1.1568 -1.7359
 7367SOL     OW33559   1.392   3.926  15.891 -0.9772 -0.3247 -0.2119
 7367SOL    HW133560   1.400   3.992  15.960 -1.1960 -0.0567 -0.4421
 7367SOL    HW233561   1.381   3.989  15.820 -1.5664 -0.3059 -0.1003
 7368SOL     OW33562   3.615   3.027   9.503  0.5000  0.3107 -0.5131
 7368SOL    HW133563   3.626   2.947   9.452  2.0175  1.2808 -1.7443
 7368SOL    HW233564   3.699   3.069   9.484  0.1938  0.7571 -0.8996
 7369SOL     OW33565   4.388   1.993   6.905 -0.1834 -0.5115  0.2228
 7369SOL    HW133566   4.421   1.913   6.946 -0.8911 -1.1415 -0.4395
 7369SOL    HW233567   4.444   2.003   6.828 -2.0819  0.3739 -1.0484
 7370SOL     OW33568   4.392   2.186   5.724  0.1947 -0.7452  0.1748
 7370SOL    HW133569   4.380   2.094   5.747 -2.6612 -1.2990 -3.3443
 7370SOL    HW233570   4.308   2.201   5.679 -0.4884  0.6706  1.9340
 7371SOL     OW33571   2.086   3.940   7.215  0.4609 -0.3824  0.0156
 7371SOL    HW133572   2.012   3.994   7.189  1.3539  0.1844 -1.3496
 7371SOL    HW233573   2.113   3.918   7.126 -1.5268  0.8179 -0.8843
 7372SOL     OW33574   0.506   1.623   8.328 -0.5298  0.4509 -0.2575
 7372SOL    HW133575   0.512   1.661   8.415  1.7034  1.7217 -0.9690
 7372SOL    HW233576   0.597   1.609   8.303 -0.2306 -1.3327  1.9484
 7373SOL     OW33577   1.383   3.308   5.398 -0.2435 -0.0883  0.5090
 7373SOL    HW133578   1.430   3.365   5.458  0.4317  0.0232 -0.1238
 7373SOL    HW233579   1.294   3.343   5.408  0.1534  1.3751 -1.0229
 7374SOL     OW33580   3.566   0.557   5.399 -0.2060  0.3274  0.4733
 7374SOL    HW133581   3.646   0.553   5.451 -1.2778  0.0052  2.0884
 7374SOL    HW233582   3.543   0.466   5.381  0.9042  0.0809  0.2892
 7375SOL     OW33583   3.032   1.394   1.592 -0.1041 -0.1523  0.0824
 7375SOL    HW133584   3.059   1.315   1.545  1.3592 -0.9113  2.1917
 7375SOL    HW233585   2.998   1.353   1.671  0.4270 -1.0235 -0.1359
 7376SOL     OW33586   0.201   2.441  12.710  0.4540  0.7266 -0.1143
 7376SOL    HW133587   0.242   2.521  12.743  1.9006  0.4000 -1.1232
 7376SOL    HW233588   0.232   2.451  12.620  1.7468 -0.2971  0.2200
 7377SOL     OW33589   2.538   1.285   5.623 -0.1051  0.7394  0.2241
 7377SOL    HW133590   2.629   1.310   5.608  0.8282 -3.4534 -1.0473
 7377SOL    HW233591   2.500   1.285   5.535  0.2822  2.2541  0.0500
 7378SOL     OW33592   2.371   0.067   5.958  0.5826  0.4676  0.1253
 7378SOL    HW133593   2.407   0.140   6.007  0.3998  1.0311 -0.5835
 7378SOL    HW233594   2.358   0.110   5.873 -1.1673 -0.3241 -0.0164
 7379SOL     OW33595   3.145   0.923   9.414  0.0645 -0.1390  0.6354
 7379SOL    HW133596   3.151   0.829   9.395 -1.0910 -0.0661 -0.0641
 7379SOL    HW233597   3.076   0.929   9.480  1.2522  1.3860  1.7349
 7380SOL     OW33598   0.053   2.830   7.014  0.1312  0.1736 -0.2538
 7380SOL    HW133599   0.129   2.874   7.052  1.0738 -1.8193  0.1930
 7380SOL    HW233600   0.024   2.898   6.953 -2.4585 -0.1378  0.6673
 7381SOL     OW33601   3.565   2.506  17.367 -0.1632  0.1231  0.3781
 7381SOL    HW133602   3.611   2.520  17.284 -0.9234  0.8017  0.0634
 7381SOL    HW233603   3.489   2.565  17.366  2.0755  2.9283 -2.2200
 7382SOL     OW33604   3.475   4.424  17.365 -0.2296 -0.3958 -0.0183
 7382SOL    HW133605   3.551   4.399  17.417  1.2020  0.4382 -1.6928
 7382SOL    HW233606   3.442   4.343  17.325 -2.1922  0.1605  0.4492
 7383SOL     OW33607   3.945   3.299   3.582  0.4128 -0.3116 -0.0497
 7383SOL    HW133608   3.850   3.290   3.571  0.3206  0.6721 -0.0392
 7383SOL    HW233609   3.973   3.208   3.591  0.3133 -0.3773 -0.4042
 7384SOL     OW33610   2.517   0.222   0.966 -0.5762  0.4035 -0.5534
 7384SOL    HW133611   2.537   0.313   0.990  0.2134 -0.3718  1.7005
 7384SOL    HW233612   2.594   0.197   1.017 -2.1593 -0.8057  1.2352
 7385SOL     OW33613   3.101   4.032   0.127 -0.4382  0.2077 -0.1764
 7385SOL    HW133614   3.138   4.039   0.039 -0.0639  1.4275  0.0873
 7385SOL    HW233615   3.074   3.940   0.125  1.4382 -0.3892  0.8815
 7386SOL     OW33616   4.546   0.557   8.038 -0.3995 -0.0061 -0.0445
 7386SOL    HW133617   4.560   0.640   8.084  2.2872  0.0405 -0.9438
 7386SOL    HW233618   4.546   0.491   8.107  1.2546  1.3668  1.2927
 7387SOL     OW33619   2.834   3.543   2.487 -0.5229 -0.2602 -0.1214
 7387SOL    HW133620   2.770   3.526   2.556  0.0069 -3.1835 -0.3300
 7387SOL    HW233621   2.783   3.588   2.419  0.4407  0.9360 -0.0421
 7388SOL     OW33622   1.437   1.691   4.638  0.1741 -0.1857 -0.0691
 7388SOL    HW133623   1.349   1.666   4.666  1.1229 -2.5606  0.8217
 7388SOL    HW233624   1.473   1.604   4.618 -0.4301 -0.1285 -1.4260
 7389SOL     OW33625   4.070   2.794   2.814  0.3545 -0.2662  0.1523
 7389SOL    HW133626   4.157   2.782   2.852 -0.6319 -0.9923  2.1462
 7389SOL    HW233627   4.091   2.753   2.730  2.0604  2.0639 -0.5877
 7390SOL     OW33628   0.203   3.426   7.777 -0.0563 -0.6680  0.1041
 7390SOL    HW133629   0.221   3.350   7.722  0.5231  0.4474 -1.2549
 7390SOL    HW233630   0.113   3.401   7.798  0.6228 -3.0330  0.1970
 7391SOL     OW33631   0.236   1.728  12.174 -0.3395 -0.0425 -0.1361
 7391SOL    HW133632   0.292   1.682  12.111 -1.5165  1.9298 -2.6661
 7391SOL    HW233633   0.193   1.794  12.119 -0.2829  1.5316  1.7425
 7392SOL     OW33634   1.010   1.623   8.277  0.2940 -0.2350 -0.1482
 7392SOL    HW133635   0.969   1.688   8.334  1.6907  0.7860 -0.3122
 7392SOL    HW233636   1.092   1.607   8.324 -0.3840 -1.7573  0.5199
 7393SOL     OW33637   4.075   0.552   8.019 -0.3884 -0.4737  0.2448
 7393SOL    HW133638   4.140   0.501   7.971 -1.9996 -1.3148 -1.0715
 7393SOL    HW233639   3.998   0.526   7.968  0.8382  1.1142 -2.4311
 7394SOL     OW33640   2.973   3.222  16.225 -0.0261  0.0098 -0.0248
 7394SOL    HW133641   2.964   3.245  16.318 -0.9280 -1.6577  0.2965
 7394SOL    HW233642   2.905   3.155  16.213 -1.1238  1.2525 -0.7647
 7395SOL     OW33643   3.439   0.512   8.526  0.3345  0.3165 -0.6586
 7395SOL    HW133644   3.372   0.578   8.545  0.0930 -0.0166 -0.3452
 7395SOL    HW233645   3.389   0.463   8.460  0.6394  0.2188 -0.8148
 7396SOL     OW33646   1.143   0.825   5.644  0.0260  1.0933 -0.0002
 7396SOL    HW133647   1.137   0.849   5.551  0.1271 -1.7385 -0.7461
 7396SOL    HW233648   1.054   0.841   5.675 -0.0088  1.0788 -0.0924
 7397SOL     OW33649   4.625   3.804  14.163  0.4999  0.0315 -0.3874
 7397SOL    HW133650   4.538   3.764  14.153  0.0655  1.5647 -2.7195
 7397SOL    HW233651   4.666   3.729  14.120  0.2585 -0.1638 -0.2778
 7398SOL     OW33652   2.812   4.487   0.331  0.0603 -0.2230  0.3279
 7398SOL    HW133653   2.887   4.443   0.370 -0.9097  0.2788  2.8315
 7398SOL    HW233654   2.749   4.416   0.319  1.7597 -1.4153 -1.4432
 7399SOL     OW33655   1.318   2.820   0.475 -0.3477  0.6975 -0.1951
 7399SOL    HW133656   1.355   2.840   0.389  0.3162 -0.4297 -0.1679
 7399SOL    HW233657   1.238   2.773   0.449  1.2095 -1.8882 -0.3636
 7400SOL     OW33658   2.227   1.943  14.610 -0.4283  0.1707 -0.2820
 7400SOL    HW133659   2.214   2.033  14.641 -2.1849 -1.4823  3.6122
 7400SOL    HW233660   2.163   1.949  14.538  1.2768  3.1880 -1.5682
 7401SOL     OW33661   2.153   2.477  13.153 -0.1491  0.2510  0.2365
 7401SOL    HW133662   2.240   2.489  13.191 -0.5335 -0.0696  1.2181
 7401SOL    HW233663   2.173   2.494  13.061 -3.7786  2.7958 -0.0479
 7402SOL     OW33664   2.614   3.048   6.069  0.2854  0.0488  0.1905
 7402SOL    HW133665   2.577   3.067   5.983 -0.8953  1.8004  1.0902
 7402SOL    HW233666   2.648   3.135   6.092 -0.3489  0.5685 -0.8158
 7403SOL     OW33667   0.685   0.946  12.718 -0.1416 -0.7624  0.1432
 7403SOL    HW133668   0.759   1.006  12.728 -0.7849 -0.3116  2.1623
 7403SOL    HW233669   0.714   0.865  12.677  0.3227  0.4843 -2.0121
 7404SOL     OW33670   2.644   1.017  15.933 -0.3037  0.1005  0.0629
 7404SOL    HW133671   2.616   1.021  15.841  2.2943  1.2091 -0.6669
 7404SOL    HW233672   2.703   0.942  15.939  2.6595  2.4746  0.3647
 7405SOL     OW33673   0.961   4.579   5.410  0.2127 -0.3373  0.0917
 7405SOL    HW133674   1.022   4.538   5.350  0.7954 -0.3350  0.6862
 7405SOL    HW233675   1.026   4.622   5.466 -0.5348  2.0110 -0.8046
 7406SOL     OW33676   4.524   3.555  16.210 -0.4268  0.6152  0.2926
 7406SOL    HW133677   4.598   3.535  16.153 -0.5871  0.2851  0.1984
 7406SOL    HW233678   4.498   3.639  16.171 -2.9879 -0.0262  0.6328
 7407SOL     OW33679   2.091   4.005   0.970 -0.3728 -0.7522 -0.4508
 7407SOL    HW133680   2.179   4.037   0.947  0.9854 -2.5791  2.1688
 7407SOL    HW233681   2.039   4.018   0.890 -2.1039 -0.0954  0.7964
 7408SOL     OW33682   3.117   1.411   5.916  0.0376 -0.2244 -0.5434
 7408SOL    HW133683   3.105   1.338   5.977 -1.8280 -0.1857 -0.8473
 7408SOL    HW233684   3.073   1.490   5.949  2.7825  1.5956 -1.2895
 7409SOL     OW33685   1.685   4.507  15.073  0.0295  0.3725 -0.0547
 7409SOL    HW133686   1.722   4.592  15.051  2.3843 -0.2397  1.5147
 7409SOL    HW233687   1.635   4.483  14.995  0.4620 -1.4183  0.2209
 7410SOL     OW33688   4.660   2.459   6.177 -0.0658 -0.0923 -0.3162
 7410SOL    HW133689   4.662   2.453   6.081  1.7409 -0.3808 -0.2656
 7410SOL    HW233690   4.602   2.533   6.193  0.0452  0.0908 -0.7563
 7411SOL     OW33691   0.331   4.543   7.103 -0.0818  0.1843  0.0600
 7411SOL    HW133692   0.424   4.561   7.085  0.8354 -1.7181  2.8145
 7411SOL    HW233693   0.293   4.619   7.060  1.8653  0.5902 -0.9261
 7412SOL     OW33694   3.422   3.703   5.041  0.0046  0.2347 -0.0257
 7412SOL    HW133695   3.451   3.670   4.956 -1.8304 -0.6907 -0.2772
 7412SOL    HW233696   3.336   3.662   5.047 -0.1524  0.7859  1.6625
 7413SOL     OW33697   3.815   3.052  11.281  1.0064 -0.3095 -0.2484
 7413SOL    HW133698   3.886   3.005  11.239 -1.4304 -3.4404 -0.8636
 7413SOL    HW233699   3.776   3.087  11.201 -1.5711  1.0956  1.5786
 7414SOL     OW33700   1.630   2.429   4.731  0.4877 -0.3742 -0.6319
 7414SOL    HW133701   1.583   2.372   4.791  1.8855 -0.9025 -0.0405
 7414SOL    HW233702   1.715   2.384   4.732  0.2422 -0.7519  3.0848
 7415SOL     OW33703   0.071   3.745   7.293 -0.1401  0.2464  0.1082
 7415SOL    HW133704   4.705   3.786   7.290 -0.7277 -1.0696 -1.2722
 7415SOL    HW233705   0.048   3.659   7.328 -2.4357  0.8636  0.1087
 7416SOL     OW33706   1.257   1.581  16.472  0.1792  0.0936 -0.6317
 7416SOL    HW133707   1.207   1.562  16.392  1.6319 -0.3811 -1.4208
 7416SOL    HW233708   1.189   1.554  16.534  1.7447  0.6730  1.3294
 7417SOL     OW33709   1.812   1.086  10.065  0.3532 -0.1975  0.0310
 7417SOL    HW133710   1.743   1.143  10.030  1.8484  2.1354  0.9184
 7417SOL    HW233711   1.855   1.063   9.983  1.5782 -0.0091  0.6258
 7418SOL     OW33712   3.829   3.984   8.800 -0.3123 -0.3782 -0.3740
 7418SOL    HW133713   3.889   3.912   8.820  0.7320  0.1041 -1.7631
 7418SOL    HW233714   3.871   4.065   8.826 -1.6020 -0.1586  0.9992
 7419SOL     OW33715   2.512   2.143   2.244 -0.2678 -0.0618 -0.0023
 7419SOL    HW133716   2.566   2.134   2.323  1.8303  1.0349 -1.2983
 7419SOL    HW233717   2.428   2.162   2.283  0.1349  4.4512 -1.3773
 7420SOL     OW33718   1.076   3.576  11.650  0.4031 -0.4541  0.2932
 7420SOL    HW133719   1.144   3.557  11.585  0.6357 -0.6395  0.5942
 7420SOL    HW233720   1.129   3.636  11.702 -0.8101 -0.7218  1.8332
 7421SOL     OW33721   0.072   4.450   5.055 -0.0544 -0.3387  0.2059
 7421SOL    HW133722   0.032   4.366   5.076 -1.2028  0.2232  0.2554
 7421SOL    HW233723   0.162   4.427   5.077 -0.7727 -1.0526  2.4303
 7422SOL     OW33724   0.870   4.268   4.873 -0.1041  0.6069  0.0078
 7422SOL    HW133725   0.877   4.364   4.872 -1.4514  0.7184  0.2748
 7422SOL    HW233726   0.779   4.272   4.841 -0.0743  2.7710  0.1674
 7423SOL     OW33727   1.294   1.564  11.662  0.0248  0.3031 -0.3292
 7423SOL    HW133728   1.289   1.513  11.582  1.0753 -2.4760  1.3753
 7423SOL    HW233729   1.269   1.497  11.726  0.8096 -0.8806 -1.2666
 7424SOL     OW33730   2.697   1.559   8.543  0.1853  0.1265 -0.0122
 7424SOL    HW133731   2.790   1.539   8.548  0.5236  1.5347 -0.6091
 7424SOL    HW233732   2.660   1.478   8.578  0.4912  0.3541  0.8605
 7425SOL     OW33733   3.807   0.355   8.252  0.2604  0.1475 -0.2457
 7425SOL    HW133734   3.774   0.399   8.173  1.4075  0.3447 -0.6101
 7425SOL    HW233735   3.765   0.408   8.321 -0.5697 -0.0087 -0.6309
 7426SOL     OW33736   3.623   2.763   5.296 -0.2475 -0.4651  0.3545
 7426SOL    HW133737   3.608   2.769   5.202  1.0941  0.5992  0.2172
 7426SOL    HW233738   3.541   2.802   5.326 -0.2127  1.0520 -1.4964
 7427SOL     OW33739   0.164   4.600   0.981  0.0234  0.6455  0.6924
 7427SOL    HW133740   0.250   4.635   0.959 -0.0588  0.5248  0.1695
 7427SOL    HW233741   0.178   4.549   1.061  3.2691  0.7998  0.2078
 7428SOL     OW33742   0.630   3.693   6.991  0.4948  0.0843 -0.3161
 7428SOL    HW133743   0.679   3.776   6.995  1.0660 -0.2944  0.7077
 7428SOL    HW233744   0.669   3.651   6.915 -0.0444  1.5197 -1.3833
 7429SOL     OW33745   0.670   3.150   7.308 -0.2924  0.2144 -0.2561
 7429SOL    HW133746   0.651   3.211   7.238  1.6250 -0.9508 -1.7945
 7429SOL    HW233747   0.596   3.090   7.309 -0.5899  0.6118  2.0549
 7430SOL     OW33748   3.589   3.125   2.051  0.3007 -0.5451 -0.1768
 7430SOL    HW133749   3.597   3.128   1.956 -0.5916  2.4788 -0.1340
 7430SOL    HW233750   3.538   3.205   2.055 -0.7578 -1.1875 -0.8369
 7431SOL     OW33751   2.225   1.681  10.265 -0.5182  0.9241  0.0065
 7431SOL    HW133752   2.258   1.599  10.228 -2.1032  0.0357  0.5554
 7431SOL    HW233753   2.234   1.667  10.359  0.3200 -2.5120 -0.5593
 7432SOL     OW33754   3.660   2.498   4.948  0.4786  0.1294 -0.5719
 7432SOL    HW133755   3.674   2.491   4.854  1.7038  2.7359 -0.5676
 7432SOL    HW233756   3.630   2.589   4.948 -0.0988 -0.0497  1.5883
 7433SOL     OW33757   2.604   0.540   0.362  0.2006 -0.2484 -0.2496
 7433SOL    HW133758   2.525   0.543   0.308  0.0374 -0.0616 -0.0038
 7433SOL    HW233759   2.582   0.461   0.411 -0.5480 -0.4351 -0.8789
 7434SOL     OW33760   0.586   2.198  14.734 -0.0503 -0.4700 -0.3272
 7434SOL    HW133761   0.664   2.207  14.790 -0.8839  2.5783  0.3029
 7434SOL    HW233762   0.591   2.103  14.719  0.0657 -0.1158 -2.3944
 7435SOL     OW33763   3.425   4.588   3.757  0.8179  0.0580 -0.1054
 7435SOL    HW133764   3.500   4.530   3.769  0.4434 -0.4954 -0.4403
 7435SOL    HW233765   3.379   4.549   3.683 -2.6213  2.1939  0.8933
 7436SOL     OW33766   2.241   2.559   7.271 -0.0270 -0.1054  0.0011
 7436SOL    HW133767   2.244   2.464   7.261  0.7786  0.1388 -2.0393
 7436SOL    HW233768   2.154   2.593   7.250  1.2845  1.6561 -2.6285
 7437SOL     OW33769   3.697   3.700   9.434 -0.0037  0.2245 -0.0633
 7437SOL    HW133770   3.656   3.639   9.372 -0.5104  1.8147 -1.3038
 7437SOL    HW233771   3.672   3.669   9.521  0.7239 -2.7593 -0.9231
 7438SOL     OW33772   4.653   3.214  10.222 -0.0190 -0.1270 -0.9392
 7438SOL    HW133773   4.665   3.120  10.237  1.4038  0.7527  3.5745
 7438SOL    HW233774   4.569   3.227  10.266  1.0361 -0.2671  1.1318
 7439SOL     OW33775   4.132   1.948  12.705 -0.1145  0.4690 -0.1169
 7439SOL    HW133776   4.157   1.980  12.791 -0.7886  3.2257 -0.9407
 7439SOL    HW233777   4.212   1.953  12.653  0.3002  3.6066  0.8755
 7440SOL     OW33778   3.872   4.422   4.072 -0.3445 -0.3024  0.6641
 7440SOL    HW133779   3.917   4.376   4.002 -0.6551  1.4101 -0.6597
 7440SOL    HW233780   3.806   4.473   4.024  1.5090  0.1147 -1.4425
 7441SOL     OW33781   3.854   3.349  11.802  0.2976 -0.3910 -0.3473
 7441SOL    HW133782   3.779   3.303  11.840 -2.4198  3.4516 -1.1005
 7441SOL    HW233783   3.884   3.285  11.738 -1.3398 -0.2316 -1.2625
 7442SOL     OW33784   0.969   0.693   6.025  0.4263 -0.1969  0.1215
 7442SOL    HW133785   0.896   0.652   6.072  0.5627 -1.8675 -1.1026
 7442SOL    HW233786   0.951   0.672   5.933 -0.5830 -1.9208  0.6954
 7443SOL     OW33787   2.576   3.227   2.313  0.2912 -0.0059 -0.0546
 7443SOL    HW133788   2.669   3.249   2.301  0.6906 -2.2873 -1.1609
 7443SOL    HW233789   2.563   3.157   2.249 -3.4758  2.7527 -2.3017
 7444SOL     OW33790   1.647   2.225   3.346  0.1642 -0.6947  0.2945
 7444SOL    HW133791   1.710   2.295   3.360 -1.0498  0.3134  0.6809
 7444SOL    HW233792   1.576   2.283   3.318 -0.2865 -0.6892  1.4408
 7445SOL     OW33793   1.414   2.214   1.811  0.3464 -0.1033 -0.1671
 7445SOL    HW133794   1.359   2.167   1.874  1.2320  0.4836  1.0331
 7445SOL    HW233795   1.380   2.304   1.815  0.8619  0.1093 -0.5895
 7446SOL     OW33796   0.898   3.528  13.972  0.1716 -0.3207  0.6578
 7446SOL    HW133797   0.928   3.526  14.063  1.5159  1.7869  0.2514
 7446SOL    HW233798   0.930   3.614  13.947  0.4688 -1.1666 -1.8621
 7447SOL     OW33799   4.381   4.141   6.723 -0.1570 -0.8349 -0.4003
 7447SOL    HW133800   4.431   4.177   6.651  0.2414 -3.0520 -1.2371
 7447SOL    HW233801   4.376   4.214   6.785  0.1525  0.8998 -2.4229
 7448SOL     OW33802   0.461   3.204  15.010 -0.3233  0.2591 -0.3490
 7448SOL    HW133803   0.370   3.235  15.009 -0.7613 -0.9976  1.1303
 7448SOL    HW233804   0.461   3.159  15.095 -0.2292  0.6344 -0.1512
 7449SOL     OW33805   2.786   3.925   6.302 -0.1265  0.4206  0.1970
 7449SOL    HW133806   2.697   3.903   6.331 -0.0542 -0.4393 -0.2204
 7449SOL    HW233807   2.827   3.930   6.388 -1.4628  1.1082  0.7860
 7450SOL     OW33808   3.236   1.653   0.317  0.1024 -0.4270 -0.5794
 7450SOL    HW133809   3.294   1.715   0.361 -1.4110  0.5607  0.0035
 7450SOL    HW233810   3.253   1.673   0.225 -0.4296 -2.3873 -1.1155
 7451SOL     OW33811   2.080   1.410   3.308 -0.3968 -0.0844 -0.1766
 7451SOL    HW133812   2.053   1.330   3.263  1.6338 -1.1790  0.5071
 7451SOL    HW233813   2.165   1.379   3.340 -0.0250  1.3119  0.1846
 7452SOL     OW33814   0.964   2.735  13.275  0.0434  0.2720 -0.0755
 7452SOL    HW133815   0.919   2.672  13.218 -1.4208  1.1305  0.1126
 7452SOL    HW233816   0.888   2.775  13.317 -1.6531 -2.8606 -0.1598
 7453SOL     OW33817   2.532   4.684   1.446 -0.1862  0.2057 -0.0402
 7453SOL    HW133818   2.512   4.688   1.353  0.9774 -0.1767 -0.3044
 7453SOL    HW233819   2.476   4.609   1.466 -0.7046 -0.2159 -3.1034
 7454SOL     OW33820   1.074   1.493   3.005  0.0211 -0.4071  0.2559
 7454SOL    HW133821   1.135   1.447   2.946  1.1080 -0.2912  1.2926
 7454SOL    HW233822   1.006   1.530   2.949  1.8773  2.9827  0.2117
 7455SOL     OW33823   2.166   1.114   2.057 -0.5922  0.2942  0.1691
 7455SOL    HW133824   2.224   1.169   2.110  0.9368 -0.7181 -0.4540
 7455SOL    HW233825   2.196   1.127   1.967 -0.6981  0.8674  0.2222
 7456SOL     OW33826   0.806   0.821   5.128  0.1140 -0.5343  0.3650
 7456SOL    HW133827   0.842   0.752   5.071  0.6573 -0.1980  0.3040
 7456SOL    HW233828   0.741   0.868   5.077 -1.0901  0.2315  2.6322
 7457SOL     OW33829   3.235   3.798   7.778 -0.0373  0.1078 -0.2195
 7457SOL    HW133830   3.250   3.889   7.755  0.9539  0.0005  0.0037
 7457SOL    HW233831   3.313   3.769   7.825  0.8305 -0.0972 -1.7773
 7458SOL     OW33832   2.809   3.925   1.074 -0.3740 -0.1314  0.1760
 7458SOL    HW133833   2.874   3.995   1.071 -0.7330  0.2549  1.3053
 7458SOL    HW233834   2.772   3.939   0.987  0.3955  1.6178  0.1262
 7459SOL     OW33835   1.816   3.379   5.510 -0.5291  0.9519  0.1152
 7459SOL    HW133836   1.724   3.398   5.528 -1.0511 -2.1970  0.8199
 7459SOL    HW233837   1.845   3.348   5.596  1.2833 -1.4341 -1.3408
 7460SOL     OW33838   0.647   2.350   2.642  0.2987  0.6198 -0.1694
 7460SOL    HW133839   0.674   2.440   2.659  1.1078  0.1636  0.9942
 7460SOL    HW233840   0.574   2.339   2.703 -1.1887  1.9932 -1.7058
 7461SOL     OW33841   3.219   2.070  15.670 -0.2802  0.1720 -0.4895
 7461SOL    HW133842   3.173   2.154  15.670 -0.7974 -0.1078  0.3009
 7461SOL    HW233843   3.150   2.013  15.636  0.6824 -2.8659  2.6337
 7462SOL     OW33844   2.840   2.383   7.792  0.0816 -0.8733 -0.0442
 7462SOL    HW133845   2.786   2.446   7.839 -0.0537 -0.6377 -0.5153
 7462SOL    HW233846   2.906   2.353   7.855  0.8897 -1.2540 -1.0701
 7463SOL     OW33847   1.614   1.234   3.057  0.4732 -0.7153 -0.3473
 7463SOL    HW133848   1.676   1.303   3.032 -3.1647  2.7621  0.0803
 7463SOL    HW233849   1.677   1.167   3.083  2.0542  0.6973 -0.4766
 7464SOL     OW33850   2.893   2.926   3.174 -0.3156 -0.5912  0.2847
 7464SOL    HW133851   2.843   2.845   3.174 -2.2264  0.5895  0.5917
 7464SOL    HW233852   2.922   2.930   3.083 -1.7149 -0.9982 -0.1824
 7465SOL     OW33853   4.391   0.554   4.949  0.1163 -0.4814 -0.6080
 7465SOL    HW133854   4.428   0.640   4.968 -0.5056 -0.9016  2.5396
 7465SOL    HW233855   4.353   0.532   5.034  0.9507  0.1861 -0.0631
 7466SOL     OW33856   0.957   3.434   9.038  0.0723  0.3798  0.2004
 7466SOL    HW133857   0.919   3.346   9.035  1.8797 -0.3478 -1.8483
 7466SOL    HW233858   0.911   3.477   9.109 -0.7808  0.5624 -0.4660
 7467SOL     OW33859   1.286   2.043   6.770 -0.0990 -0.2220 -0.1205
 7467SOL    HW133860   1.229   2.084   6.835  0.8103 -1.3289  1.3661
 7467SOL    HW233861   1.362   2.018   6.823  0.1983  0.7553 -0.0870
 7468SOL     OW33862   4.397   0.978  17.389 -0.0019 -0.3719  0.3790
 7468SOL    HW133863   4.307   0.949  17.372  0.1763 -1.8668  1.9894
 7468SOL    HW233864   4.391   1.048  17.454 -0.3598 -0.1680  0.1258
 7469SOL     OW33865   4.631   3.970   2.932 -0.9043 -0.3699 -0.0275
 7469SOL    HW133866   4.650   3.915   2.856 -0.5924  2.6268 -2.1009
 7469SOL    HW233867   4.705   3.943   2.986 -0.7402 -2.8771 -1.4941
 7470SOL     OW33868   4.384   4.552   2.199 -0.3692  0.7478  0.6331
 7470SOL    HW133869   4.389   4.636   2.244 -1.7214 -0.6938  3.5114
 7470SOL    HW233870   4.448   4.568   2.131 -0.5580 -0.2811  0.2063
 7471SOL     OW33871   2.578   2.035   3.017 -0.7788 -0.1906  0.4534
 7471SOL    HW133872   2.570   1.992   3.103  1.1077 -1.4174  0.0154
 7471SOL    HW233873   2.671   2.059   3.014 -0.3765 -1.7423  0.2579
 7472SOL     OW33874   2.386   4.228   6.146  0.6451  0.6857 -0.3896
 7472SOL    HW133875   2.422   4.266   6.226 -0.3757  1.1312 -0.1435
 7472SOL    HW233876   2.292   4.246   6.152  0.2256 -1.5421  0.0768
 7473SOL     OW33877   2.575   2.228   8.191  0.5157 -0.0556 -0.1516
 7473SOL    HW133878   2.487   2.256   8.163  0.1669 -2.2186 -1.2101
 7473SOL    HW233879   2.626   2.309   8.192  0.6398 -0.1866  4.1547
 7474SOL     OW33880   3.936   0.184   8.018  0.2139 -0.2269  0.1708
 7474SOL    HW133881   3.882   0.239   8.074 -0.6267 -0.7841 -0.0962
 7474SOL    HW233882   3.947   0.233   7.937 -0.5206  1.7352  1.2694
 7475SOL     OW33883   1.243   4.267   2.850  0.4306 -0.2766 -0.1925
 7475SOL    HW133884   1.160   4.218   2.845  1.0576 -1.3638 -0.0299
 7475SOL    HW233885   1.298   4.204   2.803  1.5021  1.8733 -1.7757
 7476SOL     OW33886   3.823   4.431   7.239  0.4951  0.1947  0.0366
 7476SOL    HW133887   3.785   4.399   7.321 -0.3640  0.3565 -0.2908
 7476SOL    HW233888   3.786   4.520   7.241 -1.3887 -0.6099  1.6803
 7477SOL     OW33889   0.479   2.062  13.809  0.4996 -0.2919  0.3943
 7477SOL    HW133890   0.559   2.011  13.822  0.7887  0.2944  0.9062
 7477SOL    HW233891   0.413   1.992  13.813  0.4547 -0.2837 -0.2097
 7478SOL     OW33892   0.337   0.297   1.041 -0.1892 -0.3553 -0.6957
 7478SOL    HW133893   0.328   0.221   1.098 -1.1873 -0.6580 -1.2584
 7478SOL    HW233894   0.278   0.362   1.079  0.4275  0.6287 -1.3980
 7479SOL     OW33895   1.069   2.826  15.438  0.3042  0.1937  0.2822
 7479SOL    HW133896   1.120   2.849  15.360 -0.0816  1.3728  0.3744
 7479SOL    HW233897   1.018   2.754  15.401  0.4171 -0.4584  1.3789
 7480SOL     OW33898   4.643   1.718  11.008 -0.7962 -0.5902 -0.6430
 7480SOL    HW133899   4.713   1.657  11.031 -0.3324 -0.6062 -2.0845
 7480SOL    HW233900   4.694   1.783  10.961 -0.4381 -1.2234 -1.1290
 7481SOL     OW33901   4.157   0.839  12.178  0.5133 -0.2751  0.4740
 7481SOL    HW133902   4.177   0.808  12.266 -1.1618  1.1257  1.3394
 7481SOL    HW233903   4.228   0.904  12.173 -0.4723  0.5531 -2.5275
 7482SOL     OW33904   3.707   0.925   6.714  0.3139 -0.0810 -0.0115
 7482SOL    HW133905   3.715   0.978   6.634  1.3413 -1.6363 -0.9427
 7482SOL    HW233906   3.615   0.898   6.709  0.0877  0.5995  0.5867
 7483SOL     OW33907   3.636   2.090   7.382 -0.3649 -0.1974  0.1347
 7483SOL    HW133908   3.660   2.118   7.293  0.5574 -0.8608  0.1773
 7483SOL    HW233909   3.717   2.043   7.401 -0.1705 -0.7988 -2.1268
 7484SOL     OW33910   2.892   0.711   0.565 -0.9438 -0.1781  0.1027
 7484SOL    HW133911   2.919   0.773   0.633 -0.4598 -1.1371  0.7907
 7484SOL    HW233912   2.922   0.740   0.479  0.8719 -1.2751  0.3622
 7485SOL     OW33913   4.251   0.087   7.796  0.4458 -0.0380 -0.0624
 7485SOL    HW133914   4.197   0.161   7.821  0.5480 -0.0347  0.1482
 7485SOL    HW233915   4.282   0.110   7.708  2.2761 -0.6968  0.4141
 7486SOL     OW33916   1.374   0.769   4.551  0.0605 -0.2464  0.2609
 7486SOL    HW133917   1.283   0.748   4.571 -0.5793 -1.9664 -4.5372
 7486SOL    HW233918   1.379   0.865   4.552  2.5960 -0.3603 -0.5324
 7487SOL     OW33919   2.259   1.930  10.145  0.5200  0.0816  0.6936
 7487SOL    HW133920   2.209   1.986  10.205  1.7327  1.8389  0.0476
 7487SOL    HW233921   2.270   1.852  10.200  1.0962 -1.3679 -1.4720
 7488SOL     OW33922   1.978   2.613   7.314 -0.6789  0.2162 -0.3787
 7488SOL    HW133923   1.996   2.585   7.404 -0.5695 -1.8170 -1.0436
 7488SOL    HW233924   1.939   2.697   7.339 -0.2848 -0.2892  1.9821
 7489SOL     OW33925   1.225   1.152   3.181 -0.1596 -0.5354  0.3003
 7489SOL    HW133926   1.162   1.086   3.153 -0.1222 -0.5416  0.2298
 7489SOL    HW233927   1.267   1.179   3.099 -0.2049  0.9323  0.7598
 7490SOL     OW33928   4.701   0.871   8.652  0.0375  0.1168  0.1284
 7490SOL    HW133929   0.056   0.833   8.696  0.5031 -1.5088 -2.0642
 7490SOL    HW233930   4.660   0.787   8.629  0.1319 -0.4032  1.8937
 7491SOL     OW33931   3.810   2.915   2.869 -0.1508 -0.3947 -0.5237
 7491SOL    HW133932   3.793   2.988   2.928 -1.0295 -1.7959  0.9467
 7491SOL    HW233933   3.904   2.902   2.885 -0.1727  1.4141  1.1070
 7492SOL     OW33934   1.954   3.375   8.496 -0.4882 -0.0305 -0.0948
 7492SOL    HW133935   1.974   3.283   8.477 -1.1218 -0.1945  0.0311
 7492SOL    HW233936   2.018   3.392   8.566 -0.5228 -1.2398  0.2431
 7493SOL     OW33937   4.594   2.946   5.860 -0.5100  0.3401  0.0379
 7493SOL    HW133938   4.568   2.866   5.908 -1.5671  1.8334  1.9740
 7493SOL    HW233939   4.629   2.899   5.785 -1.4842 -0.4717  0.0757
 7494SOL     OW33940   0.246   3.758   4.186  0.1663  0.4911 -0.5885
 7494SOL    HW133941   0.247   3.845   4.146  0.3285  1.6800  1.9591
 7494SOL    HW233942   0.338   3.735   4.178  0.0727 -0.1330  0.0425
 7495SOL     OW33943   4.632   3.177   4.826 -0.4219  0.2293  0.4851
 7495SOL    HW133944   4.647   3.182   4.920 -1.9828  0.2178  0.7432
 7495SOL    HW233945   4.568   3.106   4.825  0.7430 -0.7872 -0.8382
 7496SOL     OW33946   4.406   3.583   4.176 -0.5427  0.1943 -0.1533
 7496SOL    HW133947   4.393   3.511   4.114  2.8077 -1.9515  1.6280
 7496SOL    HW233948   4.470   3.553   4.240 -1.4367  0.1610  0.7260
 7497SOL     OW33949   4.038   1.736   2.126  0.0075 -0.0835 -0.2173
 7497SOL    HW133950   4.127   1.703   2.123 -0.4341 -1.3664  0.9124
 7497SOL    HW233951   4.026   1.780   2.041  0.7131 -1.6174 -1.0985
 7498SOL     OW33952   0.780   1.267   2.502  0.3544  0.6586 -0.2559
 7498SOL    HW133953   0.876   1.274   2.505  0.4055 -0.2372  0.2341
 7498SOL    HW233954   0.754   1.313   2.582  0.4508  1.8246 -0.8892
 7499SOL     OW33955   4.307   0.540   9.505 -0.1365  0.0617  0.5498
 7499SOL    HW133956   4.306   0.460   9.453  1.1854 -0.1687  0.8681
 7499SOL    HW233957   4.214   0.561   9.501 -0.3488 -0.7590  1.0459
 7500SOL     OW33958   1.804   3.002   2.089 -0.1470 -0.0519  0.1168
 7500SOL    HW133959   1.719   2.972   2.121 -0.4833 -0.9572 -1.6085
 7500SOL    HW233960   1.857   2.931   2.125  1.3486  0.7795 -0.4631
 7501SOL     OW33961   4.484   3.805   7.330  0.0342 -1.0949  0.1412
 7501SOL    HW133962   4.415   3.868   7.353 -0.9712 -2.4704  0.8540
 7501SOL    HW233963   4.488   3.749   7.408 -0.4236 -0.2681  0.7578
 7502SOL     OW33964   3.155   0.297   0.810 -0.4742 -0.0883 -0.0793
 7502SOL    HW133965   3.090   0.338   0.754 -1.7436 -0.3588  1.2001
 7502SOL    HW233966   3.123   0.329   0.895 -0.9930 -3.2376  0.8830
 7503SOL     OW33967   3.351   2.001   6.140 -0.3385  0.7366 -0.2616
 7503SOL    HW133968   3.275   2.031   6.190  0.6447  2.9318 -0.0757
 7503SOL    HW233969   3.419   1.994   6.207  0.1534 -2.5442 -1.0978
 7504SOL     OW33970   0.795   3.792   3.670  0.0244 -0.6857 -0.1313
 7504SOL    HW133971   0.806   3.697   3.676  0.9647 -0.5659  0.1128
 7504SOL    HW233972   0.864   3.812   3.734 -0.4096  0.1296  0.0795
 7505SOL     OW33973   0.768   1.955   0.929  0.0888 -0.4689 -0.3359
 7505SOL    HW133974   0.759   2.042   0.892  1.3247 -1.1965 -2.3611
 7505SOL    HW233975   0.678   1.933   0.952  0.5990 -2.0702  0.1775
 7506SOL     OW33976   0.349   3.650   6.628 -0.0562  0.7504 -0.2480
 7506SOL    HW133977   0.255   3.631   6.635  0.2106 -0.9953 -1.6978
 7506SOL    HW233978   0.378   3.585   6.565 -0.6265 -0.4089  0.6920
 7507SOL     OW33979   2.675   1.186   5.966 -0.1235  0.0302  0.5919
 7507SOL    HW133980   2.730   1.154   5.894 -1.7218  2.0356 -1.5325
 7507SOL    HW233981   2.627   1.107   5.990 -0.2956  0.1607  0.6780
 7508SOL     OW33982   3.957   0.692  16.653  0.8937 -0.3139  0.0944
 7508SOL    HW133983   3.949   0.670  16.560  1.9908 -0.3678  0.0092
 7508SOL    HW233984   3.944   0.787  16.656 -0.3285 -0.4632 -0.7270
 7509SOL     OW33985   0.309   1.881   6.124  0.1737 -0.2237  0.0855
 7509SOL    HW133986   0.267   1.900   6.040  0.4232  1.4976  0.3443
 7509SOL    HW233987   0.237   1.880   6.187 -1.4932 -2.3693 -1.8703
 7510SOL     OW33988   4.596   0.864  17.561  0.1726  0.4158  0.4743
 7510SOL    HW133989   4.539   0.892  17.489 -0.0391  1.1113  0.9061
 7510SOL    HW233990   4.639   0.792  17.515 -2.5651 -0.9966  0.0799
 7511SOL     OW33991   3.338   3.602  11.223  0.6774  0.5545  0.5571
 7511SOL    HW133992   3.396   3.675  11.198  0.2507 -0.5198 -3.5784
 7511SOL    HW233993   3.255   3.646  11.237  0.4809  0.8586 -1.5332
 7512SOL     OW33994   4.550   0.157   6.342 -0.1141  0.0699 -0.1339
 7512SOL    HW133995   4.464   0.180   6.375  0.3835  0.4297  0.9096
 7512SOL    HW233996   4.535   0.160   6.247  0.2724  1.5145 -0.1407
 7513SOL     OW33997   0.733   1.723   7.989 -0.0226  0.6289  0.6896
 7513SOL    HW133998   0.703   1.810   8.015 -2.6955 -0.4469  1.2123
 7513SOL    HW233999   0.790   1.745   7.915 -1.8046 -0.3518 -0.9904
 7514SOL     OW34000   4.719   3.554   5.584  0.4139  0.2131  0.0887
 7514SOL    HW134001   4.689   3.550   5.493 -0.7169  1.8298  0.3920
 7514SOL    HW234002   4.638   3.572   5.632  1.0068  1.0453  0.7792
 7515SOL     OW34003   1.316   1.038   3.404 -0.1544 -0.1978  0.3088
 7515SOL    HW134004   1.307   1.091   3.324  1.5543  2.0197  1.5716
 7515SOL    HW234005   1.391   0.984   3.378  0.0142 -0.6077  1.6248
 7516SOL     OW34006   0.379   3.661   1.849  0.1303 -0.2403  0.4600
 7516SOL    HW134007   0.411   3.597   1.785  0.2096 -0.2411  0.5004
 7516SOL    HW234008   0.408   3.621   1.930  0.3928  3.2021  2.0833
 7517SOL     OW34009   1.487   3.536   6.191  0.2571  0.5637  0.0239
 7517SOL    HW134010   1.420   3.599   6.217  0.0483 -0.2016  1.3829
 7517SOL    HW234011   1.567   3.589   6.195 -0.0199  0.8353  1.9434
 7518SOL     OW34012   1.567   2.034   2.721 -0.3035  0.1270 -0.4712
 7518SOL    HW134013   1.522   2.109   2.681  1.8418  2.0761  0.7792
 7518SOL    HW234014   1.617   2.086   2.785  1.6130 -2.6107  0.2644
 7519SOL     OW34015   1.123   0.787   8.611 -0.6758 -0.3402 -0.3377
 7519SOL    HW134016   1.162   0.804   8.526 -0.8780  1.2739 -0.1019
 7519SOL    HW234017   1.139   0.860   8.671 -0.5003 -0.7418  0.1033
 7520SOL     OW34018   4.240   2.215   3.243 -0.0019 -0.2393  0.1607
 7520SOL    HW134019   4.229   2.167   3.161  0.3023  0.0360 -0.0451
 7520SOL    HW234020   4.187   2.292   3.223  0.6402 -0.4828 -2.5360
 7521SOL     OW34021   0.156   0.476   1.153 -0.5034 -0.5631 -0.5286
 7521SOL    HW134022   0.190   0.436   1.233 -0.3608  2.0790  0.7540
 7521SOL    HW234023   0.062   0.460   1.165 -0.3655 -0.6140  0.4388
 7522SOL     OW34024   4.702   0.166   7.212  0.3349  0.1860  0.0305
 7522SOL    HW134025   4.637   0.217   7.164  0.3853 -2.2096 -2.6298
 7522SOL    HW234026   4.662   0.080   7.197 -2.2326  1.4593 -0.3492
 7523SOL     OW34027   2.063   2.191   5.024 -0.0359 -0.1402  0.2536
 7523SOL    HW134028   1.997   2.175   4.956 -1.5512  1.0273  1.4515
 7523SOL    HW234029   2.051   2.111   5.076  0.2207 -0.5063 -0.2468
 7524SOL     OW34030   2.892   3.308  10.168  0.1384  0.4624 -0.7234
 7524SOL    HW134031   2.824   3.375  10.166 -0.8746 -0.5500 -0.6301
 7524SOL    HW234032   2.841   3.228  10.153  0.6923  0.1587 -0.9979
 7525SOL     OW34033   2.743   0.283   1.876 -0.0289 -0.3063 -0.9319
 7525SOL    HW134034   2.795   0.205   1.894  0.4003  0.5643  1.5144
 7525SOL    HW234035   2.723   0.283   1.782  0.3338  0.6074 -1.0134
 7526SOL     OW34036   0.108   3.791   3.651  0.2936 -0.8774  0.2983
 7526SOL    HW134037   0.046   3.721   3.631 -0.6627 -0.1221  0.6042
 7526SOL    HW234038   0.187   3.749   3.684  0.1346 -1.1115  0.3814
 7527SOL     OW34039   2.928   0.509  10.760 -1.0014 -0.4262 -0.5376
 7527SOL    HW134040   2.927   0.456  10.840 -0.0373  1.6255  0.8535
 7527SOL    HW234041   2.887   0.591  10.787 -0.5175  0.2616 -1.9123
 7528SOL     OW34042   2.629   2.296  16.825  0.9872 -0.4033  0.4319
 7528SOL    HW134043   2.678   2.312  16.745  1.5441  1.1900  1.0838
 7528SOL    HW234044   2.539   2.284  16.794  1.5835  0.5511 -1.6735
 7529SOL     OW34045   3.195   3.771  11.987 -0.0935  0.0913 -0.0639
 7529SOL    HW134046   3.153   3.857  11.984 -3.6922 -1.5550  3.9968
 7529SOL    HW234047   3.288   3.793  11.994  0.3828 -2.6574  2.1143
 7530SOL     OW34048   1.630   4.003   8.485 -0.1013 -0.2859  0.2946
 7530SOL    HW134049   1.550   3.999   8.434 -2.0020 -1.0107  3.3127
 7530SOL    HW234050   1.607   3.963   8.569  0.3271 -2.9874 -0.8613
 7531SOL     OW34051   3.134   1.347   7.034 -0.1912 -0.1782 -0.1823
 7531SOL    HW134052   3.055   1.299   7.009 -0.2069  0.1591 -0.7622
 7531SOL    HW234053   3.096   1.418   7.086 -0.1451 -0.7154  0.5927
 7532SOL     OW34054   0.267   2.063   6.803  0.3140  0.1141  0.6942
 7532SOL    HW134055   0.237   2.053   6.712 -1.6697  0.0299  1.3419
 7532SOL    HW234056   0.194   2.079   6.863 -0.2658  0.0657  0.0126
 7533SOL     OW34057   2.747   4.189  11.917  0.6534  0.1267  0.4427
 7533SOL    HW134058   2.717   4.182  12.008  0.8785 -3.2585  0.2807
 7533SOL    HW234059   2.843   4.187  11.923  0.6246 -1.7145  0.3092
 7534SOL     OW34060   2.850   1.032   2.758  0.3570 -0.2539 -0.2890
 7534SOL    HW134061   2.835   1.127   2.749  0.9895 -0.2059 -0.8635
 7534SOL    HW234062   2.778   1.004   2.815  0.1016 -0.3174 -0.6419
 7535SOL     OW34063   1.589   2.453   6.144  0.1177 -0.4694 -0.6083
 7535SOL    HW134064   1.653   2.427   6.211 -1.8012 -0.8188  1.1177
 7535SOL    HW234065   1.620   2.542   6.129 -2.6643  0.5370 -0.3051
 7536SOL     OW34066   3.643   4.020  16.122 -0.0712 -0.2077  0.4024
 7536SOL    HW134067   3.647   3.970  16.204  0.8424 -1.2386 -0.2681
 7536SOL    HW234068   3.677   4.105  16.150  3.3210 -1.6937  0.8019
 7537SOL     OW34069   1.710   3.773   7.064  0.7141 -0.0714 -0.5070
 7537SOL    HW134070   1.712   3.679   7.051  0.1191 -0.1780  0.1654
 7537SOL    HW234071   1.769   3.777   7.140 -0.4475 -1.5015  0.4756
 7538SOL     OW34072   4.003   0.399   4.777 -0.2511 -0.1499 -0.3212
 7538SOL    HW134073   4.058   0.334   4.819 -0.5413  0.5657  1.1678
 7538SOL    HW234074   3.956   0.436   4.852 -1.9364 -1.6430 -0.6439
 7539SOL     OW34075   2.678   1.378  13.880  0.3801 -0.2237 -0.1500
 7539SOL    HW134076   2.633   1.437  13.819  0.1074  0.7109  0.9457
 7539SOL    HW234077   2.608   1.317  13.904  2.2083 -1.6396  1.6259
 7540SOL     OW34078   3.521   2.756  17.597 -0.3493 -0.3177 -0.3505
 7540SOL    HW134079   3.495   2.756   0.005 -0.2281  1.1456 -0.3245
 7540SOL    HW234080   3.504   2.667  17.565 -0.9376 -0.6671  0.9207
 7541SOL     OW34081   2.930   0.091   0.630 -0.2281  0.0097 -0.4820
 7541SOL    HW134082   2.872   0.145   0.683  2.8538  0.5897  2.3217
 7541SOL    HW234083   2.868   0.026   0.597 -0.2975 -0.0669 -0.1949
 7542SOL     OW34084   1.850   3.707  17.534 -0.3953 -0.0386 -0.6139
 7542SOL    HW134085   1.930   3.677  17.577  0.7887  0.7379 -2.2732
 7542SOL    HW234086   1.885   3.762  17.464 -1.4780 -1.0408 -1.9525
 7543SOL     OW34087   3.177   0.091   1.683 -0.7316 -0.0004  0.1715
 7543SOL    HW134088   3.178   0.082   1.588  1.5000  0.5201  0.1386
 7543SOL    HW234089   3.152   0.183   1.691 -0.5113  0.0279  0.5438
 7544SOL     OW34090   4.011   0.599   9.486  0.1885 -0.3659 -0.1778
 7544SOL    HW134091   3.992   0.687   9.455 -0.4738 -0.1099  0.9438
 7544SOL    HW234092   3.963   0.597   9.569 -0.6499  2.0333 -0.6104
 7545SOL     OW34093   4.018   4.100   7.282  0.1068 -0.1843 -0.1721
 7545SOL    HW134094   4.031   4.052   7.200 -0.1544  0.0430 -0.3510
 7545SOL    HW234095   4.071   4.176   7.260 -1.2481  0.9575  0.4822
 7546SOL     OW34096   2.492   3.878  11.579 -0.6273 -0.8982  0.2745
 7546SOL    HW134097   2.545   3.930  11.640  1.2175 -2.1669 -0.2336
 7546SOL    HW234098   2.410   3.881  11.628 -1.0150  1.3629 -0.5401
 7547SOL     OW34099   0.834   0.098   8.067 -0.1039 -0.8311 -0.0669
 7547SOL    HW134100   0.905   0.163   8.064 -0.8665 -0.0682 -1.8808
 7547SOL    HW234101   0.860   0.049   7.989 -2.0729 -0.8270 -0.7281
 7548SOL     OW34102   0.022   1.031   3.609 -0.3353 -0.2335  0.7903
 7548SOL    HW134103   0.079   1.086   3.555  2.5506 -1.4859  2.5626
 7548SOL    HW234104   0.044   0.945   3.574  2.5732  0.4301  1.0300
 7549SOL     OW34105   2.294   1.806   8.893  1.1204 -0.0780  0.1384
 7549SOL    HW134106   2.340   1.890   8.896  1.4609 -0.2544 -0.0107
 7549SOL    HW234107   2.364   1.747   8.922  1.3544 -0.0763 -0.4058
 7550SOL     OW34108   1.796   3.491  13.005  0.1722  0.1890  0.1394
 7550SOL    HW134109   1.783   3.444  13.087 -1.6612 -0.1529 -0.3428
 7550SOL    HW234110   1.712   3.538  13.003 -1.3745 -2.5951  0.0611
 7551SOL     OW34111   0.114   3.997  11.562  0.2921 -0.6106  0.1961
 7551SOL    HW134112   0.161   4.041  11.492  1.7257 -2.5937 -0.0995
 7551SOL    HW234113   0.177   3.928  11.584  0.0157  0.0583  3.0500
 7552SOL     OW34114   3.061   1.549   6.587 -0.1432  0.2063 -0.8809
 7552SOL    HW134115   2.986   1.503   6.623 -0.2888  0.7885 -0.4300
 7552SOL    HW234116   3.068   1.630   6.637 -0.9612 -0.8208  0.8672
 7553SOL     OW34117   3.434   1.012   0.752 -0.3183  0.1729 -0.1768
 7553SOL    HW134118   3.413   0.979   0.665 -1.5265 -2.8665  1.2659
 7553SOL    HW234119   3.384   1.094   0.748 -0.1961  0.2427 -0.2826
 7554SOL     OW34120   4.513   0.019  14.468 -0.2923  0.1951 -0.2054
 7554SOL    HW134121   4.522   4.662  14.524 -1.2333  0.7891  0.7609
 7554SOL    HW234122   4.588   0.019  14.408 -0.2481 -3.1366 -0.1484
 7555SOL     OW34123   4.652   4.022   9.899 -0.3284 -0.1644 -0.2290
 7555SOL    HW134124   4.587   3.962   9.863 -0.2511 -1.3940  1.6735
 7555SOL    HW234125   0.010   3.968   9.899  0.6498  1.2600  1.3650
 7556SOL     OW34126   0.594   0.178   1.793 -0.4653  0.7360 -0.0544
 7556SOL    HW134127   0.623   0.100   1.744 -0.9140  0.4114  0.2001
 7556SOL    HW234128   0.676   0.216   1.825 -0.7247  1.4363 -0.2373
 7557SOL     OW34129   1.167   4.092  12.887  0.1340  0.0323 -0.0848
 7557SOL    HW134130   1.127   4.045  12.814 -1.3011  0.0318  0.7031
 7557SOL    HW234131   1.119   4.173  12.875 -1.7347 -1.1036 -0.2523
 7558SOL     OW34132   0.431   4.369  14.293 -0.6535 -0.4316  0.0637
 7558SOL    HW134133   0.338   4.348  14.289 -0.6037 -0.7886  0.7250
 7558SOL    HW234134   0.428   4.459  14.260 -2.1575 -0.6810 -0.4400
 7559SOL     OW34135   4.519   0.691  15.715  0.6403  0.2603 -0.1452
 7559SOL    HW134136   4.435   0.671  15.757  0.3014 -2.3997 -2.0380
 7559SOL    HW234137   4.485   0.718  15.629 -0.0130 -1.6242 -0.4963
 7560SOL     OW34138   0.357   2.614   4.719  0.3922  0.1242 -0.5881
 7560SOL    HW134139   0.276   2.645   4.677 -0.0719 -1.3948 -0.8153
 7560SOL    HW234140   0.432   2.648   4.670  0.7886 -0.0856 -0.1312
 7561SOL     OW34141   3.044   1.647  10.712  0.2468 -0.1307  0.2108
 7561SOL    HW134142   3.139   1.653  10.719  0.1536  0.0308  1.3717
 7561SOL    HW234143   3.022   1.660  10.805 -0.6797 -0.5783  0.0585
 7562SOL     OW34144   2.443   2.835   8.411  0.2909  0.1586  0.3280
 7562SOL    HW134145   2.448   2.918   8.365 -0.4769 -0.1812 -0.3758
 7562SOL    HW234146   2.356   2.812   8.377  0.7670  1.1874 -1.5735
 7563SOL     OW34147   3.364   4.589   1.647 -0.0517 -0.8076  0.5451
 7563SOL    HW134148   3.271   4.583   1.629 -0.1894  1.5695  0.5740
 7563SOL    HW234149   3.384   4.498   1.672 -2.4899 -1.8554 -1.3287
 7564SOL     OW34150   4.533   2.368   2.085  0.3010  0.1849  0.7050
 7564SOL    HW134151   4.457   2.377   2.028  1.6943 -0.5589 -1.2724
 7564SOL    HW234152   4.484   2.336   2.161 -1.5267 -1.1318 -1.0367
 7565SOL     OW34153   0.022   4.620   0.582  0.4252 -0.1946  0.1813
 7565SOL    HW134154   0.097   4.668   0.549  0.7208 -0.0535  1.0499
 7565SOL    HW234155   0.044   4.528   0.566 -2.1911 -0.8665  0.4139
 7566SOL     OW34156   0.471   2.853   2.061 -0.4998  0.4579 -0.5641
 7566SOL    HW134157   0.406   2.890   2.003  0.3360  1.3533 -0.9336
 7566SOL    HW234158   0.433   2.766   2.046  1.4659 -0.8615  2.0991
 7567SOL     OW34159   1.191   4.059  10.751 -0.3596 -0.2387  0.0377
 7567SOL    HW134160   1.163   3.968  10.739  1.5142 -1.0763  1.9425
 7567SOL    HW234161   1.216   4.080  10.661 -1.0135 -1.9851 -0.5565
 7568SOL     OW34162   2.109   0.379   3.503  0.0937  0.5694  0.8228
 7568SOL    HW134163   2.067   0.452   3.549 -0.9084  0.4018  0.1587
 7568SOL    HW234164   2.082   0.297   3.546 -0.7235 -0.5358 -1.8185
 7569SOL     OW34165   2.278   1.357  10.339  0.2592  0.6550 -0.2390
 7569SOL    HW134166   2.224   1.288  10.300  0.6675 -0.3422  0.9382
 7569SOL    HW234167   2.283   1.424  10.272  3.8047  0.9704  0.3294
 7570SOL     OW34168   4.471   2.340   4.112 -0.0106  0.0966 -0.0315
 7570SOL    HW134169   4.485   2.249   4.084  0.3177 -0.9518  3.5403
 7570SOL    HW234170   4.385   2.354   4.072 -0.4418 -1.6010  0.2599
 7571SOL     OW34171   0.723   3.238   8.278  0.6292  0.2252  0.5140
 7571SOL    HW134172   0.736   3.270   8.189  1.4747  1.4629  1.0852
 7571SOL    HW234173   0.811   3.257   8.310  1.5118  0.0934 -1.8505
 7572SOL     OW34174   2.447   1.648   7.500  0.1809 -0.1194  0.1237
 7572SOL    HW134175   2.378   1.658   7.566 -0.8545 -4.2632 -0.3241
 7572SOL    HW234176   2.483   1.565   7.531 -0.3992 -0.0340  1.0237
 7573SOL     OW34177   2.120   0.638   6.086 -0.2562 -0.4231 -0.3378
 7573SOL    HW134178   2.169   0.596   6.156  0.4944  1.3416  0.1930
 7573SOL    HW234179   2.181   0.708   6.062  0.5371 -0.7520  0.7384
 7574SOL     OW34180   2.930   0.750   9.265  0.2421  0.1079  0.6062
 7574SOL    HW134181   2.840   0.718   9.275 -0.0804  1.1761  1.0689
 7574SOL    HW234182   2.984   0.708   9.332  0.3639 -1.7786 -0.6531
 7575SOL     OW34183   1.888   4.070  12.806 -0.1927 -0.6483  0.6181
 7575SOL    HW134184   1.852   4.090  12.719  1.6527 -0.2077 -0.0522
 7575SOL    HW234185   1.837   3.993  12.832 -0.5049 -0.7297 -0.2361
 7576SOL     OW34186   0.636   3.166   3.629  0.2836 -0.1270  0.3318
 7576SOL    HW134187   0.692   3.102   3.585  0.0084 -0.2557  0.1679
 7576SOL    HW234188   0.673   3.149   3.716  0.1364 -0.6974  0.2869
 7577SOL     OW34189   2.376   2.083  16.367 -0.1912 -0.5085 -0.1031
 7577SOL    HW134190   2.315   2.013  16.389  0.5615 -0.9126  0.7147
 7577SOL    HW234191   2.382   2.074  16.272 -0.0734 -1.4607 -0.0136
 7578SOL     OW34192   2.930   0.876   2.346 -0.3152  0.5128  0.4866
 7578SOL    HW134193   2.960   0.902   2.258  1.0834  0.2939  0.8998
 7578SOL    HW234194   3.013   0.865   2.393 -1.7890 -2.4555  2.3829
 7579SOL     OW34195   4.476   1.653   7.558 -0.0198  0.2739  0.5322
 7579SOL    HW134196   4.515   1.580   7.510 -2.3941 -2.0031  2.0430
 7579SOL    HW234197   4.549   1.713   7.575  0.1216  0.3255 -0.2831
 7580SOL     OW34198   1.361   3.603  12.126  0.5127 -0.2238 -0.4846
 7580SOL    HW134199   1.449   3.590  12.162 -0.1376 -0.2917  1.1005
 7580SOL    HW234200   1.380   3.658  12.050 -0.1965 -0.9176 -1.1564
 7581SOL     OW34201   2.394   1.920  15.117 -0.0149  0.5268 -0.0960
 7581SOL    HW134202   2.415   1.916  15.024 -1.7918 -0.4581 -0.4413
 7581SOL    HW234203   2.433   1.842  15.156  1.8931  1.5382  0.0560
 7582SOL     OW34204   0.719   1.437  14.729 -0.1526 -0.0211  0.1629
 7582SOL    HW134205   0.648   1.391  14.773 -1.0392 -0.7110 -2.0163
 7582SOL    HW234206   0.775   1.368  14.694  0.2515  0.7251 -0.6668
 7583SOL     OW34207   4.028   0.773   4.628 -0.9674 -0.2089 -0.2426
 7583SOL    HW134208   4.092   0.790   4.558 -0.0921  0.4699  0.7265
 7583SOL    HW234209   4.085   0.718   4.682  0.4015  1.7605  0.3339
 7584SOL     OW34210   4.397   3.004   4.851  0.6560 -0.1777 -0.1001
 7584SOL    HW134211   4.364   2.991   4.940 -2.5308 -3.1894 -1.7460
 7584SOL    HW234212   4.321   2.965   4.808 -0.0462  0.9533  0.1238
 7585SOL     OW34213   0.887   1.979   0.578  0.3600  0.3064 -1.0054
 7585SOL    HW134214   0.919   1.893   0.553 -0.5621 -0.5679  0.8759
 7585SOL    HW234215   0.795   1.968   0.556 -0.0530 -1.0144  1.4679
 7586SOL     OW34216   2.518   2.313  16.415  0.0615 -0.6008  0.6595
 7586SOL    HW134217   2.477   2.228  16.400  0.2058 -0.4666 -0.4901
 7586SOL    HW234218   2.588   2.300  16.478 -0.8640  2.2599  2.2584
 7587SOL     OW34219   2.612   2.961  14.196  0.0180  0.0053 -0.4378
 7587SOL    HW134220   2.705   2.940  14.206 -0.2912 -1.2321 -0.2642
 7587SOL    HW234221   2.609   3.031  14.261  0.2697 -1.8175  1.5210
 7588SOL     OW34222   4.338   3.694   5.401 -0.0982  0.0604  0.3861
 7588SOL    HW134223   4.385   3.625   5.447 -0.5604  0.3072  1.2258
 7588SOL    HW234224   4.333   3.656   5.313 -0.6836  0.5462  0.2072
 7589SOL     OW34225   3.287   4.122   8.242  0.6310  0.4895  0.8054
 7589SOL    HW134226   3.236   4.201   8.225  2.0292  0.5340 -3.2384
 7589SOL    HW234227   3.373   4.146   8.275  2.6300 -2.2417 -2.4267
 7590SOL     OW34228   3.125   4.344  11.148 -0.2474  0.3859  0.4957
 7590SOL    HW134229   3.049   4.402  11.143 -0.7713 -0.5925 -3.1017
 7590SOL    HW234230   3.198   4.396  11.182 -1.0240  0.9713  1.2676
 7591SOL     OW34231   4.119   0.605   3.301 -0.0274 -0.3418  0.1428
 7591SOL    HW134232   4.150   0.687   3.262  1.7018 -0.3482  1.4915
 7591SOL    HW234233   4.144   0.617   3.392  0.5108  0.3246 -0.0888
 7592SOL     OW34234   3.464   3.347  11.145 -0.7697  0.2967 -0.1429
 7592SOL    HW134235   3.532   3.354  11.212 -1.7398 -2.0098  1.0654
 7592SOL    HW234236   3.408   3.423  11.160  0.0427  0.4359  2.2096
 7593SOL     OW34237   0.565   1.471   7.906  0.1415 -0.1082 -0.3586
 7593SOL    HW134238   0.632   1.529   7.944 -0.0769  0.1035 -0.2972
 7593SOL    HW234239   0.618   1.405   7.862  0.3126 -0.6816  0.7243
 7594SOL     OW34240   4.414   4.138   2.908 -0.5691  0.3636 -0.5126
 7594SOL    HW134241   4.493   4.087   2.927 -1.2059 -0.8159 -1.0409
 7594SOL    HW234242   4.398   4.099   2.822  0.9453 -0.4993 -0.3986
 7595SOL     OW34243   1.544   3.448  14.637  0.5194  0.2064  0.1976
 7595SOL    HW134244   1.477   3.451  14.705  0.4732  0.3175  0.1474
 7595SOL    HW234245   1.599   3.387  14.686  2.6025  0.7284 -1.4868
 7596SOL     OW34246   3.173   1.417   6.379  0.1639 -0.1620 -0.2595
 7596SOL    HW134247   3.096   1.413   6.322  0.4997 -2.6047 -0.5489
 7596SOL    HW234248   3.147   1.472   6.453 -2.0050 -1.2097 -0.2401
 7597SOL     OW34249   0.700   0.382   0.224 -0.0147 -0.0849  0.5265
 7597SOL    HW134250   0.664   0.417   0.142  1.5349  0.3824  0.0509
 7597SOL    HW234251   0.630   0.324   0.254  0.0788  0.1055  1.0994
 7598SOL     OW34252   3.130   1.799   4.529 -0.0777  0.1730 -0.3017
 7598SOL    HW134253   3.209   1.839   4.493  0.7009 -0.0101  1.1999
 7598SOL    HW234254   3.127   1.718   4.477  1.7815 -1.4963  2.1819
 7599SOL     OW34255   0.344   4.002   9.782  0.0798  0.1926  0.0281
 7599SOL    HW134256   0.280   4.074   9.779  0.4936  0.5464 -0.4216
 7599SOL    HW234257   0.333   3.967   9.693  0.0054  1.8052 -0.6026
 7600SOL     OW34258   0.808   1.540   3.128 -0.0953 -0.6312  0.1064
 7600SOL    HW134259   0.897   1.514   3.149  0.2433 -0.4769 -1.1447
 7600SOL    HW234260   0.817   1.571   3.038 -1.5090 -1.0460 -0.1842
 7601SOL     OW34261   0.104   4.396   9.538  0.1753 -0.2532  0.3966
 7601SOL    HW134262   0.118   4.379   9.445 -0.9185 -0.5649  0.2962
 7601SOL    HW234263   0.011   4.375   9.544  0.1863 -0.9829 -2.0833
 7602SOL     OW34264   1.223   2.557   2.789 -0.2036 -0.4353  0.8602
 7602SOL    HW134265   1.184   2.611   2.720 -0.6362  0.8577  2.1187
 7602SOL    HW234266   1.315   2.576   2.772 -0.4599 -0.9482 -1.1291
 7603SOL     OW34267   4.416   3.726  15.282 -0.3830  0.0190 -0.1441
 7603SOL    HW134268   4.498   3.710  15.328 -0.2325  3.3697  0.7185
 7603SOL    HW234269   4.362   3.778  15.341 -0.2298 -0.4642  0.4236
 7604SOL     OW34270   0.363   4.490   8.465 -0.1141 -0.0728  0.5995
 7604SOL    HW134271   0.444   4.468   8.511  1.0288 -2.4612 -2.5904
 7604SOL    HW234272   0.302   4.483   8.539  1.1887 -0.1938  1.6759
 7605SOL     OW34273   1.119   1.371  17.269 -0.2700  0.2599 -0.0409
 7605SOL    HW134274   1.131   1.448  17.324 -0.9448  0.5050 -0.2421
 7605SOL    HW234275   1.161   1.306  17.325 -0.0227 -0.6375 -1.2641
 7606SOL     OW34276   3.308   0.049   7.119  0.7246 -0.3490  0.3124
 7606SOL    HW134277   3.342   0.049   7.208  1.7176  0.0086 -0.0720
 7606SOL    HW234278   3.289   4.679   7.093 -2.8739  0.3087  0.5512
 7607SOL     OW34279   0.527   2.493   9.034  0.6235  0.1155  0.1231
 7607SOL    HW134280   0.612   2.534   9.050  0.7705 -0.5254  1.0057
 7607SOL    HW234281   0.534   2.428   9.103 -1.2913 -0.9786 -0.7115
 7608SOL     OW34282   0.280   4.247   8.923 -0.0653 -0.5559  0.2102
 7608SOL    HW134283   0.211   4.202   8.972  0.0659  0.0707  0.9849
 7608SOL    HW234284   0.278   4.333   8.965  0.9823  0.0417 -0.9686
 7609SOL     OW34285   1.575   3.477   5.532 -0.1962  0.0870  0.0836
 7609SOL    HW134286   1.575   3.543   5.462  1.3304 -0.7397 -0.6824
 7609SOL    HW234287   1.490   3.504   5.568 -0.0301 -0.6041  1.0080
 7610SOL     OW34288   4.209   4.573   2.408 -0.4502 -0.0349  0.1948
 7610SOL    HW134289   4.229   4.541   2.320 -0.8005 -0.5278  0.2939
 7610SOL    HW234290   4.280   4.541   2.464  2.0677 -0.5941 -3.3082
 7611SOL     OW34291   1.540   3.202  11.946 -0.3349  0.3748 -0.4656
 7611SOL    HW134292   1.621   3.163  11.981 -0.6417  0.4055  0.2601
 7611SOL    HW234293   1.505   3.125  11.902 -0.5933  0.6335 -0.7104
 7612SOL     OW34294   4.267   0.722   7.161  0.3580 -0.0858 -0.5627
 7612SOL    HW134295   4.352   0.683   7.142  0.2441 -1.1476  1.0239
 7612SOL    HW234296   4.291   0.787   7.228 -3.0422  0.5433  0.0483
 7613SOL     OW34297   1.999   3.456   6.175  0.7175  0.4101 -0.3158
 7613SOL    HW134298   2.015   3.493   6.262 -0.0686 -2.2699  0.9604
 7613SOL    HW234299   1.923   3.399   6.189  2.3689 -1.7614 -0.1636
 7614SOL     OW34300   1.491   3.575   3.802  0.0753  0.1551  0.1174
 7614SOL    HW134301   1.512   3.565   3.895  1.0621  1.8392  0.0551
 7614SOL    HW234302   1.553   3.511   3.767  1.0119 -1.2282  4.2665
 7615SOL     OW34303   3.825   4.109   8.443 -0.1463 -0.1243  0.5971
 7615SOL    HW134304   3.859   4.025   8.475  0.6940 -0.5138 -1.2977
 7615SOL    HW234305   3.892   4.171   8.470  0.8383 -0.3501 -1.2547
 7616SOL     OW34306   0.837   3.171   5.576  0.3404  0.1718 -0.2331
 7616SOL    HW134307   0.885   3.184   5.494 -2.3006 -1.0244 -1.9975
 7616SOL    HW234308   0.902   3.127   5.631  2.4972  2.3501 -1.0248
 7617SOL     OW34309   2.981   0.009   2.850 -0.1614  0.4321 -0.4211
 7617SOL    HW134310   3.037   0.085   2.867 -0.2498  0.3347  0.2750
 7617SOL    HW234311   2.993   4.677   2.929  2.1308  0.8339 -0.4790
 7618SOL     OW34312   1.264   1.288   8.822  0.3651  0.6893 -0.4784
 7618SOL    HW134313   1.186   1.335   8.851  0.9036  0.3105  1.5642
 7618SOL    HW234314   1.323   1.278   8.897  1.6870 -0.6789 -1.6890
 7619SOL     OW34315   0.789   2.245  13.192 -0.7506  0.1299 -0.0625
 7619SOL    HW134316   0.740   2.269  13.271  0.9651 -0.7454  1.2705
 7619SOL    HW234317   0.774   2.152  13.181 -0.7347 -0.0401  1.4047
 7620SOL     OW34318   1.200   0.910   3.027 -0.3690  0.4119 -0.0956
 7620SOL    HW134319   1.187   0.890   2.934  1.0610  1.2481 -0.4868
 7620SOL    HW234320   1.130   0.863   3.072 -0.6978  0.1281 -0.9054
 7621SOL     OW34321   3.221   0.200   6.395 -0.3337 -0.0072  0.1793
 7621SOL    HW134322   3.201   0.294   6.400  2.1399  0.5616 -0.7510
 7621SOL    HW234323   3.272   0.189   6.475 -0.1401 -2.1253 -0.2314
 7622SOL     OW34324   0.817   2.507  16.957  0.2695  0.4054  0.3518
 7622SOL    HW134325   0.803   2.413  16.954 -0.8324  0.5579  0.7002
 7622SOL    HW234326   0.856   2.498  17.043 -0.7405  0.1047  0.7819
 7623SOL     OW34327   0.158   2.318   7.091 -0.4148 -0.1337  0.4171
 7623SOL    HW134328   0.131   2.400   7.050 -0.7027 -0.8571 -0.8570
 7623SOL    HW234329   0.215   2.354   7.159  2.1864 -0.3239 -1.6747
 7624SOL     OW34330   0.361   1.497   2.382 -0.6422 -0.8703  0.0264
 7624SOL    HW134331   0.347   1.438   2.307  1.7030  1.0638 -1.9676
 7624SOL    HW234332   0.401   1.451   2.455 -2.9698 -1.0534  1.1767
 7625SOL     OW34333   1.005   0.139   1.960  0.2491  0.4922 -0.2891
 7625SOL    HW134334   1.070   0.102   1.900  0.7237 -3.4319  2.6611
 7625SOL    HW234335   0.941   0.068   1.964  1.5761 -0.5506  2.4615
 7626SOL     OW34336   0.746   1.073   6.555 -0.0506  0.1323  0.3766
 7626SOL    HW134337   0.764   0.985   6.587  0.4132 -0.4225 -1.4082
 7626SOL    HW234338   0.824   1.113   6.593  0.9921 -2.2063  0.6584
 7627SOL     OW34339   2.788   4.552   7.087 -0.1711 -0.0251  0.2735
 7627SOL    HW134340   2.857   4.607   7.125 -0.3397  0.8077 -0.6271
 7627SOL    HW234341   2.789   4.473   7.141  1.2389  0.6336  1.2273
 7628SOL     OW34342   3.796   2.859   5.753 -0.4011 -0.4849  0.0919
 7628SOL    HW134343   3.831   2.771   5.765 -0.1837 -0.0823  2.4675
 7628SOL    HW234344   3.777   2.881   5.844  0.9858  0.6868  0.1031
 7629SOL     OW34345   0.731   2.771   3.314 -0.4754 -0.0689  0.0707
 7629SOL    HW134346   0.675   2.699   3.344 -0.4206 -0.7049 -1.3770
 7629SOL    HW234347   0.806   2.728   3.273 -0.4039  0.9932 -0.9127
 7630SOL     OW34348   1.007   2.417   3.043 -0.3342 -0.1656  0.4807
 7630SOL    HW134349   0.955   2.487   3.081 -0.5446 -0.5644  0.9303
 7630SOL    HW234350   0.990   2.434   2.950 -1.1773  1.5626  0.9483
 7631SOL     OW34351   1.727   1.285   2.146 -0.1887  0.4417  0.1244
 7631SOL    HW134352   1.800   1.267   2.087 -0.5187 -0.1670 -0.0918
 7631SOL    HW234353   1.744   1.378   2.164  2.0794 -0.2764  1.8004
 7632SOL     OW34354   0.293   3.536  11.704 -0.1987  0.2627  0.0452
 7632SOL    HW134355   0.358   3.588  11.657  0.2718  0.0320  0.4354
 7632SOL    HW234356   0.237   3.606  11.736 -0.7612 -0.9066  1.5872
 7633SOL     OW34357   1.503   1.679  11.542  0.1762 -0.3630 -0.4088
 7633SOL    HW134358   1.557   1.703  11.617  1.6540 -0.8855 -1.3015
 7633SOL    HW234359   1.430   1.629  11.577  0.3776  0.0126  0.5530
 7634SOL     OW34360   0.340   0.735   2.924  0.2520 -0.0843 -0.2361
 7634SOL    HW134361   0.385   0.813   2.892 -0.8487  0.3047 -0.8376
 7634SOL    HW234362   0.277   0.783   2.977 -1.9157 -1.6109 -1.4196
 7635SOL     OW34363   2.665   2.672  10.526 -0.1297  0.1332  0.2426
 7635SOL    HW134364   2.671   2.751  10.579  1.3958  0.1509  0.0531
 7635SOL    HW234365   2.717   2.613  10.581 -0.2064 -1.9162 -1.8439
 7636SOL     OW34366   4.262   2.197   4.848  0.3777  0.7514 -0.4623
 7636SOL    HW134367   4.268   2.110   4.809  1.5742  0.9275 -0.6797
 7636SOL    HW234368   4.275   2.240   4.764 -1.6034  1.6367 -0.3169
 7637SOL     OW34369   0.509   1.281   5.588 -0.5581  0.3075  0.0631
 7637SOL    HW134370   0.529   1.261   5.679  0.0229  1.5641  0.2121
 7637SOL    HW234371   0.544   1.202   5.547  2.0915  2.3988 -1.7609
 7638SOL     OW34372   2.921   1.156   1.720  0.5753 -0.0054 -0.6786
 7638SOL    HW134373   2.887   1.234   1.762  2.1283  0.3973 -0.1505
 7638SOL    HW234374   2.860   1.082   1.727  3.0388 -2.0799 -1.0058
 7639SOL     OW34375   1.821   0.992   7.621 -0.3006 -0.0741  0.9186
 7639SOL    HW134376   1.756   0.922   7.629 -1.2783  0.8514  1.1072
 7639SOL    HW234377   1.895   0.936   7.596 -1.5648 -1.6183  0.6043
 7640SOL     OW34378   4.716   4.338   4.350 -0.1264  0.5707  0.0393
 7640SOL    HW134379   4.719   4.247   4.320  0.4069  1.0013 -1.2040
 7640SOL    HW234380   4.702   4.386   4.268 -2.3508  0.1876  0.1847
 7641SOL     OW34381   2.748   2.443   4.737  0.0694 -0.6125  0.3325
 7641SOL    HW134382   2.670   2.462   4.789  0.4697 -0.6154  0.9331
 7641SOL    HW234383   2.721   2.479   4.652  3.5920  0.9502 -0.1317
 7642SOL     OW34384   4.182   4.024   1.375 -0.2674 -0.4045  0.4738
 7642SOL    HW134385   4.245   4.078   1.423 -1.8796  0.9185  1.0885
 7642SOL    HW234386   4.109   4.032   1.436  0.4432  0.7274  1.1980
 7643SOL     OW34387   2.154   3.785   3.430  0.2254  0.8194 -0.0818
 7643SOL    HW134388   2.068   3.823   3.414  0.0480  0.6488  0.4635
 7643SOL    HW234389   2.141   3.712   3.369 -0.0569  0.2252  0.6931
 7644SOL     OW34390   3.743   1.604   7.339  0.0868  1.0220  0.0485
 7644SOL    HW134391   3.656   1.614   7.300  0.3671 -2.1236 -1.4086
 7644SOL    HW234392   3.781   1.573   7.256 -2.0891 -0.4399 -0.4121
 7645SOL     OW34393   0.528   0.260   3.781 -0.6327  0.2604 -0.0724
 7645SOL    HW134394   0.544   0.233   3.872  1.9017 -0.5493 -0.7389
 7645SOL    HW234395   0.620   0.286   3.770 -0.1300 -0.6604  1.8366
 7646SOL     OW34396   1.284   4.442   5.470  0.2402 -0.2652  0.0842
 7646SOL    HW134397   1.197   4.405   5.457 -0.0533  0.1204  0.9927
 7646SOL    HW234398   1.259   4.534   5.467  0.6023 -0.1542  0.5220
 7647SOL     OW34399   4.265   1.764   6.110  0.7297  0.0872 -0.7376
 7647SOL    HW134400   4.198   1.832   6.112 -1.2847 -1.9459  0.5909
 7647SOL    HW234401   4.269   1.743   6.204 -0.6647  2.3913 -0.1535
 7648SOL     OW34402   4.342   3.128   3.515 -0.1882 -0.1574  0.2543
 7648SOL    HW134403   4.248   3.137   3.500  0.0173 -0.1280 -1.0451
 7648SOL    HW234404   4.359   3.035   3.505  0.7744 -0.1458  1.7768
 7649SOL     OW34405   1.044   3.111   5.398  0.9656 -0.2615  0.8736
 7649SOL    HW134406   1.086   3.196   5.412  1.6443 -0.5396  0.5318
 7649SOL    HW234407   1.112   3.053   5.433  0.5505  0.2511  2.4767
 7650SOL     OW34408   1.422   1.041  13.973 -0.3719 -0.0237 -0.1294
 7650SOL    HW134409   1.489   1.067  14.037  1.7130 -0.6849 -2.0875
 7650SOL    HW234410   1.388   1.131  13.979  1.1169  0.3393  2.6974
 7651SOL     OW34411   1.510   1.014   2.030 -0.1987  0.3752  0.5846
 7651SOL    HW134412   1.427   1.001   1.984  0.0521 -0.7384  0.4440
 7651SOL    HW234413   1.525   0.931   2.077 -1.3411  0.3283  0.8641
 7652SOL     OW34414   2.088   3.662   8.067  0.4840  0.3181 -0.2046
 7652SOL    HW134415   2.132   3.733   8.113  1.0785 -0.6755  0.7665
 7652SOL    HW234416   2.055   3.620   8.147 -0.5813 -0.6171 -1.1390
 7653SOL     OW34417   0.627   3.826  14.765  0.2165  0.1072 -0.5014
 7653SOL    HW134418   0.669   3.757  14.816  0.4737  0.4055 -0.3127
 7653SOL    HW234419   0.703   3.870  14.727 -0.3678  1.6210  0.0832
 7654SOL     OW34420   0.351   0.956   4.388  0.4755  0.0814 -0.3721
 7654SOL    HW134421   0.359   1.047   4.416  0.5982 -0.1318  0.2881
 7654SOL    HW234422   0.428   0.913   4.424 -0.0311  1.4826  2.4045
 7655SOL     OW34423   3.143   0.245   6.816  0.3901 -0.1600 -0.1145
 7655SOL    HW134424   3.224   0.246   6.765  1.0320  1.6935  0.9555
 7655SOL    HW234425   3.153   0.163   6.864  0.8036 -0.6589 -1.0672
 7656SOL     OW34426   4.379   0.140  14.107 -0.0034 -0.4848  0.7185
 7656SOL    HW134427   4.358   0.182  14.023  1.6117 -0.2880  0.4252
 7656SOL    HW234428   4.386   0.050  14.077  1.5190 -0.2761  0.4639
 7657SOL     OW34429   3.148   3.908  12.829 -0.9193  0.2723  0.3717
 7657SOL    HW134430   3.085   3.960  12.878 -0.9170  1.1019 -0.5127
 7657SOL    HW234431   3.179   3.972  12.765 -1.1877 -0.7504 -0.7856
 7658SOL     OW34432   4.676   4.604   9.159  0.5725 -0.0578 -0.5389
 7658SOL    HW134433   4.616   4.676   9.142  1.3265  0.2819 -1.7901
 7658SOL    HW234434   0.018   4.649   9.216  1.6360 -1.6138 -0.4455
 7659SOL     OW34435   4.127   1.350   7.379 -0.0480 -0.4883 -0.2686
 7659SOL    HW134436   4.142   1.287   7.450  2.1135  0.7859  0.3822
 7659SOL    HW234437   4.048   1.391   7.413  1.8759  2.4799  0.5919
 7660SOL     OW34438   3.107   0.611   2.749 -0.5118  0.4434 -0.8834
 7660SOL    HW134439   3.051   0.670   2.800 -2.5214 -0.8760 -1.5609
 7660SOL    HW234440   3.160   0.576   2.821  0.6567  1.8948 -1.0397
 7661SOL     OW34441   3.304   0.939   6.435 -0.4404  0.5984  0.2837
 7661SOL    HW134442   3.323   1.025   6.397 -2.1333 -0.5986 -3.2619
 7661SOL    HW234443   3.240   0.959   6.504 -1.7812  0.6424 -0.9704
 7662SOL     OW34444   3.747   2.757   6.783 -0.1516  0.1642 -0.3222
 7662SOL    HW134445   3.666   2.707   6.791  0.1133  0.1787  2.3958
 7662SOL    HW234446   3.728   2.830   6.842 -1.3050  0.4305 -1.0218
 7663SOL     OW34447   3.494   1.161   3.097 -0.5731 -0.1681  0.7826
 7663SOL    HW134448   3.416   1.217   3.097 -1.6089 -1.5986  0.5328
 7663SOL    HW234449   3.467   1.108   3.172  1.2271 -0.5605  1.1449
 7664SOL     OW34450   3.335   3.129  17.406  0.0929 -0.4286 -0.1984
 7664SOL    HW134451   3.404   3.065  17.391 -0.2996 -0.6900 -0.8847
 7664SOL    HW234452   3.297   3.088  17.483  2.6007 -1.6732  0.3630
 7665SOL     OW34453   1.220   1.780   7.705  0.5664 -0.1123 -0.2295
 7665SOL    HW134454   1.202   1.721   7.778 -0.0993  0.4291  0.0398
 7665SOL    HW234455   1.173   1.854   7.743 -1.9893 -1.0377 -1.5673
 7666SOL     OW34456   4.267   1.490   5.813  0.1358 -0.0360 -0.2147
 7666SOL    HW134457   4.258   1.462   5.904  1.0485 -0.6620 -0.3151
 7666SOL    HW234458   4.345   1.440   5.788 -1.4777 -2.9250  0.4907
 7667SOL     OW34459   2.768   3.790   7.419 -0.4210  0.2865 -0.2905
 7667SOL    HW134460   2.807   3.857   7.475 -1.1047  0.3310  0.1290
 7667SOL    HW234461   2.698   3.844   7.382 -0.9039  0.0229  0.2337
 7668SOL     OW34462   2.062   0.305  17.015 -0.7976 -0.0519 -0.4600
 7668SOL    HW134463   2.019   0.326  16.931 -0.5297 -0.8423 -0.7877
 7668SOL    HW234464   2.022   0.222  17.040  1.4833 -0.9286  0.2040
 7669SOL     OW34465   0.876   0.658   2.761 -0.2482 -0.0202 -0.4641
 7669SOL    HW134466   0.833   0.627   2.841 -1.1968  1.1244 -0.5306
 7669SOL    HW234467   0.904   0.575   2.722 -0.6752 -1.1466  1.6124
 7670SOL     OW34468   3.077   3.261   3.991  0.3880 -0.1640 -0.2880
 7670SOL    HW134469   3.057   3.180   4.038 -1.8721  1.2470  1.1749
 7670SOL    HW234470   3.054   3.331   4.051 -0.0127  0.2824 -0.9670
 7671SOL     OW34471   2.698   2.190   7.642 -0.3267 -0.0691 -0.6065
 7671SOL    HW134472   2.700   2.112   7.697 -0.7840  0.9357  0.8446
 7671SOL    HW234473   2.740   2.248   7.706 -2.9460 -1.3971  2.3289
 7672SOL     OW34474   2.612   2.336  14.654 -0.1176  0.2048 -0.3707
 7672SOL    HW134475   2.559   2.411  14.679  0.1091  0.6456 -1.1865
 7672SOL    HW234476   2.592   2.275  14.725  1.9688  0.1023  0.1263
 7673SOL     OW34477   3.148   2.082   0.975  0.0347 -0.5262 -0.1657
 7673SOL    HW134478   3.076   2.055   0.917  2.2282 -2.3214 -2.0547
 7673SOL    HW234479   3.119   2.044   1.058 -0.8088  0.5660  0.0365
 7674SOL     OW34480   0.533   4.606  17.429 -0.2449  0.0901 -0.0669
 7674SOL    HW134481   0.459   4.606  17.490 -0.0495 -1.6480  0.1874
 7674SOL    HW234482   0.603   4.630  17.490  1.0837 -1.3574 -1.0064
 7675SOL     OW34483   2.975   2.704   6.539  0.5902 -0.5092 -0.3411
 7675SOL    HW134484   2.969   2.797   6.563 -0.9970 -0.6797 -0.0822
 7675SOL    HW234485   2.957   2.713   6.446  1.2919 -1.0132 -0.5203
 7676SOL     OW34486   4.682   4.492  12.307  0.1057 -0.0291 -0.5031
 7676SOL    HW134487   0.034   4.555  12.297  2.5186 -3.0908 -2.4086
 7676SOL    HW234488   0.003   4.418  12.262 -0.0024 -0.9273  0.8775
 7677SOL     OW34489   1.222   4.174   3.503  0.2935 -0.1852 -0.1095
 7677SOL    HW134490   1.225   4.108   3.434 -0.5767 -0.7913  0.4292
 7677SOL    HW234491   1.128   4.193   3.510  0.1531 -0.8484 -0.1482
 7678SOL     OW34492   0.709   3.105   3.910  0.0101 -0.1848  0.3877
 7678SOL    HW134493   0.758   3.023   3.916  0.9998  0.3369 -0.6771
 7678SOL    HW234494   0.764   3.172   3.949  0.9654 -0.1630 -1.0158
 7679SOL     OW34495   1.487   3.566   9.423 -0.5779  0.6272 -0.1601
 7679SOL    HW134496   1.407   3.526   9.457  1.0038 -2.8229 -0.5596
 7679SOL    HW234497   1.474   3.659   9.443 -2.9863  0.4373 -0.8783
 7680SOL     OW34498   3.887   0.176   2.079  0.9344 -0.3439 -0.6872
 7680SOL    HW134499   3.918   0.114   2.013  0.5073 -1.3574  0.0604
 7680SOL    HW234500   3.791   0.168   2.083  0.9892 -0.3898  0.7437
 7681SOL     OW34501   2.507   1.897   1.161  0.2692 -0.7647 -0.4753
 7681SOL    HW134502   2.472   1.915   1.249 -3.5887  1.9832 -2.5555
 7681SOL    HW234503   2.426   1.881   1.111  0.5104  0.3816 -1.2155
 7682SOL     OW34504   1.733   3.366  13.749 -0.5552  0.1508 -0.9212
 7682SOL    HW134505   1.722   3.273  13.730 -0.9054  0.1910 -0.9160
 7682SOL    HW234506   1.670   3.372  13.821 -0.0415  2.0178 -0.6306
 7683SOL     OW34507   0.951   2.665  17.594  0.1934  0.0432 -0.3251
 7683SOL    HW134508   0.942   2.575  17.564  2.2496 -0.1971 -0.1730
 7683SOL    HW234509   0.899   2.665  17.674 -0.1701  0.2578 -0.5582
 7684SOL     OW34510   3.851   0.715   3.859 -0.5988  0.3630  0.0974
 7684SOL    HW134511   3.938   0.711   3.818 -0.0782 -0.5667  1.2674
 7684SOL    HW234512   3.792   0.734   3.787 -1.0087  3.8927  1.3438
 7685SOL     OW34513   0.315   3.658   3.847  0.2978 -0.6469 -0.8082
 7685SOL    HW134514   0.384   3.723   3.844 -0.3408  0.0575 -0.0840
 7685SOL    HW234515   0.376   3.584   3.851 -1.5837 -2.2908 -1.8312
 7686SOL     OW34516   2.292   0.932  13.572 -0.0195  0.0064  0.2503
 7686SOL    HW134517   2.277   0.978  13.489  0.8817  2.2451  1.3150
 7686SOL    HW234518   2.239   0.993  13.624  0.7046  2.3433 -1.7621
 7687SOL     OW34519   4.290   0.498   2.332  0.0777  0.1739 -0.1019
 7687SOL    HW134520   4.220   0.435   2.345 -1.4889  2.1510  1.0018
 7687SOL    HW234521   4.240   0.579   2.341 -1.6394 -0.7019 -1.7059
 7688SOL     OW34522   0.737   0.993  10.828  0.1403 -0.3157  0.4859
 7688SOL    HW134523   0.669   1.014  10.892 -0.3304 -1.2217  0.2872
 7688SOL    HW234524   0.808   0.967  10.886  3.7439  3.2175 -2.3389
 7689SOL     OW34525   1.775   3.738   5.515  0.2174 -0.1738  0.1655
 7689SOL    HW134526   1.748   3.695   5.596 -1.4121  2.7225  1.1579
 7689SOL    HW234527   1.715   3.812   5.504  1.6110  1.1136  1.2711
 7690SOL     OW34528   1.891   3.454  15.798 -0.4478 -0.1443  0.1680
 7690SOL    HW134529   1.822   3.388  15.804 -0.8501  0.2443 -0.0957
 7690SOL    HW234530   1.845   3.528  15.758 -0.0207  0.2624  0.4254
 7691SOL     OW34531   0.654   0.550   7.892 -0.5128 -0.8079 -0.3514
 7691SOL    HW134532   0.663   0.474   7.835  2.3279 -0.1843 -0.7329
 7691SOL    HW234533   0.696   0.521   7.973 -1.6501 -2.9118 -0.5211
 7692SOL     OW34534   2.909   0.298  10.573 -0.3262 -0.3722  0.2164
 7692SOL    HW134535   2.873   0.365  10.631 -0.1830 -0.1092  0.0035
 7692SOL    HW234536   2.992   0.340  10.549 -0.8530 -0.5052 -1.7962
 7693SOL     OW34537   3.316   4.289   1.503  0.4054 -0.4119  0.3649
 7693SOL    HW134538   3.232   4.306   1.461  1.0191  0.2201 -0.5933
 7693SOL    HW234539   3.342   4.209   1.456  0.6045 -0.4093  0.4713
 7694SOL     OW34540   4.503   3.640   1.822 -0.2809  0.0864  0.3229
 7694SOL    HW134541   4.567   3.712   1.822 -0.1463 -0.0327 -1.1295
 7694SOL    HW234542   4.427   3.658   1.877  0.0940 -1.2849  1.2728
 7695SOL     OW34543   2.244   4.157  10.513  0.1819 -0.4184  0.3348
 7695SOL    HW134544   2.307   4.085  10.514 -0.1469 -0.6548  2.6324
 7695SOL    HW234545   2.250   4.178  10.606  1.5849  1.3144 -0.1517
 7696SOL     OW34546   2.901   2.538   8.798 -0.2774 -0.3385  0.0370
 7696SOL    HW134547   2.911   2.503   8.886  1.4278 -0.7581 -0.3198
 7696SOL    HW234548   2.875   2.629   8.809 -1.5239 -0.6704 -0.0608
 7697SOL     OW34549   2.912   0.115  13.350  0.1174  0.1429 -0.0198
 7697SOL    HW134550   2.983   0.177  13.370  0.6450 -0.7025  0.7481
 7697SOL    HW234551   2.884   0.138  13.261 -1.5682 -1.5915  0.0825
 7698SOL     OW34552   1.684   2.114  14.545 -0.0449  0.5535 -0.1519
 7698SOL    HW134553   1.617   2.111  14.477 -2.1749  3.1079  1.8494
 7698SOL    HW234554   1.704   2.207  14.535 -0.9424  0.6383 -1.1238
 7699SOL     OW34555   2.562   3.758   2.524  0.6798 -0.0242  0.7126
 7699SOL    HW134556   2.580   3.667   2.549 -1.1377 -0.4487  0.4289
 7699SOL    HW234557   2.481   3.752   2.475  0.5137 -1.8971  1.2172
 7700SOL     OW34558   1.882   3.908   6.192  0.1974  0.1025  0.0758
 7700SOL    HW134559   1.906   3.970   6.260 -1.5453  1.4654 -0.5609
 7700SOL    HW234560   1.841   3.958   6.122 -0.0746  0.5613  0.5571
 7701SOL     OW34561   4.500   2.796   2.954 -0.3530 -0.2507 -0.3101
 7701SOL    HW134562   4.487   2.801   2.860  1.1245 -2.7518 -0.6513
 7701SOL    HW234563   4.496   2.889   2.978 -0.8707 -0.3785  0.1231
 7702SOL     OW34564   1.600   1.807   7.806 -0.4791  0.2461  0.0345
 7702SOL    HW134565   1.537   1.790   7.876  1.7682 -2.2091  1.4520
 7702SOL    HW234566   1.652   1.870   7.855 -0.7223 -0.3084  1.0050
 7703SOL     OW34567   1.656   2.295   1.688 -0.2573  0.5374 -0.4154
 7703SOL    HW134568   1.571   2.256   1.707 -1.3126  3.9261  1.7873
 7703SOL    HW234569   1.676   2.339   1.771 -3.5078 -1.8007  1.6333
 7704SOL     OW34570   2.418   2.725  15.699  0.2315 -0.7683  0.2943
 7704SOL    HW134571   2.359   2.738  15.773  1.4075 -0.5170  1.1953
 7704SOL    HW234572   2.481   2.660  15.730  1.5585  0.7545  0.7578
 7705SOL     OW34573   2.698   0.004   2.829 -0.1060  0.0409 -0.2106
 7705SOL    HW134574   2.792   4.711   2.816  0.6826  2.7538  2.7477
 7705SOL    HW234575   2.692   0.082   2.884  2.7127 -0.5764  0.9583
 7706SOL     OW34576   4.056   3.730   8.764 -0.4960  0.1107 -0.2476
 7706SOL    HW134577   4.103   3.789   8.822 -1.5546  0.4013  0.3210
 7706SOL    HW234578   4.055   3.650   8.817  2.0546  1.3124  1.5900
 7707SOL     OW34579   4.708   3.602   4.027  0.5398 -0.1543  0.0064
 7707SOL    HW134580   0.069   3.632   4.066  0.1215 -1.5675  2.0054
 7707SOL    HW234581   4.661   3.584   4.109 -0.6053  0.5547 -0.4898
 7708SOL     OW34582   4.561   2.064   3.577 -0.5277  0.0161 -0.0476
 7708SOL    HW134583   4.530   2.046   3.488  1.2960 -0.0689 -0.6481
 7708SOL    HW234584   4.602   2.149   3.558 -0.0331 -0.8174 -2.6910
 7709SOL     OW34585   3.252   0.853   2.985  0.3481 -0.0638  0.0587
 7709SOL    HW134586   3.346   0.871   2.980  0.3005  0.2895  0.4059
 7709SOL    HW234587   3.250   0.783   3.050  0.7680 -0.9647 -0.9124
 7710SOL     OW34588   3.365   2.895   4.273 -0.2712  0.0485  0.4169
 7710SOL    HW134589   3.350   2.843   4.194  1.4719  0.7855 -0.3865
 7710SOL    HW234590   3.347   2.974   4.223 -1.0190 -1.0410 -1.0425
 7711SOL     OW34591   4.500   3.300  15.902  0.0399 -0.1935 -0.2347
 7711SOL    HW134592   4.541   3.215  15.921  0.4046  0.2170  0.8115
 7711SOL    HW234593   4.421   3.284  15.953  1.1015  2.6614  2.3187
 7712SOL     OW34594   1.414   3.342   8.902  0.0817 -0.1979 -0.2102
 7712SOL    HW134595   1.363   3.382   8.973  0.5596  0.3352 -0.1757
 7712SOL    HW234596   1.352   3.357   8.831  1.3131 -1.3311 -1.5119
 7713SOL     OW34597   3.211   0.770  16.313 -0.0309 -0.2002 -0.2118
 7713SOL    HW134598   3.213   0.851  16.261 -0.6265  0.3078  0.5479
 7713SOL    HW234599   3.131   0.727  16.285 -0.7913  0.6272  0.6962
 7714SOL     OW34600   1.989   1.693   8.912  0.4880  0.0368  0.2023
 7714SOL    HW134601   1.909   1.744   8.896 -1.0307 -2.3102  0.3650
 7714SOL    HW234602   1.973   1.673   9.004  1.1695 -2.5620 -0.2632
 7715SOL     OW34603   3.682   4.664   6.026 -0.0692  0.7371  0.0974
 7715SOL    HW134604   3.764   4.678   6.072 -0.8172 -0.6182  1.8719
 7715SOL    HW234605   3.698   4.586   5.972  0.8139 -0.2233  1.7243
 7716SOL     OW34606   1.922   4.008   0.743 -0.2708 -0.2600 -0.0877
 7716SOL    HW134607   1.921   4.090   0.693 -2.1652 -0.5675 -0.5473
 7716SOL    HW234608   1.850   3.962   0.701  2.3741 -4.1233 -0.3684
 7717SOL     OW34609   1.904   1.391   7.912 -0.1888  0.0587  0.1938
 7717SOL    HW134610   1.927   1.300   7.896  0.2876  0.3489 -0.7411
 7717SOL    HW234611   1.941   1.401   8.000  0.4620  0.2039 -0.0934
 7718SOL     OW34612   4.076   3.377  15.325  0.3517  0.6938 -0.0534
 7718SOL    HW134613   4.105   3.445  15.264 -0.4660  0.5060 -0.6463
 7718SOL    HW234614   3.999   3.418  15.362 -1.6760 -0.1749 -3.3260
 7719SOL     OW34615   2.724   3.359   3.731  0.0534  0.2914  0.0823
 7719SOL    HW134616   2.796   3.354   3.667  0.6907 -0.8383  0.8750
 7719SOL    HW234617   2.719   3.453   3.748  1.8480  0.6071 -0.9931
 7720SOL     OW34618   3.190   0.258   4.255  0.0592  0.3050  0.1498
 7720SOL    HW134619   3.237   0.325   4.304  0.8713 -1.0363  1.2167
 7720SOL    HW234620   3.158   0.308   4.180  0.7230  0.3937 -0.0695
 7721SOL     OW34621   4.096   2.469   9.289  0.4177 -0.0224  0.2383
 7721SOL    HW134622   4.168   2.407   9.299  2.1685  1.8156 -1.0726
 7721SOL    HW234623   4.072   2.480   9.382 -2.8737  1.5043 -0.7789
 7722SOL     OW34624   2.451   2.732   6.968  0.2982 -0.0451  0.1091
 7722SOL    HW134625   2.467   2.728   7.062  0.5172 -0.4067  0.0548
 7722SOL    HW234626   2.468   2.825   6.952 -0.9357 -0.0961 -1.5907
 7723SOL     OW34627   2.212   2.346   1.459  0.7940  0.3974 -0.7662
 7723SOL    HW134628   2.206   2.269   1.402 -1.4944 -0.0827  0.1268
 7723SOL    HW234629   2.273   2.312   1.524  1.9800  1.3490 -1.3646
 7724SOL     OW34630   3.162   3.009   6.099 -0.3606 -0.3271  0.3456
 7724SOL    HW134631   3.113   2.978   6.176 -0.4596 -1.8312 -0.3148
 7724SOL    HW234632   3.213   3.083   6.131  2.2555 -2.0160  0.0686
 7725SOL     OW34633   3.700   1.421   0.197 -0.1500 -0.2057  0.1088
 7725SOL    HW134634   3.662   1.495   0.150 -1.2373 -0.5218  0.5075
 7725SOL    HW234635   3.619   1.380   0.226  0.3896 -0.4498  1.2795
 7726SOL     OW34636   2.116   4.007  12.982  0.1145 -0.0137  0.0508
 7726SOL    HW134637   2.020   4.007  12.981  0.0966 -2.3167  1.7521
 7726SOL    HW234638   2.132   4.083  12.926  0.5256 -0.1779 -0.0515
 7727SOL     OW34639   3.137   2.539   5.541 -0.1233 -0.0483  0.3320
 7727SOL    HW134640   3.106   2.456   5.577  0.2159 -0.7072 -0.8778
 7727SOL    HW234641   3.230   2.516   5.533 -0.3684 -0.3949 -1.5731
 7728SOL     OW34642   3.284   0.860   8.785  0.1758  0.0494 -0.2029
 7728SOL    HW134643   3.249   0.849   8.873 -1.1290  1.4537 -0.5552
 7728SOL    HW234644   3.219   0.924   8.756 -1.1350 -2.0211 -1.8804
 7729SOL     OW34645   1.790   0.866  10.221  0.0692  0.1721 -0.4661
 7729SOL    HW134646   1.802   0.935  10.155 -1.7612  0.5594 -0.3771
 7729SOL    HW234647   1.866   0.879  10.277 -0.8077 -1.7471  1.1739
 7730SOL     OW34648   0.268   0.203   3.438  0.0159  1.1950  0.6702
 7730SOL    HW134649   0.317   0.128   3.403 -0.0694  2.6063 -2.5089
 7730SOL    HW234650   0.189   0.175   3.392  0.0094  0.8789  0.8792
 7731SOL     OW34651   0.785   0.819   6.368 -0.0478  0.0481  0.3025
 7731SOL    HW134652   0.783   0.747   6.305 -1.3228 -0.6320  1.1285
 7731SOL    HW234653   0.855   0.873   6.329 -0.9381  1.2766  0.3961
 7732SOL     OW34654   1.543   3.900   3.934 -0.0884  0.1609  0.4204
 7732SOL    HW134655   1.523   3.863   4.021 -1.4392 -0.0772  0.0182
 7732SOL    HW234656   1.535   3.824   3.877  0.0308 -1.7020  2.8930
 7733SOL     OW34657   0.701   0.907   3.694  0.2953 -0.2548  0.6718
 7733SOL    HW134658   0.796   0.911   3.686  0.3694 -0.4759  1.4402
 7733SOL    HW234659   0.692   0.826   3.745  1.9500 -1.1156 -0.4086
 7734SOL     OW34660   3.824   3.765   1.587 -0.1445  0.2639 -0.1513
 7734SOL    HW134661   3.831   3.848   1.635 -0.9059  0.8574 -1.0606
 7734SOL    HW234662   3.863   3.781   1.501  0.3304  1.3828  0.2702
 7735SOL     OW34663   1.243   3.390   4.007 -0.2786  0.4256  0.0224
 7735SOL    HW134664   1.249   3.298   3.982  2.6892  0.7392 -0.5263
 7735SOL    HW234665   1.333   3.418   4.025  0.7404 -2.7063 -0.1481
 7736SOL     OW34666   3.452   2.781   7.443  0.3893  0.1420 -0.6391
 7736SOL    HW134667   3.372   2.735   7.467 -0.5910  1.4801 -1.3420
 7736SOL    HW234668   3.512   2.751   7.511  0.8491 -0.9241 -1.5122
 7737SOL     OW34669   0.561   0.577   4.911 -0.3175 -0.0104 -0.2064
 7737SOL    HW134670   0.473   0.566   4.945 -0.5906  0.5942 -0.7339
 7737SOL    HW234671   0.541   0.563   4.819  0.6074 -0.2522 -0.3693
 7738SOL     OW34672   4.391   0.703   5.843  0.1617  0.5102 -0.0430
 7738SOL    HW134673   4.448   0.761   5.792  0.4326  0.3997  0.1315
 7738SOL    HW234674   4.379   0.767   5.912  2.3696 -1.4369  2.1559
 7739SOL     OW34675   4.615   1.057   4.160 -0.2128  0.1080  0.0381
 7739SOL    HW134676   4.595   1.151   4.161  2.3131  0.6788 -1.9562
 7739SOL    HW234677   4.613   1.030   4.068  1.3599  0.7067 -0.1699
 7740SOL     OW34678   0.857   0.186   5.918  0.2422  0.7886 -0.4154
 7740SOL    HW134679   0.896   0.148   5.839  2.4417  3.5809 -0.6771
 7740SOL    HW234680   0.910   0.152   5.989 -0.8380 -3.2505 -1.5595
 7741SOL     OW34681   2.686   3.648  11.388 -0.0184  0.4181 -0.1935
 7741SOL    HW134682   2.640   3.564  11.394 -0.0387  0.4255 -0.2475
 7741SOL    HW234683   2.769   3.634  11.344  0.6496 -2.3332  1.9479
 7742SOL     OW34684   2.728   3.994   7.095  0.2835 -0.0787  0.1665
 7742SOL    HW134685   2.749   4.054   7.023 -2.3877  0.4215 -0.1658
 7742SOL    HW234686   2.817   3.966   7.117 -0.2398 -1.1606  0.9333
 7743SOL     OW34687   1.657   3.039   8.405  0.2988 -0.1043  0.3186
 7743SOL    HW134688   1.601   3.022   8.481 -0.5017 -0.3572 -0.3338
 7743SOL    HW234689   1.746   3.033   8.441  0.4832  0.9453  0.0371
 7744SOL     OW34690   1.059   0.150  13.594 -0.2263  0.0919 -0.3624
 7744SOL    HW134691   0.973   0.169  13.633  0.6825  1.8509  0.7757
 7744SOL    HW234692   1.040   0.078  13.534  0.5404  0.2244 -0.7550
 7745SOL     OW34693   3.766   2.996   6.893  0.1387  0.3777  0.3404
 7745SOL    HW134694   3.841   3.021   6.839  0.5249 -1.4130  0.0404
 7745SOL    HW234695   3.804   3.001   6.981  0.1429 -2.1572  0.4942
 7746SOL     OW34696   1.232   1.183   6.689 -0.3431  0.0940  0.2855
 7746SOL    HW134697   1.245   1.264   6.640  1.3530 -1.6688 -2.1517
 7746SOL    HW234698   1.322   1.152   6.695 -0.4968  0.2605  3.4527
 7747SOL     OW34699   2.366   0.259   3.599  0.2463  0.0078  0.1415
 7747SOL    HW134700   2.418   0.206   3.538 -1.4463 -4.8091  2.9534
 7747SOL    HW234701   2.296   0.296   3.545  1.5680  0.8375 -1.0183
 7748SOL     OW34702   4.664   3.585   2.976  0.3893  0.6024 -0.2877
 7748SOL    HW134703   4.695   3.513   3.032  0.6842  0.1924 -0.9678
 7748SOL    HW234704   0.028   3.610   2.937 -0.0719  1.6673 -0.5833
 7749SOL     OW34705   1.239   3.216   9.110 -0.2813 -0.2423 -0.1243
 7749SOL    HW134706   1.202   3.188   9.194  0.7199 -0.2751  0.3145
 7749SOL    HW234707   1.225   3.311   9.117 -0.2997 -0.0651 -2.4389
 7750SOL     OW34708   0.677   0.891   9.087 -0.1615 -0.4999  0.2668
 7750SOL    HW134709   0.590   0.856   9.071 -0.3016 -0.2595  0.4902
 7750SOL    HW234710   0.669   0.972   9.036  2.0717  0.8477  2.0552
 7751SOL     OW34711   4.038   4.096   9.580  0.0641 -0.4299  0.2451
 7751SOL    HW134712   3.981   4.028   9.618 -0.4418  0.5030  1.1337
 7751SOL    HW234713   3.979   4.110   9.506  1.0959 -2.3734 -0.9635
 7752SOL     OW34714   3.252   1.513  13.406  0.4881 -0.2561  0.3435
 7752SOL    HW134715   3.308   1.534  13.332  0.1265 -2.9230 -0.6780
 7752SOL    HW234716   3.310   1.484  13.476  1.4227  0.9729  0.0775
 7753SOL     OW34717   3.124   2.122   7.738 -1.2353 -0.8278 -0.0296
 7753SOL    HW134718   3.140   2.172   7.658  1.5145 -1.7381 -0.0656
 7753SOL    HW234719   3.086   2.041   7.703 -2.2646 -0.7140  0.8343
 7754SOL     OW34720   0.896   3.622   7.358 -0.2674 -0.2173  0.8308
 7754SOL    HW134721   0.869   3.713   7.349  0.5295  0.3700  4.4092
 7754SOL    HW234722   0.977   3.639   7.406  0.7159 -0.7841 -0.6396
 7755SOL     OW34723   0.638   0.305  12.558 -0.0893 -0.2140 -0.5198
 7755SOL    HW134724   0.652   0.387  12.606  0.1398  0.2125 -1.3189
 7755SOL    HW234725   0.689   0.248  12.616 -0.9897 -1.0363 -0.5305
 7756SOL     OW34726   1.514   0.709  13.823  0.5853 -0.7250 -0.0564
 7756SOL    HW134727   1.571   0.644  13.783  0.4891 -0.7726 -0.1172
 7756SOL    HW234728   1.443   0.653  13.853  0.9892 -0.5610  1.2174
 7757SOL     OW34729   0.541   1.718  16.084  0.3653 -0.2436 -0.1301
 7757SOL    HW134730   0.583   1.633  16.099  0.2027 -0.4555 -0.8549
 7757SOL    HW234731   0.559   1.721  15.989  1.8886  2.4054  0.2343
 7758SOL     OW34732   2.978   0.090   8.115 -0.0666  1.0046 -0.2623
 7758SOL    HW134733   2.885   0.069   8.111  0.3154 -0.5202 -1.2131
 7758SOL    HW234734   2.971   0.184   8.096 -0.3346  0.9806 -0.2715
 7759SOL     OW34735   4.091   0.876  15.049 -0.2889  0.4007 -0.9025
 7759SOL    HW134736   4.062   0.801  15.102  0.7196  1.2929  0.8988
 7759SOL    HW234737   4.151   0.926  15.104  1.8506 -2.3081 -0.8035
 7760SOL     OW34738   4.711   1.975   4.442 -0.3998  0.1621  0.9131
 7760SOL    HW134739   4.677   1.993   4.354 -2.0329 -0.9750  1.3098
 7760SOL    HW234740   4.640   2.006   4.498 -0.0014  0.3360  1.3164
 7761SOL     OW34741   3.808   3.642   3.315  0.1502 -0.1668  0.0795
 7761SOL    HW134742   3.777   3.561   3.274  0.1554  0.3391 -0.9097
 7761SOL    HW234743   3.769   3.708   3.258 -0.7095 -1.6450 -1.0455
 7762SOL     OW34744   2.918   1.056   3.574  0.0162 -0.4463 -0.3225
 7762SOL    HW134745   2.879   1.136   3.539 -2.5461 -2.3036 -1.6526
 7762SOL    HW234746   2.921   1.071   3.668 -1.1005 -0.3116 -0.3095
 7763SOL     OW34747   4.189   0.470  12.265 -0.0572 -0.1339  0.2560
 7763SOL    HW134748   4.250   0.401  12.292  0.0240  0.5609  1.8853
 7763SOL    HW234749   4.197   0.527  12.343 -0.1350 -1.6749  1.3866
 7764SOL     OW34750   1.553   2.430   8.674  0.0851  0.1312  0.4523
 7764SOL    HW134751   1.496   2.367   8.628 -0.5621 -1.0890  2.9290
 7764SOL    HW234752   1.542   2.401   8.764  2.1143 -0.2730  0.5727
 7765SOL     OW34753   2.452   3.390   2.994 -0.2881  0.9705  0.1077
 7765SOL    HW134754   2.387   3.378   3.064  1.1262 -1.7075  0.9901
 7765SOL    HW234755   2.407   3.447   2.933 -0.9775  1.6138  1.2101
 7766SOL     OW34756   1.770   1.475   6.599  0.1523 -0.1795  0.6394
 7766SOL    HW134757   1.742   1.384   6.593 -0.9733  0.2473 -0.6001
 7766SOL    HW234758   1.859   1.458   6.566 -0.4598 -0.3344 -0.9093
 7767SOL     OW34759   3.356   0.443  11.492  0.0858  0.0506 -0.5125
 7767SOL    HW134760   3.364   0.518  11.550  2.3511 -0.4480 -0.1888
 7767SOL    HW234761   3.336   0.375  11.556 -0.7099 -1.1729 -2.0485
 7768SOL     OW34762   4.533   0.140   2.446  0.0745  0.1580  0.4020
 7768SOL    HW134763   4.548   0.046   2.443 -1.2188  0.0348 -2.2556
 7768SOL    HW234764   4.451   0.134   2.495  0.0874 -1.2685  0.2294
 7769SOL     OW34765   3.175   2.483   8.766 -0.5987  0.6577  0.1374
 7769SOL    HW134766   3.095   2.468   8.716 -1.8337 -0.3964  2.4346
 7769SOL    HW234767   3.140   2.529   8.842  0.4809 -0.2378  1.1831
 7770SOL     OW34768   2.777   2.171   4.851 -0.5124 -0.1150 -0.2139
 7770SOL    HW134769   2.694   2.140   4.886  0.7503 -0.8613  2.1772
 7770SOL    HW234770   2.746   2.247   4.802 -0.7370  0.2370  0.4644
 7771SOL     OW34771   4.536   2.123   3.970  0.0988 -0.0887  0.2091
 7771SOL    HW134772   4.463   2.091   4.024 -0.4809 -1.5775 -1.4579
 7771SOL    HW234773   4.496   2.118   3.883 -0.5177 -0.1344  0.4909
 7772SOL     OW34774   3.812   3.452   0.303  0.0460 -0.4352  0.2353
 7772SOL    HW134775   3.835   3.422   0.391 -0.6724  1.2187  0.9849
 7772SOL    HW234776   3.899   3.434   0.268  0.4244  1.8680  0.0077
 7773SOL     OW34777   2.032   4.564   9.957  0.1210  0.3106 -0.3955
 7773SOL    HW134778   2.108   4.544   9.903 -0.0996  0.4011 -0.7340
 7773SOL    HW234779   1.962   4.561   9.893  0.3268  0.7405 -0.6442
 7774SOL     OW34780   1.799   0.485   6.879  0.2272  0.2321  0.1036
 7774SOL    HW134781   1.736   0.500   6.809  0.7854  0.3373 -0.3672
 7774SOL    HW234782   1.794   0.391   6.895  3.4616  0.5328  2.9335
 7775SOL     OW34783   0.585   1.784   6.083  0.2715 -0.1032  0.2387
 7775SOL    HW134784   0.635   1.832   6.149 -1.4494  0.6036  1.0236
 7775SOL    HW234785   0.511   1.845   6.081 -0.8268 -1.4400  0.1720
 7776SOL     OW34786   0.381   1.086   2.554  0.1974  0.9367  1.0108
 7776SOL    HW134787   0.443   1.014   2.551 -2.8331 -1.5914 -0.4383
 7776SOL    HW234788   0.370   1.110   2.462  0.4044 -0.5874  0.5870
 7777SOL     OW34789   3.871   0.588   6.324  0.0125  0.1376 -0.1586
 7777SOL    HW134790   3.792   0.640   6.331 -1.0748 -1.4832 -0.2662
 7777SOL    HW234791   3.895   0.601   6.415 -0.6359  0.5024 -0.0414
 7778SOL     OW34792   1.684   0.075   2.679  0.2015 -0.3021  0.0051
 7778SOL    HW134793   1.622   0.144   2.704 -0.1046 -1.1917  1.6889
 7778SOL    HW234794   1.759   0.134   2.678  0.9250 -1.1948  1.5563
 7779SOL     OW34795   1.273   2.227   4.589  0.0065  0.5458 -0.2121
 7779SOL    HW134796   1.246   2.153   4.535 -1.7720 -0.5012  2.1153
 7779SOL    HW234797   1.282   2.293   4.520 -1.3063  0.0422 -0.8648
 7780SOL     OW34798   1.641   0.807   8.611  0.4346  1.0444 -0.4392
 7780SOL    HW134799   1.624   0.833   8.520  0.7160  0.0690 -0.7666
 7780SOL    HW234800   1.737   0.811   8.614  0.5903 -1.6697 -1.5407
 7781SOL     OW34801   3.977   3.423  12.081  0.2633 -0.1865  0.3955
 7781SOL    HW134802   3.931   3.395  12.002  0.1952  0.3278  0.2542
 7781SOL    HW234803   4.069   3.396  12.074  0.4820  0.8078 -0.4711
 7782SOL     OW34804   4.699   3.914   7.947  0.2706  0.3377 -0.3356
 7782SOL    HW134805   0.059   3.901   7.896 -0.6168 -0.4243 -1.5379
 7782SOL    HW234806   4.670   3.833   7.988  1.7038  0.3476  0.6794
 7783SOL     OW34807   3.781   4.470   1.677 -0.2552 -0.2810 -0.1313
 7783SOL    HW134808   3.848   4.530   1.643  2.4107 -2.7693  0.7006
 7783SOL    HW234809   3.718   4.459   1.605  1.2688  0.1962 -1.5523
 7784SOL     OW34810   2.049   1.414   7.456 -0.2135  0.4176 -0.3779
 7784SOL    HW134811   2.016   1.467   7.528 -0.0427  2.1413 -1.5870
 7784SOL    HW234812   2.121   1.375   7.507  2.0071  0.4309 -3.4842
 7785SOL     OW34813   1.742   0.497   2.574  1.0653 -0.5156  0.6130
 7785SOL    HW134814   1.806   0.568   2.562 -0.5756  1.1740  1.8318
 7785SOL    HW234815   1.779   0.431   2.516  2.3516  1.0211 -0.3299
 7786SOL     OW34816   2.139   1.716   8.030  0.0033 -0.5331  0.2003
 7786SOL    HW134817   2.078   1.722   7.957  0.3104  1.0677  0.0842
 7786SOL    HW234818   2.076   1.725   8.102 -0.9741  3.7038 -1.1821
 7787SOL     OW34819   4.259   3.292   7.767 -0.4614 -0.0195  0.1066
 7787SOL    HW134820   4.242   3.200   7.747  0.1704 -0.3189  0.9626
 7787SOL    HW234821   4.236   3.287   7.860 -0.5757  3.2008  0.2496
 7788SOL     OW34822   0.282   3.820   7.136 -0.8051  0.2557  0.3116
 7788SOL    HW134823   0.196   3.799   7.171  0.0814 -0.3805  2.0874
 7788SOL    HW234824   0.273   3.908   7.100 -1.1911  0.2195  0.3177
 7789SOL     OW34825   3.782   3.443   2.825  0.3524 -0.2960 -0.1180
 7789SOL    HW134826   3.855   3.436   2.886 -1.5963 -2.2308  2.0087
 7789SOL    HW234827   3.780   3.538   2.814  0.6542 -0.0518  2.0348
 7790SOL     OW34828   1.171   3.446   4.614 -0.3487 -0.1824 -0.0402
 7790SOL    HW134829   1.235   3.437   4.684 -1.0423  1.6032  0.8500
 7790SOL    HW234830   1.155   3.540   4.627 -2.1919 -0.3781 -0.8604
 7791SOL     OW34831   0.065   0.276  10.278  0.4835 -0.3072 -0.1569
 7791SOL    HW134832   0.104   0.356  10.243  0.1005  0.5283  1.2931
 7791SOL    HW234833   0.042   0.321  10.359 -1.4467  0.2849 -1.0435
 7792SOL     OW34834   4.671   0.700   2.907  0.0936  0.5160  0.1403
 7792SOL    HW134835   4.683   0.611   2.942 -0.3522  0.4273  0.0658
 7792SOL    HW234836   4.684   0.688   2.813  2.8621 -0.7138  0.6901
 7793SOL     OW34837   4.637   1.236   6.812 -0.3513 -0.0474 -0.8884
 7793SOL    HW134838   4.563   1.292   6.791 -1.9143 -1.7865  0.0503
 7793SOL    HW234839   4.604   1.203   6.895 -1.1203  0.7423 -0.8935
 7794SOL     OW34840   0.610   4.082   5.636 -0.0716  0.2387 -0.2637
 7794SOL    HW134841   0.573   4.094   5.724  0.6605 -1.4603  0.2821
 7794SOL    HW234842   0.524   4.078   5.594 -0.0410  0.1220 -0.3152
 7795SOL     OW34843   3.809   1.227   4.142 -0.1741 -0.3357 -0.1180
 7795SOL    HW134844   3.894   1.203   4.106  0.0142  0.9985 -0.5626
 7795SOL    HW234845   3.808   1.198   4.233  1.0968 -0.5269 -0.1695
 7796SOL     OW34846   3.219   0.619   0.767  0.1291 -0.4579  0.8307
 7796SOL    HW134847   3.192   0.535   0.731 -0.6849  0.0798  0.1840
 7796SOL    HW234848   3.267   0.662   0.696 -1.3461 -1.9385 -1.0358
 7797SOL     OW34849   1.531   1.922   5.624  0.0912  0.0879 -0.1384
 7797SOL    HW134850   1.497   1.879   5.702 -1.8397  1.4447 -0.2182
 7797SOL    HW234851   1.508   1.849   5.566 -0.1444  0.8441 -0.9937
 7798SOL     OW34852   3.384   3.128   9.427  0.4094  0.5435 -0.4872
 7798SOL    HW134853   3.375   3.222   9.445  1.4923  0.5144  0.1884
 7798SOL    HW234854   3.470   3.108   9.462 -0.1536  0.0213  0.6093
 7799SOL     OW34855   1.771   1.948   2.951  0.6776 -0.5186 -0.2302
 7799SOL    HW134856   1.778   1.986   2.863 -0.1860 -0.9465 -0.4825
 7799SOL    HW234857   1.703   1.882   2.941 -1.2412  1.1577  1.6053
 7800SOL     OW34858   4.124   3.187   8.227  0.3235 -0.3438 -0.7004
 7800SOL    HW134859   4.125   3.147   8.314 -2.4445 -0.4438 -0.7373
 7800SOL    HW234860   4.140   3.279   8.251  0.8918 -0.8440  0.8604
 7801SOL     OW34861   2.872   0.209   6.321  0.1237  0.4236 -0.4199
 7801SOL    HW134862   2.922   0.224   6.401 -0.9270  0.6920  0.1852
 7801SOL    HW234863   2.821   0.134   6.353  3.9911 -2.6867 -1.4456
 7802SOL     OW34864   4.040   0.279   7.748  0.4476  0.1558 -0.7353
 7802SOL    HW134865   4.079   0.352   7.702  0.1764 -0.6177 -2.2009
 7802SOL    HW234866   3.955   0.285   7.704  0.7787  0.2647 -1.3628
 7803SOL     OW34867   1.697   3.782   6.597  0.0563 -0.7658 -0.1657
 7803SOL    HW134868   1.655   3.808   6.515  1.2725 -0.6232 -0.7457
 7803SOL    HW234869   1.789   3.789   6.571  0.2439 -0.2526  0.6452
 7804SOL     OW34870   0.202   2.777  11.501 -0.0580  0.0301  0.3144
 7804SOL    HW134871   0.108   2.796  11.500 -0.0802 -0.1245 -0.4980
 7804SOL    HW234872   0.225   2.818  11.584 -0.3591  1.1510 -0.1586
 7805SOL     OW34873   2.809   3.296   8.304 -0.2585  0.0694  0.5716
 7805SOL    HW134874   2.899   3.286   8.337  0.5844  1.2138 -1.4259
 7805SOL    HW234875   2.772   3.208   8.314 -2.3951  0.8763 -0.2930
 7806SOL     OW34876   2.456   4.110  13.002 -0.2107 -0.4120 -0.0762
 7806SOL    HW134877   2.508   4.163  13.063 -0.2425 -2.8572  2.0680
 7806SOL    HW234878   2.405   4.177  12.956 -1.3478 -1.3158 -0.1345
 7807SOL     OW34879   0.676   0.141   5.433 -0.3657 -0.3437  0.1229
 7807SOL    HW134880   0.687   0.046   5.428 -0.9310 -0.4164  0.2400
 7807SOL    HW234881   0.763   0.180   5.426 -0.1800 -0.8744 -0.4890
 7808SOL     OW34882   0.253   4.252   8.333  0.4079  0.1428  0.3861
 7808SOL    HW134883   0.270   4.340   8.368 -0.7186  0.2502  0.6756
 7808SOL    HW234884   0.219   4.207   8.411  0.0301 -1.6662 -0.8295
 7809SOL     OW34885   3.265   0.356   1.256 -0.0772  0.5075 -0.3115
 7809SOL    HW134886   3.349   0.361   1.209 -0.5392  0.4319 -1.1281
 7809SOL    HW234887   3.292   0.391   1.341  0.4145 -2.0210  0.5651
 7810SOL     OW34888   2.165   0.430  15.617 -0.1924  0.3932 -0.1024
 7810SOL    HW134889   2.107   0.413  15.691  1.3712 -0.5483  0.9216
 7810SOL    HW234890   2.245   0.397  15.660  0.6793 -2.3951 -3.8361
 7811SOL     OW34891   0.185   0.726   6.690 -0.0713 -0.0177 -0.0372
 7811SOL    HW134892   0.261   0.673   6.667 -1.0778 -1.4850 -0.0172
 7811SOL    HW234893   0.190   0.736   6.785 -1.5022 -2.1564  0.2707
 7812SOL     OW34894   3.807   2.923  16.998  0.0449  0.5595 -0.0294
 7812SOL    HW134895   3.865   2.997  16.982  1.1660 -1.1542 -3.8324
 7812SOL    HW234896   3.855   2.848  16.963  2.3310  2.4868 -1.0325
 7813SOL     OW34897   2.940   0.737   2.939 -0.2009  0.3824  0.0644
 7813SOL    HW134898   2.882   0.809   2.914 -2.2673 -1.2101  0.2642
 7813SOL    HW234899   2.987   0.780   3.010 -1.3768  0.8430  0.5734
 7814SOL     OW34900   3.973   0.281   2.992  0.2337 -0.0430 -0.6567
 7814SOL    HW134901   3.950   0.362   3.040 -0.3471 -1.7886  2.0384
 7814SOL    HW234902   3.909   0.281   2.921 -1.6494 -0.7538  1.0228
 7815SOL     OW34903   3.421   2.647   5.718  0.2511 -0.4782  0.0524
 7815SOL    HW134904   3.467   2.729   5.698 -0.9400  0.2868  0.4299
 7815SOL    HW234905   3.416   2.592   5.640  1.7571  1.2002 -1.2356
 7816SOL     OW34906   1.557   2.178  15.393 -0.4213 -0.0632 -0.1366
 7816SOL    HW134907   1.581   2.089  15.418 -2.7710 -0.9609 -1.1705
 7816SOL    HW234908   1.639   2.207  15.351  0.7166 -0.0124  2.1358
 7817SOL     OW34909   4.517   3.574  16.878  0.1006 -0.2929  0.9088
 7817SOL    HW134910   4.600   3.583  16.925  1.9189  0.1740 -2.3070
 7817SOL    HW234911   4.538   3.546  16.788 -2.2327  0.4988  0.1205
 7818SOL     OW34912   2.169   1.390   5.314  0.2546 -0.4927  0.0651
 7818SOL    HW134913   2.139   1.317   5.261  0.3970 -0.7999  0.4051
 7818SOL    HW234914   2.206   1.454   5.253  1.9004 -2.5951 -1.1713
 7819SOL     OW34915   0.302   0.578   7.870  0.0611  0.1117  0.7870
 7819SOL    HW134916   0.363   0.626   7.926 -1.9876  2.7505  0.7617
 7819SOL    HW234917   0.232   0.554   7.931 -0.4862  0.9670  0.4941
 7820SOL     OW34918   1.141   1.640   3.316  0.2230 -0.0257 -0.3369
 7820SOL    HW134919   1.095   1.556   3.319 -1.4282  0.9068  0.9121
 7820SOL    HW234920   1.231   1.616   3.336  0.0723  0.4757  1.0198
 7821SOL     OW34921   2.085   1.980   8.472  0.0932  0.5769  0.1043
 7821SOL    HW134922   2.022   1.954   8.539  0.1362 -1.0703 -0.4931
 7821SOL    HW234923   2.164   1.958   8.521 -0.2412  0.4857  0.5967
 7822SOL     OW34924   3.038   0.440   8.302  0.1744 -0.4801  0.2024
 7822SOL    HW134925   3.032   0.535   8.291  1.1322 -0.0725  3.2245
 7822SOL    HW234926   2.951   0.420   8.267 -0.1718  0.6232  0.4494
 7823SOL     OW34927   1.839   0.386   3.839  0.4741  0.0651  0.0141
 7823SOL    HW134928   1.761   0.382   3.894  0.5061 -0.1922  0.0401
 7823SOL    HW234929   1.902   0.337   3.892 -0.0810 -0.3789  0.2626
 7824SOL     OW34930   2.397   1.937   3.883  0.3717  0.3477 -0.6369
 7824SOL    HW134931   2.343   1.861   3.908  1.3528 -0.5157 -1.1307
 7824SOL    HW234932   2.355   2.009   3.929  0.4034 -0.8211  1.2326
 7825SOL     OW34933   4.037   4.419   5.015  0.3095  0.1374 -0.3293
 7825SOL    HW134934   4.086   4.441   4.936  0.7862  2.1244  0.5169
 7825SOL    HW234935   3.948   4.421   4.979  0.5228  0.8016 -0.8049
 7826SOL     OW34936   4.136   4.482   5.629 -0.3439 -0.3311  0.2939
 7826SOL    HW134937   4.195   4.517   5.563 -1.1642 -1.8148 -1.2162
 7826SOL    HW234938   4.065   4.449   5.574  0.2548  0.4695 -0.9563
 7827SOL     OW34939   1.980   4.352   5.701  0.4600  0.2086  0.3392
 7827SOL    HW134940   1.885   4.341   5.701  0.5971 -0.9430 -0.0376
 7827SOL    HW234941   2.012   4.263   5.714 -0.8050 -0.5078 -1.4283
 7828SOL     OW34942   3.395   0.992   9.335 -0.4466  0.0297 -0.3468
 7828SOL    HW134943   3.314   0.965   9.380  1.0120 -0.2756  2.1207
 7828SOL    HW234944   3.358   1.063   9.282 -1.1987  0.4115  0.6713
 7829SOL     OW34945   1.343   4.335   3.691 -0.0116  0.1939  0.1819
 7829SOL    HW134946   1.270   4.290   3.650 -0.9376  1.4652  0.4182
 7829SOL    HW234947   1.407   4.326   3.620  1.2764  2.5004  1.0501
 7830SOL     OW34948   4.566   3.634   8.656 -0.1022  0.2061  0.1556
 7830SOL    HW134949   4.578   3.727   8.676  0.0956 -0.0032  1.0143
 7830SOL    HW234950   4.642   3.623   8.600 -1.2051  0.6817 -1.4338
 7831SOL     OW34951   0.038   4.493   8.123  0.5826  0.0882  0.2563
 7831SOL    HW134952   4.679   4.446   8.149  1.5049 -0.6726  1.6857
 7831SOL    HW234953   0.057   4.539   8.205 -0.2076 -1.6549  1.4238
 7832SOL     OW34954   3.258   3.921   1.631  0.0050  0.2115  0.2502
 7832SOL    HW134955   3.309   3.889   1.705  1.3774  0.0247 -0.7641
 7832SOL    HW234956   3.182   3.960   1.674  1.0469  1.0056  1.3480
 7833SOL     OW34957   4.282   1.760   4.485 -0.8194  0.3829 -0.4530
 7833SOL    HW134958   4.207   1.764   4.425 -0.2012  1.6553 -1.1354
 7833SOL    HW234959   4.244   1.700   4.550  0.8535 -0.9582 -0.7153
 7834SOL     OW34960   1.122   2.712  17.293  0.1832 -0.6374  0.4906
 7834SOL    HW134961   1.149   2.631  17.335 -0.3343 -0.0024  2.0484
 7834SOL    HW234962   1.212   2.736  17.274  0.3455 -1.3712  0.3150
 7835SOL     OW34963   1.114   2.229  16.107 -0.4157  0.2084  0.0166
 7835SOL    HW134964   1.102   2.147  16.059  0.3739 -0.5572  1.1179
 7835SOL    HW234965   1.033   2.278  16.093  0.1429  0.9686 -0.5316
 7836SOL     OW34966   1.471   0.598   8.715 -0.1163  0.3403  0.6726
 7836SOL    HW134967   1.506   0.672   8.664 -2.1867  0.0180 -1.2096
 7836SOL    HW234968   1.546   0.543   8.736 -1.4672 -1.3892  0.9871
 7837SOL     OW34969   2.540   0.247   2.807  0.3430  0.1590  0.7909
 7837SOL    HW134970   2.590   0.313   2.759  0.7420  0.7826  2.0711
 7837SOL    HW234971   2.468   0.239   2.744  1.7040 -0.0801 -0.7303
 7838SOL     OW34972   1.313   0.584  15.884 -0.2937  0.3568  1.1058
 7838SOL    HW134973   1.286   0.674  15.867 -0.6895 -0.0302 -0.2963
 7838SOL    HW234974   1.232   0.545  15.918 -0.2242 -0.4913  0.3042
 7839SOL     OW34975   4.619   2.445   6.995 -0.3248  0.9388 -0.0999
 7839SOL    HW134976   4.545   2.506   6.985 -0.1154  1.3787  0.9874
 7839SOL    HW234977   4.673   2.492   6.931 -0.3745 -0.8835 -1.4768
 7840SOL     OW34978   1.962   1.171   3.002  0.2741 -0.1453  0.0890
 7840SOL    HW134979   2.009   1.158   3.084  0.6412 -0.6007 -0.1913
 7840SOL    HW234980   2.008   1.251   2.977 -0.0554  0.2519  0.7453
 7841SOL     OW34981   1.725   1.552   2.306  0.0099 -0.1821 -0.6084
 7841SOL    HW134982   1.779   1.508   2.373 -1.3614 -1.8884 -0.6102
 7841SOL    HW234983   1.767   1.635   2.287  2.2036 -0.4271  3.0543
 7842SOL     OW34984   2.195   4.614   1.983  0.4677 -0.0504 -0.3299
 7842SOL    HW134985   2.230   4.677   2.045  0.6083  0.5791 -1.0466
 7842SOL    HW234986   2.121   4.668   1.953 -1.0279 -2.9206 -1.8396
 7843SOL     OW34987   3.061   4.382   4.640 -0.1686 -0.3605  0.2875
 7843SOL    HW134988   3.088   4.452   4.581 -0.0776  1.4160  2.4076
 7843SOL    HW234989   2.970   4.408   4.649 -0.3678 -0.7285 -0.6567
 7844SOL     OW34990   4.419   3.997   1.922  0.4262  0.7280  0.7606
 7844SOL    HW134991   4.334   4.031   1.894 -0.5440 -2.3107  0.0091
 7844SOL    HW234992   4.385   3.922   1.971  1.0669 -0.8351 -1.2164
 7845SOL     OW34993   3.875   2.348  16.756 -0.1460 -0.8706  0.2494
 7845SOL    HW134994   3.822   2.334  16.834 -1.9074  0.4153 -0.7253
 7845SOL    HW234995   3.878   2.443  16.749  0.8586 -0.9133  0.0294
 7846SOL     OW34996   0.403   3.197   7.973 -0.0269  0.1817 -0.0298
 7846SOL    HW134997   0.480   3.232   7.931 -1.1303  1.0411 -1.3173
 7846SOL    HW234998   0.379   3.126   7.914 -1.9736  0.4634  0.4031
 7847SOL     OW34999   4.208   4.468   4.790 -0.0687 -0.1468  0.1067
 7847SOL    HW135000   4.263   4.546   4.785 -3.2194  2.1453  0.9916
 7847SOL    HW235001   4.144   4.489   4.722 -0.5641 -2.0557 -0.0310
 7848SOL     OW35002   1.346   2.149  10.992  0.0964  0.6617 -0.9769
 7848SOL    HW135003   1.313   2.152  11.082  2.0620 -0.4932 -0.2294
 7848SOL    HW235004   1.408   2.221  10.980  0.4878  1.0623  3.4732
 7849SOL     OW35005   3.756   0.901   4.732  0.5882 -0.0986  0.3479
 7849SOL    HW135006   3.844   0.865   4.727 -0.2927 -1.9885 -1.4649
 7849SOL    HW235007   3.767   0.944   4.647  0.0006  0.8072  0.7290
 7850SOL     OW35008   1.350   2.916   6.705 -0.0045  0.0860  0.4738
 7850SOL    HW135009   1.392   2.916   6.619  1.4385 -2.1959  1.1715
 7850SOL    HW235010   1.268   2.948   6.668  0.1236 -1.7885 -1.4722
 7851SOL     OW35011   4.003   0.697   5.131  0.3985  0.1276  0.6403
 7851SOL    HW135012   4.056   0.772   5.105  0.7776 -0.5899 -0.6954
 7851SOL    HW235013   3.934   0.722   5.192 -3.0773  0.4796 -3.4138
 7852SOL     OW35014   1.573   3.378   1.627 -0.3350 -0.3222 -0.3305
 7852SOL    HW135015   1.580   3.284   1.643  1.3254 -0.4166 -1.5533
 7852SOL    HW235016   1.546   3.413   1.712  0.1591 -0.0215 -0.2962
 7853SOL     OW35017   4.664   0.120  15.349 -0.4004 -0.4820  0.1568
 7853SOL    HW135018   4.585   0.130  15.296 -0.4743 -0.9864  0.1664
 7853SOL    HW235019   0.016   0.119  15.287 -1.6414 -3.2589 -1.2786
 7854SOL     OW35020   1.133   3.734   7.476  0.1493 -0.1564 -0.4417
 7854SOL    HW135021   1.185   3.749   7.555  0.5623  0.1471 -0.7704
 7854SOL    HW235022   1.193   3.735   7.401  0.5031  1.5938 -0.1470
 7855SOL     OW35023   3.720   1.646  16.610 -0.2863 -0.2993  0.0865
 7855SOL    HW135024   3.812   1.619  16.610 -0.5733 -1.2918 -4.1158
 7855SOL    HW235025   3.730   1.717  16.547 -2.0707  0.5207  0.7205
 7856SOL     OW35026   0.724   2.597   2.609 -0.0380  0.4323 -0.1244
 7856SOL    HW135027   0.696   2.686   2.589 -0.0009 -0.2555 -3.1826
 7856SOL    HW235028   0.772   2.578   2.528  0.3109 -0.3900  0.2782
 7857SOL     OW35029   2.322   4.233   4.981 -0.1819  0.3815  0.1261
 7857SOL    HW135030   2.323   4.175   5.058  1.6639  1.9868  1.3025
 7857SOL    HW235031   2.344   4.168   4.914 -1.2368 -0.5717  0.6811
 7858SOL     OW35032   2.274   4.608   3.758 -0.1021 -0.4541 -0.2876
 7858SOL    HW135033   2.183   4.628   3.736 -0.3101 -1.2821 -0.1823
 7858SOL    HW235034   2.262   4.531   3.815  0.6853 -0.6500 -0.3986
 7859SOL     OW35035   0.309   0.286  11.431 -0.1477  0.0200  0.4987
 7859SOL    HW135036   0.304   0.201  11.387 -2.0220  0.3237  0.1253
 7859SOL    HW235037   0.389   0.270  11.481  1.2490 -1.4692 -2.1998
 7860SOL     OW35038   0.922   2.022   5.030  0.6523 -0.6949 -0.1529
 7860SOL    HW135039   0.922   2.077   5.108  0.8160 -0.9055 -0.0010
 7860SOL    HW235040   0.858   2.065   4.974 -0.3287 -1.8455  0.0841
 7861SOL     OW35041   3.237   1.373   3.832 -0.5656 -0.6661  0.1832
 7861SOL    HW135042   3.331   1.362   3.818 -0.9581 -4.7096  0.7278
 7861SOL    HW235043   3.245   1.404   3.923  1.0631 -0.8733  0.0980
 7862SOL     OW35044   4.057   2.067   2.547  0.1267  0.8078 -0.3930
 7862SOL    HW135045   4.104   2.123   2.609 -1.2258  2.7766 -1.1705
 7862SOL    HW235046   3.983   2.122   2.524 -0.7761 -0.7229 -1.1746
 7863SOL     OW35047   0.598   3.949   2.765  0.0701 -0.1055 -0.3320
 7863SOL    HW135048   0.573   3.929   2.855  0.4699  2.5462  0.3759
 7863SOL    HW235049   0.598   4.045   2.774 -1.8017 -0.1761  0.3032
 7864SOL     OW35050   1.620   0.024   3.557  0.4416  0.1360  0.3787
 7864SOL    HW135051   1.572   4.707   3.483 -1.1125  0.0412  1.4558
 7864SOL    HW235052   1.698   0.049   3.507  0.9162 -0.1234  0.9957
 7865SOL     OW35053   0.776   1.901   4.240 -0.0048  0.1241  0.1192
 7865SOL    HW135054   0.846   1.879   4.179 -0.3889  0.6516 -0.5178
 7865SOL    HW235055   0.699   1.855   4.205 -0.0763 -0.0716  0.5302
 7866SOL     OW35056   1.485   2.514   5.141 -0.3465  0.1423 -0.1480
 7866SOL    HW135057   1.448   2.580   5.200 -0.8627  1.1186 -1.5911
 7866SOL    HW235058   1.419   2.445   5.145  0.4967 -0.5876  1.3624
 7867SOL     OW35059   3.053   0.602  10.401 -0.0141 -0.2364 -0.4459
 7867SOL    HW135060   3.103   0.546  10.460  0.2541  0.1614 -0.2968
 7867SOL    HW235061   3.105   0.682  10.407 -1.0067  0.4205 -0.7800
 7868SOL     OW35062   2.504   0.686  10.073  0.0214  1.1092  0.5242
 7868SOL    HW135063   2.475   0.596  10.091 -0.7734  1.4887  1.1141
 7868SOL    HW235064   2.446   0.698   9.997 -1.0566  2.2146  1.5293
 7869SOL     OW35065   1.724   1.645   8.332 -0.4184  0.2759 -0.1458
 7869SOL    HW135066   1.682   1.584   8.272 -1.0068 -1.3154  1.8815
 7869SOL    HW235067   1.691   1.625   8.420 -1.4695  1.1447 -0.3404
 7870SOL     OW35068   3.004   0.570   1.401 -0.3131 -0.1009 -0.7098
 7870SOL    HW135069   3.017   0.601   1.311  0.3680  0.0861 -0.5470
 7870SOL    HW235070   3.090   0.532   1.419 -0.7316 -0.6436  0.1443
 7871SOL     OW35071   3.788   3.567   1.240  0.4986 -0.6814  0.0560
 7871SOL    HW135072   3.809   3.637   1.180  0.2651  1.4364  2.4249
 7871SOL    HW235073   3.762   3.495   1.182  0.8676 -2.4352  2.0160
 7872SOL     OW35074   4.244   4.440   1.138  0.1164  0.2656 -0.2336
 7872SOL    HW135075   4.258   4.448   1.043  0.5032  0.5497 -0.1541
 7872SOL    HW235076   4.217   4.349   1.151  0.3159  0.1907 -0.3297
 7873SOL     OW35077   2.191   2.766   7.516 -0.3877 -0.1988  0.0063
 7873SOL    HW135078   2.267   2.747   7.462 -0.2391 -1.5384  0.6720
 7873SOL    HW235079   2.192   2.702   7.588  0.6170  0.6534  0.7580
 7874SOL     OW35080   0.836   2.565   7.941  0.1910 -0.3609  0.3246
 7874SOL    HW135081   0.743   2.565   7.962  0.2132  2.2470  0.3321
 7874SOL    HW235082   0.854   2.480   7.900  1.8853 -0.4654  1.2793
 7875SOL     OW35083   2.970   1.344   9.489  1.0139 -0.4404  0.0718
 7875SOL    HW135084   2.980   1.417   9.551  2.1431  0.3767 -1.0765
 7875SOL    HW235085   3.015   1.276   9.539  1.2506 -0.0346  0.4099
 7876SOL     OW35086   0.713   0.562  17.460 -0.1436 -0.6691  0.1813
 7876SOL    HW135087   0.669   0.486  17.421 -0.3099  0.9007 -2.6638
 7876SOL    HW235088   0.657   0.639  17.449  0.1581 -0.5988 -0.8542
 7877SOL     OW35089   4.273   4.464   4.175 -0.2688  0.0762  0.1293
 7877SOL    HW135090   4.277   4.368   4.168  0.0090  0.0835  0.1664
 7877SOL    HW235091   4.289   4.481   4.267 -1.7522 -2.2461  0.8118
 7878SOL     OW35092   3.735   1.106   0.463  0.0725  0.7138 -0.1766
 7878SOL    HW135093   3.762   1.015   0.449 -0.4881  0.3052  1.4154
 7878SOL    HW235094   3.765   1.117   0.553  0.8751  0.1735 -0.3719
 7879SOL     OW35095   0.002   3.242   9.618 -0.0729  0.2036 -0.4876
 7879SOL    HW135096   4.660   3.302   9.577  0.5311  0.3965 -1.1292
 7879SOL    HW235097   4.698   3.159   9.576  1.0896 -0.5444  0.3177
 7880SOL     OW35098   3.311   4.304  17.589  0.3075  0.3849  0.2702
 7880SOL    HW135099   3.372   4.352  17.533 -1.0099  1.0580 -0.5830
 7880SOL    HW235100   3.357   4.307  17.673  1.3606  0.7062 -0.3194
 7881SOL     OW35101   0.518   1.599   5.805 -0.5764 -0.0340 -0.0858
 7881SOL    HW135102   0.492   1.651   5.729  0.3423 -0.7473 -0.9006
 7881SOL    HW235103   0.573   1.659   5.855 -1.2199 -0.4704  1.1481
 7882SOL     OW35104   2.325   0.083   2.110  0.3545 -0.2681  0.4491
 7882SOL    HW135105   2.344   0.177   2.113 -0.0220 -0.1737 -0.2584
 7882SOL    HW235106   2.390   0.053   2.174  0.9963 -0.9151 -0.5013
 7883SOL     OW35107   2.845   1.886   7.081  0.2098 -0.0748  0.2375
 7883SOL    HW135108   2.914   1.940   7.120  1.5054 -1.5636 -0.0007
 7883SOL    HW235109   2.818   1.836   7.158  0.7699  1.7572  1.6232
 7884SOL     OW35110   3.041   3.625   5.588 -0.2215 -0.1299 -0.9444
 7884SOL    HW135111   3.044   3.574   5.507  2.2672 -0.8943 -0.3942
 7884SOL    HW235112   2.988   3.699   5.560  0.9089  1.4980  1.1998
 7885SOL     OW35113   2.808   0.432   9.623  0.4554  0.1381 -0.3573
 7885SOL    HW135114   2.819   0.385   9.540 -2.4586  1.2455 -1.3954
 7885SOL    HW235115   2.873   0.388   9.677  0.6427  1.5219  0.5448
 7886SOL     OW35116   0.020   2.316   1.925 -0.2394  0.7968 -0.5206
 7886SOL    HW135117   0.069   2.397   1.939  2.8672 -0.8265 -1.8944
 7886SOL    HW235118   4.686   2.321   2.003 -0.0579 -1.4384 -0.2509
 7887SOL     OW35119   3.766   2.292   5.111 -0.5147 -0.0636 -0.6391
 7887SOL    HW135120   3.840   2.352   5.120  0.2997 -0.9294 -1.7028
 7887SOL    HW235121   3.702   2.352   5.073  0.2763  0.3045 -1.3935
 7888SOL     OW35122   0.314   4.057   8.160 -0.3612  0.0584  0.9070
 7888SOL    HW135123   0.282   3.975   8.198  0.1897 -0.2867  0.6246
 7888SOL    HW235124   0.282   4.130   8.214 -4.5701 -1.9806  1.1782
 7889SOL     OW35125   4.094   1.467   2.399 -0.5559  0.2205 -0.4745
 7889SOL    HW135126   4.096   1.415   2.318  1.4012  0.1215 -0.3659
 7889SOL    HW235127   4.001   1.490   2.404 -1.0386 -1.6356 -0.5665
 7890SOL     OW35128   2.045   3.904   7.849  0.2910  0.7923  0.5559
 7890SOL    HW135129   2.016   3.855   7.926  1.7195 -1.8210 -0.5822
 7890SOL    HW235130   2.055   3.830   7.789  1.1904  0.4782  1.0879
 7891SOL     OW35131   2.565   0.418   9.425 -0.3615  0.2718 -0.1050
 7891SOL    HW135132   2.651   0.375   9.424 -1.2309 -1.5127  1.3547
 7891SOL    HW235133   2.524   0.352   9.481 -1.6438  1.3221  0.1857
 7892SOL     OW35134   2.039   4.372   6.278 -0.3972 -0.4152  0.1023
 7892SOL    HW135135   2.026   4.449   6.224 -3.0523  1.6607  3.6824
 7892SOL    HW235136   2.092   4.407   6.350  1.1698 -2.2324 -0.1888
 7893SOL     OW35137   3.206   1.604  11.283  0.0865 -0.1628  0.7104
 7893SOL    HW135138   3.174   1.688  11.250  0.2378  0.7592  2.9528
 7893SOL    HW235139   3.255   1.632  11.360  3.4744  1.0046 -1.8938
 7894SOL     OW35140   2.705   2.359  14.388  0.0163  0.5935 -0.5445
 7894SOL    HW135141   2.652   2.343  14.466  2.5722  1.1793  1.3259
 7894SOL    HW235142   2.648   2.423  14.345 -0.7474  0.9321  0.9609
 7895SOL     OW35143   1.231   0.672   6.072 -0.4364  0.7472  0.3691
 7895SOL    HW135144   1.138   0.671   6.050  0.1544 -0.7375 -2.1300
 7895SOL    HW235145   1.244   0.735   6.001  0.8701  0.1509  0.0868
 7896SOL     OW35146   1.816   2.260   2.461  0.4657 -0.5041  0.8475
 7896SOL    HW135147   1.783   2.325   2.399 -0.8329  0.3455  2.4331
 7896SOL    HW235148   1.910   2.271   2.445  0.5464 -1.8102  0.4071
 7897SOL     OW35149   3.334   4.426   3.558  0.4231 -0.4653 -0.2091
 7897SOL    HW135150   3.358   4.446   3.468  0.2149  0.6782 -0.0059
 7897SOL    HW235151   3.370   4.339   3.577 -1.0154 -0.6081  1.7910
 7898SOL     OW35152   4.409   3.754  15.625  0.6037  0.2838 -0.1076
 7898SOL    HW135153   4.436   3.736  15.716 -0.7224  0.6628  0.3548
 7898SOL    HW235154   4.320   3.788  15.630  1.0217  1.1223  1.7648
 7899SOL     OW35155   1.534   2.154   6.447  0.0649 -0.7504  0.4381
 7899SOL    HW135156   1.458   2.190   6.402 -0.8532 -1.5630  1.3622
 7899SOL    HW235157   1.572   2.092   6.384  0.0216 -0.7162  0.3782
 7900SOL     OW35158   1.858   4.599   7.881 -0.3273 -0.2248  0.2906
 7900SOL    HW135159   1.852   4.663   7.810 -0.6829 -0.5679  0.0124
 7900SOL    HW235160   1.880   4.517   7.837 -0.4031  0.0307 -0.2325
 7901SOL     OW35161   4.692   2.540   7.680 -0.1740  0.0815  0.5084
 7901SOL    HW135162   0.001   2.474   7.618  1.6897  0.6630  0.7715
 7901SOL    HW235163   4.598   2.523   7.679 -0.2588  0.4769  1.9964
 7902SOL     OW35164   0.399   0.709  13.923  0.1913  0.3864 -1.1641
 7902SOL    HW135165   0.322   0.745  13.878 -0.2198  2.6683  1.4412
 7902SOL    HW235166   0.357   0.637  13.971  0.1286  1.5533  0.5186
 7903SOL     OW35167   0.714   0.623   2.224 -0.1749  0.1106 -0.4444
 7903SOL    HW135168   0.787   0.587   2.273 -0.5564 -1.9275 -1.3881
 7903SOL    HW235169   0.763   0.688   2.173  0.3373 -0.9044 -1.2364
 7904SOL     OW35170   1.708   4.178   5.131 -0.7239 -0.0661 -0.3411
 7904SOL    HW135171   1.754   4.095   5.147 -0.5111 -0.4841 -3.0702
 7904SOL    HW235172   1.668   4.189   5.217  0.1706 -2.1732  0.3449
 7905SOL     OW35173   2.764   0.243   1.542 -0.1576  0.4854 -0.1891
 7905SOL    HW135174   2.844   0.256   1.593  0.4843 -0.5896 -0.9432
 7905SOL    HW235175   2.782   0.285   1.458  0.0830 -0.4627 -0.6048
 7906SOL     OW35176   2.736   2.844  10.288 -0.3110  0.3678  0.5093
 7906SOL    HW135177   2.807   2.780  10.289  0.1474  0.7957 -2.7556
 7906SOL    HW235178   2.664   2.782  10.275  1.6018 -1.3699 -1.6859
 7907SOL     OW35179   0.967   2.731   6.179  0.5978 -0.1777  0.4650
 7907SOL    HW135180   0.981   2.760   6.269  1.0333  1.3987 -0.1025
 7907SOL    HW235181   0.951   2.637   6.188  1.5222 -0.5720 -2.1983
 7908SOL     OW35182   3.118   3.974   9.099 -0.4636  0.1672  0.0625
 7908SOL    HW135183   3.069   4.056   9.103 -0.1485  0.2484  2.3964
 7908SOL    HW235184   3.117   3.952   9.006 -1.5923 -0.5883  0.2505
 7909SOL     OW35185   0.336   2.958   8.802 -0.2120  0.6717 -0.0003
 7909SOL    HW135186   0.349   2.890   8.736 -0.3356 -1.0744  1.7700
 7909SOL    HW235187   0.427   2.964   8.830  0.2798  2.0130 -1.9103
 7910SOL     OW35188   2.235   3.270  15.123 -0.1568 -0.0758  0.1199
 7910SOL    HW135189   2.192   3.294  15.041 -2.2426  2.6151  2.0167
 7910SOL    HW235190   2.294   3.344  15.129 -1.6279  1.0718  0.4528
 7911SOL     OW35191   0.198   0.855   4.187  0.3061 -0.5945  0.3811
 7911SOL    HW135192   0.188   0.941   4.146 -0.1681  0.5073  2.8086
 7911SOL    HW235193   0.234   0.872   4.274  0.5814 -2.2154  0.5910
 7912SOL     OW35194   1.417   1.936   1.130 -0.4141 -0.0766 -0.2689
 7912SOL    HW135195   1.431   1.846   1.161 -1.6479 -1.0999 -2.7195
 7912SOL    HW235196   1.439   1.984   1.210  0.3944 -1.7217  0.5065
 7913SOL     OW35197   2.553   4.168  14.730 -0.5971  0.2908 -0.1389
 7913SOL    HW135198   2.482   4.117  14.690 -1.5796  1.3660  0.2206
 7913SOL    HW235199   2.620   4.101  14.744 -0.1726  0.4517 -1.3604
 7914SOL     OW35200   4.375   3.881   6.113 -0.4288 -0.4063 -0.7006
 7914SOL    HW135201   4.448   3.854   6.169 -0.8351  1.7059  0.8381
 7914SOL    HW235202   4.363   3.970   6.146 -1.6672 -1.1641  0.9385
 7915SOL     OW35203   1.468   2.771   3.817 -0.2735 -0.9986  0.1858
 7915SOL    HW135204   1.469   2.789   3.723 -0.1341  0.4921  0.4596
 7915SOL    HW235205   1.535   2.833   3.846  0.1179 -0.4094 -1.9902
 7916SOL     OW35206   4.329   1.270  15.900  0.3620  0.0037 -0.2713
 7916SOL    HW135207   4.249   1.251  15.947  0.6596 -0.1191  0.1859
 7916SOL    HW235208   4.308   1.357  15.864 -0.9624 -0.8060 -1.4182
 7917SOL     OW35209   1.818   4.632   0.446  0.4856  0.6474  0.2172
 7917SOL    HW135210   1.723   4.648   0.449  0.4968  0.9367 -1.3087
 7917SOL    HW235211   1.843   4.681   0.368 -1.7868  1.4909  0.0093
 7918SOL     OW35212   4.404   2.980  11.709  0.5801  0.4794  0.0567
 7918SOL    HW135213   4.490   2.988  11.668  0.5907 -2.7221 -0.5905
 7918SOL    HW235214   4.402   3.064  11.754  0.6133  0.5045  0.0116
 7919SOL     OW35215   2.709   3.067  12.261 -0.0246 -0.2301 -0.6030
 7919SOL    HW135216   2.804   3.069  12.249 -0.1205 -4.1674 -1.8420
 7919SOL    HW235217   2.689   3.161  12.265 -0.7901 -0.4980  2.1052
 7920SOL     OW35218   0.319   1.398   8.278 -0.1880 -0.7813 -0.2794
 7920SOL    HW135219   0.402   1.371   8.241  1.0789  0.9625  1.2851
 7920SOL    HW235220   0.335   1.492   8.267  0.6392 -0.7872  0.8648
 7921SOL     OW35221   2.749   3.775   7.768  0.3618 -0.3611  0.0451
 7921SOL    HW135222   2.842   3.754   7.781 -0.0634 -2.3144 -0.0357
 7921SOL    HW235223   2.744   3.849   7.828  1.0555  1.7585 -2.5004
 7922SOL     OW35224   4.277   4.089  15.435 -0.0270  0.1095 -0.2512
 7922SOL    HW135225   4.369   4.062  15.434 -0.2646 -0.6876 -1.6772
 7922SOL    HW235226   4.245   3.999  15.429  0.5980 -0.2053  1.0760
 7923SOL     OW35227   2.747   2.136  16.218  0.4937  0.3685 -0.5943
 7923SOL    HW135228   2.760   2.214  16.272 -0.8454  0.0155  0.2397
 7923SOL    HW235229   2.719   2.072  16.284  3.7935 -2.9288 -2.3472
 7924SOL     OW35230   0.822   0.139   3.090 -0.2808  0.1804  0.3518
 7924SOL    HW135231   0.739   0.185   3.077  0.0091  1.0534  1.5162
 7924SOL    HW235232   0.867   0.182   3.017  1.3641 -1.8938  0.1599
 7925SOL     OW35233   3.715   0.470   7.465  0.4548 -0.0529  0.7166
 7925SOL    HW135234   3.712   0.553   7.513  1.4888  1.5265 -1.9759
 7925SOL    HW235235   3.621   0.462   7.455  0.6730  0.1200 -1.5537
 7926SOL     OW35236   0.212   3.080   2.212 -0.3390  0.0073  0.2111
 7926SOL    HW135237   0.198   2.987   2.195  0.6228  0.1737 -1.4206
 7926SOL    HW235238   0.196   3.120   2.127 -2.1089 -1.5910 -0.2007
 7927SOL     OW35239   3.458   0.716   0.148  0.0384 -0.5700 -0.4170
 7927SOL    HW135240   3.454   0.629   0.189  0.4817 -0.1204  0.5911
 7927SOL    HW235241   3.432   0.691   0.060 -0.7685  1.0716 -0.6312
 7928SOL     OW35242   0.866   2.740  14.388  0.0352 -0.1732 -0.2358
 7928SOL    HW135243   0.902   2.813  14.337  0.0701 -0.4496 -0.6136
 7928SOL    HW235244   0.850   2.784  14.471  0.6128 -1.8821  0.7755
 7929SOL     OW35245   0.042   1.400   6.405  0.1935 -0.6578 -0.1261
 7929SOL    HW135246   0.027   1.387   6.311 -1.0875  2.4145 -0.3437
 7929SOL    HW235247   0.094   1.320   6.412  3.0737  1.3995  1.5126
 7930SOL     OW35248   3.231   3.921   8.850  0.2943  0.1796 -0.6668
 7930SOL    HW135249   3.257   3.837   8.887 -1.2018  0.6592  1.5143
 7930SOL    HW235250   3.267   3.923   8.762  0.9461 -1.1595 -0.4399
 7931SOL     OW35251   1.520   4.587  10.086 -0.1308  0.3807 -0.2389
 7931SOL    HW135252   1.565   4.669  10.063  0.1179  0.1298 -0.6399
 7931SOL    HW235253   1.595   4.527  10.089 -0.8542 -0.4414  1.1621
 7932SOL     OW35254   2.815   1.927  15.329 -0.1187 -0.4242 -0.0665
 7932SOL    HW135255   2.870   1.948  15.404 -0.1788 -0.4275 -0.0218
 7932SOL    HW235256   2.786   2.016  15.309  0.2946 -0.1811  0.4313
 7933SOL     OW35257   1.624   4.674  15.849  0.0361 -0.3916 -0.1676
 7933SOL    HW135258   1.617   4.641  15.760 -1.8855 -0.1059 -0.1079
 7933SOL    HW235259   1.719   4.685  15.860 -0.2066  2.1157 -0.8240
 7934SOL     OW35260   3.438   1.966   7.552 -0.2982 -0.0016  0.2778
 7934SOL    HW135261   3.504   1.984   7.484 -0.6414 -1.9081 -0.5590
 7934SOL    HW235262   3.363   1.929   7.506 -1.1232  1.0052  0.8367
 7935SOL     OW35263   4.715   2.244   3.400 -0.1016 -0.0836  0.0468
 7935SOL    HW135264   0.013   2.193   3.322 -1.9512 -0.7141  0.0397
 7935SOL    HW235265   0.070   2.303   3.402 -0.9759  1.0282  0.1096
 7936SOL     OW35266   3.539   0.145   9.073  0.1202  0.6216 -0.0198
 7936SOL    HW135267   3.564   0.210   9.140  1.2358 -0.8811  1.0160
 7936SOL    HW235268   3.525   0.192   8.991  1.7929  0.1238 -0.5920
 7937SOL     OW35269   4.278   4.381   1.568  0.9854  0.0263 -0.0181
 7937SOL    HW135270   4.267   4.433   1.647 -0.0878 -1.7183  1.0033
 7937SOL    HW235271   4.337   4.314   1.602 -1.1363 -1.4359  0.8079
 7938SOL     OW35272   3.434   2.228  17.378  0.5575 -0.4533 -0.0217
 7938SOL    HW135273   3.396   2.252  17.462  1.2911 -1.1432  0.5028
 7938SOL    HW235274   3.429   2.304  17.320  1.3334 -1.0772 -0.9030
 7939SOL     OW35275   0.560   1.553  10.102  0.4579  0.1686  0.7871
 7939SOL    HW135276   0.517   1.484  10.152 -0.9220  0.2489 -0.2737
 7939SOL    HW235277   0.579   1.504  10.022  2.1405  1.4350  0.4088
 7940SOL     OW35278   2.396   2.356   4.364  0.2422 -0.6948 -0.1982
 7940SOL    HW135279   2.403   2.402   4.447 -3.5473 -1.1802  0.3604
 7940SOL    HW235280   2.362   2.272   4.394 -1.6011  0.5546  1.2268
 7941SOL     OW35281   2.599   0.837   5.166 -0.2764 -0.2031  0.7809
 7941SOL    HW135282   2.535   0.883   5.112 -0.2626 -0.4752  0.5353
 7941SOL    HW235283   2.571   0.747   5.152 -0.0640 -0.0721 -0.4073
 7942SOL     OW35284   0.672   0.327   7.731  0.2044  0.4512 -0.2007
 7942SOL    HW135285   0.658   0.317   7.637 -1.4650  2.2797 -0.1434
 7942SOL    HW235286   0.585   0.319   7.770  1.0287  2.2543  2.0067
 7943SOL     OW35287   1.686   4.574   0.881  0.5163  0.1790  0.6116
 7943SOL    HW135288   1.693   4.594   0.975  0.8646 -1.9824  1.0643
 7943SOL    HW235289   1.649   4.656   0.849 -0.0958 -1.2150 -2.2465
 7944SOL     OW35290   3.674   1.241   4.918  0.4379  0.5416  0.1927
 7944SOL    HW135291   3.644   1.212   5.004 -1.0383  0.6304 -0.2946
 7944SOL    HW235292   3.627   1.173   4.870 -0.6766  0.7406  1.0256
 7945SOL     OW35293   4.083   2.728   5.015  0.0013 -0.4571  0.0244
 7945SOL    HW135294   4.149   2.771   5.069  1.4596 -0.9005 -1.3912
 7945SOL    HW235295   3.999   2.773   5.030  0.1796 -0.3827  0.8104
 7946SOL     OW35296   4.247   4.001   7.446  0.3000 -0.5371  0.0230
 7946SOL    HW135297   4.188   4.031   7.515  1.2048  2.0381 -0.3108
 7946SOL    HW235298   4.186   4.008   7.373 -0.9645 -1.5153  0.9803
 7947SOL     OW35299   2.052   3.957  16.819  0.3116 -0.2869 -0.1120
 7947SOL    HW135300   2.119   4.021  16.843 -0.9810  0.7920  0.6394
 7947SOL    HW235301   2.030   3.984  16.730 -1.2295 -0.9120  0.0921
 7948SOL     OW35302   1.085   1.346   7.690 -0.7708  0.3351  0.4589
 7948SOL    HW135303   1.115   1.261   7.723 -0.5610 -0.3905 -1.6369
 7948SOL    HW235304   1.148   1.371   7.623  0.1581 -0.6824  0.9509
 7949SOL     OW35305   1.934   3.331  16.327 -0.2052  0.0070  0.4234
 7949SOL    HW135306   1.865   3.314  16.262 -1.0156  0.3523  1.2014
 7949SOL    HW235307   2.018   3.317  16.282 -0.4569 -0.5208  0.1185
 7950SOL     OW35308   2.222   2.114   4.440  0.4256 -0.0256 -0.0368
 7950SOL    HW135309   2.150   2.091   4.381 -0.3582  1.2447  0.4111
 7950SOL    HW235310   2.206   2.060   4.517  0.7753 -0.3813 -0.2132
 7951SOL     OW35311   3.932   3.299   7.487  0.1109 -0.3806 -0.0936
 7951SOL    HW135312   3.883   3.302   7.568  0.1712  1.0556 -0.1189
 7951SOL    HW235313   4.009   3.353   7.506  0.6574 -0.6179 -1.5805
 7952SOL     OW35314   0.202   3.212   1.948 -0.0074 -0.0721  0.3840
 7952SOL    HW135315   0.116   3.174   1.931 -0.1630  0.5339 -0.1643
 7952SOL    HW235316   0.248   3.165   1.878 -2.3780 -1.5462 -0.1992
 7953SOL     OW35317   0.678   1.362   2.742  0.8532 -0.2691 -0.7542
 7953SOL    HW135318   0.590   1.345   2.709 -0.1505 -0.8752  2.2186
 7953SOL    HW235319   0.693   1.307   2.819  1.2877 -1.6671 -1.8455
 7954SOL     OW35320   1.533   3.086   5.333 -0.4202 -0.7020  0.4258
 7954SOL    HW135321   1.584   3.120   5.406 -1.8247  0.3382  0.9331
 7954SOL    HW235322   1.454   3.141   5.337 -0.1157 -0.1887 -0.6710
 7955SOL     OW35323   0.076   3.703   8.519 -0.6045 -0.1351 -0.4976
 7955SOL    HW135324   0.035   3.678   8.436  0.2348 -1.3810 -0.5303
 7955SOL    HW235325   0.106   3.793   8.502  1.9275 -0.4305  2.4813
 7956SOL     OW35326   2.888   2.192   5.125 -0.3216  0.0984  0.0775
 7956SOL    HW135327   2.844   2.142   5.056 -0.6179  1.3457 -0.6388
 7956SOL    HW235328   2.821   2.261   5.129 -1.1976 -0.7163 -0.4922
 7957SOL     OW35329   1.786   0.986   6.476  0.5194 -0.1279 -0.3711
 7957SOL    HW135330   1.745   0.901   6.495 -0.2070  0.3684  0.3339
 7957SOL    HW235331   1.875   0.957   6.458  0.2435 -0.9305 -0.4582
 7958SOL     OW35332   1.451   0.229  14.659  0.3733  0.0772 -0.0344
 7958SOL    HW135333   1.373   0.271  14.696 -0.3296  0.2074 -1.6665
 7958SOL    HW235334   1.518   0.284  14.700  0.7653 -0.8112  0.5128
 7959SOL     OW35335   0.646   2.919  11.627  0.1900  0.2723  0.0830
 7959SOL    HW135336   0.602   2.848  11.579  0.5793  1.5135 -2.1092
 7959SOL    HW235337   0.724   2.875  11.662 -0.2312 -1.1536 -0.7574
 7960SOL     OW35338   0.794   4.661   1.752  0.3390 -0.6442  0.2357
 7960SOL    HW135339   0.875   4.636   1.796  1.2339  0.3975 -0.8189
 7960SOL    HW235340   0.740   4.583   1.740  1.5756 -1.4220 -0.2470
 7961SOL     OW35341   3.745   1.996  15.460 -0.3000  0.5631 -0.6633
 7961SOL    HW135342   3.665   2.042  15.483 -0.2154 -0.8178  2.3968
 7961SOL    HW235343   3.793   2.071  15.425 -0.8738  0.2807 -2.0550
 7962SOL     OW35344   0.510   3.276   9.280 -0.5024 -0.4572 -0.4312
 7962SOL    HW135345   0.592   3.263   9.326 -0.7061 -2.1132 -0.5098
 7962SOL    HW235346   0.448   3.257   9.351 -2.0272  0.3565 -1.5370
 7963SOL     OW35347   1.125   2.962   3.384 -0.5850  0.1263  0.2907
 7963SOL    HW135348   1.075   3.033   3.345 -0.3328 -1.1140 -2.3055
 7963SOL    HW235349   1.128   3.003   3.471  0.7884 -1.1176  0.8449
 7964SOL     OW35350   3.493   0.696   3.602  0.6019  0.9460 -0.1865
 7964SOL    HW135351   3.418   0.752   3.620 -0.2470 -0.8483  1.8622
 7964SOL    HW235352   3.525   0.674   3.690 -1.1848  0.4332  0.3319
 7965SOL     OW35353   2.629   1.193   2.622  0.3102  0.5651  0.1990
 7965SOL    HW135354   2.686   1.202   2.545 -0.3753  1.0488 -0.2559
 7965SOL    HW235355   2.682   1.246   2.680  0.0168 -0.0676  1.0442
 7966SOL     OW35356   4.432   3.512   4.759 -0.9144 -0.4568 -0.2355
 7966SOL    HW135357   4.408   3.421   4.742  1.7524 -1.3797  0.9156
 7966SOL    HW235358   4.452   3.531   4.667  1.6790 -2.5534 -0.1137
 7967SOL     OW35359   2.014   3.080   5.404 -0.0470 -0.7866  0.2588
 7967SOL    HW135360   1.990   3.086   5.312  1.0200  0.2499  0.0542
 7967SOL    HW235361   1.927   3.101   5.439 -0.6541 -0.4815 -1.4400
 7968SOL     OW35362   0.050   3.342   1.752  0.0795  0.2371  0.4911
 7968SOL    HW135363   0.106   3.264   1.750 -0.5825 -0.2452  0.8906
 7968SOL    HW235364   0.070   3.390   1.832  1.3137  0.5684 -0.0044
 7969SOL     OW35365   3.191   0.976   1.328 -0.0205 -0.0510  0.6583
 7969SOL    HW135366   3.115   0.918   1.319 -0.2677  0.5045 -0.7871
 7969SOL    HW235367   3.253   0.926   1.381  0.3930  1.3190  1.4562
 7970SOL     OW35368   1.634   0.579  10.619  0.3423  0.0514 -0.1912
 7970SOL    HW135369   1.723   0.601  10.590 -0.0410  0.5307 -1.0087
 7970SOL    HW235370   1.655   0.534  10.701  1.9006  1.0361 -0.0439
 7971SOL     OW35371   3.951   2.136   8.253  0.0582 -0.5036  0.2502
 7971SOL    HW135372   3.870   2.165   8.211 -0.1158 -0.3570  0.6829
 7971SOL    HW235373   3.942   2.041   8.258  1.3326 -0.6564 -0.2320
 7972SOL     OW35374   0.863   2.914   7.390 -0.1764 -0.2404  0.1974
 7972SOL    HW135375   0.949   2.942   7.360 -1.2683  2.1001 -0.7509
 7972SOL    HW235376   0.816   2.997   7.396 -1.5881 -1.0812  0.7250
 7973SOL     OW35377   0.523   4.053   5.883 -0.1838  0.1313  0.3923
 7973SOL    HW135378   0.504   4.123   5.946 -0.7240 -0.2177  0.6160
 7973SOL    HW235379   0.496   3.972   5.927  0.3646 -0.3589 -0.1740
 7974SOL     OW35380   3.002   2.887   4.990 -1.0386  0.0908 -0.0356
 7974SOL    HW135381   2.924   2.882   5.045 -0.5568 -0.5201  0.5913
 7974SOL    HW235382   3.031   2.977   5.005 -0.1097 -0.3811  1.0330
 7975SOL     OW35383   2.365   2.997   7.673  0.0272 -0.6863  0.3714
 7975SOL    HW135384   2.376   2.902   7.675 -1.3419 -0.8640 -0.6429
 7975SOL    HW235385   2.411   3.032   7.749  1.3272 -0.5230 -0.5035
 7976SOL     OW35386   2.141   4.339   1.110 -0.5775  0.4571  0.1698
 7976SOL    HW135387   2.113   4.335   1.019  2.8589  1.4473 -0.9299
 7976SOL    HW235388   2.102   4.264   1.155 -1.2159  1.1741  0.8085
 7977SOL     OW35389   0.245   1.489   4.192  0.7822 -0.3734 -0.3930
 7977SOL    HW135390   0.189   1.467   4.266 -0.4675  0.2231 -1.1466
 7977SOL    HW235391   0.199   1.438   4.125 -1.0836  1.7686 -0.7874
 7978SOL     OW35392   3.168   4.346   1.147  0.1298 -0.8064 -0.3069
 7978SOL    HW135393   3.105   4.291   1.100  0.6687  0.0989 -2.0624
 7978SOL    HW235394   3.125   4.359   1.232  0.9622  0.0981 -0.0231
 7979SOL     OW35395   2.793   1.312   3.519  0.2959 -0.2367 -0.0890
 7979SOL    HW135396   2.833   1.394   3.489  0.2891  0.3617  1.5411
 7979SOL    HW235397   2.778   1.351   3.605 -1.1261 -1.8593  0.4068
 7980SOL     OW35398   4.060   3.847   1.181  0.5281  0.1707 -0.3876
 7980SOL    HW135399   4.123   3.900   1.231  1.5853 -1.7398  0.2939
 7980SOL    HW235400   4.098   3.868   1.096  4.2520  0.2040  1.2824
 7981SOL     OW35401   1.539   2.881   3.581 -0.8658  0.1959  0.5872
 7981SOL    HW135402   1.520   2.963   3.628 -0.2053  1.2601 -0.9923
 7981SOL    HW235403   1.572   2.911   3.497 -0.8064  0.7182  0.7950
 7982SOL     OW35404   1.192   2.590   7.382  0.0656 -0.6334  0.5145
 7982SOL    HW135405   1.213   2.514   7.327 -0.8311 -0.1891 -0.4357
 7982SOL    HW235406   1.097   2.590   7.393  0.2661 -1.4634  2.3708
 7983SOL     OW35407   2.627   2.145   1.364  0.3618 -0.0069  0.4700
 7983SOL    HW135408   2.546   2.097   1.378  0.2578  0.5075  1.7042
 7983SOL    HW235409   2.589   2.219   1.317  0.4383  0.8525  1.7470
 7984SOL     OW35410   3.686   1.995   2.736  0.1485  0.4988  0.0316
 7984SOL    HW135411   3.699   1.981   2.829 -1.5985  1.0566  0.3671
 7984SOL    HW235412   3.764   1.948   2.707 -0.7248 -0.5922 -0.5781
 7985SOL     OW35413   3.083   3.683  15.967 -0.1221 -0.4063  0.6013
 7985SOL    HW135414   2.999   3.723  15.945 -1.0119 -2.3782  0.3813
 7985SOL    HW235415   3.065   3.599  16.009 -1.9982 -0.6523 -0.6835
 7986SOL     OW35416   0.032   4.503   0.175 -0.2621  0.4265 -0.1009
 7986SOL    HW135417   0.019   4.582   0.228  1.7642  0.7772 -0.1272
 7986SOL    HW235418   0.069   4.434   0.230 -0.6684  0.7402  0.5761
 7987SOL     OW35419   0.643   0.999  10.350 -0.2479  0.0980 -0.1757
 7987SOL    HW135420   0.626   1.002  10.444 -2.1710  1.4777 -0.5658
 7987SOL    HW235421   0.614   0.909  10.330 -0.5128 -0.0461  0.8766
 7988SOL     OW35422   1.420   3.627  17.452  0.5790  0.4032 -0.4646
 7988SOL    HW135423   1.430   3.666  17.366 -1.4775  0.9783 -0.4407
 7988SOL    HW235424   1.483   3.680  17.501  1.2434  0.3542 -1.2649
 7989SOL     OW35425   0.979   4.429   4.146  0.1469  0.0750  0.0320
 7989SOL    HW135426   0.963   4.513   4.189  1.9163  0.7242 -0.5926
 7989SOL    HW235427   0.896   4.412   4.102  0.3326  2.0491 -1.0736
 7990SOL     OW35428   3.479   4.488   3.339  0.1526 -0.5964 -0.1563
 7990SOL    HW135429   3.486   4.491   3.243  1.3485 -0.1196 -0.0431
 7990SOL    HW235430   3.541   4.556   3.364  0.2142 -0.7436  0.0899
 7991SOL     OW35431   4.227   0.045   1.588  0.4677 -0.0773  0.0072
 7991SOL    HW135432   4.313   0.018   1.618  0.5942  1.5913  1.1089
 7991SOL    HW235433   4.248   0.070   1.498  1.7310 -0.8337  0.1007
 7992SOL     OW35434   4.208   1.121   1.789 -0.2315  0.1726 -0.1589
 7992SOL    HW135435   4.192   1.046   1.732 -1.8071  1.4036 -1.3610
 7992SOL    HW235436   4.205   1.074   1.872  0.5087 -1.1035 -0.8531
 7993SOL     OW35437   3.667   2.484   2.803 -0.0036  0.3350  0.3809
 7993SOL    HW135438   3.697   2.423   2.736 -0.9635 -1.2148  1.3459
 7993SOL    HW235439   3.579   2.450   2.818 -0.2467  1.3199  1.1304
 7994SOL     OW35440   3.078   0.896   0.361  0.5748 -0.5959 -0.1871
 7994SOL    HW135441   2.984   0.892   0.343  0.4231  0.1661  0.4612
 7994SOL    HW235442   3.114   0.869   0.277 -0.5512 -1.4132 -0.4069
 7995SOL     OW35443   3.694   1.198  16.810  0.4384  0.1783  0.3954
 7995SOL    HW135444   3.775   1.177  16.856  1.3467  2.4916 -0.1681
 7995SOL    HW235445   3.635   1.209  16.884 -0.5079 -0.2278 -0.3028
 7996SOL     OW35446   3.550   3.900   3.432 -0.0439 -0.1877  0.7202
 7996SOL    HW135447   3.644   3.881   3.439  0.2006  0.0186 -2.0305
 7996SOL    HW235448   3.560   3.991   3.460 -4.5777  1.3151 -2.5752
 7997SOL     OW35449   1.122   4.672  11.678 -0.6565 -0.6229 -0.1287
 7997SOL    HW135450   1.070   4.715  11.747 -2.1276  0.9398 -2.2056
 7997SOL    HW235451   1.052   4.675  11.612 -0.1980 -0.2555 -0.5962
 7998SOL     OW35452   1.901   1.384  15.364  0.2291  0.1195  0.0214
 7998SOL    HW135453   1.927   1.296  15.338  2.8853  0.3385  1.9520
 7998SOL    HW235454   1.839   1.404  15.293  1.2511  2.0249 -0.3459
 7999SOL     OW35455   0.149   1.765   2.144 -0.4294  0.0487  0.4422
 7999SOL    HW135456   0.238   1.794   2.122 -0.7578 -0.1778 -1.1468
 7999SOL    HW235457   0.120   1.832   2.206  0.3003 -0.3247  1.1948
 8000SOL     OW35458   4.412   2.346   2.347  0.5274 -0.2816  0.1527
 8000SOL    HW135459   4.444   2.434   2.368 -0.3170 -0.7600  3.5153
 8000SOL    HW235460   4.320   2.335   2.371  0.1463  4.0073  0.6027
 8001SOL     OW35461   0.948   1.167   4.862 -0.3343  0.3332 -0.1195
 8001SOL    HW135462   0.952   1.220   4.783  1.7898 -0.8164 -0.7842
 8001SOL    HW235463   0.871   1.199   4.908  0.5381  0.3389  1.3563
 8002SOL     OW35464   1.652   2.723   6.105 -0.5988 -0.5065  0.2041
 8002SOL    HW135465   1.734   2.733   6.056  0.0800  0.0505  1.4608
 8002SOL    HW235466   1.684   2.756   6.189  0.2964 -0.6780 -0.0714
 8003SOL     OW35467   0.884   0.433  15.081  0.5221  1.0200  0.4361
 8003SOL    HW135468   0.930   0.512  15.055 -1.6199  1.6432 -1.5116
 8003SOL    HW235469   0.795   0.463  15.104  0.3900  1.4141 -0.5952
 8004SOL     OW35470   1.806   4.694   7.608  0.6479 -0.0197 -0.0422
 8004SOL    HW135471   1.775   4.631   7.543 -1.6927  0.7636  0.3042
 8004SOL    HW235472   1.814   0.059   7.567  0.1068 -1.7205 -3.7286
 8005SOL     OW35473   4.629   4.530  10.485  0.5437  0.2200  0.2848
 8005SOL    HW135474   4.709   4.580  10.470  2.0693 -1.7211  1.9450
 8005SOL    HW235475   4.576   4.556  10.409 -2.2770  1.8460  2.8116
 8006SOL     OW35476   4.469   3.020   8.197  0.0225 -0.1130  0.9830
 8006SOL    HW135477   4.454   2.929   8.221 -2.9823 -0.2689 -1.4744
 8006SOL    HW235478   4.559   3.006   8.168  0.1728 -0.4884  1.6329
 8007SOL     OW35479   3.071   0.581   6.151  0.3746 -0.1380 -0.9083
 8007SOL    HW135480   3.116   0.530   6.218 -0.4119  2.2504  1.4363
 8007SOL    HW235481   3.005   0.518   6.122 -1.4863 -0.0994  3.2619
 8008SOL     OW35482   0.155   2.919  12.943 -0.1171 -0.7550 -0.1768
 8008SOL    HW135483   0.085   2.961  12.892 -0.3137  1.4815  1.9563
 8008SOL    HW235484   0.207   2.998  12.958  0.1120 -0.7023 -1.2184
 8009SOL     OW35485   0.499   3.791   2.994  0.0341 -0.3203 -0.3784
 8009SOL    HW135486   0.470   3.723   2.933 -1.1486 -0.0008 -0.1748
 8009SOL    HW235487   0.424   3.788   3.054  0.2461 -0.7832 -0.1411
 8010SOL     OW35488   1.875   1.724   4.203 -0.4107 -0.0212 -0.1068
 8010SOL    HW135489   1.934   1.671   4.149 -0.7623 -1.1668  0.6368
 8010SOL    HW235490   1.830   1.783   4.143  1.8491  0.1119 -1.6773
 8011SOL     OW35491   0.352   0.247   2.811 -0.3657 -0.1154 -0.4415
 8011SOL    HW135492   0.311   0.161   2.824 -0.1389 -0.3982 -1.5732
 8011SOL    HW235493   0.441   0.215   2.795  0.7259  3.2982 -1.1150
 8012SOL     OW35494   0.633   4.141   5.178 -0.3534 -0.1669 -0.5132
 8012SOL    HW135495   0.645   4.046   5.182 -0.9786 -0.2507 -0.5755
 8012SOL    HW235496   0.548   4.149   5.220  0.3197  1.8152  0.4447
 8013SOL     OW35497   1.852   3.925   3.372 -0.0941 -0.1474  0.1614
 8013SOL    HW135498   1.785   3.922   3.441  0.7055  0.3813  0.9679
 8013SOL    HW235499   1.828   3.844   3.328 -1.6757  0.4134 -0.0413
 8014SOL     OW35500   3.355   3.014   7.655  0.3085  0.1103  0.0504
 8014SOL    HW135501   3.272   3.047   7.622 -0.1509  0.2768  1.3754
 8014SOL    HW235502   3.352   3.054   7.742 -0.0494  0.3950 -0.0904
 8015SOL     OW35503   2.713   1.359   9.538 -0.1087 -0.4810 -0.1877
 8015SOL    HW135504   2.697   1.294   9.606 -4.3603  0.4071 -0.3418
 8015SOL    HW235505   2.804   1.336   9.516  0.2445  2.8357 -2.2494
 8016SOL     OW35506   4.007   1.416  13.212  0.7232  0.7204  0.0032
 8016SOL    HW135507   3.981   1.417  13.304  0.9079  2.8974  0.0155
 8016SOL    HW235508   3.960   1.341  13.175 -0.6006  1.2492  0.6228
 8017SOL     OW35509   3.394   0.791  12.935 -0.0278  0.2418  0.4161
 8017SOL    HW135510   3.341   0.870  12.937 -0.7283 -0.2108 -0.0855
 8017SOL    HW235511   3.354   0.741  13.006  0.6290  0.2374  0.7814
 8018SOL     OW35512   2.636   1.046   2.054 -0.3444  0.3415 -0.4387
 8018SOL    HW135513   2.724   1.032   2.020 -0.7569 -0.8537 -0.9796
 8018SOL    HW235514   2.648   1.133   2.093  0.9564 -0.0900  0.1430
 8019SOL     OW35515   4.454   3.098   7.035 -0.1509 -0.0912 -0.4160
 8019SOL    HW135516   4.499   3.182   7.036  4.2525 -2.4279 -2.4727
 8019SOL    HW235517   4.521   3.042   6.998 -0.2938 -0.6469  0.1682
 8020SOL     OW35518   0.512   3.499  13.643 -0.3247  0.0673  0.1254
 8020SOL    HW135519   0.448   3.428  13.656 -0.9021  0.6381  0.4112
 8020SOL    HW235520   0.503   3.543  13.727 -1.0834  0.8554 -0.3701
 8021SOL     OW35521   3.923   0.561   6.065  0.6087  0.3208  0.1627
 8021SOL    HW135522   3.918   0.596   6.154 -0.2268 -2.3632  1.1443
 8021SOL    HW235523   3.996   0.611   6.028 -1.2591  3.2150  0.4032
 8022SOL     OW35524   3.301   1.328   3.109  0.0005  0.1618 -0.4500
 8022SOL    HW135525   3.323   1.400   3.051  1.6432 -0.5416 -0.7227
 8022SOL    HW235526   3.206   1.341   3.114  0.2093  1.6294 -0.3419
 8023SOL     OW35527   2.838   0.912   5.532 -0.1966 -0.0723  0.1673
 8023SOL    HW135528   2.755   0.876   5.501 -0.3367  1.1837 -0.8942
 8023SOL    HW235529   2.851   0.991   5.480  2.2002  0.1370  1.0835
 8024SOL     OW35530   0.631   2.170  15.568 -0.0100 -0.1147  0.5328
 8024SOL    HW135531   0.681   2.246  15.539  0.6122 -0.8067 -0.2152
 8024SOL    HW235532   0.649   2.173  15.662 -0.7014  1.2004  0.6209
 8025SOL     OW35533   2.865   1.606  12.567  0.2112 -0.3521 -0.5594
 8025SOL    HW135534   2.827   1.588  12.654 -1.2184  0.0763 -1.0839
 8025SOL    HW235535   2.936   1.543  12.561  0.0330 -0.5553 -0.5543
 8026SOL     OW35536   0.819   2.387   5.463 -0.1601  0.3302 -0.0277
 8026SOL    HW135537   0.822   2.427   5.376  3.6516  1.1222  0.4682
 8026SOL    HW235538   0.910   2.362   5.475  0.2174  2.0937  0.7555
 8027SOL     OW35539   2.891   4.155   8.287 -0.9354 -0.0120 -0.0222
 8027SOL    HW135540   2.824   4.221   8.271  1.4290  2.1949 -0.8488
 8027SOL    HW235541   2.967   4.207   8.261 -2.0442  0.2151 -2.8956
 8028SOL     OW35542   3.062   4.035   1.267  0.1324 -0.1422  0.2546
 8028SOL    HW135543   3.052   4.098   1.195  0.9843  0.5908  0.7620
 8028SOL    HW235544   2.977   4.019   1.307  0.2987 -1.2664  0.1577
 8029SOL     OW35545   1.271   2.705   3.424  0.1937 -0.0039  0.1492
 8029SOL    HW135546   1.310   2.694   3.337 -0.5528 -0.1470 -0.1691
 8029SOL    HW235547   1.270   2.800   3.435 -1.4460 -0.1434  1.1509
 8030SOL     OW35548   3.551   2.376   4.114  0.3024 -0.1375  0.1848
 8030SOL    HW135549   3.607   2.316   4.064  0.7196 -0.3420  0.8988
 8030SOL    HW235550   3.620   2.437   4.140  1.2857 -1.7754  1.4221
 8031SOL     OW35551   2.549   2.938   7.325 -0.5521  0.2587  0.2039
 8031SOL    HW135552   2.633   2.924   7.368 -0.4372 -1.3261 -0.5239
 8031SOL    HW235553   2.556   2.862   7.268  0.5023  0.2200  0.3954
 8032SOL     OW35554   0.694   2.404   6.491  0.0705  0.0761  0.5361
 8032SOL    HW135555   0.748   2.451   6.554  0.8799 -0.9918  0.6262
 8032SOL    HW235556   0.658   2.485   6.454 -1.6966 -0.3442  1.3317
 8033SOL     OW35557   2.136   3.865   1.797  0.2912 -0.5179 -0.5004
 8033SOL    HW135558   2.153   3.952   1.761 -2.6645  0.1028 -0.3684
 8033SOL    HW235559   2.082   3.878   1.875  1.3507  6.5421 -0.9587
 8034SOL     OW35560   0.593   2.559   3.804  0.3093  0.3408  0.1820
 8034SOL    HW135561   0.606   2.520   3.891  0.1745 -0.2217 -0.0470
 8034SOL    HW235562   0.507   2.598   3.821 -0.7472 -1.5594 -0.8040
 8035SOL     OW35563   2.319   1.536  11.453 -0.2268 -0.3386 -0.1265
 8035SOL    HW135564   2.276   1.598  11.395  0.8078 -0.9495 -1.5337
 8035SOL    HW235565   2.264   1.458  11.446 -0.4205 -0.1574 -0.5800
 8036SOL     OW35566   1.476   1.088   5.407 -0.2173 -0.2257  0.3392
 8036SOL    HW135567   1.539   1.122   5.471 -1.3194  1.6466  0.4350
 8036SOL    HW235568   1.509   1.114   5.321  0.3974 -0.7366  0.4198
 8037SOL     OW35569   0.988   2.441  11.737  0.2221 -0.4763 -0.4397
 8037SOL    HW135570   1.000   2.486  11.820  2.0724  0.0878 -1.0197
 8037SOL    HW235571   1.070   2.461  11.692 -0.6758  0.9596 -1.4477
 8038SOL     OW35572   3.429   4.467   4.966 -0.2131 -0.3107 -0.0019
 8038SOL    HW135573   3.338   4.442   4.953 -0.1880  0.0315 -0.8544
 8038SOL    HW235574   3.473   4.382   4.961 -0.2145 -0.4046  1.5380
 8039SOL     OW35575   0.998   0.140  13.266  0.2632 -0.0640  0.4822
 8039SOL    HW135576   1.008   0.197  13.342  2.0380 -0.7927  0.7884
 8039SOL    HW235577   0.977   0.195  13.191  0.3957 -0.0381  0.4649
 8040SOL     OW35578   0.447   3.148  13.599  0.1703 -0.0609 -0.1606
 8040SOL    HW135579   0.520   3.162  13.659 -1.7225 -1.1902  2.4161
 8040SOL    HW235580   0.475   3.072  13.548 -0.3125 -0.8677  0.7746
 8041SOL     OW35581   1.411   0.704   7.515 -0.4062 -0.3632  0.1071
 8041SOL    HW135582   1.379   0.748   7.436  1.5741 -1.5181 -1.3240
 8041SOL    HW235583   1.358   0.750   7.580 -2.4597 -1.0937 -1.0294
 8042SOL     OW35584   2.051   2.486   5.811  0.4130  0.0897 -0.2620
 8042SOL    HW135585   2.035   2.520   5.723 -0.3808  1.8771  0.5626
 8042SOL    HW235586   2.128   2.538   5.833  0.8070 -1.9086  2.9839
 8043SOL     OW35587   1.129   3.427   2.419 -0.3688  0.7399  0.4192
 8043SOL    HW135588   1.190   3.501   2.423 -0.3054  0.7001  0.1775
 8043SOL    HW235589   1.108   3.417   2.326  1.8442 -2.9634  0.3315
 8044SOL     OW35590   2.376   3.814   0.855  0.0203  0.0787 -0.1425
 8044SOL    HW135591   2.295   3.792   0.810 -0.1262  3.2784 -1.3853
 8044SOL    HW235592   2.377   3.907   0.835 -1.6255  0.1528  0.1220
 8045SOL     OW35593   2.575   0.743   4.693 -0.1408  0.3007 -0.0391
 8045SOL    HW135594   2.594   0.682   4.764  1.3417 -0.4355 -1.0697
 8045SOL    HW235595   2.655   0.794   4.688  0.1812 -0.1261  0.6744
 8046SOL     OW35596   4.487   4.441   3.744  0.0195  0.1906 -0.3045
 8046SOL    HW135597   4.442   4.391   3.677 -1.9225  0.7899  0.5579
 8046SOL    HW235598   4.488   4.385   3.822 -1.1676  0.6928  0.0788
 8047SOL     OW35599   3.756   0.970  15.465 -0.1351  0.1647  0.6581
 8047SOL    HW135600   3.673   0.923  15.466  1.1413 -2.0945 -0.5691
 8047SOL    HW235601   3.758   0.977  15.370 -0.1585  0.9195  0.7158
 8048SOL     OW35602   1.982   1.723   3.734  0.7012  0.6981  0.0075
 8048SOL    HW135603   2.001   1.802   3.684  1.9215  0.2023 -0.2989
 8048SOL    HW235604   1.994   1.657   3.666 -2.1705 -1.1183  1.2803
 8049SOL     OW35605   2.900   4.363   7.494 -0.1968 -0.1383 -0.1834
 8049SOL    HW135606   2.904   4.438   7.434  1.7298  0.4410  0.6661
 8049SOL    HW235607   2.949   4.292   7.452  1.8971  0.8394  0.6042
 8050SOL     OW35608   3.051   2.810   4.071  0.0622 -0.1502 -0.7993
 8050SOL    HW135609   3.019   2.728   4.109 -0.0694 -0.0248 -0.6413
 8050SOL    HW235610   2.999   2.821   3.991 -0.3724 -0.4723 -0.5608
 8051SOL     OW35611   2.892   1.627   3.964  0.3961  0.1993 -0.2614
 8051SOL    HW135612   2.800   1.650   3.977  0.2425  0.5092 -1.9885
 8051SOL    HW235613   2.878   1.539   3.929  0.7005  0.0232  0.0627
 8052SOL     OW35614   2.271   2.097   5.409 -0.2838  0.0737  0.3397
 8052SOL    HW135615   2.295   2.005   5.402 -0.6085  0.0457 -0.3513
 8052SOL    HW235616   2.323   2.112   5.488 -1.3987 -1.2307  1.3116
 8053SOL     OW35617   0.296   2.657   5.984 -0.2986  0.1085 -0.1977
 8053SOL    HW135618   0.366   2.713   6.018 -0.5666  0.2833  0.0618
 8053SOL    HW235619   0.342   2.595   5.927 -1.6804 -3.3417  2.4126
 8054SOL     OW35620   2.185   0.074   9.824  0.3641  0.0927 -0.0569
 8054SOL    HW135621   2.186   0.058   9.729 -0.1245  3.6639 -0.6516
 8054SOL    HW235622   2.256   0.015   9.850  0.3311 -0.1811 -0.5876
 8055SOL     OW35623   4.005   2.193   4.519  1.0060  0.0996  0.3207
 8055SOL    HW135624   4.054   2.124   4.564 -0.5555 -1.4216 -0.3146
 8055SOL    HW235625   4.060   2.271   4.530 -1.3020  1.9428 -1.2211
 8056SOL     OW35626   3.893   1.172   1.691  0.4316  0.2044  0.3936
 8056SOL    HW135627   3.937   1.087   1.698 -0.9660 -0.3978  1.9688
 8056SOL    HW235628   3.842   1.170   1.610  1.0350 -0.0631  0.0200
 8057SOL     OW35629   3.290   0.479   5.810 -0.3208 -0.0109 -0.8198
 8057SOL    HW135630   3.340   0.514   5.737  1.9788  2.6851  2.0959
 8057SOL    HW235631   3.203   0.509   5.782 -1.2865  0.0212  2.1488
 8058SOL     OW35632   2.266   3.742   9.078  0.4511 -0.4732 -0.2161
 8058SOL    HW135633   2.208   3.669   9.055 -0.8125  0.7346 -0.8762
 8058SOL    HW235634   2.330   3.705   9.139  0.1605  0.7693  0.8184
 8059SOL     OW35635   0.821   3.507   4.987  0.3429 -0.1593 -0.1563
 8059SOL    HW135636   0.779   3.569   4.928 -1.2496  1.0794  2.2810
 8059SOL    HW235637   0.810   3.566   5.061  0.4240 -0.1496 -0.1530
 8060SOL     OW35638   1.674   4.002  13.028 -0.2610 -0.1600  0.3071
 8060SOL    HW135639   1.711   3.922  12.990  0.3953  1.6752 -2.8848
 8060SOL    HW235640   1.707   4.002  13.119 -3.8699 -0.5234  1.6112
 8061SOL     OW35641   3.241   1.350   5.373 -0.0506 -0.8973 -0.1862
 8061SOL    HW135642   3.265   1.438   5.401  2.8515 -0.9776 -2.5010
 8061SOL    HW235643   3.230   1.379   5.282 -1.3879 -2.8171 -0.6592
 8062SOL     OW35644   3.828   1.127  15.682 -0.4609  0.2619 -0.3103
 8062SOL    HW135645   3.905   1.071  15.693 -0.3512  0.7004  1.1484
 8062SOL    HW235646   3.781   1.071  15.621 -1.1716 -0.3505  0.7936
 8063SOL     OW35647   3.505   4.431   2.207 -0.1744 -0.3949 -0.1132
 8063SOL    HW135648   3.486   4.391   2.122  1.1287 -0.2490 -0.4651
 8063SOL    HW235649   3.599   4.435   2.220 -0.2442 -1.6721  0.8352
 8064SOL     OW35650   1.544   4.419  14.306 -0.2289  0.5730  0.7562
 8064SOL    HW135651   1.541   4.513  14.287 -0.1852  0.3789 -0.2113
 8064SOL    HW235652   1.451   4.401  14.294  0.0942 -0.0121 -0.8791
 8065SOL     OW35653   1.312   3.384  17.364 -0.2101 -0.1671 -0.2601
 8065SOL    HW135654   1.358   3.462  17.395  0.0630 -0.9128  1.1986
 8065SOL    HW235655   1.269   3.345  17.440  0.8957  0.8619  0.8848
 8066SOL     OW35656   2.828   0.973   0.346  0.1000 -0.1572  0.2854
 8066SOL    HW135657   2.828   1.006   0.256  2.3478  0.8210  0.6674
 8066SOL    HW235658   2.873   1.038   0.399 -0.8062 -0.4341  1.3999
 8067SOL     OW35659   3.434   2.031  16.813  0.0877  0.1882 -0.3784
 8067SOL    HW135660   3.388   1.989  16.886  0.3465  3.6360  1.7605
 8067SOL    HW235661   3.454   1.958  16.754 -0.2256 -0.9606  0.9345
 8068SOL     OW35662   2.438   1.914   7.941 -0.1914 -0.8432  0.2665
 8068SOL    HW135663   2.491   1.852   7.992  1.0359  0.1460  0.1914
 8068SOL    HW235664   2.470   1.893   7.853 -0.2420 -2.0933  0.5370
 8069SOL     OW35665   1.623   3.102   2.571  0.8460 -0.2933  0.5327
 8069SOL    HW135666   1.545   3.093   2.516  1.1291 -3.2213  0.5844
 8069SOL    HW235667   1.600   3.169   2.634 -1.3337  2.2064 -2.8772
 8070SOL     OW35668   1.361   1.898   5.004 -0.1257  0.0396 -0.1183
 8070SOL    HW135669   1.448   1.932   5.025  0.8248 -0.0844 -3.8621
 8070SOL    HW235670   1.357   1.806   5.028  0.7868  0.1242  0.3547
 8071SOL     OW35671   2.194   0.791   5.528 -0.4600  0.1853  0.0270
 8071SOL    HW135672   2.165   0.782   5.438  0.1591  0.7841 -0.2367
 8071SOL    HW235673   2.209   0.886   5.531  3.1035 -0.3602  0.3248
 8072SOL     OW35674   1.763   0.555   3.596  1.0840 -0.4477  0.8104
 8072SOL    HW135675   1.722   0.483   3.550 -0.8679  1.5597 -0.6054
 8072SOL    HW235676   1.783   0.527   3.686  1.0783 -0.7961  0.6998
 8073SOL     OW35677   0.090   4.658  14.443 -0.5277  0.1696 -0.1510
 8073SOL    HW135678   0.114   4.612  14.524 -0.9550 -0.4416 -0.3768
 8073SOL    HW235679   0.165   4.716  14.431 -0.1171 -0.0696  1.1681
 8074SOL     OW35680   2.895   1.917   6.215  0.2087  0.2281 -0.1737
 8074SOL    HW135681   2.877   1.849   6.151  0.6115 -0.0131 -0.0311
 8074SOL    HW235682   2.812   1.919   6.263  0.0126  1.2677 -0.5466
 8075SOL     OW35683   3.828   3.737  16.882  0.0985  0.2376 -0.3877
 8075SOL    HW135684   3.911   3.695  16.905 -0.2205 -0.9258 -1.3319
 8075SOL    HW235685   3.820   3.779  16.967 -1.6812  0.3348 -0.5998
 8076SOL     OW35686   0.442   1.166  14.199  0.3955  0.3547 -0.8943
 8076SOL    HW135687   0.407   1.080  14.173 -0.1034  0.5656 -0.9099
 8076SOL    HW235688   0.533   1.133  14.198  0.7765  1.2349  3.4961
 8077SOL     OW35689   3.420   4.510   2.500  0.0486 -0.0113  0.0486
 8077SOL    HW135690   3.432   4.605   2.495 -1.7828  0.2885  1.1861
 8077SOL    HW235691   3.454   4.470   2.420  0.8568  2.0825 -0.6311
 8078SOL     OW35692   1.822   1.693   3.142  0.2843 -0.4265  0.7947
 8078SOL    HW135693   1.817   1.784   3.114  0.9462 -0.2981  1.0823
 8078SOL    HW235694   1.910   1.684   3.180  1.3918 -1.3457 -1.9885
 8079SOL     OW35695   3.213   3.576   8.018 -0.0876  0.2993 -0.4415
 8079SOL    HW135696   3.300   3.611   8.000 -1.2289  2.1394 -2.2922
 8079SOL    HW235697   3.191   3.600   8.108 -0.1559  0.3996 -0.4853
 8080SOL     OW35698   0.480   0.825  12.077  0.0276 -0.7315  0.1621
 8080SOL    HW135699   0.502   0.855  11.989 -0.8559 -1.0253 -0.1507
 8080SOL    HW235700   0.563   0.839  12.122 -0.6866  1.3333  0.8645
 8081SOL     OW35701   3.610   3.313   6.494  0.0648 -0.0469  0.1577
 8081SOL    HW135702   3.625   3.296   6.401 -1.9462  0.0376 -0.1942
 8081SOL    HW235703   3.515   3.302   6.494 -0.2029  2.1350 -0.8657
 8082SOL     OW35704   0.834   4.167   3.897 -0.3025  0.8144 -0.2998
 8082SOL    HW135705   0.783   4.246   3.913 -0.2223  0.6695  0.6675
 8082SOL    HW235706   0.808   4.109   3.969 -2.3680 -0.8738 -2.4110
 8083SOL     OW35707   4.188   1.724   6.368  0.1039 -0.6039 -0.3410
 8083SOL    HW135708   4.214   1.646   6.416  0.2240  0.8514  1.9129
 8083SOL    HW235709   4.094   1.723   6.389  0.6239 -1.3504  1.8769
 8084SOL     OW35710   0.173   2.787   6.674  0.0421  0.3001 -0.0891
 8084SOL    HW135711   0.242   2.783   6.740 -0.6338  3.5514  0.7902
 8084SOL    HW235712   0.215   2.744   6.600  0.3584  0.7969 -0.1974
 8085SOL     OW35713   1.135   0.552   3.527  0.2060  0.2404  0.4056
 8085SOL    HW135714   1.110   0.570   3.436 -0.2758  1.3940  0.7811
 8085SOL    HW235715   1.231   0.550   3.520  0.0989 -1.5800 -0.7789
 8086SOL     OW35716   2.137   0.746   5.253  0.2487 -0.5166  0.2947
 8086SOL    HW135717   2.082   0.819   5.226 -1.1366 -1.3921  0.7872
 8086SOL    HW235718   2.071   0.679   5.237  0.4760 -0.5567 -0.4658
 8087SOL     OW35719   2.354   4.551   5.830  0.2293 -0.7788  0.0391
 8087SOL    HW135720   2.318   4.612   5.894 -3.1442 -2.2035 -0.4926
 8087SOL    HW235721   2.295   4.547   5.754  0.5721 -0.8560 -0.2235
 8088SOL     OW35722   1.504   0.053   4.733  0.2393 -0.3285 -0.1023
 8088SOL    HW135723   1.558   4.698   4.756 -2.9084 -3.1127 -1.8316
 8088SOL    HW235724   1.567   0.125   4.743 -0.5176  0.4191 -0.7072
 8089SOL     OW35725   0.425   3.640   8.462 -0.3180  0.2682  0.2414
 8089SOL    HW135726   0.408   3.618   8.370  1.3018  1.4752 -0.3481
 8089SOL    HW235727   0.410   3.735   8.465  0.1187  0.3286  0.4881
 8090SOL     OW35728   1.449   1.796   8.044  0.1266  0.5748  0.1177
 8090SOL    HW135729   1.410   1.710   8.062 -0.6672  0.8106 -0.4910
 8090SOL    HW235730   1.499   1.817   8.123  0.3492  0.7289 -0.0669
 8091SOL     OW35731   1.913   0.230   2.628 -0.3594  0.1749  0.1179
 8091SOL    HW135732   1.974   0.302   2.614 -0.0829 -0.2269 -0.7289
 8091SOL    HW235733   1.958   0.164   2.576 -1.7675 -0.7222  0.0289
 8092SOL     OW35734   1.844   3.637   0.597 -0.3533 -0.6300 -0.3857
 8092SOL    HW135735   1.793   3.714   0.621 -0.3043  0.1645 -2.8433
 8092SOL    HW235736   1.891   3.665   0.519 -1.2529  0.8397 -0.4043
 8093SOL     OW35737   4.659   1.994   9.569  0.2309  0.0401 -0.1941
 8093SOL    HW135738   4.700   2.049   9.636 -0.9255 -0.3192  0.8068
 8093SOL    HW235739   4.571   1.984   9.604  0.2956 -0.9449 -0.3304
 8094SOL     OW35740   3.005   3.887   5.544  0.0862  0.7916 -0.2942
 8094SOL    HW135741   3.076   3.920   5.490 -0.0463  4.9387  2.0972
 8094SOL    HW235742   2.932   3.942   5.516 -0.5080 -0.5965 -1.5074
 8095SOL     OW35743   4.590   0.052   2.828 -0.0872 -0.3850  0.4398
 8095SOL    HW135744   4.616   0.056   2.920 -0.4376  1.0929  0.4771
 8095SOL    HW235745   4.614   4.681   2.813  0.9405  0.0220 -0.3946
 8096SOL     OW35746   1.705   4.397   4.688 -0.2997 -0.5035 -0.1550
 8096SOL    HW135747   1.731   4.305   4.683 -2.9968 -1.3371  1.1871
 8096SOL    HW235748   1.770   4.429   4.626  2.0827 -0.6709  2.2451
 8097SOL     OW35749   2.732   2.315   9.210 -0.1863 -0.1108  0.0991
 8097SOL    HW135750   2.680   2.378   9.260 -2.3128 -0.8789 -1.1509
 8097SOL    HW235751   2.784   2.283   9.283  1.0293 -2.4096 -1.7867
 8098SOL     OW35752   4.173   1.107   8.233 -0.4324  0.0057 -0.3223
 8098SOL    HW135753   4.104   1.049   8.265 -0.5519  0.0807 -0.4444
 8098SOL    HW235754   4.195   1.069   8.148  0.9431 -0.5425  0.2767
 8099SOL     OW35755   0.061   0.378   5.106  0.1268 -0.2683 -0.3302
 8099SOL    HW135756   4.709   0.316   5.094 -0.6509  0.7326 -0.8778
 8099SOL    HW235757   0.009   0.458   5.097 -0.7761 -0.9116 -0.8138
 8100SOL     OW35758   3.335   3.512   6.792  0.2947  0.4297  0.2670
 8100SOL    HW135759   3.292   3.598   6.796 -0.0022  0.2762  0.4328
 8100SOL    HW235760   3.428   3.533   6.792  0.7372 -1.5508  0.9041
 8101SOL     OW35761   2.626   4.604   5.757  0.7246 -0.3337  0.5280
 8101SOL    HW135762   2.586   4.529   5.713 -0.5938  0.2961  0.6507
 8101SOL    HW235763   2.546   4.619   5.807  1.9429  1.9694  1.7535
 8102SOL     OW35764   3.930   0.349  14.763 -0.6379 -0.3139  0.0323
 8102SOL    HW135765   3.847   0.372  14.720  0.3506 -0.7811 -2.1166
 8102SOL    HW235766   3.898   0.282  14.823 -1.5672 -0.6471 -0.8198
 8103SOL     OW35767   3.957   4.190  13.161 -0.8523 -0.3306  0.5286
 8103SOL    HW135768   3.884   4.233  13.116 -0.5472  1.0916  1.4226
 8103SOL    HW235769   3.917   4.214  13.244  0.9467  1.1872  0.9313
 8104SOL     OW35770   1.094   1.864   2.784  0.3246  0.0638 -0.3064
 8104SOL    HW135771   1.141   1.813   2.718 -0.6166  0.3867 -1.2098
 8104SOL    HW235772   1.082   1.948   2.740  0.0512  0.5596  0.7105
 8105SOL     OW35773   3.258   3.751   6.938 -0.1992 -0.1209 -0.7302
 8105SOL    HW135774   3.296   3.698   7.008  0.8524  0.4110 -0.8973
 8105SOL    HW235775   3.271   3.840   6.970 -0.6350  0.1819 -1.4034
 8106SOL     OW35776   3.356   4.175  12.888  0.0537 -0.2214 -0.2607
 8106SOL    HW135777   3.353   4.106  12.955  0.4296 -0.4726 -0.5053
 8106SOL    HW235778   3.366   4.121  12.810 -3.9917  0.1685 -1.0496
 8107SOL     OW35779   4.718   3.365  15.745 -0.3719  0.1028  0.6126
 8107SOL    HW135780   4.653   3.374  15.814  1.3140 -0.5664  2.2970
 8107SOL    HW235781   0.062   3.425  15.781  0.5145 -0.3508 -0.2270
 8108SOL     OW35782   1.438   1.067   4.662 -0.2102  0.3457  0.1425
 8108SOL    HW135783   1.515   1.123   4.649 -0.6189  1.3214  1.9333
 8108SOL    HW235784   1.424   1.046   4.754 -0.2315 -0.7129 -0.1057
 8109SOL     OW35785   2.768   0.592   7.152 -0.5523  0.3177 -0.5669
 8109SOL    HW135786   2.779   0.676   7.197  0.0513 -0.5369  0.9011
 8109SOL    HW235787   2.688   0.569   7.198 -0.6194 -2.2173 -1.9583
 8110SOL     OW35788   0.581   1.481  13.065  0.1308  0.1530 -0.1434
 8110SOL    HW135789   0.516   1.429  13.113  0.1749  0.5242  0.3215
 8110SOL    HW235790   0.659   1.473  13.120 -1.8225 -0.7660  2.4748
 8111SOL     OW35791   0.004   3.124   3.568 -0.4702  0.2854  0.5874
 8111SOL    HW135792   0.069   3.186   3.535 -0.0359 -2.6507 -4.0909
 8111SOL    HW235793   4.653   3.151   3.510 -1.7060  1.6109  2.7142
 8112SOL     OW35794   1.826   3.279  16.651  0.3177 -0.8570  0.4705
 8112SOL    HW135795   1.796   3.189  16.636  0.5687 -1.0117  0.8999
 8112SOL    HW235796   1.842   3.277  16.746 -1.1585 -3.9504  0.6575
 8113SOL     OW35797   2.745   3.539   1.717  0.5303  0.2013 -0.8701
 8113SOL    HW135798   2.677   3.587   1.766  1.0868 -0.1865  0.2942
 8113SOL    HW235799   2.707   3.454   1.737  0.8787  0.0337 -0.9301
 8114SOL     OW35800   1.012   2.052   1.894 -0.1709  0.0334 -0.0208
 8114SOL    HW135801   0.934   2.104   1.873 -1.6281 -2.5798 -1.1018
 8114SOL    HW235802   1.024   2.010   1.809  4.1555  2.7380 -0.7648
 8115SOL     OW35803   1.092   2.630   7.085 -0.2486 -0.0133 -0.3261
 8115SOL    HW135804   1.074   2.648   7.177 -2.1462 -0.7598 -0.5502
 8115SOL    HW235805   1.011   2.653   7.040 -1.6592 -2.5680  0.8717
 8116SOL     OW35806   4.028   4.606   4.220 -0.3414 -0.0062  0.2666
 8116SOL    HW135807   3.957   4.567   4.169  0.4302 -0.6671 -0.3110
 8116SOL    HW235808   4.104   4.569   4.175 -1.1472 -0.1812 -0.9462
 8117SOL     OW35809   1.741   3.895   0.519  0.0455 -0.5539  0.1217
 8117SOL    HW135810   1.812   3.870   0.460  0.9221 -1.2491  1.4731
 8117SOL    HW235811   1.670   3.916   0.458  0.0201  1.5730  0.8848
 8118SOL     OW35812   3.975   1.711   5.191  0.0736  0.0084  0.4769
 8118SOL    HW135813   3.998   1.708   5.284  1.8972  0.5132  0.0526
 8118SOL    HW235814   3.969   1.806   5.179 -2.0400 -0.4049 -1.6219
 8119SOL     OW35815   3.320   0.139   7.671  0.5910  0.4600  0.3227
 8119SOL    HW135816   3.243   0.194   7.660 -0.3151 -1.3133 -2.2042
 8119SOL    HW235817   3.365   0.196   7.733  0.2726  1.5279 -0.4112
 8120SOL     OW35818   2.404   3.698   2.297  0.2101  0.1852  0.1155
 8120SOL    HW135819   2.400   3.609   2.264 -3.0356  0.4281 -0.1112
 8120SOL    HW235820   2.367   3.743   2.222 -2.1976 -0.9604  0.6138
 8121SOL     OW35821   3.722   2.736   2.668  0.1248 -0.4249 -0.8312
 8121SOL    HW135822   3.751   2.811   2.721 -1.3499 -0.4867  0.0643
 8121SOL    HW235823   3.679   2.687   2.738  0.6348 -1.3198 -1.1333
 8122SOL     OW35824   1.439   0.694   1.489  0.9755 -0.0235 -0.2902
 8122SOL    HW135825   1.352   0.713   1.524  1.9723  0.4049  1.9685
 8122SOL    HW235826   1.486   0.715   1.570 -0.8140  3.8561 -0.2450
 8123SOL     OW35827   4.141   3.433   5.683  0.5830  0.1086 -0.0705
 8123SOL    HW135828   4.096   3.436   5.598  0.8739 -1.7625 -0.2988
 8123SOL    HW235829   4.071   3.451   5.745 -1.1108 -0.1833 -1.9001
 8124SOL     OW35830   0.860   3.409   5.394 -0.0609  0.2824  0.0875
 8124SOL    HW135831   0.841   3.342   5.328  0.2359  0.9799 -0.7158
 8124SOL    HW235832   0.815   3.476   5.342  0.7727 -0.1951 -1.2546
 8125SOL     OW35833   2.106   2.817   5.816  0.4449 -0.2785  0.5236
 8125SOL    HW135834   2.192   2.777   5.830  0.6812  0.5843  1.5451
 8125SOL    HW235835   2.105   2.817   5.721  1.4092  1.9829  0.5010
 8126SOL     OW35836   1.522   4.352   7.267 -0.0375 -0.6712  0.5996
 8126SOL    HW135837   1.427   4.350   7.258  0.1727 -4.1175 -0.7610
 8126SOL    HW235838   1.547   4.400   7.188 -0.7484 -0.9385  0.2187
 8127SOL     OW35839   1.748   2.466   1.895 -0.0591 -0.4666  0.2108
 8127SOL    HW135840   1.835   2.431   1.879  0.0761 -0.1444  0.2448
 8127SOL    HW235841   1.735   2.452   1.989 -1.1939 -0.4801  0.0611
 8128SOL     OW35842   4.440   4.273   4.006  0.3697  0.3737  0.4888
 8128SOL    HW135843   4.385   4.235   4.074 -1.1892  3.4212  0.9492
 8128SOL    HW235844   4.526   4.233   4.022 -1.1471 -1.5970  3.7505
 8129SOL     OW35845   1.404   3.211  13.710 -0.7454  0.3578 -0.1987
 8129SOL    HW135846   1.314   3.185  13.695 -0.1642 -0.3292 -2.5446
 8129SOL    HW235847   1.460   3.138  13.681  0.1916  1.0065 -0.0328
 8130SOL     OW35848   0.217   2.784   2.188  0.2881  0.1168  0.3200
 8130SOL    HW135849   0.154   2.790   2.117 -0.5542 -1.6258  0.9050
 8130SOL    HW235850   0.277   2.722   2.147 -1.5163 -0.7176 -1.0858
 8131SOL     OW35851   2.890   4.592   5.682  0.2109  0.1629  0.0435
 8131SOL    HW135852   2.799   4.583   5.712 -0.3207 -0.5519 -1.7863
 8131SOL    HW235853   2.895   4.686   5.662 -0.5673 -0.0010 -0.9516
 8132SOL     OW35854   1.780   3.523   7.029  0.6453 -0.1569  0.9553
 8132SOL    HW135855   1.770   3.456   7.096 -0.5841 -1.0956 -0.1795
 8132SOL    HW235856   1.859   3.488   6.987  0.1764  0.6573 -0.5847
 8133SOL     OW35857   3.746   2.611   0.089 -0.1135  0.0528  0.3745
 8133SOL    HW135858   3.745   2.583  17.682 -1.3287 -1.0830  0.7338
 8133SOL    HW235859   3.834   2.648   0.097  0.2054 -0.9802  1.5865
 8134SOL     OW35860   4.449   3.863   3.387 -0.7381 -0.4661 -0.2210
 8134SOL    HW135861   4.431   3.914   3.309 -0.5432  0.3658  0.2730
 8134SOL    HW235862   4.541   3.851   3.363 -0.5641 -0.1097  0.2726
 8135SOL     OW35863   0.820   2.725   1.685 -0.4685  0.0670  0.1065
 8135SOL    HW135864   0.913   2.741   1.703 -0.3392 -0.2846 -0.2350
 8135SOL    HW235865   0.817   2.757   1.595 -0.6462 -0.1735  0.0285
 8136SOL     OW35866   1.102   3.801  13.943 -0.0676 -0.6920  0.0141
 8136SOL    HW135867   1.019   3.847  13.933 -1.4587 -3.4252 -1.1371
 8136SOL    HW235868   1.165   3.841  13.884 -1.3016  0.7945 -0.2905
 8137SOL     OW35869   2.890   0.195   8.459 -0.1819  0.0993 -0.1006
 8137SOL    HW135870   2.907   0.168   8.369 -0.6507  0.1788 -0.2152
 8137SOL    HW235871   2.810   0.148   8.481 -2.0201  2.1250 -2.4138
 8138SOL     OW35872   1.277   1.441   9.161 -0.8210  0.1723 -0.0693
 8138SOL    HW135873   1.329   1.361   9.169 -0.6616  0.2176 -0.6156
 8138SOL    HW235874   1.199   1.418   9.110 -0.8615 -1.5218  0.7811
 8139SOL     OW35875   2.120   3.879   6.944 -0.3425  0.1406  0.8678
 8139SOL    HW135876   2.159   3.829   6.872 -1.0067 -0.9709  1.2876
 8139SOL    HW235877   2.028   3.891   6.919  0.5002  1.0927 -1.8852
 8140SOL     OW35878   4.038   1.409   6.618 -0.3267 -0.4609 -0.4383
 8140SOL    HW135879   3.959   1.448   6.655  1.2726  1.4381  0.9078
 8140SOL    HW235880   4.006   1.409   6.528  2.3376  0.9426 -1.3918
 8141SOL     OW35881   0.867   1.525   7.586  0.2600 -0.6521 -0.0850
 8141SOL    HW135882   0.948   1.473   7.583  0.3352 -0.4727 -1.2207
 8141SOL    HW235883   0.824   1.490   7.664  0.5830 -1.4755 -0.2714
 8142SOL     OW35884   0.910   3.020  13.905  0.2954 -0.2103  0.1270
 8142SOL    HW135885   0.984   3.053  13.956 -0.8432  0.9993  1.0138
 8142SOL    HW235886   0.944   2.934  13.882 -0.1513 -0.1133 -0.8738
 8143SOL     OW35887   1.117   2.071   9.406  0.0355  0.5459  0.3542
 8143SOL    HW135888   1.208   2.086   9.378  0.1416 -1.4088 -0.3357
 8143SOL    HW235889   1.138   1.981   9.432 -0.2572  0.7251  1.2017
 8144SOL     OW35890   0.132   2.892   2.579 -0.0663  0.3482  0.6713
 8144SOL    HW135891   0.064   2.960   2.576 -0.4999 -0.1594 -1.6451
 8144SOL    HW235892   0.132   2.867   2.671  0.2421  0.1270  0.6084
 8145SOL     OW35893   1.333   1.009   2.439  0.1614 -0.3894 -0.0312
 8145SOL    HW135894   1.324   1.079   2.374  1.9797 -1.9168 -1.8833
 8145SOL    HW235895   1.422   0.982   2.420 -0.9880 -2.8093 -2.0239
 8146SOL     OW35896   2.110   4.651   7.562 -0.2091 -0.2007 -0.2811
 8146SOL    HW135897   2.062   4.689   7.636 -0.4653  0.6512 -0.8703
 8146SOL    HW235898   2.174   4.594   7.605 -0.8074  0.7022  1.8078
 8147SOL     OW35899   3.557   1.967   6.339 -0.2461 -0.2304 -0.0249
 8147SOL    HW135900   3.581   1.988   6.430 -1.3355  1.5513 -0.1322
 8147SOL    HW235901   3.604   2.032   6.286 -1.1538 -1.0755 -1.8521
 8148SOL     OW35902   4.572   4.667  10.020 -0.2582 -0.2239  0.0626
 8148SOL    HW135903   4.504   4.614  10.062  1.0745 -2.7127 -0.8961
 8148SOL    HW235904   4.521   0.026  10.007  1.4775  0.4688 -2.3603
 8149SOL     OW35905   4.120   1.028   2.217 -0.0767  0.0075 -0.2907
 8149SOL    HW135906   4.090   1.118   2.210  1.0329  0.3223 -1.1325
 8149SOL    HW235907   4.152   1.033   2.307  0.8071 -0.0681 -0.5940
 8150SOL     OW35908   0.656   4.393   6.868  0.3082 -0.3234  0.4820
 8150SOL    HW135909   0.715   4.375   6.942  1.5042 -0.1790 -0.4291
 8150SOL    HW235910   0.723   4.376   6.801 -1.4195  2.0566 -1.8490
 8151SOL     OW35911   1.132   0.608   6.924 -0.4047  0.0184  0.8676
 8151SOL    HW135912   1.214   0.627   6.971  0.8143  0.7854 -1.5630
 8151SOL    HW235913   1.116   0.517   6.949 -1.7867  0.7422  2.5916
 8152SOL     OW35914   1.434   0.308   5.757 -0.0171 -0.0687 -0.4394
 8152SOL    HW135915   1.520   0.275   5.783  0.0459  1.3339  1.1660
 8152SOL    HW235916   1.464   0.392   5.721 -0.5355 -0.0311 -0.7726
 8153SOL     OW35917   0.113   3.959   6.859 -0.1012  0.7504  0.4420
 8153SOL    HW135918   0.192   3.955   6.911  0.1564  2.0813  0.1547
 8153SOL    HW235919   0.156   3.977   6.775  0.4672 -3.2556 -0.1430
 8154SOL     OW35920   4.035   4.278   1.936  0.0392  0.2401  0.7835
 8154SOL    HW135921   4.074   4.234   1.860 -3.2252 -0.6442 -0.3634
 8154SOL    HW235922   3.998   4.203   1.981 -2.3173  1.5423  0.9871
 8155SOL     OW35923   0.499   0.682   6.066  0.0695 -0.2259  0.5081
 8155SOL    HW135924   0.438   0.671   5.993  1.6531 -2.7678 -0.4498
 8155SOL    HW235925   0.446   0.648   6.138 -0.5211  0.9293  0.6146
 8156SOL     OW35926   3.594   2.528  12.318 -0.4792  0.0001  0.4798
 8156SOL    HW135927   3.547   2.583  12.256  1.2353  0.0898 -0.7183
 8156SOL    HW235928   3.631   2.591  12.381 -1.6831  0.5154  0.6758
 8157SOL     OW35929   2.189   0.475  10.153  0.0252  0.1388  0.0953
 8157SOL    HW135930   2.184   0.527  10.073 -1.0325 -1.3296 -0.8025
 8157SOL    HW235931   2.275   0.433  10.148 -1.0592 -2.3463  2.0299
 8158SOL     OW35932   3.354   3.289   1.979  0.1394 -0.2606  0.1275
 8158SOL    HW135933   3.368   3.246   1.895 -0.5946  0.3872 -0.3193
 8158SOL    HW235934   3.261   3.306   1.961  0.2614  0.3543  0.0896
 8159SOL     OW35935   0.472   4.414  17.023 -0.2273  0.8759 -0.1747
 8159SOL    HW135936   0.558   4.440  16.991  0.9478 -2.2928  0.4638
 8159SOL    HW235937   0.449   4.489  17.078 -3.4763  0.4816 -1.0223
 8160SOL     OW35938   4.466   1.825   1.951 -0.0202  0.0672 -0.6089
 8160SOL    HW135939   4.529   1.891   1.982  0.2111 -1.0960  1.4184
 8160SOL    HW235940   4.391   1.882   1.936 -0.6408 -0.5449  0.1985
 8161SOL     OW35941   4.256   1.708   7.698  0.3204  0.1856 -0.1880
 8161SOL    HW135942   4.231   1.794   7.664  0.8211  0.5214  0.2841
 8161SOL    HW235943   4.327   1.691   7.636 -0.2778 -0.9470 -0.5658
 8162SOL     OW35944   2.975   0.731  15.203  0.1791 -0.1407 -0.8681
 8162SOL    HW135945   2.960   0.653  15.256 -0.8947 -0.2025 -1.2557
 8162SOL    HW235946   3.019   0.694  15.126 -0.3271 -0.4177 -1.0218
 8163SOL     OW35947   0.464   3.354   4.811 -0.1958  0.2535 -0.7033
 8163SOL    HW135948   0.442   3.339   4.719  0.6742  0.1128 -0.8883
 8163SOL    HW235949   0.510   3.276   4.843 -1.8528 -0.1419  0.7043
 8164SOL     OW35950   4.171   3.061   1.208  0.0040  0.2482  0.3026
 8164SOL    HW135951   4.162   3.148   1.169 -0.0552  0.5797  1.0451
 8164SOL    HW235952   4.220   3.091   1.285 -0.1801 -0.0420  0.5336
 8165SOL     OW35953   2.363   1.822   5.431  0.1641  0.0056  0.1878
 8165SOL    HW135954   2.421   1.841   5.505  0.8334 -2.4151  0.3002
 8165SOL    HW235955   2.414   1.750   5.394 -1.9731 -1.1197 -0.5844
 8166SOL     OW35956   0.034   0.185   0.516  0.2251  0.4239 -0.3356
 8166SOL    HW135957   0.011   0.101   0.556  0.8539 -0.6856 -2.3337
 8166SOL    HW235958   0.032   0.155   0.425  0.4699  1.8508 -0.8154
 8167SOL     OW35959   1.537   2.079   0.909  0.6216  0.2764  0.4669
 8167SOL    HW135960   1.611   2.129   0.942  0.2308  3.5305 -3.6819
 8167SOL    HW235961   1.515   2.024   0.985  0.9145 -2.6615 -1.5683
 8168SOL     OW35962   1.665   0.987   9.338 -0.5858  0.1298  0.1961
 8168SOL    HW135963   1.669   1.013   9.246  1.6130  0.0388  0.2585
 8168SOL    HW235964   1.571   0.995   9.352 -0.3508 -0.7882  2.3714
 8169SOL     OW35965   4.280   2.400   3.928 -0.0833  0.6769 -0.0306
 8169SOL    HW135966   4.306   2.330   3.869 -0.8835 -0.7757  1.3554
 8169SOL    HW235967   4.254   2.472   3.869  2.9670  1.2168 -0.6987
 8170SOL     OW35968   3.205   3.634   9.896 -0.6459 -0.5460 -0.2667
 8170SOL    HW135969   3.137   3.699   9.880 -1.2157 -0.5952  1.9030
 8170SOL    HW235970   3.165   3.576   9.961 -0.0266 -0.7734 -0.0845
 8171SOL     OW35971   2.566   2.479   5.812  0.2263  0.0437 -0.4073
 8171SOL    HW135972   2.656   2.510   5.809  0.3219 -0.0344  1.2709
 8171SOL    HW235973   2.585   2.404   5.868  1.0864 -0.7183 -1.7417
 8172SOL     OW35974   2.618   1.609   3.385  0.1430  0.1206  0.5880
 8172SOL    HW135975   2.590   1.661   3.461  0.1109  0.8451  0.0820
 8172SOL    HW235976   2.704   1.586   3.422 -0.0311  1.6609  1.9650
 8173SOL     OW35977   0.804   3.365  11.197  0.0953 -0.0390 -0.5706
 8173SOL    HW135978   0.875   3.327  11.249 -2.4124  0.2414  3.0398
 8173SOL    HW235979   0.824   3.316  11.117  0.0459  0.3411 -0.8167
 8174SOL     OW35980   3.695   4.179   0.432 -0.3560  0.3758 -1.1515
 8174SOL    HW135981   3.626   4.223   0.482  0.1181 -3.4129  2.7887
 8174SOL    HW235982   3.709   4.234   0.355  0.2935  1.2377 -0.4356
 8175SOL     OW35983   1.483   3.262   2.207 -0.0566 -0.0200  0.4532
 8175SOL    HW135984   1.457   3.186   2.258 -2.2437  1.8744  2.1716
 8175SOL    HW235985   1.522   3.226   2.127 -1.5092  0.1522 -0.3268
 8176SOL     OW35986   2.141   0.781   4.551  0.1787 -0.1599  0.2724
 8176SOL    HW135987   2.058   0.770   4.597 -0.5627 -2.5271 -1.6377
 8176SOL    HW235988   2.133   0.866   4.508  2.1769  0.6197  1.4204
 8177SOL     OW35989   1.704   2.441  12.786  0.4424  0.6846  0.0838
 8177SOL    HW135990   1.797   2.453  12.767  0.4313  1.9391  0.8183
 8177SOL    HW235991   1.703   2.459  12.880  0.9545 -1.4969  0.5256
 8178SOL     OW35992   2.891   3.276   4.688 -0.3141 -0.3003  0.1073
 8178SOL    HW135993   2.814   3.287   4.744 -0.8538  0.3243 -0.7527
 8178SOL    HW235994   2.892   3.181   4.696 -0.9640 -0.4685 -1.8917
 8179SOL     OW35995   3.918   3.147   4.600 -0.3100  0.1601 -0.5021
 8179SOL    HW135996   3.910   3.083   4.670 -0.4197  0.3459 -0.3440
 8179SOL    HW235997   3.835   3.140   4.553 -1.0203  1.4819  0.5456
 8180SOL     OW35998   2.076   4.181   9.357  0.2132 -0.2464  0.4004
 8180SOL    HW135999   1.981   4.172   9.360  0.4100 -2.0824  0.7291
 8180SOL    HW236000   2.106   4.091   9.342  1.0794  0.4368 -1.8934
 8181SOL     OW36001   1.189   0.450   7.278 -0.0662 -0.2769 -0.3092
 8181SOL    HW136002   1.121   0.511   7.306 -1.2988 -1.3397 -1.0231
 8181SOL    HW236003   1.191   0.389   7.352  0.9458  0.2824  0.1313
 8182SOL     OW36004   0.438   4.654   4.178  0.1592  0.3466  0.3312
 8182SOL    HW136005   0.348   4.652   4.147 -0.5143  0.8648  2.2416
 8182SOL    HW236006   0.428   4.612   4.264  0.3318  0.6831  0.5131
 8183SOL     OW36007   3.340   1.268   0.812 -0.2882  0.3357  0.2699
 8183SOL    HW136008   3.255   1.296   0.779  0.0646  0.2469 -0.7298
 8183SOL    HW236009   3.378   1.354   0.828 -1.0617  1.0911 -1.9444
 8184SOL     OW36010   2.540   4.057   2.426  0.3170 -0.3463 -0.4520
 8184SOL    HW136011   2.502   4.099   2.350 -0.7916  1.0231  0.8765
 8184SOL    HW236012   2.631   4.085   2.418  0.2555 -0.5464 -1.8567
 8185SOL     OW36013   3.139   0.387   1.925  0.2566  0.2572  0.2338
 8185SOL    HW136014   3.080   0.437   1.983 -1.0193 -0.5683 -0.3526
 8185SOL    HW236015   3.215   0.386   1.983  0.9543  1.7015 -0.6337
 8186SOL     OW36016   3.263   1.970   1.525 -0.2065 -0.0147  0.3546
 8186SOL    HW136017   3.293   2.048   1.478 -0.4375 -0.5042 -0.5943
 8186SOL    HW236018   3.347   1.924   1.515 -0.0002  0.6586 -0.9824
 8187SOL     OW36019   2.258   3.148  13.901  0.1518  0.1596  0.0407
 8187SOL    HW136020   2.187   3.091  13.930  0.4219 -0.5140 -0.6194
 8187SOL    HW236021   2.218   3.224  13.858  0.3370  1.1624  1.6380
 8188SOL     OW36022   0.278   3.987   1.576 -0.2608 -0.3991 -0.4698
 8188SOL    HW136023   0.358   3.964   1.529 -0.0946  3.3120 -2.0212
 8188SOL    HW236024   0.220   3.915   1.552  0.5312 -0.2212 -2.9227
 8189SOL     OW36025   2.409   1.276   5.386 -0.0145  0.1730 -0.3755
 8189SOL    HW136026   2.368   1.200   5.429  1.0921  0.1790  0.6813
 8189SOL    HW236027   2.331   1.326   5.362 -1.1240 -1.7164 -0.7675
 8190SOL     OW36028   4.099   2.813   4.467 -0.6010  0.1114  0.1986
 8190SOL    HW136029   4.100   2.737   4.409  0.4183  0.8781 -0.8030
 8190SOL    HW236030   4.012   2.845   4.446 -0.0628  1.1115 -0.5367
 8191SOL     OW36031   1.179   4.685   5.551  0.2160 -0.0328 -0.1685
 8191SOL    HW136032   1.244   0.034   5.545 -1.5731  1.5365 -1.6921
 8191SOL    HW236033   1.186   4.675   5.646 -2.4383 -1.7834 -0.1385
 8192SOL     OW36034   3.978   1.776   5.912 -0.0419 -0.5330  0.0022
 8192SOL    HW136035   3.926   1.856   5.898  1.1539  0.3334  0.4391
 8192SOL    HW236036   4.039   1.813   5.976  1.7270  0.2993 -2.1790
 8193SOL     OW36037   4.044   0.228   6.438 -0.4618  0.2839  0.3839
 8193SOL    HW136038   3.970   0.245   6.380  0.0229  3.1787  0.6368
 8193SOL    HW236039   4.005   0.247   6.523  0.0363  2.2882  0.1734
 8194SOL     OW36040   4.363   4.632  13.402 -0.2985 -0.4498  0.2118
 8194SOL    HW136041   4.367   0.007  13.402 -0.1634 -0.4548 -0.2459
 8194SOL    HW236042   4.458   4.622  13.412 -0.0326  2.6104  0.4918
 8195SOL     OW36043   3.222   2.518   6.798  0.2192  0.3815  0.6518
 8195SOL    HW136044   3.197   2.463   6.872 -0.1799 -0.6883 -0.2619
 8195SOL    HW236045   3.138   2.558   6.778 -1.3819 -2.8801  0.7914
 8196SOL     OW36046   3.411   3.277  16.938 -0.2653 -0.1004  0.1329
 8196SOL    HW136047   3.492   3.253  16.982  2.1858  0.1081 -4.2068
 8196SOL    HW236048   3.346   3.218  16.976  1.3976 -2.9821 -1.4877
 8197SOL     OW36049   1.735   1.974   8.709  0.2075  0.1620 -0.2914
 8197SOL    HW136050   1.766   2.058   8.743 -1.6049  0.1225  1.4375
 8197SOL    HW236051   1.716   1.923   8.787  1.2931 -0.6491 -0.5530
 8198SOL     OW36052   1.093   2.698   0.386 -0.1643 -0.0377  0.1471
 8198SOL    HW136053   1.134   2.616   0.360 -0.3226  0.4757 -1.7274
 8198SOL    HW236054   1.005   2.669   0.410 -0.1440 -0.9589 -0.8873
 8199SOL     OW36055   2.360   0.200   4.289  0.2587  0.0216 -0.0033
 8199SOL    HW136056   2.330   0.272   4.234 -0.2449  0.1619  0.4582
 8199SOL    HW236057   2.295   0.211   4.359 -0.3143  2.0759 -0.8489
 8200SOL     OW36058   1.183   4.681   5.832 -0.2242 -0.4297  0.0760
 8200SOL    HW136059   1.091   4.707   5.822  0.4229  1.3204 -1.2404
 8200SOL    HW236060   1.225   0.036   5.873 -0.9655  0.0555 -0.0524
 8201SOL     OW36061   3.059   4.378   7.214 -0.0890  0.2801 -0.2280
 8201SOL    HW136062   3.040   4.462   7.256  0.0638 -0.1342  0.6545
 8201SOL    HW236063   3.114   4.413   7.143 -0.0716 -1.0667 -0.8762
 8202SOL     OW36064   1.033   2.407   6.895 -0.3072 -0.6043 -0.1118
 8202SOL    HW136065   1.098   2.470   6.926  1.4494 -2.5240  0.0700
 8202SOL    HW236066   0.986   2.381   6.974  2.2115 -0.5837  1.3821
 8203SOL     OW36067   3.328   0.678   3.196 -0.0713  0.0242  0.2773
 8203SOL    HW136068   3.413   0.708   3.228  0.5800 -1.0915 -0.4076
 8203SOL    HW236069   3.326   0.589   3.231 -3.2263  0.5515  1.4899
 8204SOL     OW36070   0.112   1.597   6.573  0.0466  0.0730  0.3260
 8204SOL    HW136071   0.188   1.622   6.522 -0.0818 -0.9132 -0.3503
 8204SOL    HW236072   0.095   1.508   6.542 -1.8667  0.4533  0.2933
 8205SOL     OW36073   0.243   1.364  12.538 -0.1046  0.6683 -0.5481
 8205SOL    HW136074   0.150   1.346  12.555  0.3262  0.3213  1.4400
 8205SOL    HW236075   0.242   1.379  12.443  0.2218  2.8988 -0.1967
 8206SOL     OW36076   3.996   2.880  16.294 -0.3370  0.1139  0.0943
 8206SOL    HW136077   3.988   2.803  16.351  1.4255 -0.3343 -0.2791
 8206SOL    HW236078   3.927   2.861  16.231 -1.0533 -1.2139  1.2450
 8207SOL     OW36079   2.111   2.010  11.989 -0.0834  0.0879 -0.0086
 8207SOL    HW136080   2.156   1.975  11.912  0.2979  1.6587 -0.4909
 8207SOL    HW236081   2.022   1.999  11.955 -0.5510  0.8172  0.9841
 8208SOL     OW36082   2.571   4.243   7.948 -0.2641 -0.4058 -0.4907
 8208SOL    HW136083   2.658   4.249   7.989 -0.8023  0.3176  0.5472
 8208SOL    HW236084   2.518   4.280   8.018 -2.3105 -2.6883 -0.8514
 8209SOL     OW36085   1.262   4.042   2.702 -0.1630 -0.0549 -0.2412
 8209SOL    HW136086   1.241   4.039   2.609 -1.3881  1.0674 -0.0061
 8209SOL    HW236087   1.187   3.990   2.731 -0.0047  0.5931  1.3245
 8210SOL     OW36088   4.229   4.518   3.327  0.2120 -0.0772 -0.1263
 8210SOL    HW136089   4.275   4.439   3.356  0.2420 -0.7440 -2.0127
 8210SOL    HW236090   4.232   4.580   3.400 -0.7556  0.0338 -0.1784
 8211SOL     OW36091   4.709   0.602  10.242  0.1737 -0.1727 -0.1210
 8211SOL    HW136092   0.026   0.563  10.163  0.2642 -0.0429 -0.1423
 8211SOL    HW236093   4.698   0.691  10.207  0.3612 -0.3515 -0.6356
 8212SOL     OW36094   4.716   1.479   8.255  0.5806  0.2162 -0.0385
 8212SOL    HW136095   0.053   1.438   8.190 -1.0764  0.1865 -1.4728
 8212SOL    HW236096   4.652   1.408   8.254  1.6522 -0.7469 -1.2305
 8213SOL     OW36097   4.522   1.110   2.253  0.4584  0.4495 -0.2562
 8213SOL    HW136098   4.525   1.159   2.171 -0.3011  1.2357  0.1875
 8213SOL    HW236099   4.550   1.022   2.227 -1.6672 -0.7452  1.4260
 8214SOL     OW36100   1.165   1.276   5.251 -0.3830 -0.2435  0.5718
 8214SOL    HW136101   1.102   1.337   5.213 -0.3740  1.2642  2.9759
 8214SOL    HW236102   1.210   1.243   5.173 -0.5818  0.0180  0.3449
 8215SOL     OW36103   4.261   2.500   2.079  0.1551 -0.0534 -0.5488
 8215SOL    HW136104   4.216   2.433   2.028 -0.3358  0.5421 -0.8952
 8215SOL    HW236105   4.240   2.474   2.169 -1.9547 -2.1475 -1.6447
 8216SOL     OW36106   3.933   1.772   6.666 -0.3642  0.2962 -0.2537
 8216SOL    HW136107   3.888   1.720   6.733 -0.4031  0.4878 -0.1317
 8216SOL    HW236108   3.998   1.821   6.716 -2.6391  1.8900  1.1547
 8217SOL     OW36109   2.429   0.166   9.089  0.0973 -0.0639  1.1365
 8217SOL    HW136110   2.363   0.102   9.117 -0.6608 -0.6882 -2.1429
 8217SOL    HW236111   2.375   0.237   9.123 -1.4495 -0.5600 -0.3003
 8218SOL     OW36112   4.217   3.212   5.518 -0.4486  0.0069  0.4631
 8218SOL    HW136113   4.271   3.183   5.591 -0.7508  0.7012  0.9651
 8218SOL    HW236114   4.142   3.249   5.565  0.5878  1.9342  0.6126
 8219SOL     OW36115   2.093   0.487   8.159 -0.2055 -0.5281  0.1105
 8219SOL    HW136116   2.025   0.422   8.174 -0.8024  0.2847  0.8772
 8219SOL    HW236117   2.027   0.555   8.148 -0.4054 -0.4248  1.9987
 8220SOL     OW36118   3.913   2.911   4.728 -0.3568 -0.0789 -0.5505
 8220SOL    HW136119   3.863   2.867   4.660  0.8637 -0.4776 -1.1916
 8220SOL    HW236120   3.893   2.861   4.807  1.1226  0.5633  0.2400
 8221SOL     OW36121   3.335   4.096   2.463 -0.2598 -0.0402 -0.3888
 8221SOL    HW136122   3.263   4.125   2.518  0.9135  0.1156  1.0797
 8221SOL    HW236123   3.282   4.067   2.389  0.3931 -1.7846 -0.1860
 8222SOL     OW36124   2.007   3.383   4.238  0.6114 -0.3228  0.2284
 8222SOL    HW136125   2.028   3.448   4.171 -1.3794  1.3253  1.1800
 8222SOL    HW236126   1.959   3.436   4.302  1.5448 -1.5493  1.9344
 8223SOL     OW36127   0.899   1.171   3.671 -0.1953 -0.1749 -0.3097
 8223SOL    HW136128   0.932   1.081   3.664  1.6537  0.6817 -2.6112
 8223SOL    HW236129   0.824   1.159   3.729 -0.5085 -0.4144 -0.7563
 8224SOL     OW36130   3.091   1.080  13.622  0.8301  0.0699  0.4932
 8224SOL    HW136131   3.019   1.056  13.564  1.0134  2.3311 -0.7000
 8224SOL    HW236132   3.116   0.991  13.647 -1.4109 -0.0947  2.1130
 8225SOL     OW36133   2.086   3.014   3.596 -0.0811  0.1900  0.1642
 8225SOL    HW136134   2.057   2.934   3.640  1.1947 -2.3311 -3.5641
 8225SOL    HW236135   2.180   3.024   3.609  0.3696 -2.1514 -1.3194
 8226SOL     OW36136   1.744   2.050   8.426 -0.1494 -0.0214  0.1908
 8226SOL    HW136137   1.731   2.143   8.413 -0.6835 -0.3044 -1.2721
 8226SOL    HW236138   1.744   2.032   8.520  1.3667  0.0792  0.1973
 8227SOL     OW36139   4.032   0.624  14.737 -0.4511  0.1662  0.2061
 8227SOL    HW136140   3.996   0.541  14.768  0.5642 -0.1831  0.4357
 8227SOL    HW236141   4.093   0.592  14.672  1.0132  1.9992  0.6758
 8228SOL     OW36142   4.621   3.116  13.993 -0.4795  0.2710 -0.1834
 8228SOL    HW136143   4.601   3.066  14.072  2.5475 -0.8690 -0.1432
 8228SOL    HW236144   4.534   3.131  13.956  0.6297  1.2333 -2.4079
 8229SOL     OW36145   1.064   3.716  12.899  0.2540  0.2432  0.2148
 8229SOL    HW136146   1.096   3.732  12.988 -1.2645  0.8017  0.6604
 8229SOL    HW236147   1.138   3.673  12.855  0.1664  1.0078 -0.6942
 8230SOL     OW36148   1.508   3.684  11.890 -0.3973 -0.3742  0.1908
 8230SOL    HW136149   1.581   3.742  11.867 -0.9806 -0.0700 -0.8777
 8230SOL    HW236150   1.564   3.607  11.901  1.6530  0.7567 -2.1101
 8231SOL     OW36151   0.137   2.293   6.642 -0.2907  0.0443  0.1521
 8231SOL    HW136152   0.144   2.379   6.685  2.0116  0.7971 -1.7469
 8231SOL    HW236153   0.223   2.285   6.603 -0.0010 -0.0707  0.8146
 8232SOL     OW36154   2.349   1.764   6.541 -0.5142 -0.0691 -0.0469
 8232SOL    HW136155   2.314   1.698   6.601  0.3076 -0.0590  0.4362
 8232SOL    HW236156   2.433   1.728   6.513  0.2542  0.1276  2.0757
 8233SOL     OW36157   1.515   3.435   5.952  0.5266 -0.3593 -0.4589
 8233SOL    HW136158   1.539   3.518   5.910  3.6953 -0.6526  0.7544
 8233SOL    HW236159   1.550   3.465   6.037  0.2819 -0.1361 -0.4369
 8234SOL     OW36160   2.211   0.191  11.930  0.2153  0.0420  0.5323
 8234SOL    HW136161   2.217   0.194  12.025  2.2757 -1.1784  0.4496
 8234SOL    HW236162   2.227   0.098  11.917 -1.3565 -0.5979  3.1325
 8235SOL     OW36163   2.996   4.001  14.743 -0.9719 -0.0324 -0.0332
 8235SOL    HW136164   2.953   4.071  14.792 -0.8745 -1.1481  1.6567
 8235SOL    HW236165   2.997   4.037  14.655 -1.8139 -1.3946 -0.5987
 8236SOL     OW36166   4.428   0.003   4.423  0.0225  0.1737  0.0416
 8236SOL    HW136167   4.485   4.693   4.352  2.7227  0.6211  2.0318
 8236SOL    HW236168   4.360   4.657   4.427 -0.1575  0.5187  2.3698
 8237SOL     OW36169   3.009   3.696   7.250  0.1472  0.0476  0.5589
 8237SOL    HW136170   2.925   3.723   7.211 -0.6013 -0.8546  1.5338
 8237SOL    HW236171   3.038   3.784   7.275 -2.2621  0.9907  0.1189
 8238SOL     OW36172   2.394   0.218   8.822  0.5338 -0.4070 -0.0522
 8238SOL    HW136173   2.434   0.184   8.902 -1.3929 -0.8560  0.7384
 8238SOL    HW236174   2.317   0.263   8.858  1.3790  0.2719  0.8923
 8239SOL     OW36175   2.736   2.706   3.162 -0.5867  0.0687  0.2228
 8239SOL    HW136176   2.720   2.617   3.131  0.1776 -0.1305  0.4017
 8239SOL    HW236177   2.675   2.758   3.109  2.2664 -0.4814 -3.6454
 8240SOL     OW36178   0.825   2.161   2.700 -0.6115  0.0478 -0.5360
 8240SOL    HW136179   0.781   2.102   2.639  1.5702 -1.1778 -0.9202
 8240SOL    HW236180   0.773   2.240   2.684  0.4839  0.4874 -1.9371
 8241SOL     OW36181   3.454   1.491   1.035 -0.1763  0.2808 -0.1156
 8241SOL    HW136182   3.458   1.492   0.939 -0.2607  0.4654 -0.1180
 8241SOL    HW236183   3.543   1.461   1.055 -0.9277 -1.0546  1.2303
 8242SOL     OW36184   2.216   4.100   2.035 -0.1511 -0.2203  0.2116
 8242SOL    HW136185   2.222   4.100   2.131  0.6569  0.8134  0.1699
 8242SOL    HW236186   2.133   4.052   2.037  0.9019 -2.2414 -4.3739
 8243SOL     OW36187   3.904   2.874  10.378 -0.3231 -0.5063 -0.3571
 8243SOL    HW136188   3.958   2.939  10.423 -1.2630 -0.5110  0.7618
 8243SOL    HW236189   3.980   2.822  10.352  0.9302  0.9617  0.3936
 8244SOL     OW36190   2.284   0.204   3.861  0.5530  0.1707  0.4455
 8244SOL    HW136191   2.310   0.186   3.771 -1.4101 -1.8053  0.2729
 8244SOL    HW236192   2.312   0.122   3.901 -1.2730 -0.3852  0.5896
 8245SOL     OW36193   1.813   1.666   6.413  0.0177  0.3412 -0.0510
 8245SOL    HW136194   1.894   1.691   6.458 -0.1986  1.7387 -0.4396
 8245SOL    HW236195   1.767   1.637   6.491 -2.7018  0.7424 -1.5193
 8246SOL     OW36196   1.681   3.318   4.834 -0.0991 -0.6162  0.1555
 8246SOL    HW136197   1.653   3.244   4.887 -0.6442  0.2883  1.1367
 8246SOL    HW236198   1.620   3.307   4.761  0.0230 -1.3840  0.1752
 8247SOL     OW36199   0.989   2.210  16.889  0.9896  0.3674 -0.5191
 8247SOL    HW136200   0.914   2.166  16.850  0.0271  0.8108  0.8520
 8247SOL    HW236201   0.990   2.167  16.974  0.9204 -1.8574 -1.6473
 8248SOL     OW36202   3.765   0.828   0.413 -0.0507  0.6420 -0.0881
 8248SOL    HW136203   3.675   0.841   0.384  0.1457  1.8796 -0.1438
 8248SOL    HW236204   3.755   0.795   0.502 -0.0843 -1.0225 -0.7178
 8249SOL     OW36205   0.649   0.536  11.368 -0.2803  0.3249 -0.5922
 8249SOL    HW136206   0.713   0.470  11.342 -0.6439  0.4715 -1.8548
 8249SOL    HW236207   0.661   0.556  11.461  1.5218  0.4503 -0.8541
 8250SOL     OW36208   3.377   1.471   5.803  0.3890  0.7298 -0.7762
 8250SOL    HW136209   3.291   1.450   5.840  1.4375  0.0466  1.2328
 8250SOL    HW236210   3.350   1.491   5.713  0.0888 -0.8590 -1.0401
 8251SOL     OW36211   0.858   1.602   9.737  0.1303  0.1608 -0.7585
 8251SOL    HW136212   0.888   1.522   9.780 -0.4542  0.0891 -0.4912
 8251SOL    HW236213   0.776   1.566   9.703  0.5478  1.9950 -3.7498
 8252SOL     OW36214   2.754   3.032   8.151  0.4898  0.3727 -0.6784
 8252SOL    HW136215   2.658   3.034   8.150  0.4769 -0.0132 -0.0706
 8252SOL    HW236216   2.764   3.021   8.245 -0.4524  2.0977 -0.3890
 8253SOL     OW36217   2.105   2.811  10.733  0.8715 -0.3058 -0.4077
 8253SOL    HW136218   2.017   2.777  10.716 -1.1187  2.4164  4.3699
 8253SOL    HW236219   2.144   2.737  10.781 -0.5145 -1.0380 -0.4205
 8254SOL     OW36220   2.410   0.949   2.224 -0.5034  0.3331 -0.5431
 8254SOL    HW136221   2.420   1.019   2.289  0.9728 -1.5894  1.2973
 8254SOL    HW236222   2.467   0.987   2.156 -0.4584  0.6693 -0.3146
 8255SOL     OW36223   3.634   2.728  15.670  1.0223  0.2495 -0.1653
 8255SOL    HW136224   3.549   2.726  15.627  0.4526  0.0188  0.9732
 8255SOL    HW236225   3.645   2.633  15.667  0.1136  0.2449 -2.7015
 8256SOL     OW36226   2.873   1.942   4.749  0.4931 -0.1199  0.2856
 8256SOL    HW136227   2.842   2.020   4.796 -0.0079 -0.0480 -0.1567
 8256SOL    HW236228   2.966   1.962   4.739  0.4239  0.3881  0.6076
 8257SOL     OW36229   2.882   3.274   2.261  0.2786 -0.3129  0.0948
 8257SOL    HW136230   2.889   3.367   2.285 -2.1347 -0.2570  0.6202
 8257SOL    HW236231   2.876   3.267   2.166 -2.1085  1.6809  0.0932
 8258SOL     OW36232   4.271   1.536   5.249  0.5230  0.0709  0.3107
 8258SOL    HW136233   4.264   1.453   5.297  0.4405 -0.0197  0.1432
 8258SOL    HW236234   4.268   1.499   5.160  0.8445  0.6473  0.0624
 8259SOL     OW36235   4.022   1.444  12.113  0.1032  0.0594 -0.4338
 8259SOL    HW136236   4.059   1.355  12.114  1.5626  0.6584 -1.8232
 8259SOL    HW236237   3.993   1.443  12.205  2.6962 -2.1894  0.3811
 8260SOL     OW36238   3.325   4.709   5.549 -0.1420  0.2253  0.6018
 8260SOL    HW136239   3.398   4.650   5.570  0.0840  0.7968  1.4516
 8260SOL    HW236240   3.364   0.041   5.480  1.0109 -0.5081  0.6791
 8261SOL     OW36241   1.354   2.322   7.353  0.4983  0.6857  0.3271
 8261SOL    HW136242   1.337   2.262   7.280 -1.3850 -2.1792  3.1536
 8261SOL    HW236243   1.449   2.324   7.362  0.2415 -0.3466  2.9384
 8262SOL     OW36244   3.586   3.451   8.306 -0.4718  0.9364  0.5141
 8262SOL    HW136245   3.556   3.542   8.304  0.9005  1.3082 -2.8897
 8262SOL    HW236246   3.559   3.431   8.396  0.5243  0.6366  0.7511
 8263SOL     OW36247   2.533   1.426   7.612 -0.2080 -0.1496  0.5465
 8263SOL    HW136248   2.576   1.445   7.696 -1.2006  0.8011  0.8404
 8263SOL    HW236249   2.607   1.398   7.559  0.8112  1.0907  1.2884
 8264SOL     OW36250   3.564   1.017   3.558  0.5023  0.6368  0.1549
 8264SOL    HW136251   3.511   1.074   3.502  0.5382  0.6797  0.1644
 8264SOL    HW236252   3.640   1.069   3.584  0.1810  1.2115 -0.0648
 8265SOL     OW36253   0.885   1.885   6.780  0.3585  0.1207 -0.3693
 8265SOL    HW136254   0.972   1.895   6.741  0.8677  1.9804  1.2684
 8265SOL    HW236255   0.884   1.791   6.801 -0.5100  0.0622 -0.6583
 8266SOL     OW36256   0.164   3.544   3.314 -0.2835 -0.0790  0.1544
 8266SOL    HW136257   0.218   3.479   3.358 -0.4190 -0.5312 -0.3400
 8266SOL    HW236258   0.114   3.489   3.254  2.1439  0.9074 -2.7870
 8267SOL     OW36259   0.235   2.546   8.376 -0.1185  0.0101 -0.3459
 8267SOL    HW136260   0.284   2.628   8.369  0.4549 -0.2106  1.1103
 8267SOL    HW236261   0.197   2.546   8.288  2.0277  1.9502 -1.2836
 8268SOL     OW36262   1.934   4.335   8.117 -0.3238  0.6035 -0.2702
 8268SOL    HW136263   1.844   4.301   8.122 -0.1908  0.2913 -0.0061
 8268SOL    HW236264   1.918   4.425   8.145  1.4604  0.1878  2.0932
 8269SOL     OW36265   4.257   0.918   6.029  0.0821 -0.4024  0.7533
 8269SOL    HW136266   4.267   0.990   5.967 -0.0251 -1.5680 -0.6098
 8269SOL    HW236267   4.193   0.958   6.089 -0.4994  0.1301 -0.2298
 8270SOL     OW36268   0.780   3.293   8.010 -0.3185  0.7977 -0.0720
 8270SOL    HW136269   0.749   3.225   7.951  1.2957  1.0496 -1.2178
 8270SOL    HW236270   0.782   3.371   7.954  2.7260  0.2564 -0.7258
 8271SOL     OW36271   2.838   2.025  16.463 -0.0285 -0.0841 -0.5282
 8271SOL    HW136272   2.869   2.014  16.373 -0.8865 -1.0165 -0.7145
 8271SOL    HW236273   2.876   1.946  16.502 -0.1292  0.1726  0.0752
 8272SOL     OW36274   3.980   1.386  15.672 -0.3814  0.3166 -0.5016
 8272SOL    HW136275   3.938   1.302  15.657  0.6892 -0.6107  1.6268
 8272SOL    HW236276   4.048   1.385  15.604 -1.8101  1.0136 -1.9301
 8273SOL     OW36277   0.672   1.524   3.409  0.3778  0.8547  0.1011
 8273SOL    HW136278   0.700   1.542   3.320 -0.3196 -0.3602 -0.3658
 8273SOL    HW236279   0.742   1.488   3.463 -1.9812 -1.4957  1.6198
 8274SOL     OW36280   2.291   0.788  10.257  0.2919 -0.3127 -0.4166
 8274SOL    HW136281   2.338   0.710  10.288  1.6228  0.3603 -0.7415
 8274SOL    HW236282   2.362   0.849  10.274 -0.2684  0.3036 -0.2631
 8275SOL     OW36283   1.980   1.635  15.441  0.1176 -0.3495 -0.1334
 8275SOL    HW136284   2.053   1.640  15.380  0.2118  0.2189  0.0266
 8275SOL    HW236285   1.949   1.547  15.420  2.1467 -0.8193 -1.1547
 8276SOL     OW36286   4.103   1.159   3.337 -0.4719  0.0482  0.4119
 8276SOL    HW136287   4.157   1.183   3.262 -0.6349 -0.5289  0.1183
 8276SOL    HW236288   4.176   1.148   3.399  0.0156 -0.9798 -0.3603
 8277SOL     OW36289   1.210   0.899  11.521 -0.1656 -0.0703 -0.4030
 8277SOL    HW136290   1.277   0.872  11.584  0.3259  0.8677 -0.5217
 8277SOL    HW236291   1.262   0.924  11.446  0.4434  1.4441  0.5204
 8278SOL     OW36292   4.297   0.531   4.462  0.1784  0.1067  0.0184
 8278SOL    HW136293   4.271   0.509   4.551 -1.1537 -0.6133 -0.5442
 8278SOL    HW236294   4.303   0.446   4.420 -2.3236  0.3296 -0.8137
 8279SOL     OW36295   0.710   1.981  10.597  0.3932 -0.3674  0.0948
 8279SOL    HW136296   0.794   1.943  10.621 -0.8325 -2.5178  1.0239
 8279SOL    HW236297   0.713   2.061  10.650  3.3094  0.6156 -1.6161
 8280SOL     OW36298   3.794   0.645   5.827  0.0390  0.3567 -0.1122
 8280SOL    HW136299   3.705   0.672   5.847 -0.0021  1.2498 -1.4938
 8280SOL    HW236300   3.812   0.593   5.905  0.4546 -0.4449 -0.7495
 8281SOL     OW36301   2.092   0.091   3.378  0.1164 -0.5396  0.2257
 8281SOL    HW136302   2.146   0.028   3.426 -0.3036 -1.0560  0.0262
 8281SOL    HW236303   2.121   0.080   3.288  0.4181  1.0131  0.1454
 8282SOL     OW36304   2.386   2.461   6.984  0.7389  0.2112  0.0399
 8282SOL    HW136305   2.355   2.451   6.894 -1.0098  0.4776  0.6055
 8282SOL    HW236306   2.407   2.554   6.990  0.3956  0.2752  0.2860
 8283SOL     OW36307   1.542   0.678   6.164 -0.0203 -0.0967 -0.4370
 8283SOL    HW136308   1.627   0.656   6.124 -0.1002 -0.7875 -0.2270
 8283SOL    HW236309   1.484   0.639   6.099  0.9290  0.4994 -1.6491
 8284SOL     OW36310   1.290   3.235   4.490 -0.0382 -0.0681 -0.1496
 8284SOL    HW136311   1.346   3.212   4.564 -2.2404  0.9114  1.8224
 8284SOL    HW236312   1.229   3.300   4.525 -0.4070  0.0843 -1.0944
 8285SOL     OW36313   3.035   0.200  11.625  0.1684  0.4961  0.3852
 8285SOL    HW136314   3.101   0.269  11.627  1.2851 -0.5585  0.0098
 8285SOL    HW236315   3.030   0.166  11.714 -0.6068 -2.4939 -0.7826
 8286SOL     OW36316   2.570   4.686   6.669  0.0660 -0.4391 -0.2115
 8286SOL    HW136317   2.536   4.679   6.758 -2.2018 -0.3880 -1.0867
 8286SOL    HW236318   2.647   0.021   6.679  1.1371 -1.8730 -0.4840
 8287SOL     OW36319   3.805   1.955   2.188  0.3748 -0.2425  0.2313
 8287SOL    HW136320   3.843   1.870   2.208  2.9087  0.3955 -1.8848
 8287SOL    HW236321   3.755   1.967   2.269 -0.0628  0.6249 -0.1661
 8288SOL     OW36322   4.141   2.226   0.106 -0.4430  0.1581  0.3260
 8288SOL    HW136323   4.142   2.131   0.118  1.8369 -0.0865 -1.9073
 8288SOL    HW236324   4.067   2.220   0.046  0.0491 -0.8690 -0.1945
 8289SOL     OW36325   0.783   0.422   5.011 -0.1656 -0.0362  1.1124
 8289SOL    HW136326   0.775   0.389   4.921  0.4440  0.1011  1.0030
 8289SOL    HW236327   0.720   0.494   5.001 -1.7386 -1.2422  2.4263
 8290SOL     OW36328   0.681   2.040  17.344  0.2972 -0.3334 -0.8250
 8290SOL    HW136329   0.675   2.069  17.435  0.1445 -0.7725 -0.6978
 8290SOL    HW236330   0.721   2.118  17.306  0.5196 -0.3812 -0.6876
 8291SOL     OW36331   2.994   2.431   3.840  0.0493  0.0340 -0.6289
 8291SOL    HW136332   2.944   2.505   3.875  0.3518 -0.0531 -0.0101
 8291SOL    HW236333   2.951   2.359   3.886  1.0365 -0.4610 -0.4776
 8292SOL     OW36334   1.658   0.459   3.008 -0.0902  0.3962  0.1121
 8292SOL    HW136335   1.730   0.396   3.006 -1.0357 -0.6960  0.7997
 8292SOL    HW236336   1.704   0.537   3.040 -0.1300 -0.0565  1.2724
 8293SOL     OW36337   1.360   2.745   7.142  0.6858 -0.1611  0.6367
 8293SOL    HW136338   1.362   2.803   7.219  0.4764  1.2773 -0.4432
 8293SOL    HW236339   1.389   2.663   7.182  2.0844  0.2262  0.4030
 8294SOL     OW36340   3.372   3.568   7.118 -0.2583 -0.2097  0.0145
 8294SOL    HW136341   3.436   3.500   7.138  0.1105  0.0442 -0.2984
 8294SOL    HW236342   3.321   3.572   7.198  0.6022 -1.2646  0.6264
 8295SOL     OW36343   3.645   3.772   4.120  0.2199 -0.6074  0.0282
 8295SOL    HW136344   3.622   3.815   4.038  0.6030 -2.3986 -1.0040
 8295SOL    HW236345   3.618   3.685   4.089  0.4346 -0.8101  0.4112
 8296SOL     OW36346   2.458   0.596   7.141 -0.4643  0.1595 -0.1510
 8296SOL    HW136347   2.409   0.578   7.061 -0.7726 -0.7791  0.2417
 8296SOL    HW236348   2.460   0.691   7.136 -0.5767  0.1829  0.2445
 8297SOL     OW36349   4.390   2.702   9.117 -0.9529 -0.1387 -0.9160
 8297SOL    HW136350   4.391   2.707   9.021  1.4740 -0.0493 -0.8685
 8297SOL    HW236351   4.310   2.753   9.130 -0.3430  0.5593  0.0237
 8298SOL     OW36352   1.146   1.281  17.013  0.2900 -0.2943  0.0266
 8298SOL    HW136353   1.157   1.369  16.978  0.9365 -1.4668 -2.7364
 8298SOL    HW236354   1.149   1.289  17.108 -0.8927 -0.5689  0.0788
 8299SOL     OW36355   3.341   1.180   6.315  0.4419  0.3439  0.4724
 8299SOL    HW136356   3.407   1.246   6.336  1.0920  0.3550 -1.6331
 8299SOL    HW236357   3.265   1.233   6.339  0.1508 -0.3787  1.1596
 8300SOL     OW36358   2.955   3.786   2.596  0.2175  0.3988  0.2723
 8300SOL    HW136359   2.895   3.711   2.589 -0.0874  0.5765  0.9743
 8300SOL    HW236360   2.955   3.822   2.508 -1.5077  2.7308  1.2202
 8301SOL     OW36361   1.076   2.735   1.438  0.5246  0.4029 -0.8425
 8301SOL    HW136362   0.989   2.747   1.400 -0.8073 -2.8036  1.2708
 8301SOL    HW236363   1.052   2.736   1.530  0.2078 -2.6121 -0.8974
 8302SOL     OW36364   3.099   2.215  15.455  0.4264 -0.2679  0.0622
 8302SOL    HW136365   3.047   2.135  15.458 -0.3325  0.2798  1.7678
 8302SOL    HW236366   3.077   2.251  15.541 -2.8270  1.0875 -1.3466
 8303SOL     OW36367   2.486   3.740   1.789 -0.3925 -0.0029 -0.2559
 8303SOL    HW136368   2.402   3.725   1.745 -0.2885 -2.0534  0.2373
 8303SOL    HW236369   2.479   3.832   1.815 -3.3938 -0.1889 -0.4273
 8304SOL     OW36370   2.005   1.066   8.622 -0.2613  0.2328  0.0814
 8304SOL    HW136371   2.059   1.101   8.693  2.1726 -0.7236 -1.2912
 8304SOL    HW236372   2.033   1.125   8.553 -1.1600  1.0974  0.4567
 8305SOL     OW36373   4.717   2.137   3.161  0.1139 -0.0997  0.1138
 8305SOL    HW136374   4.696   2.069   3.096  0.5276 -0.8180  0.7456
 8305SOL    HW236375   0.085   2.111   3.184  0.3491  0.6085  0.0159
 8306SOL     OW36376   0.417   4.644   0.956 -0.2499 -0.3408 -0.6076
 8306SOL    HW136377   0.450   4.689   1.033 -2.1139 -2.1527  1.2557
 8306SOL    HW236378   0.497   4.600   0.929  1.0552  0.6944  1.6264
 8307SOL     OW36379   1.946   1.335   4.602  0.5974  0.5933  0.0704
 8307SOL    HW136380   1.980   1.313   4.514 -3.5436 -0.0447 -1.3592
 8307SOL    HW236381   1.995   1.415   4.620  0.5556  0.9296 -1.2880
 8308SOL     OW36382   0.343   0.630   8.368 -0.3964 -0.6094  0.0218
 8308SOL    HW136383   0.396   0.593   8.298 -1.6004 -2.8665  0.2993
 8308SOL    HW236384   0.257   0.630   8.327 -0.7101 -0.0458  0.6758
 8309SOL     OW36385   1.923   3.740   8.685  0.3073 -0.7779  0.1770
 8309SOL    HW136386   1.912   3.745   8.780 -0.3201  0.7345  0.0390
 8309SOL    HW236387   1.859   3.674   8.660  0.9059 -0.0735 -3.2259
 8310SOL     OW36388   2.797   0.546   6.695  0.6233 -0.0329 -1.0506
 8310SOL    HW136389   2.865   0.612   6.710  1.7638 -1.3322 -0.4797
 8310SOL    HW236390   2.852   0.480   6.653  0.4513 -1.0461  0.3116
 8311SOL     OW36391   1.185   2.080   5.100  0.1817  0.0501  0.4512
 8311SOL    HW136392   1.100   2.059   5.061  0.6071  1.3240 -1.1412
 8311SOL    HW236393   1.236   2.005   5.069 -0.5541 -0.3258  0.1407
 8312SOL     OW36394   0.782   2.834   4.805 -0.8401  0.4839  0.0063
 8312SOL    HW136395   0.775   2.767   4.873  0.7192  1.5325  1.2159
 8312SOL    HW236396   0.740   2.790   4.731 -2.1352  1.0245  0.4277
 8313SOL     OW36397   1.351   2.976  17.057  0.0104 -0.0391 -0.0657
 8313SOL    HW136398   1.426   3.032  17.037 -1.3519  1.6360 -0.4872
 8313SOL    HW236399   1.295   3.043  17.096  0.4447 -0.5486  1.4423
 8314SOL     OW36400   1.371   3.969   5.222 -0.1895  0.1893 -0.0510
 8314SOL    HW136401   1.418   3.987   5.141 -0.0868  1.5131  0.3083
 8314SOL    HW236402   1.280   3.964   5.193  0.0486  2.1379 -1.1109
 8315SOL     OW36403   3.836   4.532  14.452  0.1128  0.0187 -0.1018
 8315SOL    HW136404   3.744   4.516  14.474 -0.5474  0.4149 -2.6206
 8315SOL    HW236405   3.835   4.502  14.361 -1.1838 -0.9097  0.2129
 8316SOL     OW36406   0.193   4.680   7.819 -0.3208 -0.1833  0.5491
 8316SOL    HW136407   0.175   0.000   7.734  0.4135 -3.0404 -0.9907
 8316SOL    HW236408   0.154   4.593   7.807  1.1999 -0.5982 -1.4155
 8317SOL     OW36409   1.335   4.491   2.383  0.3055 -0.1311  0.4275
 8317SOL    HW136410   1.240   4.488   2.371  0.5350 -0.4497 -1.4519
 8317SOL    HW236411   1.356   4.399   2.393 -0.5456 -0.4384 -0.5543
 8318SOL     OW36412   4.451   2.769   6.040  0.4792 -0.2941 -0.4076
 8318SOL    HW136413   4.394   2.743   6.113 -3.1448 -0.6238 -3.3652
 8318SOL    HW236414   4.465   2.687   5.994  1.3878 -0.2132 -0.2674
 8319SOL     OW36415   3.542   4.100   7.685  0.4243  0.3374  0.4000
 8319SOL    HW136416   3.558   4.008   7.661 -0.7280  0.5496 -1.1417
 8319SOL    HW236417   3.619   4.123   7.737  0.3001 -0.2166  0.8270
 8320SOL     OW36418   2.213   0.078  13.015 -0.2034 -0.1602  0.6878
 8320SOL    HW136419   2.294   0.083  13.066  1.1924 -0.1735 -1.5308
 8320SOL    HW236420   2.189   4.711  13.044  0.9504 -0.8623 -0.4663
 8321SOL     OW36421   3.799   2.240  10.835  0.2591 -0.0160 -0.5773
 8321SOL    HW136422   3.858   2.307  10.869 -1.3320  1.3988 -0.6703
 8321SOL    HW236423   3.761   2.269  10.752  0.2717 -3.6398 -1.8560
 8322SOL     OW36424   3.024   1.902   1.192  0.2607 -0.1203  0.9692
 8322SOL    HW136425   2.931   1.924   1.201 -0.1632 -1.3946 -0.2419
 8322SOL    HW236426   3.036   1.847   1.270  0.1016 -0.1473  0.9768
 8323SOL     OW36427   0.895   4.357  12.662 -0.0484  0.5775 -0.2283
 8323SOL    HW136428   0.960   4.315  12.607 -0.8420 -0.7673 -0.1375
 8323SOL    HW236429   0.929   4.327  12.747 -2.0735 -2.9785 -0.6656
 8324SOL     OW36430   2.908   0.730   9.830 -0.2947  0.0291 -0.1281
 8324SOL    HW136431   2.835   0.707   9.888  0.0073 -2.0834 -0.5968
 8324SOL    HW236432   2.891   0.822   9.811 -0.1638 -0.4212 -2.4694
 8325SOL     OW36433   1.139   4.350   2.579  0.3326  0.1978 -0.0458
 8325SOL    HW136434   1.091   4.308   2.650 -1.0861  1.6824 -0.1093
 8325SOL    HW236435   1.074   4.399   2.527  2.0650  1.5864 -0.9087
 8326SOL     OW36436   4.692   2.854  10.470 -0.2329  0.3680  0.1558
 8326SOL    HW136437   4.713   2.864  10.378  3.0122  0.5421  0.9104
 8326SOL    HW236438   4.713   2.764  10.494 -0.7166  0.7954  2.2803
 8327SOL     OW36439   2.633   1.498   0.424 -0.2784 -0.5039  0.4965
 8327SOL    HW136440   2.694   1.567   0.399 -2.0219  0.9906  0.3556
 8327SOL    HW236441   2.675   1.442   0.489  1.2356 -0.4714 -0.4468
 8328SOL     OW36442   0.657   2.844   2.477 -0.6106  0.7225 -0.4186
 8328SOL    HW136443   0.702   2.839   2.393  0.0933 -0.5969  0.0297
 8328SOL    HW236444   0.572   2.853   2.435 -1.7352 -1.0687  1.4392
 8329SOL     OW36445   0.300   4.708   2.625 -0.0383  0.0832 -0.3428
 8329SOL    HW136446   0.352   4.705   2.545 -2.0991 -0.9273 -1.6522
 8329SOL    HW236447   0.246   4.630   2.638  2.3990 -1.7460 -1.2638
 8330SOL     OW36448   0.895   0.460   6.497 -0.6388  0.3567  0.0614
 8330SOL    HW136449   0.832   0.447   6.426 -0.7588 -0.5725  0.3392
 8330SOL    HW236450   0.959   0.520   6.459  2.0467 -2.6680 -0.1000
 8331SOL     OW36451   0.677   1.503   4.634  0.4394  0.8345  0.1367
 8331SOL    HW136452   0.596   1.553   4.631 -0.2730 -0.4564 -1.9694
 8331SOL    HW236453   0.652   1.428   4.689 -1.4633  1.8008  0.5960
 8332SOL     OW36454   4.565   1.050   6.458 -0.4607 -0.8365  0.0489
 8332SOL    HW136455   4.649   1.018   6.491 -0.5906 -2.4993 -1.2681
 8332SOL    HW236456   4.506   1.002   6.517 -1.1563  1.3901  1.1795
 8333SOL     OW36457   2.730   2.344   3.956 -0.1164  0.2179 -0.3488
 8333SOL    HW136458   2.706   2.412   3.893  0.7789  2.1067  1.3661
 8333SOL    HW236459   2.669   2.360   4.028 -1.8136  3.0782 -2.4616
 8334SOL     OW36460   1.585   1.687  15.731 -0.8682 -0.8157  0.1078
 8334SOL    HW136461   1.622   1.640  15.656  0.5959 -1.2585  1.1074
 8334SOL    HW236462   1.661   1.678  15.789 -0.9509  1.5275  0.5675
 8335SOL     OW36463   3.818   0.070  17.165 -0.3719  0.3411  0.3236
 8335SOL    HW136464   3.847   0.057  17.075  1.0302 -2.4716  1.1702
 8335SOL    HW236465   3.724   0.052  17.173 -0.2557  0.3798  1.8761
 8336SOL     OW36466   1.127   1.266   5.727 -0.1745 -0.1130  0.0715
 8336SOL    HW136467   1.140   1.348   5.681  1.6756 -1.4844 -1.8165
 8336SOL    HW236468   1.082   1.294   5.807  1.3195  0.8757  0.5573
 8337SOL     OW36469   4.030   4.191   9.938  0.2266 -1.0756 -0.2169
 8337SOL    HW136470   4.110   4.140   9.924  1.1890 -0.4251  2.9445
 8337SOL    HW236471   4.054   4.265   9.882 -0.8260 -0.9564 -0.5065
 8338SOL     OW36472   2.160   3.762   4.678  0.0994  0.1310  0.5311
 8338SOL    HW136473   2.180   3.812   4.599 -0.6671 -1.1036 -0.4414
 8338SOL    HW236474   2.247   3.753   4.717  0.7671  0.6678 -0.8366
 8339SOL     OW36475   2.717   3.996   4.563 -0.4207  0.1632 -0.7769
 8339SOL    HW136476   2.710   4.058   4.490  0.6567 -0.1222 -1.1241
 8339SOL    HW236477   2.660   3.928   4.527 -0.9226  0.6469 -0.8955
 8340SOL     OW36478   4.683   3.365  14.435 -0.4718 -0.0256  0.1338
 8340SOL    HW136479   0.022   3.440  14.440  0.3024 -0.5289 -1.4842
 8340SOL    HW236480   4.613   3.406  14.485 -0.6020 -0.5472  0.3676
 8341SOL     OW36481   4.384   3.515   2.985  0.1499 -0.3503  0.1512
 8341SOL    HW136482   4.465   3.566   2.988 -0.6599  1.0238 -2.1474
 8341SOL    HW236483   4.318   3.583   2.997 -0.7031 -0.8967 -1.4470
 8342SOL     OW36484   1.720   0.582   5.818  0.3497  0.3610 -0.5474
 8342SOL    HW136485   1.628   0.603   5.802  0.0742  0.7669  1.5548
 8342SOL    HW236486   1.735   0.661   5.870  1.0888 -0.4463  0.4902
 8343SOL     OW36487   1.891   1.619  10.694  0.2511 -0.1976 -0.2059
 8343SOL    HW136488   1.963   1.555  10.694 -1.3909 -2.0440 -0.6642
 8343SOL    HW236489   1.924   1.686  10.634  2.7344  2.3795  4.0802
 8344SOL     OW36490   3.743   1.905   3.890 -0.2891 -0.2159 -0.0358
 8344SOL    HW136491   3.708   1.994   3.892  2.1101  0.7338  0.4745
 8344SOL    HW236492   3.793   1.911   3.808 -2.8160  0.8272 -1.5070
 8345SOL     OW36493   0.317   0.613  14.895  0.3108  0.0698  0.4571
 8345SOL    HW136494   0.340   0.613  14.988  0.4984  0.1928  0.4105
 8345SOL    HW236495   0.251   0.682  14.894 -1.1257 -1.3253 -1.2148
 8346SOL     OW36496   4.485   1.651   8.386 -0.2565 -0.2613 -0.3663
 8346SOL    HW136497   4.452   1.594   8.317 -1.6462 -0.2354  0.2638
 8346SOL    HW236498   4.522   1.722   8.335  1.5950  1.1537  2.9103
 8347SOL     OW36499   1.370   2.652  12.907 -0.0849  0.8040 -0.2757
 8347SOL    HW136500   1.295   2.665  12.966  2.6531  1.1810  3.1258
 8347SOL    HW236501   1.429   2.728  12.910 -0.0323  0.7449  0.1303
 8348SOL     OW36502   0.710   3.431  10.231 -0.6184  0.2133 -0.3435
 8348SOL    HW136503   0.766   3.439  10.153  2.6319  2.1232  2.1666
 8348SOL    HW236504   0.668   3.516  10.224 -0.7865  0.1325 -0.2999
 8349SOL     OW36505   3.174   3.280   7.644  0.0443 -0.3304 -0.0605
 8349SOL    HW136506   3.131   3.210   7.596  0.7357 -0.4623 -0.4968
 8349SOL    HW236507   3.128   3.285   7.728 -0.5570  5.0785 -0.7068
 8350SOL     OW36508   0.481   0.978   4.795  0.7622  0.3622  0.4526
 8350SOL    HW136509   0.388   0.973   4.819 -0.0679 -0.4901 -2.9108
 8350SOL    HW236510   0.474   1.038   4.721  1.5845 -1.3185 -0.9804
 8351SOL     OW36511   2.909   3.710   6.118  0.1577 -0.3591  0.5832
 8351SOL    HW136512   2.927   3.771   6.046 -0.3766 -2.5265 -1.3741
 8351SOL    HW236513   2.906   3.765   6.196  0.4146  1.0123 -0.3660
 8352SOL     OW36514   4.010   0.073  11.638  0.5320  0.0376 -0.6046
 8352SOL    HW136515   3.980   0.124  11.713  1.2565  1.4581 -1.2804
 8352SOL    HW236516   4.009   0.138  11.567 -1.2628 -0.1550 -0.7616
 8353SOL     OW36517   4.451   0.165   9.956 -0.3147  0.1906  0.1991
 8353SOL    HW136518   4.414   0.165   9.868 -0.8615  0.3283  0.4241
 8353SOL    HW236519   4.382   0.214  10.001 -0.5561 -1.8700  2.1416
 8354SOL     OW36520   2.302   4.097   7.646  0.1499 -1.0590 -0.7191
 8354SOL    HW136521   2.302   4.049   7.563  0.8904 -2.0811 -0.1353
 8354SOL    HW236522   2.378   4.060   7.691  0.9884  1.1454 -0.3571
 8355SOL     OW36523   0.454   2.232   6.902 -0.3349  0.2525  0.0726
 8355SOL    HW136524   0.472   2.181   6.982  1.0173  1.4712  0.5594
 8355SOL    HW236525   0.393   2.174   6.856 -1.7449  1.0853  0.8977
 8356SOL     OW36526   0.896   2.621   3.176 -0.3448  0.2403 -0.1497
 8356SOL    HW136527   0.844   2.633   3.096  0.7387  0.0711 -0.8934
 8356SOL    HW236528   0.974   2.676   3.165  1.0809 -1.5184  1.1730
 8357SOL     OW36529   1.993   3.190   2.108  0.0364  0.4011  0.3426
 8357SOL    HW136530   2.063   3.152   2.163  0.7024  2.1138  0.6651
 8357SOL    HW236531   1.929   3.120   2.092  0.4125  0.8213 -2.8190
 8358SOL     OW36532   0.558   3.138   5.643 -0.0063  0.4946 -0.3279
 8358SOL    HW136533   0.591   3.051   5.668  0.0444  0.5582 -0.1791
 8358SOL    HW236534   0.643   3.180   5.638  0.0875  0.5123  1.4028
 8359SOL     OW36535   1.122   1.192   9.196 -0.3767  0.2051  0.5756
 8359SOL    HW136536   1.169   1.117   9.158 -0.6334 -0.1590  0.9859
 8359SOL    HW236537   1.095   1.231   9.113  1.7758 -1.4476 -0.9182
 8360SOL     OW36538   3.060   0.843   5.880 -0.3033 -0.0801  0.2553
 8360SOL    HW136539   3.092   0.857   5.791 -0.6175  1.7295  0.4361
 8360SOL    HW236540   2.994   0.775   5.867  1.1209 -1.7401  1.6234
 8361SOL     OW36541   0.701   4.517   4.420 -0.3540 -0.0521 -0.3611
 8361SOL    HW136542   0.694   4.520   4.515  1.5533  0.4261 -0.2412
 8361SOL    HW236543   0.768   4.578   4.390  0.6322 -1.1348 -0.3856
 8362SOL     OW36544   3.247   4.052   7.700 -0.4875  0.1529  0.8142
 8362SOL    HW136545   3.324   4.078   7.650 -2.5303  2.2415 -1.2521
 8362SOL    HW236546   3.193   4.130   7.713  0.9726  1.0853  1.2950
 8363SOL     OW36547   3.355   0.982   3.279 -0.0943 -0.2574 -0.1763
 8363SOL    HW136548   3.302   0.992   3.359  0.8438  0.2552  0.3746
 8363SOL    HW236549   3.369   0.887   3.277 -0.7819 -0.3836  0.6283
 8364SOL     OW36550   4.504   0.754   5.139 -0.1594  0.0663  0.5323
 8364SOL    HW136551   4.440   0.696   5.180  0.1553 -0.2939  0.5084
 8364SOL    HW236552   4.504   0.820   5.208 -0.5906 -1.3873  1.9132
 8365SOL     OW36553   2.266   3.757   2.029 -0.2674  0.2202 -0.6376
 8365SOL    HW136554   2.187   3.704   2.044 -1.1206  1.3389 -1.1277
 8365SOL    HW236555   2.245   3.805   1.949 -0.7148  4.6994  2.1172
 8366SOL     OW36556   2.818   2.398   1.885 -0.6777 -0.2922 -0.2094
 8366SOL    HW136557   2.912   2.406   1.898 -0.8756  0.5645  0.7046
 8366SOL    HW236558   2.815   2.307   1.853 -3.9645 -0.8558  1.7774
 8367SOL     OW36559   4.631   2.280   5.675  0.1054 -0.4726  0.0059
 8367SOL    HW136560   4.542   2.250   5.693 -0.6410  1.0029 -1.2075
 8367SOL    HW236561   4.684   2.204   5.653  1.3254  0.3922 -0.0679
 8368SOL     OW36562   2.186   0.599   8.767  0.5071  0.5972 -0.7660
 8368SOL    HW136563   2.182   0.590   8.862  0.9322 -0.0826 -0.8075
 8368SOL    HW236564   2.115   0.661   8.754 -0.0248  0.3775  1.1730
 8369SOL     OW36565   2.742   3.511   7.870  0.0382  0.0308 -0.6044
 8369SOL    HW136566   2.814   3.520   7.933  0.0539  1.2779 -0.7843
 8369SOL    HW236567   2.730   3.600   7.836  2.6069  0.9941  1.0049
 8370SOL     OW36568   0.853   3.003   6.026  0.0864  0.3083  0.9301
 8370SOL    HW136569   0.904   2.941   6.078  1.0788  0.2863 -0.0689
 8370SOL    HW236570   0.774   3.008   6.080 -1.3096 -0.3668 -1.0450
 8371SOL     OW36571   3.707   1.965   4.982 -0.0372 -0.0647 -0.2854
 8371SOL    HW136572   3.752   2.039   5.021 -1.9482 -0.4297  2.6038
 8371SOL    HW236573   3.642   2.003   4.924 -0.7873  0.1660  0.7104
 8372SOL     OW36574   4.194   1.375  15.482 -0.0702  0.1955  0.0231
 8372SOL    HW136575   4.283   1.402  15.458  0.3559 -0.9675  0.2993
 8372SOL    HW236576   4.157   1.333  15.404  1.6121  0.7333 -1.0712
 8373SOL     OW36577   0.828   0.332  11.371  0.1118  0.2265 -0.2661
 8373SOL    HW136578   0.922   0.325  11.388 -0.0444 -1.5612 -0.2119
 8373SOL    HW236579   0.828   0.322  11.276 -2.8446 -0.4815 -0.2023
 8374SOL     OW36580   3.426   2.857  13.282 -0.9490  0.6679  0.4264
 8374SOL    HW136581   3.396   2.868  13.192 -1.0145 -0.6030  0.2872
 8374SOL    HW236582   3.515   2.892  13.281 -0.4518 -0.6572 -0.6640
 8375SOL     OW36583   0.410   2.106   3.539 -0.4367  0.0159  0.0799
 8375SOL    HW136584   0.502   2.110   3.514 -0.7718  0.9917 -0.9914
 8375SOL    HW236585   0.408   2.173   3.607 -0.6104 -0.6633  0.7458
 8376SOL     OW36586   4.453   1.213   3.784  0.0391 -0.0637 -0.0104
 8376SOL    HW136587   4.388   1.274   3.748 -1.0379 -0.0044  2.0947
 8376SOL    HW236588   4.432   1.128   3.744 -2.1336  1.2345 -1.6368
 8377SOL     OW36589   4.586   4.334   2.331 -0.0791 -0.0514 -0.2993
 8377SOL    HW136590   4.605   4.322   2.238  2.2730  3.2388 -0.2523
 8377SOL    HW236591   4.514   4.274   2.348 -1.3713  1.6910  0.4213
 8378SOL     OW36592   2.077   4.685  12.801 -0.0172  0.0475  0.2204
 8378SOL    HW136593   2.144   4.711  12.864 -0.0851 -0.6518  0.5816
 8378SOL    HW236594   2.121   4.667  12.718  0.5301  0.1422  0.4859
 8379SOL     OW36595   4.433   4.568   6.897 -0.0301  0.5044 -0.1758
 8379SOL    HW136596   4.412   4.475   6.899  2.2748 -0.0447 -1.3792
 8379SOL    HW236597   4.507   4.554   6.837  0.5726  0.6328  0.5360
 8380SOL     OW36598   4.270   0.600   5.206  0.0247  0.7718 -0.2985
 8380SOL    HW136599   4.187   0.640   5.180 -1.1979 -1.2415  0.5480
 8380SOL    HW236600   4.255   0.506   5.198 -0.4900  0.7593  0.7778
 8381SOL     OW36601   1.498   0.794   1.243  0.8554 -0.4908  0.1381
 8381SOL    HW136602   1.441   0.777   1.318  0.1849 -1.0432 -0.4940
 8381SOL    HW236603   1.585   0.790   1.281  0.0080  0.3298  2.2017
 8382SOL     OW36604   0.515   4.094   4.036  1.0693 -0.5520  0.1014
 8382SOL    HW136605   0.546   4.175   3.996  0.1824 -1.3166 -2.1234
 8382SOL    HW236606   0.421   4.106   4.025  0.8050 -2.0558  0.7037
 8383SOL     OW36607   4.315   3.092   7.319 -0.5746 -0.0268 -0.1136
 8383SOL    HW136608   4.351   3.085   7.231 -3.0681  1.9128 -1.2957
 8383SOL    HW236609   4.395   3.110   7.367  0.1876 -1.1141 -0.9612
 8384SOL     OW36610   2.441   1.476   3.933  0.2269 -0.3378  0.3835
 8384SOL    HW136611   2.392   1.536   3.877  2.2772  2.3941  1.5599
 8384SOL    HW236612   2.522   1.521   3.957  0.1836  0.1800 -0.4616
 8385SOL     OW36613   0.164   2.558   8.121 -0.2441 -0.3989  0.9985
 8385SOL    HW136614   0.078   2.568   8.078  0.0611  0.8172  0.6703
 8385SOL    HW236615   0.215   2.563   8.040 -2.2412 -1.4214 -0.3148
 8386SOL     OW36616   0.022   4.200   7.463  0.0637 -0.6927  0.2912
 8386SOL    HW136617   4.651   4.170   7.456  0.4975 -2.3118  1.4711
 8386SOL    HW236618   0.025   4.222   7.370 -1.3609 -1.0503  0.1505
 8387SOL     OW36619   4.513   1.608   6.037 -0.1174 -0.6197 -0.2539
 8387SOL    HW136620   4.541   1.621   6.127 -1.2159  0.3704 -0.0572
 8387SOL    HW236621   4.426   1.648   6.035  1.5274  3.0400  2.1536
 8388SOL     OW36622   3.048   1.674   6.247 -0.3469  0.0319  0.5478
 8388SOL    HW136623   2.960   1.655   6.280 -1.5777  1.7997 -1.7599
 8388SOL    HW236624   3.084   1.735   6.311  0.3956 -1.3871  1.4727
 8389SOL     OW36625   3.507   3.808   9.259  0.4065  0.9166  0.0322
 8389SOL    HW136626   3.566   3.797   9.334  1.1006  1.6189 -0.4131
 8389SOL    HW236627   3.541   3.891   9.226  1.1170 -0.1451 -1.9300
 8390SOL     OW36628   0.473   3.399   3.192  0.0739 -0.5340  0.3741
 8390SOL    HW136629   0.477   3.452   3.112  3.7937 -1.3889  0.0135
 8390SOL    HW236630   0.400   3.339   3.177  0.5854 -1.2250  0.6583
 8391SOL     OW36631   0.331   1.586   7.947 -0.4278  0.5652 -0.0121
 8391SOL    HW136632   0.313   1.608   7.856  0.7600 -1.9020 -0.8482
 8391SOL    HW236633   0.414   1.538   7.943 -2.3710 -2.7334 -0.4362
 8392SOL     OW36634   0.599   3.321  11.627 -0.6404  0.3783  0.3873
 8392SOL    HW136635   0.663   3.376  11.672 -2.1808  1.3271  1.3996
 8392SOL    HW236636   0.604   3.337  11.532 -0.0620  2.4350  0.7755
 8393SOL     OW36637   4.246   4.521   1.782 -0.0660  0.2316 -0.7815
 8393SOL    HW136638   4.302   4.599   1.769 -0.0287  0.0427 -1.7961
 8393SOL    HW236639   4.169   4.566   1.815  0.6581 -0.2785  1.5883
 8394SOL     OW36640   1.863   0.812   4.650  0.7424  0.3581 -0.1011
 8394SOL    HW136641   1.815   0.813   4.733 -0.8718  0.7004 -1.0347
 8394SOL    HW236642   1.794   0.776   4.595 -0.1112  1.4282  0.2618
 8395SOL     OW36643   4.422   0.234  14.938  0.5113 -0.1869  0.3111
 8395SOL    HW136644   4.424   0.140  14.957  0.0532 -0.3585 -0.4851
 8395SOL    HW236645   4.418   0.235  14.842  1.6877 -1.9368  0.2349
 8396SOL     OW36646   3.611   0.721   4.164 -0.4974 -0.5830  0.3451
 8396SOL    HW136647   3.588   0.708   4.072  0.0731  2.2073 -0.1923
 8396SOL    HW236648   3.632   0.629   4.184  1.7334 -0.3702 -1.0507
 8397SOL     OW36649   2.761   1.951   1.203 -0.0459  0.2823  0.3065
 8397SOL    HW136650   2.680   1.905   1.181  1.3913 -1.6466 -0.9365
 8397SOL    HW236651   2.732   2.036   1.235 -0.9446  0.5654 -1.3013
 8398SOL     OW36652   0.669   2.768   8.709  0.0384  0.4529 -0.4115
 8398SOL    HW136653   0.760   2.794   8.718  0.2741 -0.5880  0.1758
 8398SOL    HW236654   0.679   2.674   8.723  0.3529  0.4836 -0.4355
 8399SOL     OW36655   0.888   0.130   6.716  0.3984 -0.1603 -0.4519
 8399SOL    HW136656   0.931   0.212   6.740  0.3380 -1.0767  2.7604
 8399SOL    HW236657   0.931   0.072   6.779 -0.6149 -1.1747 -0.7057
 8400SOL     OW36658   4.041   1.665   5.448  0.1167 -0.0814 -0.4930
 8400SOL    HW136659   4.081   1.660   5.534  0.0783  1.3761 -0.3857
 8400SOL    HW236660   3.974   1.596   5.449  0.4996 -0.4145  1.4682
 8401SOL     OW36661   2.201   3.554   7.836  0.0247  0.4628 -0.2088
 8401SOL    HW136662   2.182   3.599   7.754 -3.2848 -0.7309 -0.1034
 8401SOL    HW236663   2.152   3.598   7.905 -0.5136  0.2132 -0.4342
 8402SOL     OW36664   0.052   1.946   6.247  0.2057  0.1786  0.3516
 8402SOL    HW136665   4.693   1.962   6.196  0.8782  1.2449 -0.3726
 8402SOL    HW236666   0.028   1.892   6.322  1.8569  1.2945  1.7025
 8403SOL     OW36667   4.159   2.197   7.302 -0.1430 -0.1568 -0.1656
 8403SOL    HW136668   4.207   2.165   7.225 -1.9746  1.2513 -1.8885
 8403SOL    HW236669   4.086   2.136   7.315 -0.5122  0.6136  1.2800
 8404SOL     OW36670   0.531   3.788   4.421 -0.0276  1.0949  0.6081
 8404SOL    HW136671   0.473   3.781   4.497 -0.4469 -1.7265  0.0586
 8404SOL    HW236672   0.608   3.827   4.462  1.2241  0.5141 -1.1831
 8405SOL     OW36673   3.015   0.666   4.519 -0.2039 -0.1935  0.1373
 8405SOL    HW136674   3.079   0.681   4.589 -0.9297 -1.1847  1.0006
 8405SOL    HW236675   3.058   0.712   4.447 -1.4878 -0.2017 -0.6424
 8406SOL     OW36676   3.433   2.195   8.627  0.4178  0.1040 -0.2397
 8406SOL    HW136677   3.406   2.121   8.573  1.9790  1.0454 -2.2926
 8406SOL    HW236678   3.382   2.263   8.584  2.2528  1.4082 -0.3593
 8407SOL     OW36679   3.443   1.409   4.690  0.0543  0.6107 -0.2297
 8407SOL    HW136680   3.408   1.440   4.773 -0.3248  0.5292 -0.3587
 8407SOL    HW236681   3.404   1.477   4.636  0.2577 -0.0957 -1.2701
 8408SOL     OW36682   3.971   1.341   1.197  0.2951  0.2639 -0.2312
 8408SOL    HW136683   4.050   1.317   1.149  1.1683  0.4465  1.0980
 8408SOL    HW236684   3.993   1.383   1.280  0.6271 -0.4195  0.0267
 8409SOL     OW36685   0.025   1.669   5.906  0.1854  0.1550 -0.5444
 8409SOL    HW136686   4.662   1.635   5.937  0.2443  1.6165  1.1932
 8409SOL    HW236687   0.089   1.603   5.932 -0.7334  0.5420  2.7113
 8410SOL     OW36688   0.786   3.278   5.138 -0.3780  0.0758 -0.7047
 8410SOL    HW136689   0.797   3.353   5.081  0.9157 -0.7044 -1.4858
 8410SOL    HW236690   0.863   3.225   5.115 -0.5888 -0.5375 -0.0157
 8411SOL     OW36691   4.230   3.023   5.337 -0.4479 -0.1140  0.3969
 8411SOL    HW136692   4.278   3.077   5.275  2.2274 -1.2055  1.5184
 8411SOL    HW236693   4.221   3.087   5.407 -1.4994 -1.6139  1.6383
 8412SOL     OW36694   4.450   1.803  12.266 -0.2178 -0.4235 -0.0737
 8412SOL    HW136695   4.477   1.745  12.195 -0.2235  1.4074 -1.5607
 8412SOL    HW236696   4.391   1.862  12.220 -1.4373 -1.2795  0.3887
 8413SOL     OW36697   4.244   4.247   9.368  0.5838 -0.4093  0.2045
 8413SOL    HW136698   4.279   4.228   9.455 -0.8860  0.3005  0.9468
 8413SOL    HW236699   4.210   4.335   9.380  0.4293 -0.2954 -1.0897
 8414SOL     OW36700   3.423   1.470   1.816  0.0162 -0.0051 -0.0387
 8414SOL    HW136701   3.344   1.518   1.839  0.1652 -0.5367  1.5873
 8414SOL    HW236702   3.477   1.549   1.807 -0.6386  0.9261  4.2154
 8415SOL     OW36703   1.562   3.367   6.899  0.0047 -0.4610 -0.1928
 8415SOL    HW136704   1.644   3.416   6.902 -0.9605  1.2640 -1.7300
 8415SOL    HW236705   1.522   3.401   6.819  3.5365  4.3872  0.1088
 8416SOL     OW36706   3.565   3.040  17.619  0.2419 -0.2701  0.2087
 8416SOL    HW136707   3.507   3.060  17.545  0.4791 -0.3967 -0.0103
 8416SOL    HW236708   3.559   2.945  17.622  2.3926 -0.3566  1.2291
 8417SOL     OW36709   4.642   4.633   7.641 -0.1097 -0.0717  0.1724
 8417SOL    HW136710   4.629   4.546   7.678  0.7160  0.2545  1.2303
 8417SOL    HW236711   4.626   4.677   7.725 -1.1714 -0.2191  0.0503
 8418SOL     OW36712   3.469   1.783  16.706 -0.1161 -0.2406 -0.3121
 8418SOL    HW136713   3.540   1.724  16.730  1.8111  2.1106 -0.2422
 8418SOL    HW236714   3.418   1.729  16.646 -0.2389 -1.4264  0.8659
 8419SOL     OW36715   0.836   3.990  13.612  0.0702 -0.2846  0.2032
 8419SOL    HW136716   0.859   3.899  13.633 -1.7615 -1.5995 -3.4323
 8419SOL    HW236717   0.924   4.026  13.623  0.5175 -1.3024 -0.0103
 8420SOL     OW36718   0.623   4.631  13.401 -0.2625 -0.1113  0.1151
 8420SOL    HW136719   0.596   4.539  13.410 -1.8265  0.5809  2.3776
 8420SOL    HW236720   0.658   4.643  13.489 -1.8307  0.0503  0.7098
 8421SOL     OW36721   1.423   4.048   4.613 -0.2476 -0.5868  0.2484
 8421SOL    HW136722   1.410   4.140   4.639  1.7109 -0.4624  0.7899
 8421SOL    HW236723   1.422   4.059   4.518 -1.7420  0.0561  0.3359
 8422SOL     OW36724   0.086   0.897   5.700 -0.1836  0.2545  0.2191
 8422SOL    HW136725   4.711   0.894   5.694 -0.2149 -0.4271  0.9698
 8422SOL    HW236726   0.111   0.988   5.692  1.4690  0.0643  3.3534
 8423SOL     OW36727   2.727   4.539   8.676  0.0857  0.4252 -0.0944
 8423SOL    HW136728   2.684   4.515   8.758 -0.6542  0.5545 -0.4401
 8423SOL    HW236729   2.683   4.475   8.619  0.4115  1.2792 -1.3094
 8424SOL     OW36730   0.213   3.017   0.142 -0.1330 -0.3307  0.0045
 8424SOL    HW136731   0.270   3.093   0.148  0.2212 -0.8414  3.1301
 8424SOL    HW236732   0.253   2.967   0.071  0.9849 -0.5042  0.7621
 8425SOL     OW36733   4.637   0.882   6.799  0.4348  0.0627 -0.0733
 8425SOL    HW136734   4.700   0.821   6.837  0.4041 -1.2188 -2.1144
 8425SOL    HW236735   4.622   0.945   6.870 -2.7954 -0.5169 -0.2759
 8426SOL     OW36736   2.582   0.942   6.023 -0.0504  0.0801  0.4643
 8426SOL    HW136737   2.584   0.892   5.942  1.3265 -1.9686  1.7514
 8426SOL    HW236738   2.667   0.928   6.065 -0.4653 -1.2414  0.8440
 8427SOL     OW36739   3.471   1.802   4.723 -0.1773  0.7300 -0.1825
 8427SOL    HW136740   3.474   1.866   4.794  0.8688  0.3983  0.0670
 8427SOL    HW236741   3.564   1.792   4.705 -0.6092  0.2957 -2.1305
 8428SOL     OW36742   4.199   4.286  15.173  0.5951  0.0461  0.4041
 8428SOL    HW136743   4.271   4.342  15.144  0.9528 -0.7092 -0.1351
 8428SOL    HW236744   4.237   4.242  15.249 -0.9596 -0.7090  0.7366
 8429SOL     OW36745   4.274   1.851   1.008 -0.7352  0.3037 -0.4579
 8429SOL    HW136746   4.268   1.887   0.920  2.8846 -0.7727 -1.1550
 8429SOL    HW236747   4.198   1.890   1.052 -0.8298 -1.7347  1.1816
 8430SOL     OW36748   3.384   1.062   3.938 -0.2945  0.4378  0.1736
 8430SOL    HW136749   3.437   1.095   3.866  0.2395 -1.4891 -0.3038
 8430SOL    HW236750   3.440   1.074   4.015 -0.1778  0.8094  0.0334
 8431SOL     OW36751   1.482   2.298   2.635  0.5277 -0.3278  0.2942
 8431SOL    HW136752   1.489   2.319   2.728  0.2982 -2.0534  0.6986
 8431SOL    HW236753   1.511   2.375   2.586 -0.3316 -0.0100  0.2708
 8432SOL     OW36754   0.537   0.932   1.525 -0.1147 -0.0750 -0.2754
 8432SOL    HW136755   0.579   0.867   1.468 -0.7783 -0.4329 -0.3541
 8432SOL    HW236756   0.602   0.935   1.595  0.2879 -0.5226 -0.6273
 8433SOL     OW36757   0.301   0.251   1.823  0.2113  0.1532  0.2064
 8433SOL    HW136758   0.390   0.222   1.806  0.2632 -1.2584  2.9664
 8433SOL    HW236759   0.302   0.251   1.919  1.0323 -0.8826  0.1879
 8434SOL     OW36760   4.517   1.251   4.866 -0.4268  0.5920 -0.7166
 8434SOL    HW136761   4.608   1.270   4.844 -0.1950  0.8730  0.4913
 8434SOL    HW236762   4.504   1.175   4.810 -0.4024  0.0313  0.0437
 8435SOL     OW36763   2.783   4.654   7.723 -0.1357 -0.9161 -0.1457
 8435SOL    HW136764   2.756   0.020   7.753  1.2200 -0.1989 -0.9783
 8435SOL    HW236765   2.702   4.637   7.674  0.5869 -2.1930 -0.9061
 8436SOL     OW36766   2.101   2.795   0.681  0.7106  0.3206 -0.1918
 8436SOL    HW136767   2.152   2.717   0.661 -0.4029 -0.9204  1.8852
 8436SOL    HW236768   2.116   2.810   0.774 -3.5073 -0.4110  0.6094
 8437SOL     OW36769   2.890   0.942   0.965 -0.6026 -0.8684 -0.3618
 8437SOL    HW136770   2.950   0.904   0.902 -0.0664 -1.5483  0.5588
 8437SOL    HW236771   2.810   0.953   0.913 -0.2078 -0.9011 -0.9771
 8438SOL     OW36772   2.545   4.597   7.600 -0.4048  0.6235  0.0531
 8438SOL    HW136773   2.537   4.512   7.642 -0.2277 -1.0868 -3.3527
 8438SOL    HW236774   2.481   4.647   7.650  0.8701  1.2611  1.0513
 8439SOL     OW36775   2.817   1.141   5.103  0.1909 -0.0549 -0.3117
 8439SOL    HW136776   2.810   1.050   5.076  0.1026 -0.4178  0.9339
 8439SOL    HW236777   2.726   1.143   5.130  0.0025  0.0299 -0.9605
 8440SOL     OW36778   4.500   1.034  15.873 -0.1091  0.0526 -0.3398
 8440SOL    HW136779   4.439   1.018  15.945  0.2132  0.8054  0.1085
 8440SOL    HW236780   4.474   1.126  15.859 -2.4065 -0.6326 -0.5775
 8441SOL     OW36781   2.357   3.441   1.924  0.9074 -0.4031 -0.4286
 8441SOL    HW136782   2.298   3.493   1.869 -0.4671 -1.5427 -0.0201
 8441SOL    HW236783   2.356   3.363   1.867  1.2439 -0.7611  0.0567
 8442SOL     OW36784   4.709   2.974   6.584 -0.1010 -1.0116 -0.0884
 8442SOL    HW136785   0.072   2.932   6.601 -0.0455 -0.8389  0.0644
 8442SOL    HW236786   4.699   2.936   6.497 -1.6141  1.8795 -1.2045
 8443SOL     OW36787   0.576   2.299  13.714  0.5868  0.0157  0.8756
 8443SOL    HW136788   0.488   2.336  13.718  0.6515  0.3392 -0.5911
 8443SOL    HW236789   0.561   2.206  13.734 -1.7439  0.3674  0.7773
 8444SOL     OW36790   3.511   0.085  11.766 -0.1436  0.2709  0.5303
 8444SOL    HW136791   3.527   0.107  11.674 -1.4260  3.2870  1.0080
 8444SOL    HW236792   3.589   0.110  11.815  0.4693 -1.9298  0.6515
 8445SOL     OW36793   3.124   3.377  11.326 -0.3065 -0.0811  0.4145
 8445SOL    HW136794   3.074   3.430  11.389  0.6003  0.5537  0.6068
 8445SOL    HW236795   3.196   3.435  11.303  0.1910 -2.0292 -2.8274
 8446SOL     OW36796   0.537   0.743   1.995 -0.0542  0.0140 -0.7136
 8446SOL    HW136797   0.589   0.817   2.026  1.9562 -0.8181 -2.0818
 8446SOL    HW236798   0.577   0.745   1.908  0.6498 -1.1251 -0.4191
 8447SOL     OW36799   4.592   0.475   2.428  0.0483 -0.3485 -0.4024
 8447SOL    HW136800   4.606   0.385   2.399  1.8058  0.0442 -0.7893
 8447SOL    HW236801   4.509   0.487   2.382  0.2455  0.5682 -0.5039
 8448SOL     OW36802   2.304   2.036   7.676 -0.2082  0.0179 -0.3483
 8448SOL    HW136803   2.296   2.009   7.584  2.0186  0.5121 -0.6879
 8448SOL    HW236804   2.376   1.983   7.710  0.9743  2.6881  1.2388
 8449SOL     OW36805   3.539   0.512   6.180  0.8146 -0.1543  0.4345
 8449SOL    HW136806   3.521   0.531   6.272  0.4898  4.1989 -0.5588
 8449SOL    HW236807   3.534   0.599   6.142 -2.9801  0.1465  1.5849
 8450SOL     OW36808   3.391   4.217  11.231 -0.1457  0.1419  0.1985
 8450SOL    HW136809   3.457   4.254  11.173 -0.2889 -1.0591 -0.7485
 8450SOL    HW236810   3.389   4.274  11.308  0.5382  1.5927 -0.8586
 8451SOL     OW36811   3.347   4.318   5.867  0.4323 -0.1130 -0.0422
 8451SOL    HW136812   3.274   4.380   5.875 -0.8817 -1.3753 -2.2815
 8451SOL    HW236813   3.332   4.299   5.775  0.5939 -0.9070  0.0980
 8452SOL     OW36814   1.123   0.759  12.065 -0.5321  0.1406  0.4147
 8452SOL    HW136815   1.194   0.694  12.063  2.0225  3.0127 -3.7310
 8452SOL    HW236816   1.137   0.800  11.979 -3.0320  2.1927  0.9943
 8453SOL     OW36817   0.069   0.962   6.584 -0.4207 -0.1648 -0.3199
 8453SOL    HW136818   0.140   0.901   6.603 -0.7434 -0.6146 -0.5535
 8453SOL    HW236819   0.032   0.954   6.672 -4.1826 -0.7472 -1.9512
 8454SOL     OW36820   0.599   3.084  12.416 -0.5489  0.1736 -0.2470
 8454SOL    HW136821   0.575   3.001  12.375 -2.7734 -0.0525  1.4880
 8454SOL    HW236822   0.514   3.114  12.449 -0.2531  0.4538  0.2744
 8455SOL     OW36823   4.583   1.190   1.801  0.1255  0.1653  0.1817
 8455SOL    HW136824   4.667   1.219   1.836  0.2029  0.0029  0.1311
 8455SOL    HW236825   4.528   1.267   1.816  0.4491 -0.0302  2.4045
 8456SOL     OW36826   2.527   1.411   1.236 -0.6456  0.2193  0.0951
 8456SOL    HW136827   2.578   1.342   1.278 -0.7704 -0.8974 -1.5666
 8456SOL    HW236828   2.568   1.416   1.149 -2.1390 -1.0497 -0.6677
 8457SOL     OW36829   0.548   2.340   7.711 -0.0799  0.1014  0.0883
 8457SOL    HW136830   0.637   2.374   7.698 -0.0227  0.4315  1.4092
 8457SOL    HW236831   0.557   2.275   7.780  1.6894 -1.7544 -1.8990
 8458SOL     OW36832   3.094   0.694   6.805 -0.1740  0.0297 -0.0984
 8458SOL    HW136833   3.121   0.785   6.799  2.5585 -0.8290 -0.6738
 8458SOL    HW236834   3.068   0.679   6.896 -1.5718 -2.7424 -0.9182
 8459SOL     OW36835   1.865   3.538   4.847  0.0404  0.0064 -0.2588
 8459SOL    HW136836   1.793   3.474   4.844 -0.0955  0.2457 -2.6056
 8459SOL    HW236837   1.945   3.491   4.825 -0.7949 -2.5141  2.0650
 8460SOL     OW36838   3.752   0.961  14.545  0.2212  0.1056 -0.4052
 8460SOL    HW136839   3.762   0.867  14.563  1.0141  0.5494  1.5226
 8460SOL    HW236840   3.658   0.974  14.557 -0.1570 -2.0404 -1.0093
 8461SOL     OW36841   1.987   1.518   3.563 -0.3625  0.8185  0.3844
 8461SOL    HW136842   2.044   1.474   3.626  0.6126 -0.7773 -1.6059
 8461SOL    HW236843   2.013   1.481   3.478 -3.1979 -0.2285 -0.0451
 8462SOL     OW36844   2.520   0.247   0.477  0.2310  0.1878 -0.2138
 8462SOL    HW136845   2.588   0.251   0.544 -0.3933  0.3637  0.4127
 8462SOL    HW236846   2.456   0.186   0.512  0.6613 -0.4018 -0.4577
 8463SOL     OW36847   3.942   1.019  11.265 -0.0181 -0.5001 -0.3193
 8463SOL    HW136848   3.904   0.977  11.343 -1.6636  1.5092 -0.0551
 8463SOL    HW236849   4.035   0.996  11.270 -0.0287 -0.5811 -0.5002
 8464SOL     OW36850   3.126   1.566   7.563 -0.1222 -0.7481  0.2388
 8464SOL    HW136851   3.209   1.608   7.540  1.3692 -4.4690 -1.1758
 8464SOL    HW236852   3.155   1.502   7.628  0.5818 -0.0582  0.6026
 8465SOL     OW36853   1.249   0.118   4.024  0.4781  0.1477  0.3096
 8465SOL    HW136854   1.315   0.124   3.955 -2.0616 -1.4524 -2.2393
 8465SOL    HW236855   1.213   0.032   4.004  2.9146 -0.7714  0.0064
 8466SOL     OW36856   2.854   2.894   9.130 -0.1593  0.4099  0.0846
 8466SOL    HW136857   2.807   2.975   9.110 -0.9204  0.5196  2.4021
 8466SOL    HW236858   2.937   2.929   9.161  0.2631  0.1338 -0.7214
 8467SOL     OW36859   1.257   4.272   7.198  0.1294  0.1020  0.4808
 8467SOL    HW136860   1.210   4.308   7.274  1.2888 -1.0215  1.7228
 8467SOL    HW236861   1.184   4.269   7.136  0.3822  2.0108  0.1084
 8468SOL     OW36862   0.992   0.240   9.240  0.1343 -0.8373  0.0778
 8468SOL    HW136863   1.044   0.296   9.299 -1.6231  1.0517 -0.1513
 8468SOL    HW236864   1.056   0.249   9.169  1.1602 -0.9677  0.9916
 8469SOL     OW36865   3.111   0.733   7.719 -0.1633 -0.5552  0.3367
 8469SOL    HW136866   3.144   0.760   7.634  1.4535  1.4618  1.6126
 8469SOL    HW236867   3.106   0.820   7.759  2.0933  0.5227 -1.7673
 8470SOL     OW36868   2.310   1.610   6.859  0.1058  0.1909 -0.1652
 8470SOL    HW136869   2.296   1.613   6.953  0.2695 -1.6972 -0.0739
 8470SOL    HW236870   2.396   1.650   6.843  0.8365 -1.5409 -0.6984
 8471SOL     OW36871   1.347   2.289  16.276  0.1141 -0.0341 -0.2328
 8471SOL    HW136872   1.264   2.283  16.230 -1.4851 -3.3402  3.0701
 8471SOL    HW236873   1.350   2.380  16.305 -0.3589 -0.3334  0.7509
 8472SOL     OW36874   1.139   3.607   3.114 -0.5151 -0.6249 -0.1410
 8472SOL    HW136875   1.074   3.544   3.082 -1.2627 -0.0312  0.2186
 8472SOL    HW236876   1.151   3.577   3.204 -1.4808  2.4408  1.0111
 8473SOL     OW36877   1.105   1.653  11.894 -0.6596  0.3017  0.5023
 8473SOL    HW136878   1.041   1.718  11.867 -0.4441 -1.0526 -3.2877
 8473SOL    HW236879   1.169   1.723  11.906 -1.2022  0.9501 -0.3611
 8474SOL     OW36880   4.658   0.517  13.146  0.2711  0.5277  0.3860
 8474SOL    HW136881   4.720   0.496  13.216 -0.5774 -0.4235  0.8634
 8474SOL    HW236882   4.709   0.563  13.080  1.0710  0.6347  1.0789
 8475SOL     OW36883   3.428   2.296   5.906  0.0595  0.1919  0.1077
 8475SOL    HW136884   3.475   2.324   5.828  0.8645 -1.8603 -0.1460
 8475SOL    HW236885   3.389   2.217   5.868 -1.3847  0.7666  0.3873
 8476SOL     OW36886   3.979   1.407   0.142 -0.4375  0.1579  0.2926
 8476SOL    HW136887   3.890   1.419   0.174 -0.2412  0.5439  0.7019
 8476SOL    HW236888   3.992   1.312   0.146  2.8269  0.6204  0.6744
 8477SOL     OW36889   2.110   0.725   0.347  0.3929 -0.2796  0.5247
 8477SOL    HW136890   2.205   0.734   0.357  0.3256 -0.0137  0.9574
 8477SOL    HW236891   2.072   0.809   0.321 -1.9262 -1.9817 -1.4683
 8478SOL     OW36892   1.049   3.365   3.794  0.1952  0.1469 -0.3607
 8478SOL    HW136893   1.120   3.351   3.857  0.3599  0.8535 -0.3898
 8478SOL    HW236894   1.011   3.277   3.789  1.0991 -0.2345 -0.4812
 8479SOL     OW36895   2.750   1.674  12.333  0.0704  0.0164  0.5759
 8479SOL    HW136896   2.699   1.753  12.317  0.3727 -0.0711 -0.8171
 8479SOL    HW236897   2.767   1.682  12.427 -1.3487 -0.5241  0.8691
 8480SOL     OW36898   3.739   0.779   0.086 -0.2205  0.3038 -0.0160
 8480SOL    HW136899   3.744   0.871   0.111 -0.0980  0.5406 -0.8847
 8480SOL    HW236900   3.666   0.791   0.025 -0.9721  1.3689  1.1154
 8481SOL     OW36901   0.184   0.708   8.728  0.5336 -0.1277 -0.0325
 8481SOL    HW136902   0.127   0.672   8.659  1.1311 -0.4503 -0.3526
 8481SOL    HW236903   0.220   0.626   8.762 -2.6049 -1.4650  0.1490
 8482SOL     OW36904   1.165   0.411   3.025 -0.2742  0.4534  0.3342
 8482SOL    HW136905   1.070   0.404   3.033 -0.5244  1.9364 -1.2998
 8482SOL    HW236906   1.185   0.361   2.945 -0.8499  1.0552 -0.1877
 8483SOL     OW36907   2.125   2.574   6.251 -0.1753  0.5205  0.0014
 8483SOL    HW136908   2.184   2.648   6.234  1.6221 -1.6436 -3.0426
 8483SOL    HW236909   2.140   2.564   6.345 -0.1068 -1.2777 -0.2133
 8484SOL     OW36910   3.502   3.994  15.013 -0.3723 -0.2605  0.3441
 8484SOL    HW136911   3.573   4.039  15.059  0.2131  1.3972 -2.1921
 8484SOL    HW236912   3.557   3.978  14.936  0.5371 -2.8894  1.5564
 8485SOL     OW36913   3.943   4.704   6.654  0.3865  0.3520  0.4493
 8485SOL    HW136914   3.946   0.076   6.629 -3.2730  0.6746  1.2279
 8485SOL    HW236915   4.035   4.689   6.678  0.5851  0.5861 -0.1595
 8486SOL     OW36916   2.568   4.486  12.127  0.4797 -0.3772 -0.1798
 8486SOL    HW136917   2.617   4.424  12.074  1.4023 -0.4762  0.7920
 8486SOL    HW236918   2.607   4.462  12.211  1.0150 -2.9550 -1.1747
 8487SOL     OW36919   2.815   0.671   1.537  0.3528  0.4879  0.8748
 8487SOL    HW136920   2.856   0.615   1.470  0.8056 -0.2041  1.7389
 8487SOL    HW236921   2.859   0.753   1.514 -0.6994  0.5127 -1.0714
 8488SOL     OW36922   0.775   1.350   5.388 -0.6008  0.4537  0.4340
 8488SOL    HW136923   0.781   1.261   5.355  0.7562  0.3015  1.0912
 8488SOL    HW236924   0.725   1.326   5.466 -0.5147 -1.7575 -0.1997
 8489SOL     OW36925   0.595   4.374  11.497  0.5057  0.0318  0.3383
 8489SOL    HW136926   0.687   4.361  11.522 -0.1356 -3.5889  0.7742
 8489SOL    HW236927   0.591   4.313  11.424  1.1499  0.5542 -0.1404
 8490SOL     OW36928   2.722   4.670   0.548  0.3250 -0.1399  0.1893
 8490SOL    HW136929   2.716   4.611   0.473 -0.2585 -0.7578  0.7202
 8490SOL    HW236930   2.659   4.634   0.610  2.4352 -2.5654  0.9288
 8491SOL     OW36931   1.538   0.835  15.672  0.3030  0.2809  0.0726
 8491SOL    HW136932   1.530   0.894  15.597 -1.0437 -0.4187 -0.3430
 8491SOL    HW236933   1.453   0.850  15.713 -0.1273 -1.6540 -0.1356
 8492SOL     OW36934   4.203   0.794   6.369 -0.0282  0.3167 -1.0960
 8492SOL    HW136935   4.109   0.790   6.383  0.1943  1.3154  0.7469
 8492SOL    HW236936   4.235   0.754   6.450 -1.4155  1.4120 -0.0173
 8493SOL     OW36937   3.301   2.736   7.938 -0.5613 -0.5957 -0.3327
 8493SOL    HW136938   3.289   2.642   7.922  2.8295 -0.7346 -1.8695
 8493SOL    HW236939   3.223   2.765   7.985  0.1873 -3.0360  2.3747
 8494SOL     OW36940   1.358   2.108  12.601 -0.0416  0.2261 -0.7526
 8494SOL    HW136941   1.429   2.172  12.604  0.0912  0.0848 -0.8409
 8494SOL    HW236942   1.400   2.039  12.653  0.3844  0.6955 -0.4620
 8495SOL     OW36943   1.496   0.840  11.938  0.4428 -0.4442 -0.0986
 8495SOL    HW136944   1.486   0.786  12.016  2.2810 -0.8687 -0.1617
 8495SOL    HW236945   1.560   0.907  11.960 -2.2284  2.1485 -0.1792
 8496SOL     OW36946   0.040   1.523   2.106  0.3113  0.2602  0.2969
 8496SOL    HW136947   0.058   1.529   2.012  1.4031  0.1171  0.5033
 8496SOL    HW236948   0.079   1.605   2.138 -0.3098  0.9389 -0.6700
 8497SOL     OW36949   4.303   0.520  11.626  0.1206  1.2910 -0.0308
 8497SOL    HW136950   4.238   0.470  11.676  1.1980 -0.3127 -0.2364
 8497SOL    HW236951   4.353   0.442  11.603 -1.1919  0.5585 -0.4445
 8498SOL     OW36952   2.995   0.981   7.805 -0.0364 -0.0495 -0.0318
 8498SOL    HW136953   2.933   1.039   7.761  2.2765  0.3039 -2.8174
 8498SOL    HW236954   3.017   1.046   7.871 -4.2991  2.9739 -1.5859
 8499SOL     OW36955   3.522   2.327   7.524 -0.1760 -0.5413 -0.6890
 8499SOL    HW136956   3.538   2.243   7.479 -0.3154 -0.3704 -1.0548
 8499SOL    HW236957   3.615   2.348   7.525 -0.1895 -0.4207 -1.5424
 8500SOL     OW36958   0.681   4.677  12.332 -0.3765  0.0519 -0.3082
 8500SOL    HW136959   0.694   4.583  12.344 -1.1792 -0.1433 -0.9695
 8500SOL    HW236960   0.613   4.674  12.265 -0.6327 -0.9535 -0.0009
 8501SOL     OW36961   1.017   2.643   9.402 -0.5909 -0.0746 -0.5346
 8501SOL    HW136962   1.075   2.715   9.380 -0.1140  0.0482  1.1765
 8501SOL    HW236963   0.962   2.678   9.472  1.2784 -0.6206  1.2068
 8502SOL     OW36964   1.096   4.516   4.613 -0.3041 -0.5417 -0.4998
 8502SOL    HW136965   1.155   4.512   4.538  2.2403  1.9574  1.3398
 8502SOL    HW236966   1.049   4.595   4.588 -2.2058 -2.1243 -1.8552
 8503SOL     OW36967   3.576   3.377   8.028 -0.0341 -0.3605  0.7094
 8503SOL    HW136968   3.592   3.393   8.121  1.4021 -0.5980  0.4978
 8503SOL    HW236969   3.632   3.301   8.013  0.4229 -0.0290  0.7270
 8504SOL     OW36970   0.943   2.146   2.927 -0.4302  0.5456 -0.4480
 8504SOL    HW136971   1.032   2.179   2.914  0.9215 -2.6920  0.7088
 8504SOL    HW236972   0.903   2.158   2.841  0.4218  1.0212 -0.7810
 8505SOL     OW36973   0.329   2.529   2.924 -0.3842  0.0342 -0.5310
 8505SOL    HW136974   0.311   2.485   2.841  1.1963 -1.0417 -0.3234
 8505SOL    HW236975   0.384   2.601   2.893 -0.5288  1.3521  2.2917
 8506SOL     OW36976   2.427   3.436   6.138  0.1886  0.3178 -0.5852
 8506SOL    HW136977   2.402   3.483   6.058 -1.1022 -1.1452 -1.0403
 8506SOL    HW236978   2.505   3.485   6.161  0.0306  0.1415  0.3084
 8507SOL     OW36979   3.752   3.372  14.952  0.3240 -0.0173  0.1968
 8507SOL    HW136980   3.810   3.355  14.878  1.1097 -0.5243  0.9359
 8507SOL    HW236981   3.754   3.467  14.966 -1.1230 -0.2349  1.8805
 8508SOL     OW36982   4.718   4.548   7.281 -0.1730 -0.5813  0.3570
 8508SOL    HW136983   4.674   4.568   7.199  3.0199  2.1634 -0.6811
 8508SOL    HW236984   4.649   4.544   7.347  0.8797  2.2269  1.6475
 8509SOL     OW36985   1.956   3.842   6.550  0.3934 -0.1046  0.3792
 8509SOL    HW136986   1.996   3.756   6.538 -0.7419 -0.6450  0.5333
 8509SOL    HW236987   2.012   3.891   6.490 -0.4210  0.0739 -0.2265
 8510SOL     OW36988   0.954   4.568   7.100 -0.3326 -0.3107 -0.3161
 8510SOL    HW136989   0.919   4.479   7.112 -2.4310  0.2204 -2.4855
 8510SOL    HW236990   0.963   4.585   7.194 -2.4681 -1.3734  0.0849
 8511SOL     OW36991   2.570   1.205   8.925  1.3145 -0.1926 -0.2443
 8511SOL    HW136992   2.645   1.166   8.970  0.6980 -0.7156  0.3298
 8511SOL    HW236993   2.599   1.296   8.935  0.8515 -0.0867  0.0931
 8512SOL     OW36994   1.659   2.183   9.055 -0.2566  0.3291 -0.2216
 8512SOL    HW136995   1.629   2.094   9.069 -0.5545  0.8215  2.1401
 8512SOL    HW236996   1.723   2.184   9.126 -0.5745 -1.4354  0.0724
 8513SOL     OW36997   3.529   1.298   7.389 -0.3820 -0.5937 -0.5335
 8513SOL    HW136998   3.514   1.258   7.474 -0.4257 -0.4104 -0.4545
 8513SOL    HW236999   3.604   1.357   7.402 -1.0504  0.0991  0.1819
 8514SOL     OW37000   1.030   4.325   1.455  0.5032  0.5140 -0.3603
 8514SOL    HW137001   0.955   4.384   1.444  1.0809  1.0769 -1.2164
 8514SOL    HW237002   1.008   4.291   1.542  0.2195  1.4881 -0.0480
 8515SOL     OW37003   3.344   2.550   5.950  0.1694 -0.1264 -0.6856
 8515SOL    HW137004   3.370   2.595   5.869 -0.3832  1.5992  0.0966
 8515SOL    HW237005   3.343   2.458   5.923 -0.6039 -0.3346  0.0563
 8516SOL     OW37006   1.512   0.786  15.032 -0.0423 -0.7387  0.1685
 8516SOL    HW137007   1.535   0.735  15.109 -2.6422 -1.8781  0.1872
 8516SOL    HW237008   1.598   0.800  14.993  0.0569  1.9785  1.4340
 8517SOL     OW37009   0.062   3.188  17.673  0.5190 -0.0811  0.2078
 8517SOL    HW137010   0.134   3.250  17.660 -0.4958  1.0967  0.1964
 8517SOL    HW237011   0.092   3.121   0.049 -0.7202 -0.9278 -0.1260
 8518SOL     OW37012   4.529   4.559   9.477 -0.3821  0.1324  0.1434
 8518SOL    HW137013   4.510   4.617   9.551  1.6287 -0.0024  0.7782
 8518SOL    HW237014   4.608   4.596   9.438 -1.1879  0.2950 -1.3124
 8519SOL     OW37015   2.153   3.168   4.222  0.3819  0.5186  0.4539
 8519SOL    HW137016   2.085   3.235   4.221 -1.2101 -1.1278 -0.7443
 8519SOL    HW237017   2.216   3.218   4.171 -0.5332  1.0080 -0.1905
 8520SOL     OW37018   4.469   3.803   9.927  0.2095 -0.3893 -0.4001
 8520SOL    HW137019   4.466   3.732   9.863 -2.3509 -2.5569  2.1445
 8520SOL    HW237020   4.479   3.751  10.007  0.9311  1.0029  0.4128
 8521SOL     OW37021   2.693   4.232   5.550  0.2633 -0.9064 -0.0607
 8521SOL    HW137022   2.639   4.307   5.527  1.0824  0.4019  2.2749
 8521SOL    HW237023   2.745   4.271   5.620  0.3494  1.5620 -1.4900
 8522SOL     OW37024   1.316   4.487   4.456 -0.1920 -0.2610 -0.4621
 8522SOL    HW137025   1.397   4.459   4.499  0.7239  4.0084  0.5136
 8522SOL    HW237026   1.280   4.400   4.440  1.0021 -0.6251 -1.2326
 8523SOL     OW37027   4.050   0.151   0.502 -0.7605 -0.0701  0.0177
 8523SOL    HW137028   4.056   0.199   0.419  0.7862  0.2009  0.2858
 8523SOL    HW237029   3.968   0.102   0.493 -1.6886  1.4943 -0.0753
 8524SOL     OW37030   0.773   3.363   3.212 -0.2187 -0.8686  0.4058
 8524SOL    HW137031   0.780   3.428   3.142  2.5255 -0.5278  1.0144
 8524SOL    HW237032   0.680   3.341   3.216 -0.8732  1.4175 -2.4514
 8525SOL     OW37033   0.673   2.519   4.685 -0.0928 -0.1152  0.5816
 8525SOL    HW137034   0.634   2.432   4.679 -2.2844  0.9737 -0.6722
 8525SOL    HW237035   0.683   2.529   4.780 -0.2072  1.0975  0.4570
 8526SOL     OW37036   2.367   3.850   1.506 -0.2968  0.2970  0.5022
 8526SOL    HW137037   2.329   3.762   1.513  0.8544 -0.4124 -2.1719
 8526SOL    HW237038   2.297   3.903   1.543 -2.4546  0.1669 -3.3459
 8527SOL     OW37039   3.704   3.401   2.036  0.1637  0.4085 -0.2925
 8527SOL    HW137040   3.773   3.339   2.057 -0.7780 -0.3335  0.5801
 8527SOL    HW237041   3.729   3.424   1.946 -0.3352  0.7234 -0.3555
 8528SOL     OW37042   0.428   1.970   5.421 -0.0936  0.0584 -0.0694
 8528SOL    HW137043   0.349   2.024   5.422  0.2698  0.5870 -1.0289
 8528SOL    HW237044   0.438   1.975   5.326 -0.8341  2.5041 -0.0019
 8529SOL     OW37045   3.179   1.947   3.526  0.2074  0.0549  0.0344
 8529SOL    HW137046   3.090   1.924   3.498  0.5440 -0.4063 -0.6483
 8529SOL    HW237047   3.229   1.871   3.498 -0.1250 -0.3651  0.5833
 8530SOL     OW37048   2.551   0.592   6.369  0.0496  0.4256 -0.0831
 8530SOL    HW137049   2.635   0.623   6.335 -0.5715  1.0596 -1.0275
 8530SOL    HW237050   2.501   0.653   6.315 -0.6069  0.2485  0.3233
 8531SOL     OW37051   3.707   3.046   5.566  0.5033 -0.1587 -0.6283
 8531SOL    HW137052   3.791   3.035   5.521  1.3129  0.4461  0.7327
 8531SOL    HW237053   3.714   2.972   5.627  0.8357 -0.9430 -1.6256
 8532SOL     OW37054   2.018   0.403   7.114 -0.2494  0.0243 -0.3384
 8532SOL    HW137055   2.109   0.377   7.103  0.1691  0.7938  1.3571
 8532SOL    HW237056   1.985   0.342   7.180  3.1573 -1.4351  0.0299
 8533SOL     OW37057   1.895   1.189   1.945 -0.4323  0.5584 -0.3443
 8533SOL    HW137058   1.983   1.158   1.967 -1.3497 -0.5689  1.7545
 8533SOL    HW237059   1.915   1.252   1.876  3.1285  0.1511  0.3193
 8534SOL     OW37060   1.060   3.355   6.616  0.2451  0.3844  0.4384
 8534SOL    HW137061   1.092   3.326   6.531 -1.0162 -0.2668  0.1888
 8534SOL    HW237062   1.112   3.434   6.631 -1.0708  1.4162 -0.4396
 8535SOL     OW37063   4.186   0.242   4.920 -0.0093  0.2185 -0.3242
 8535SOL    HW137064   4.260   0.188   4.892 -0.1587 -0.8469  1.3621
 8535SOL    HW237065   4.158   0.192   4.996  0.2809  1.7293  0.7616
 8536SOL     OW37066   1.796   1.446   3.017 -0.0897 -0.0979  0.4069
 8536SOL    HW137067   1.796   1.538   3.044 -2.3171  0.0015  0.0926
 8536SOL    HW237068   1.884   1.434   2.981  0.3518  0.9371  1.1500
 8537SOL     OW37069   1.791   1.057   3.794 -0.4573 -0.5549 -0.2314
 8537SOL    HW137070   1.879   1.094   3.807 -1.8682  2.3467  0.9028
 8537SOL    HW237071   1.810   0.987   3.732 -0.1187 -0.3428 -0.3671
 8538SOL     OW37072   3.698   0.451   8.539  0.0920 -0.2122 -0.0501
 8538SOL    HW137073   3.740   0.533   8.565 -0.6698 -0.8496  3.1041
 8538SOL    HW237074   3.607   0.481   8.533  0.1749 -0.4551 -2.6245
 8539SOL     OW37075   0.645   1.009   2.053  0.0473 -0.0461 -0.3113
 8539SOL    HW137076   0.653   1.074   2.123  1.0990 -0.1976 -0.2932
 8539SOL    HW237077   0.587   1.061   1.998 -0.0937  0.2936  0.1594
 8540SOL     OW37078   1.549   0.160   5.139 -0.8776  0.4864  0.1488
 8540SOL    HW137079   1.517   0.097   5.204  0.2087  0.2270  0.4311
 8540SOL    HW237080   1.627   0.109   5.117 -0.4312  1.1080  0.2935
 8541SOL     OW37081   1.973   3.313   3.905  0.2108  0.3961  0.5551
 8541SOL    HW137082   2.064   3.343   3.904  1.0508 -2.1766 -0.1865
 8541SOL    HW237083   1.922   3.393   3.917 -1.1091 -0.6241  1.7277
 8542SOL     OW37084   3.131   4.498   0.179  0.3892  0.4449 -0.3703
 8542SOL    HW137085   3.089   4.545   0.107 -1.4372  1.7587  1.5549
 8542SOL    HW237086   3.064   4.488   0.247  0.2133 -3.0186 -1.0516
 8543SOL     OW37087   2.596   3.287   1.727  0.0177  0.0733  0.1319
 8543SOL    HW137088   2.509   3.276   1.688 -0.5250  0.4526  1.2255
 8543SOL    HW237089   2.626   3.198   1.745 -0.0350 -0.2272 -1.2599
 8544SOL     OW37090   2.625   2.496   6.596 -0.1228  0.1223 -0.2265
 8544SOL    HW137091   2.647   2.403   6.598 -0.6149 -0.0717 -3.5884
 8544SOL    HW237092   2.691   2.523   6.533 -3.6647 -0.0920 -4.0060
 8545SOL     OW37093   0.941   0.443   3.187  0.5848  0.4181 -0.0928
 8545SOL    HW137094   0.849   0.444   3.215  0.2721 -0.3824 -1.0803
 8545SOL    HW237095   0.979   0.372   3.238  0.1543  0.5814  0.4515
 8546SOL     OW37096   4.008   3.765  15.609  0.0959 -0.0731 -0.1460
 8546SOL    HW137097   4.013   3.670  15.610 -0.4426 -0.1000 -0.0054
 8546SOL    HW237098   3.923   3.774  15.652 -0.5809 -1.0376 -1.2872
 8547SOL     OW37099   4.618   2.586  10.292  0.3039  0.1100  0.0897
 8547SOL    HW137100   4.628   2.628  10.207  0.2342  1.7569  0.8937
 8547SOL    HW237101   4.569   2.653  10.340  0.1262  0.2082 -0.2256
 8548SOL     OW37102   3.395   3.372  17.561 -0.2954 -0.1349  0.4842
 8548SOL    HW137103   3.490   3.363  17.552 -0.7139 -1.5140 -2.3462
 8548SOL    HW237104   3.355   3.302  17.510 -0.7956 -0.7700  1.7406
 8549SOL     OW37105   4.126   2.560   3.019 -0.0620  0.0232  0.1944
 8549SOL    HW137106   4.217   2.565   3.049 -0.8197 -1.8445  2.7808
 8549SOL    HW237107   4.125   2.465   3.031  1.4970 -0.3622 -2.6389
 8550SOL     OW37108   3.678   0.902  17.209 -0.0440 -0.2313 -0.1532
 8550SOL    HW137109   3.685   0.839  17.138  2.8094  0.8872 -0.9037
 8550SOL    HW237110   3.771   0.927  17.212 -0.4583  1.5103 -1.3404
 8551SOL     OW37111   0.073   4.351   1.845 -0.1025 -0.0554  0.3324
 8551SOL    HW137112   0.148   4.395   1.885  0.0878  1.5641 -1.8235
 8551SOL    HW237113   0.015   4.425   1.827  0.0959  0.1411  0.4985
 8552SOL     OW37114   0.928   0.372   3.572  0.8851  0.2164 -0.6975
 8552SOL    HW137115   0.933   0.327   3.488 -0.4650 -2.6266  0.7512
 8552SOL    HW237116   1.004   0.431   3.574  3.6013 -3.2788 -0.6284
 8553SOL     OW37117   2.636   2.320   7.293 -0.0188  0.1869  0.3125
 8553SOL    HW137118   2.601   2.299   7.206 -0.4155 -0.0629  0.5332
 8553SOL    HW237119   2.557   2.316   7.346  0.2222 -0.2747  0.6344
 8554SOL     OW37120   4.346   4.636   3.546  0.0768  0.1035 -0.5521
 8554SOL    HW137121   4.412   4.697   3.581  0.2008 -0.7425  0.7237
 8554SOL    HW237122   4.361   4.574   3.618  2.0329  1.1629 -0.0317
 8555SOL     OW37123   4.362   0.937   7.295 -0.6297  0.2678  0.0336
 8555SOL    HW137124   4.374   0.895   7.380  0.9576 -1.3421 -0.9995
 8555SOL    HW237125   4.400   1.021   7.321 -2.3958  0.3312  2.3562
 8556SOL     OW37126   1.817   1.827   2.041  0.0795 -0.0973 -0.3736
 8556SOL    HW137127   1.844   1.810   2.131 -0.3492  1.6428  0.0814
 8556SOL    HW237128   1.817   1.737   2.006  1.0730 -1.3423  2.8322
 8557SOL     OW37129   1.115   1.751   7.456  0.5658  0.1735  0.1687
 8557SOL    HW137130   1.140   1.732   7.546  1.5800  3.5746  0.6168
 8557SOL    HW237131   1.182   1.813   7.426 -0.8305  1.9670  0.7154
 8558SOL     OW37132   0.434   4.383  13.293  0.8525  0.8191 -0.4470
 8558SOL    HW137133   0.411   4.409  13.382 -0.8697  1.0965 -0.9928
 8558SOL    HW237134   0.404   4.462  13.249 -0.7968  0.3241 -0.2163
 8559SOL     OW37135   0.313   3.733   8.810  0.3666 -0.1389  0.0571
 8559SOL    HW137136   0.382   3.785   8.768 -0.5614  1.8319  0.9798
 8559SOL    HW237137   0.307   3.770   8.898  1.0657 -0.8239  0.3912
 8560SOL     OW37138   0.102   1.772   9.488 -0.6649 -0.3402 -0.0780
 8560SOL    HW137139   0.156   1.826   9.546  1.3614 -1.5216 -0.8786
 8560SOL    HW237140   0.017   1.798   9.525 -0.9182 -0.2318 -0.7435
 8561SOL     OW37141   2.784   1.610   9.437 -0.3782 -0.3968 -0.0741
 8561SOL    HW137142   2.781   1.537   9.499  0.9203 -1.7416 -1.6260
 8561SOL    HW237143   2.788   1.683   9.500 -0.0657 -0.4206 -0.0653
 8562SOL     OW37144   2.769   0.383   9.071  0.2293 -0.4421 -0.3426
 8562SOL    HW137145   2.738   0.442   9.139  0.2507 -0.4409 -0.3339
 8562SOL    HW237146   2.748   0.297   9.107 -0.6154  0.1215  0.5225
 8563SOL     OW37147   4.537   3.777   3.878  0.1306 -0.0709 -0.2031
 8563SOL    HW137148   4.590   3.719   3.933  1.5455 -0.7971 -2.3663
 8563SOL    HW237149   4.464   3.722   3.850  0.5425 -0.7482  0.0688
 8564SOL     OW37150   3.642   0.574   4.879  0.0683  0.2817  0.1360
 8564SOL    HW137151   3.629   0.525   4.960  0.9373 -0.0018  0.1074
 8564SOL    HW237152   3.735   0.595   4.871 -0.0518  1.0557  0.8149
 8565SOL     OW37153   2.958   1.627   0.946 -0.3402 -0.2511  0.2550
 8565SOL    HW137154   2.982   1.544   0.987  1.1481 -0.0214 -0.1842
 8565SOL    HW237155   3.043   1.660   0.918  1.1815 -2.3461  2.5084
 8566SOL     OW37156   1.182   2.814  15.204 -0.1866  0.7090 -0.0634
 8566SOL    HW137157   1.263   2.861  15.187 -1.9440  3.1502 -1.8024
 8566SOL    HW237158   1.205   2.723  15.190 -0.6552  0.5074  0.4728
 8567SOL     OW37159   0.710   3.913   1.592  0.1819  0.5946 -0.0593
 8567SOL    HW137160   0.679   3.848   1.656 -0.7637 -0.7493 -1.9013
 8567SOL    HW237161   0.787   3.945   1.639  2.1144 -1.3388 -1.9077
 8568SOL     OW37162   2.630   3.922  11.047  0.2280  0.0844 -0.0112
 8568SOL    HW137163   2.564   3.854  11.059  1.7310 -1.3663  0.0536
 8568SOL    HW237164   2.597   3.953  10.963 -0.6811  1.9807  1.0530
 8569SOL     OW37165   3.461   0.957  14.529 -0.4802  0.5432  0.1128
 8569SOL    HW137166   3.420   1.002  14.604 -0.3939  0.5318  0.1668
 8569SOL    HW237167   3.380   0.924  14.490  0.4471 -2.6454  0.9490
 8570SOL     OW37168   3.472   3.721  13.117 -0.2171 -0.0968 -0.7655
 8570SOL    HW137169   3.537   3.725  13.046  0.4770  0.2457 -0.1027
 8570SOL    HW237170   3.496   3.634  13.149 -0.0547  0.3952  0.4399
 8571SOL     OW37171   4.413   4.653  12.090  0.2116  0.0417 -0.0875
 8571SOL    HW137172   4.399   4.611  12.174 -0.8428 -0.1460 -0.3594
 8571SOL    HW237173   4.481   4.717  12.110 -0.9627  0.8172  1.4442
 8572SOL     OW37174   0.576   3.067   2.858  0.0702 -0.0501  0.6390
 8572SOL    HW137175   0.610   3.065   2.948 -1.0308 -3.2812  0.9655
 8572SOL    HW237176   0.506   3.133   2.855  0.0907 -0.0599 -0.0108
 8573SOL     OW37177   2.901   0.465   1.998 -0.0545  0.0387  0.5218
 8573SOL    HW137178   2.845   0.402   1.953  0.1983  0.3267 -0.1876
 8573SOL    HW237179   2.897   0.542   1.941  2.0647 -0.8241 -0.7850
 8574SOL     OW37180   4.197   4.517   3.911 -0.1687  0.9059 -0.5744
 8574SOL    HW137181   4.202   4.424   3.887 -0.4114  1.9757 -4.7557
 8574SOL    HW237182   4.234   4.512   3.999  1.1754  3.4033 -1.0128
 8575SOL     OW37183   0.490   3.271   4.008 -0.3543 -0.2482  0.3054
 8575SOL    HW137184   0.419   3.210   4.031 -1.1538 -0.4578 -2.7822
 8575SOL    HW237185   0.556   3.204   3.991  0.0728  0.8818 -2.4639
 8576SOL     OW37186   4.563   3.673  10.160 -0.4054  0.0650 -0.1346
 8576SOL    HW137187   4.632   3.615  10.127  0.1384  0.6372 -0.0080
 8576SOL    HW237188   4.619   3.740  10.199 -0.3600  0.1601 -0.3586
 8577SOL     OW37189   2.420   0.222   0.056 -0.0687  0.1892  0.1411
 8577SOL    HW137190   2.507   0.228   0.017 -1.0594  2.2643 -1.7412
 8577SOL    HW237191   2.454   0.167   0.127 -1.1678 -0.4970  0.1543
 8578SOL     OW37192   4.157   3.730   5.602  0.0436 -0.1354 -0.3473
 8578SOL    HW137193   4.226   3.714   5.537 -1.1555 -3.0332 -0.9267
 8578SOL    HW237194   4.081   3.718   5.545  0.4438 -0.4084 -0.8288
 8579SOL     OW37195   2.679   0.561   0.631 -0.2005  0.4328  0.0177
 8579SOL    HW137196   2.615   0.553   0.561  0.7356  0.3309 -0.8348
 8579SOL    HW237197   2.752   0.617   0.603  1.5911 -1.6955  0.3487
 8580SOL     OW37198   2.183   1.557   0.924 -0.0878 -0.5445  0.3147
 8580SOL    HW137199   2.250   1.534   0.859 -0.5233 -1.9642  0.3725
 8580SOL    HW237200   2.107   1.508   0.895 -1.8869  2.6282 -0.3264
 8581SOL     OW37201   2.088   3.197   6.787  0.2000 -0.2709 -0.4264
 8581SOL    HW137202   2.076   3.158   6.874  3.0540  0.6121  0.3755
 8581SOL    HW237203   2.160   3.145   6.750  0.5539 -1.1741  1.5003
 8582SOL     OW37204   1.653   1.588   8.580  0.7096  0.3601 -0.1901
 8582SOL    HW137205   1.637   1.602   8.673  0.5927  2.5963 -0.5267
 8582SOL    HW237206   1.636   1.494   8.573 -2.0427  0.9251 -1.1858
 8583SOL     OW37207   2.928   2.696   8.294 -0.4024 -0.1907 -0.2012
 8583SOL    HW137208   2.852   2.740   8.331 -3.3158 -3.3082 -2.4751
 8583SOL    HW237209   2.885   2.635   8.235 -0.1911  0.4797 -1.0548
 8584SOL     OW37210   0.889   4.359  16.322 -0.1261 -0.1556 -0.1951
 8584SOL    HW137211   0.956   4.426  16.335 -0.0484 -0.2092 -0.3184
 8584SOL    HW237212   0.818   4.409  16.282 -0.9690 -1.0335  0.2014
 8585SOL     OW37213   2.272   1.742   3.484 -0.9650 -0.3283 -1.1377
 8585SOL    HW137214   2.231   1.810   3.538 -1.3221  1.7433 -3.9887
 8585SOL    HW237215   2.345   1.799   3.458  0.6967  0.2543  4.9766
 8586SOL     OW37216   3.242   1.275   1.801  0.7340  0.1367 -0.0456
 8586SOL    HW137217   3.281   1.223   1.730 -0.4292  2.4187 -2.3770
 8586SOL    HW237218   3.288   1.358   1.786  0.8322  0.0510 -0.2206
 8587SOL     OW37219   4.609   0.989   1.117 -0.3232 -0.0777  1.2433
 8587SOL    HW137220   4.693   0.979   1.072 -0.2496  1.2498  1.0910
 8587SOL    HW237221   4.631   1.074   1.156  1.3174 -0.3118  0.8357
 8588SOL     OW37222   3.922   0.144   4.508 -0.2054 -1.0380  0.3037
 8588SOL    HW137223   3.829   0.150   4.488  0.0424  2.3847  0.3196
 8588SOL    HW237224   3.912   0.096   4.590  2.9379  1.6376  2.2397
 8589SOL     OW37225   3.266   2.229   4.522 -0.1875  0.3141  0.1631
 8589SOL    HW137226   3.181   2.191   4.545  0.8072 -1.4215  1.0094
 8589SOL    HW237227   3.295   2.235   4.613  0.3827  1.1655 -0.0816
 8590SOL     OW37228   1.944   0.295  13.086 -0.0175 -0.6982  0.1406
 8590SOL    HW137229   2.003   0.289  13.011 -1.3696  0.3716 -1.0012
 8590SOL    HW237230   1.878   0.348  13.042  0.5892 -0.9182 -1.0262
 8591SOL     OW37231   3.984   1.257   9.682  0.6448  0.0719 -0.6183
 8591SOL    HW137232   4.040   1.319   9.729 -1.4983  1.0709  0.6342
 8591SOL    HW237233   4.018   1.279   9.596  0.1749  2.0430 -0.3175
 8592SOL     OW37234   2.421   2.485  13.251  0.6571  0.3729  0.2437
 8592SOL    HW137235   2.502   2.514  13.210  0.6409  0.7323  0.4697
 8592SOL    HW237236   2.437   2.391  13.243  2.9680  0.7837 -0.0761
 8593SOL     OW37237   0.749   3.970   4.076 -0.1112 -0.4017 -0.3487
 8593SOL    HW137238   0.760   4.016   4.159  0.4885  0.5025 -0.9368
 8593SOL    HW237239   0.653   3.972   4.072 -0.1553 -1.9337 -0.2566
 8594SOL     OW37240   3.530   2.977   2.676  0.1099 -0.1751  0.5409
 8594SOL    HW137241   3.616   3.018   2.685 -0.7411  1.4186  1.5410
 8594SOL    HW237242   3.549   2.885   2.659 -0.4244 -0.7972  3.2577
 8595SOL     OW37243   0.072   0.158   9.546 -0.0164 -0.0208  0.2529
 8595SOL    HW137244   0.011   0.120   9.609 -2.2428 -0.9125 -2.4342
 8595SOL    HW237245   0.085   0.077   9.496 -0.2125  0.1422 -0.0616
 8596SOL     OW37246   1.900   2.912   4.806 -0.6442  0.0370 -0.0183
 8596SOL    HW137247   1.848   2.855   4.748  0.7927 -0.9931 -0.2791
 8596SOL    HW237248   1.836   2.967   4.851 -2.0123 -2.0877  0.6531
 8597SOL     OW37249   0.478   3.751   2.608  0.7748  0.0066  0.3129
 8597SOL    HW137250   0.460   3.688   2.678  0.0201  0.0688  0.1674
 8597SOL    HW237251   0.530   3.810   2.664 -2.3422  1.6617  1.4375
 8598SOL     OW37252   1.161   1.492   5.580  0.1810  0.4017  0.2361
 8598SOL    HW137253   1.211   1.537   5.512  2.0558 -0.7660  0.8512
 8598SOL    HW237254   1.192   1.542   5.655 -0.5540  0.3478  0.5696
 8599SOL     OW37255   1.647   0.970   1.497  0.4000  0.1645  0.4306
 8599SOL    HW137256   1.597   1.013   1.428  1.4377 -1.4202 -1.3112
 8599SOL    HW237257   1.705   0.909   1.450 -1.1915  0.0852 -1.4408
 8600SOL     OW37258   2.121   4.268   7.223  0.0702 -0.1842  0.3040
 8600SOL    HW137259   2.047   4.211   7.246  0.8821 -1.2959  0.1475
 8600SOL    HW237260   2.133   4.310   7.308  2.0028  0.6568 -0.3909
 8601SOL     OW37261   3.462   3.839   4.334 -0.0100  0.1812  0.5174
 8601SOL    HW137262   3.500   3.752   4.319  2.0311  1.3348 -0.8774
 8601SOL    HW237263   3.510   3.888   4.268 -0.3819  1.5299  1.2421
 8602SOL     OW37264   1.089   0.561   5.508  0.5616  0.2389  0.3041
 8602SOL    HW137265   1.123   0.496   5.446 -0.6646  3.0867 -3.3142
 8602SOL    HW237266   1.105   0.642   5.461  3.5150  0.5534  1.8047
 8603SOL     OW37267   0.331   3.632   9.774  0.1475  0.0359 -0.4186
 8603SOL    HW137268   0.332   3.594   9.686  0.9765 -0.0987 -0.3488
 8603SOL    HW237269   0.425   3.624   9.793  0.0670  2.0820  0.7747
 8604SOL     OW37270   2.624   1.651   3.646  0.4116  0.0872 -0.1599
 8604SOL    HW137271   2.624   1.713   3.718 -0.0199 -1.2806  1.0254
 8604SOL    HW237272   2.705   1.600   3.650  0.6391  0.4890  0.2200
 8605SOL     OW37273   0.778   0.400  10.111 -0.6556  0.1019 -0.5408
 8605SOL    HW137274   0.747   0.437  10.194 -1.9721 -2.2327  0.0107
 8605SOL    HW237275   0.823   0.479  10.081 -4.3375  2.4816  0.1177
 8606SOL     OW37276   4.522   4.610   4.179 -0.2926 -0.1156  0.0538
 8606SOL    HW137277   4.469   4.537   4.146  0.3025  0.8520 -3.0939
 8606SOL    HW237278   4.525   4.655   4.094  0.4667  0.2457  0.2724
 8607SOL     OW37279   2.913   3.789   2.057 -0.3817  0.1842 -0.4692
 8607SOL    HW137280   2.860   3.831   1.988 -0.2863 -1.3268 -1.4719
 8607SOL    HW237281   2.997   3.791   2.012 -0.6350 -3.3672 -1.0979
 8608SOL     OW37282   3.582   2.096   8.285  0.5121 -0.1862  0.2633
 8608SOL    HW137283   3.611   2.146   8.361 -1.7029 -0.8080  1.5257
 8608SOL    HW237284   3.632   2.129   8.210 -0.8151  1.1029 -0.0614
 8609SOL     OW37285   0.253   0.563   3.120 -0.7476 -0.0620  0.0131
 8609SOL    HW137286   0.278   0.624   3.050  1.0190 -1.3465 -0.4622
 8609SOL    HW237287   0.204   0.615   3.184 -0.6153  2.1986 -1.7121
 8610SOL     OW37288   3.060   2.521   4.138  0.0039 -0.1986 -0.1799
 8610SOL    HW137289   3.114   2.464   4.193 -1.7995 -1.1642  0.5846
 8610SOL    HW237290   3.095   2.493   4.053  2.4584  1.8666  0.1583
 8611SOL     OW37291   4.130   0.033   5.596 -0.4680 -0.2753 -0.5525
 8611SOL    HW137292   4.206   0.037   5.655 -0.6513  0.7178 -0.3850
 8611SOL    HW237293   4.110   4.660   5.607 -1.6580  0.1075  0.4272
 8612SOL     OW37294   3.698   2.985   6.398  0.2070 -0.1339  0.6884
 8612SOL    HW137295   3.663   3.002   6.485  0.9393 -0.9574  1.1439
 8612SOL    HW237296   3.674   3.067   6.355 -1.2400  0.4453  2.6066
 8613SOL     OW37297   0.403   4.345  11.076  0.5046  0.2440 -0.4699
 8613SOL    HW137298   0.449   4.326  11.158 -1.1046  2.9977  1.0803
 8613SOL    HW237299   0.317   4.311  11.101  0.1834  2.3541  1.3019
 8614SOL     OW37300   3.929   4.658   3.259  0.0780  0.1859 -1.0001
 8614SOL    HW137301   3.901   4.627   3.173 -0.8788  1.6469 -1.2189
 8614SOL    HW237302   4.001   4.719   3.245 -0.0226  0.3873 -0.6454
 8615SOL     OW37303   1.748   1.421   4.776 -0.2724 -0.0093 -0.3855
 8615SOL    HW137304   1.731   1.501   4.726  0.3806  1.2061  1.3345
 8615SOL    HW237305   1.816   1.370   4.731  1.1131  1.2453  0.2833
 8616SOL     OW37306   4.370   4.600  14.041  0.3652  0.1417  0.3932
 8616SOL    HW137307   4.311   4.587  13.966 -2.5745 -0.7603  2.8752
 8616SOL    HW237308   4.397   4.512  14.067  2.7997  0.7475 -0.1163
 8617SOL     OW37309   4.257   1.306   2.030 -0.2737 -0.0701  0.5222
 8617SOL    HW137310   4.342   1.335   2.060 -0.8160  0.3197  1.6925
 8617SOL    HW237311   4.271   1.258   1.948 -2.1343  1.0490 -0.4631
 8618SOL     OW37312   2.780   4.470   4.586  0.5746  0.4224 -0.2129
 8618SOL    HW137313   2.729   4.544   4.620  1.8483  0.2529  2.0690
 8618SOL    HW237314   2.764   4.472   4.492 -1.2312 -0.8321  0.0706
 8619SOL     OW37315   0.671   3.405  16.546  0.1818 -0.0054 -0.1172
 8619SOL    HW137316   0.578   3.421  16.559  0.0104  1.0158 -2.7285
 8619SOL    HW237317   0.673   3.331  16.485 -0.2287 -0.0607 -0.0600
 8620SOL     OW37318   4.641   1.095   1.528  0.0104  0.0081 -0.1250
 8620SOL    HW137319   4.608   1.134   1.609  1.0318 -0.0400  0.3130
 8620SOL    HW237320   4.594   1.013   1.514 -1.8536  1.1107 -0.3789
 8621SOL     OW37321   1.743   2.435  10.973 -0.1825 -0.2782 -0.4396
 8621SOL    HW137322   1.757   2.505  11.037  2.4861 -0.1102 -1.2187
 8621SOL    HW237323   1.830   2.402  10.953 -0.6631 -1.2003 -1.0358
 8622SOL     OW37324   4.243   0.686   2.614  0.1827 -0.3178 -0.0715
 8622SOL    HW137325   4.314   0.743   2.584 -1.0264  1.5563  0.6449
 8622SOL    HW237326   4.291   0.642   2.684  0.9888  0.6983  0.0059
 8623SOL     OW37327   1.628   2.441   3.657 -0.5479  0.3203  0.6418
 8623SOL    HW137328   1.563   2.454   3.588  1.5189  0.8587 -1.1777
 8623SOL    HW237329   1.615   2.347   3.672 -1.1702  0.0420 -1.6459
 8624SOL     OW37330   4.037   1.623  14.645  0.0622  0.3843 -0.5764
 8624SOL    HW137331   4.084   1.645  14.725  0.5797 -0.7093 -0.5860
 8624SOL    HW237332   4.059   1.533  14.622 -0.2180  0.8047 -2.5624
 8625SOL     OW37333   3.867   0.608   3.462  0.0791 -0.5559 -0.3740
 8625SOL    HW137334   3.896   0.667   3.392 -0.4543  0.9132  0.6398
 8625SOL    HW237335   3.823   0.659   3.530  1.0428 -0.2901  0.0562
 8626SOL     OW37336   2.654   2.340   9.487  0.6315  0.2151  0.1296
 8626SOL    HW137337   2.678   2.264   9.541 -0.8001 -0.2674  0.0847
 8626SOL    HW237338   2.560   2.345   9.500  0.9912  0.1692  2.7241
 8627SOL     OW37339   3.963   4.307  13.923 -0.5491  0.5655 -0.2371
 8627SOL    HW137340   3.947   4.259  13.842  1.6829  0.8122 -0.8185
 8627SOL    HW237341   4.057   4.295  13.933 -0.6578  0.1305  0.2729
 8628SOL     OW37342   1.081   4.385  12.321 -0.4941  0.4892  0.3060
 8628SOL    HW137343   1.072   4.350  12.410  1.5548 -1.2529 -0.1906
 8628SOL    HW237344   1.161   4.335  12.305 -2.1139 -1.5745 -1.3935
 8629SOL     OW37345   4.146   2.348   0.768  0.2032  0.1406  0.3158
 8629SOL    HW137346   4.080   2.279   0.773 -0.4422  0.7085 -0.4101
 8629SOL    HW237347   4.103   2.409   0.709 -0.9544 -1.7677 -0.8190
 8630SOL     OW37348   2.883   4.533  11.752 -0.4526 -0.0987  0.3499
 8630SOL    HW137349   2.823   4.483  11.696  0.1290 -1.8289  1.2775
 8630SOL    HW237350   2.876   4.486  11.836 -1.8992 -0.0478  0.2660
 8631SOL     OW37351   3.115   4.706   4.117 -0.1139 -0.4662  0.0221
 8631SOL    HW137352   3.177   4.640   4.149  1.1060  0.8935  0.4391
 8631SOL    HW237353   3.151   0.070   4.142  1.2682 -1.1594  0.3939
 8632SOL     OW37354   0.760   0.519   8.155 -0.1471  0.2564 -0.3396
 8632SOL    HW137355   0.737   0.609   8.179 -0.8616 -0.9294  3.4616
 8632SOL    HW237356   0.710   0.464   8.216  0.2767 -0.3260 -0.5182
 8633SOL     OW37357   1.403   3.024  12.871 -0.3024 -0.0359 -0.8943
 8633SOL    HW137358   1.374   2.976  12.793 -0.6678 -2.4255  0.7063
 8633SOL    HW237359   1.464   2.960  12.909 -0.9578 -0.4597 -0.5580
 8634SOL     OW37360   2.916   0.114   4.799  0.2786 -0.0611 -0.0051
 8634SOL    HW137361   2.888   0.169   4.726 -0.7559 -1.3018 -0.5653
 8634SOL    HW237362   2.836   0.067   4.824 -0.1577  0.8717  0.3392
 8635SOL     OW37363   4.025   0.326  14.507 -0.0716  0.8314  0.6056
 8635SOL    HW137364   3.986   0.349  14.592 -0.1330  1.0089  0.5290
 8635SOL    HW237365   3.952   0.348  14.450 -0.3467 -2.2804 -0.2089
 8636SOL     OW37366   2.572   3.548  13.299 -0.3665  0.0940 -0.0822
 8636SOL    HW137367   2.487   3.565  13.260 -0.8151 -1.9691 -0.0030
 8636SOL    HW237368   2.602   3.638  13.283  0.1581 -0.0638  0.0092
 8637SOL     OW37369   2.597   2.090   3.681 -0.4416  0.3757 -0.3127
 8637SOL    HW137370   2.528   2.026   3.698  0.1106 -0.5640 -1.6330
 8637SOL    HW237371   2.537   2.161   3.661 -0.9595  0.1270  0.3835
 8638SOL     OW37372   2.859   0.902   1.957  0.4121 -0.2233  0.4192
 8638SOL    HW137373   2.945   0.936   1.982  0.6240  0.9679 -1.8982
 8638SOL    HW237374   2.868   0.808   1.974 -2.4662 -0.8498 -1.5015
 8639SOL     OW37375   0.831   1.340  10.290 -0.6663 -0.0262  0.2560
 8639SOL    HW137376   0.792   1.284  10.222  1.4538 -1.5498  0.2754
 8639SOL    HW237377   0.823   1.425  10.247 -0.1148  0.4525  1.1273
 8640SOL     OW37378   1.034   0.170   6.328  0.1230  0.9022  0.5139
 8640SOL    HW137379   1.051   0.083   6.362  2.2663  2.0564  2.3935
 8640SOL    HW237380   0.951   0.195   6.368  0.5320 -0.3507  2.1120
 8641SOL     OW37381   0.101   2.737  14.356 -0.1844 -0.1961 -0.1093
 8641SOL    HW137382   0.183   2.695  14.382 -0.8681 -1.4269  0.0669
 8641SOL    HW237383   0.042   2.662  14.366  2.2069 -1.9645  0.7755
 8642SOL     OW37384   2.958   2.951   6.613 -0.3789 -0.5372 -0.2531
 8642SOL    HW137385   2.954   3.047   6.614 -0.8875 -0.5575 -0.3760
 8642SOL    HW237386   2.886   2.933   6.674 -0.9854  1.3335 -0.4006
 8643SOL     OW37387   4.694   1.305  11.940 -0.1305 -0.5069 -0.1761
 8643SOL    HW137388   4.622   1.249  11.912  0.3377 -0.5925 -1.1746
 8643SOL    HW237389   0.005   1.337  11.856 -0.7553  1.4678  0.3304
 8644SOL     OW37390   2.711   3.012  15.630 -0.4311 -0.0135 -0.1971
 8644SOL    HW137391   2.676   2.978  15.548 -0.8915  2.0063 -0.8317
 8644SOL    HW237392   2.671   2.959  15.699 -0.6531  1.9977  1.2112
 8645SOL     OW37393   3.696   3.635   7.429  0.0040 -0.2463 -0.0396
 8645SOL    HW137394   3.789   3.655   7.420  0.0911  0.0037  1.4296
 8645SOL    HW237395   3.677   3.555   7.379  1.1348  0.5547 -1.7521
 8646SOL     OW37396   2.829   0.198   4.547  0.0491 -0.1830  0.2155
 8646SOL    HW137397   2.777   0.173   4.471 -1.7490  0.1267  1.3431
 8646SOL    HW237398   2.911   0.150   4.537 -0.1519 -0.4530 -0.1416
 8647SOL     OW37399   2.351   2.988   3.913 -0.1364 -0.1630 -0.3211
 8647SOL    HW137400   2.264   2.965   3.945  0.6166 -3.5751 -0.7195
 8647SOL    HW237401   2.404   2.923   3.959  1.0087  0.8802 -0.1772
 8648SOL     OW37402   0.565   1.953   4.691  0.3692  0.3300  0.7835
 8648SOL    HW137403   0.484   2.000   4.673  2.0038  3.0328  0.4997
 8648SOL    HW237404   0.599   1.960   4.601 -1.8798  0.2201 -0.0776
 8649SOL     OW37405   0.406   0.496  12.644 -0.6384 -0.6835  0.2178
 8649SOL    HW137406   0.455   0.521  12.565  0.6554 -0.5280  1.0818
 8649SOL    HW237407   0.478   0.509  12.705 -2.0740  2.6794  1.1991
 8650SOL     OW37408   0.927   1.185   8.104  0.1361  0.1715  0.1154
 8650SOL    HW137409   0.880   1.142   8.033 -1.1285  1.2173  0.3040
 8650SOL    HW237410   0.890   1.136   8.177  0.1404 -1.0697 -0.7267
 8651SOL     OW37411   2.960   0.427  17.020  0.2091 -0.4049  0.0504
 8651SOL    HW137412   2.879   0.457  16.978  0.7530  3.3105  1.6510
 8651SOL    HW237413   3.012   0.385  16.951  1.4606  1.1065  0.0771
 8652SOL     OW37414   2.675   4.716   4.815 -0.1895  0.4167  0.8459
 8652SOL    HW137415   2.709   4.662   4.886 -1.0071  0.8869  1.5922
 8652SOL    HW237416   2.605   4.661   4.780  1.3751  0.9034 -3.0758
 8653SOL     OW37417   1.591   2.283   2.906  0.2935 -0.6029 -0.3410
 8653SOL    HW137418   1.651   2.296   2.979 -1.0183  1.0675  0.4217
 8653SOL    HW237419   1.512   2.257   2.952  0.6219 -0.3754  0.3467
 8654SOL     OW37420   0.696   4.411   5.524  0.7039 -0.6060 -0.2489
 8654SOL    HW137421   0.765   4.441   5.464  1.1307  0.0657  0.5704
 8654SOL    HW237422   0.716   4.318   5.537  1.8298 -0.7554 -3.0007
 8655SOL     OW37423   3.559   1.976   5.954  0.1489  0.0462 -0.0765
 8655SOL    HW137424   3.484   1.990   6.012  0.0605 -1.0868  0.0784
 8655SOL    HW237425   3.603   1.912   6.009 -1.1894 -1.1577 -0.4168
 8656SOL     OW37426   3.083   1.085   5.969  0.4181 -0.0658 -0.7603
 8656SOL    HW137427   3.164   1.121   5.932  0.9802 -0.8122 -0.2607
 8656SOL    HW237428   3.076   0.994   5.940 -0.7142 -0.5813  1.1667
 8657SOL     OW37429   2.383   2.323   9.556 -0.6862  0.5323  0.0436
 8657SOL    HW137430   2.329   2.306   9.633 -1.3093  0.4148 -0.4181
 8657SOL    HW237431   2.334   2.397   9.521 -1.1901 -0.1646 -0.7314
 8658SOL     OW37432   3.480   3.867  11.983 -0.2328 -0.0187 -0.2560
 8658SOL    HW137433   3.533   3.902  12.054 -1.8095 -2.3189  2.0443
 8658SOL    HW237434   3.544   3.842  11.916 -0.9430  1.4116 -1.4649
 8659SOL     OW37435   4.036   3.703   0.446 -0.6005  0.2980 -0.2264
 8659SOL    HW137436   3.942   3.685   0.437 -0.7512  1.7560 -1.6123
 8659SOL    HW237437   4.056   3.652   0.367  0.0583  0.8050 -0.3788
 8660SOL     OW37438   0.282   3.741   4.648 -0.0364 -0.2115 -0.3344
 8660SOL    HW137439   0.313   3.690   4.723  0.3951  0.4974 -0.0271
 8660SOL    HW237440   0.243   3.669   4.600 -0.0400  0.7120 -1.7105
 8661SOL     OW37441   2.615   2.441   3.120  0.1654  0.1784  0.5127
 8661SOL    HW137442   2.634   2.378   3.189  0.8588 -0.4427 -0.2462
 8661SOL    HW237443   2.521   2.449   3.134 -0.0654 -0.1611 -0.7898
 8662SOL     OW37444   1.145   4.465   5.242  0.1935 -0.1051  0.5578
 8662SOL    HW137445   1.186   4.537   5.195  1.5585  0.5484  2.7653
 8662SOL    HW237446   1.105   4.415   5.171  1.6277  1.6397 -1.5093
 8663SOL     OW37447   0.418   1.732   7.200  0.3322 -0.3193  0.5987
 8663SOL    HW137448   0.470   1.670   7.149 -0.7738 -1.7271  1.2087
 8663SOL    HW237449   0.372   1.770   7.126 -0.0175  0.0393  1.0014
 8664SOL     OW37450   3.133   3.078   7.004  0.9176  0.1323  0.7355
 8664SOL    HW137451   3.120   3.113   6.916  1.3165 -0.5388  0.4135
 8664SOL    HW237452   3.106   3.144   7.068  0.8547 -1.2462  2.1619
 8665SOL     OW37453   3.270   2.314   5.617  0.3005  0.4417  0.0655
 8665SOL    HW137454   3.235   2.225   5.619 -0.9080  0.8982 -1.0862
 8665SOL    HW237455   3.363   2.299   5.598 -0.0922 -0.7654 -0.8222
 8666SOL     OW37456   2.886   2.215   7.408 -0.1363 -0.1464 -0.3136
 8666SOL    HW137457   2.813   2.236   7.350 -0.1935  0.3011 -0.0843
 8666SOL    HW237458   2.833   2.221   7.488  0.6747  0.6697  0.1613
 8667SOL     OW37459   3.030   3.331  10.451  0.2261 -0.0031  0.3647
 8667SOL    HW137460   3.115   3.368  10.426 -0.0138  1.2746  1.4546
 8667SOL    HW237461   3.063   3.273  10.519  1.5296  0.1635 -0.1187
 8668SOL     OW37462   1.793   3.184   7.896  0.7752 -0.5988  0.6765
 8668SOL    HW137463   1.840   3.112   7.938 -0.2254 -0.9519  1.1847
 8668SOL    HW237464   1.861   3.212   7.834  0.6524  0.0725  0.8423
 8669SOL     OW37465   1.912   2.425   0.964 -0.0653  0.3154 -0.0514
 8669SOL    HW137466   1.992   2.413   0.913  0.3133  0.3368  0.5373
 8669SOL    HW237467   1.877   2.510   0.937 -1.2008 -0.8105 -2.1669
 8670SOL     OW37468   0.876   2.966   4.580  0.3807  0.2321 -0.5825
 8670SOL    HW137469   0.900   3.058   4.585  3.3658 -0.7585  2.5960
 8670SOL    HW237470   0.851   2.949   4.671  5.1740 -0.2372  0.6412
 8671SOL     OW37471   4.054   3.841  14.153 -0.2890 -0.1511  0.5063
 8671SOL    HW137472   3.974   3.839  14.101  0.6196 -1.5944 -0.8537
 8671SOL    HW237473   4.085   3.753  14.131  0.6329  0.6742 -1.4375
 8672SOL     OW37474   1.050   2.349   3.465 -0.0696 -0.1938  0.6212
 8672SOL    HW137475   1.127   2.315   3.511  0.0194  0.7710  1.1823
 8672SOL    HW237476   1.066   2.311   3.379  0.3802 -1.4382  1.2582
 8673SOL     OW37477   3.004   4.083   8.614 -0.3199 -0.1929 -0.0200
 8673SOL    HW137478   3.070   4.101   8.547  0.6647 -1.0138  0.7374
 8673SOL    HW237479   3.002   3.987   8.612  0.8909 -0.2408  1.6514
 8674SOL     OW37480   2.632   3.750   4.981 -0.6075 -0.5020 -0.4145
 8674SOL    HW137481   2.702   3.749   4.916  0.2905  3.2059  0.5065
 8674SOL    HW237482   2.647   3.832   5.029  0.3574 -0.9600  0.0629
 8675SOL     OW37483   2.496   3.352   7.608 -0.3206  0.3487  0.5125
 8675SOL    HW137484   2.578   3.341   7.657 -1.1320 -0.1784  1.7399
 8675SOL    HW237485   2.436   3.299   7.660 -0.0528  0.8973  1.3778
 8676SOL     OW37486   2.098   3.706   8.485 -0.3075 -0.0907  0.0633
 8676SOL    HW137487   2.042   3.732   8.558  0.0493  1.6509 -0.2960
 8676SOL    HW237488   2.038   3.666   8.421 -0.2616  0.8035 -0.5421
 8677SOL     OW37489   4.330   0.095   2.226  0.0682  0.1718  0.0049
 8677SOL    HW137490   4.357   0.180   2.191  1.6230 -0.0939  0.5749
 8677SOL    HW237491   4.261   0.115   2.289  0.0831  0.1131  0.0397
 8678SOL     OW37492   2.344   2.919   6.454  0.3513 -0.5408 -0.0222
 8678SOL    HW137493   2.395   2.891   6.530  1.5228  1.4062 -0.0835
 8678SOL    HW237494   2.413   2.904   6.390  1.4817 -0.9212  1.2840
 8679SOL     OW37495   0.658   0.372   7.215  0.4516  0.0802  0.2699
 8679SOL    HW137496   0.630   0.457   7.180  1.2505  1.0583  2.0432
 8679SOL    HW237497   0.751   0.394   7.219  0.3662  0.3343  0.8479
 8680SOL     OW37498   2.835   0.795  15.968 -0.5711  0.1118 -0.5172
 8680SOL    HW137499   2.848   0.704  15.996  0.9636  0.0092 -1.5920
 8680SOL    HW237500   2.905   0.842  16.013 -0.8913 -0.1097  0.2168
 8681SOL     OW37501   3.465   0.415   2.475 -0.6807  0.5910  0.1667
 8681SOL    HW137502   3.393   0.364   2.438 -1.0476  1.2394 -0.0112
 8681SOL    HW237503   3.411   0.494   2.477  0.7163  1.5964 -1.7446
 8682SOL     OW37504   0.933   2.501  17.197  0.3385  0.2636 -0.0452
 8682SOL    HW137505   0.951   2.592  17.220 -1.7589  0.7054 -0.1640
 8682SOL    HW237506   1.000   2.465  17.254 -1.2868 -1.2097  0.9200
 8683SOL     OW37507   2.029   3.414   7.008  0.8975  0.2044  0.1072
 8683SOL    HW137508   2.105   3.422   7.066  0.1363  1.1044  0.9769
 8683SOL    HW237509   2.072   3.389   6.926  1.1733 -0.8907  0.5824
 8684SOL     OW37510   2.019   2.271  13.272  0.1882  0.2479 -0.1833
 8684SOL    HW137511   2.060   2.338  13.218  2.9355  0.4069  2.0751
 8684SOL    HW237512   2.087   2.205  13.285 -1.4487 -1.5426 -0.7726
 8685SOL     OW37513   1.770   0.909   4.914  0.3303 -0.0644  0.2181
 8685SOL    HW137514   1.863   0.896   4.893  0.4216  2.3488 -0.8796
 8685SOL    HW237515   1.760   1.002   4.935  0.7445  0.2678 -1.0904
 8686SOL     OW37516   1.384   3.519   2.178  0.1325  0.1244 -0.1825
 8686SOL    HW137517   1.393   3.442   2.234 -0.6575  0.9397  1.0661
 8686SOL    HW237518   1.407   3.474   2.097  1.4816 -2.4013  1.6001
 8687SOL     OW37519   2.763   1.452   1.506  0.2457  0.3349  0.2222
 8687SOL    HW137520   2.768   1.504   1.426  1.1783  0.6487  0.4830
 8687SOL    HW237521   2.855   1.438   1.529  0.0534 -0.5994  0.4580
 8688SOL     OW37522   1.623   4.509   7.790  0.2266 -0.0195  0.0996
 8688SOL    HW137523   1.711   4.534   7.818  1.4796 -2.0747 -2.0423
 8688SOL    HW237524   1.594   4.596   7.763  0.4685 -0.8372 -2.7550
 8689SOL     OW37525   0.503   2.279   8.438  0.2508  0.0042  0.0248
 8689SOL    HW137526   0.582   2.308   8.485  1.2040 -1.2825 -0.7801
 8689SOL    HW237527   0.442   2.296   8.510  0.1453 -0.7902  0.1171
 8690SOL     OW37528   3.698   1.364   0.484  0.0095 -0.0749 -0.4551
 8690SOL    HW137529   3.725   1.391   0.396  0.4558  2.1108  0.3675
 8690SOL    HW237530   3.707   1.269   0.478 -3.2461 -0.5237  1.6860
 8691SOL     OW37531   1.341   3.889   6.066  0.0880 -0.0700  0.5489
 8691SOL    HW137532   1.404   3.960   6.062  0.8090 -0.7700 -0.4428
 8691SOL    HW237533   1.290   3.906   5.987 -1.5796 -0.3882  1.5544
 8692SOL     OW37534   3.891   1.994   7.365  0.0964 -0.0838  0.1051
 8692SOL    HW137535   3.892   2.058   7.294 -1.0304 -0.6866 -0.4410
 8692SOL    HW237536   3.930   1.919   7.320  2.3861  1.5823 -0.6645
 8693SOL     OW37537   1.550   4.470  14.839 -0.1024 -0.1904 -0.1362
 8693SOL    HW137538   1.460   4.501  14.829  0.2782  0.5778 -1.1088
 8693SOL    HW237539   1.607   4.499  14.768  0.0463  0.4404  0.2409
 8694SOL     OW37540   1.799   1.901   4.819  0.2864  0.3798 -0.5192
 8694SOL    HW137541   1.709   1.922   4.845  1.4981  2.2171  2.1210
 8694SOL    HW237542   1.836   1.988   4.828  2.0194 -0.3521 -0.6511
 8695SOL     OW37543   0.705   2.706  16.828 -0.3054  0.0105  0.2671
 8695SOL    HW137544   0.760   2.705  16.750 -2.3294  0.1693 -1.1598
 8695SOL    HW237545   0.739   2.627  16.870 -1.2729  1.0074  2.9340
 8696SOL     OW37546   3.288   0.638   2.501  0.3532 -0.1218  0.4236
 8696SOL    HW137547   3.252   0.713   2.453  0.3906 -1.2564 -1.3633
 8696SOL    HW237548   3.238   0.641   2.583 -1.3085 -1.6836 -0.5255
 8697SOL     OW37549   2.559   4.272   6.681  0.5951  0.0768  0.5858
 8697SOL    HW137550   2.480   4.324   6.663  0.0943 -0.9024 -0.0706
 8697SOL    HW237551   2.572   4.293   6.773  0.0432 -0.7220  0.8426
 8698SOL     OW37552   0.159   4.344   6.933  0.0167  0.8616  0.1702
 8698SOL    HW137553   0.191   4.391   7.010 -0.0869 -1.7687  1.8484
 8698SOL    HW237554   0.244   4.332   6.891  0.5268  1.6499  0.9838
 8699SOL     OW37555   0.858   1.872   9.835 -0.3151 -0.0513 -0.2092
 8699SOL    HW137556   0.773   1.850   9.873 -0.0052 -0.2738  0.3556
 8699SOL    HW237557   0.879   1.789   9.791  0.6508  1.7200 -3.0812
 8700SOL     OW37558   0.684   4.676   3.408  0.4797 -0.1990  0.4565
 8700SOL    HW137559   0.640   4.681   3.323 -0.8936  2.1662  1.2927
 8700SOL    HW237560   0.673   0.044   3.444  0.5965  0.1678 -0.4040
 8701SOL     OW37561   3.101   0.362  13.403  0.5072 -0.2694  0.1939
 8701SOL    HW137562   3.159   0.432  13.431  1.5842 -0.8097 -0.7287
 8701SOL    HW237563   3.167   0.314  13.354  0.0958 -0.5294 -0.1095
 8702SOL     OW37564   3.300   2.533   6.421  0.3525 -0.3766  0.2097
 8702SOL    HW137565   3.302   2.512   6.327 -2.6407 -1.0640  0.3038
 8702SOL    HW237566   3.213   2.569   6.437  0.5061  0.8148 -1.5869
 8703SOL     OW37567   1.025   1.818   4.897  0.9715 -0.1877  0.1017
 8703SOL    HW137568   0.984   1.880   4.957  0.9212  0.0725 -0.1985
 8703SOL    HW237569   1.002   1.859   4.814 -1.6294  1.4320  1.6441
 8704SOL     OW37570   4.166   3.485   7.566  0.8091  0.1049  0.0280
 8704SOL    HW137571   4.241   3.476   7.625  2.0154  3.5217 -1.0364
 8704SOL    HW237572   4.143   3.577   7.579  1.1099  0.0308  1.0633
 8705SOL     OW37573   0.724   3.905  17.124 -0.0115  0.2192  0.0586
 8705SOL    HW137574   0.795   3.858  17.081 -0.9624 -0.8558 -0.3233
 8705SOL    HW237575   0.742   3.993  17.089 -2.6673  1.3453  1.4471
 8706SOL     OW37576   2.567   0.204  13.524 -0.4282 -0.3284  0.0336
 8706SOL    HW137577   2.620   0.281  13.504 -3.1654  0.7555 -3.0550
 8706SOL    HW237578   2.606   0.137  13.468 -2.8929 -0.8092 -1.1188
 8707SOL     OW37579   0.515   1.480  12.635  0.0875 -0.2753 -0.2504
 8707SOL    HW137580   0.509   1.536  12.712  1.4174  0.7274 -0.8604
 8707SOL    HW237581   0.580   1.520  12.577  2.0681 -1.0901  1.4008
 8708SOL     OW37582   3.058   3.400   7.877  0.2487 -0.2437 -0.3489
 8708SOL    HW137583   3.121   3.443   7.934  1.4719 -2.1582 -0.2386
 8708SOL    HW237584   3.012   3.336   7.932  0.8023 -0.6453 -0.3551
 8709SOL     OW37585   0.422   2.414  16.337 -0.1154 -0.1107  0.3945
 8709SOL    HW137586   0.487   2.458  16.282 -0.6980 -1.6103 -1.4905
 8709SOL    HW237587   0.392   2.339  16.285  0.6943  0.6880 -1.2213
 8710SOL     OW37588   3.261   0.247   3.608 -0.3417 -0.1680 -0.2053
 8710SOL    HW137589   3.250   0.328   3.558  3.6671 -0.7364 -2.0019
 8710SOL    HW237590   3.201   0.270   3.680 -0.0777 -1.8884  0.5611
 8711SOL     OW37591   2.739   1.767   0.948 -0.0410  0.1641 -0.3819
 8711SOL    HW137592   2.755   1.827   1.021 -0.5747  0.1547 -0.2521
 8711SOL    HW237593   2.812   1.708   0.966 -1.7145 -1.2763  1.6583
 8712SOL     OW37594   4.056   0.361   0.280  0.9166 -0.7280  0.2355
 8712SOL    HW137595   4.151   0.369   0.268  0.8987  0.1327  0.6784
 8712SOL    HW237596   4.029   0.451   0.265 -2.0723 -1.6547  0.0450
 8713SOL     OW37597   4.429   0.734  12.388  0.2601 -0.1578  0.5516
 8713SOL    HW137598   4.334   0.728  12.396 -0.1634  1.5418 -3.2679
 8713SOL    HW237599   4.444   0.825  12.415 -0.7261 -0.0257  0.6395
 8714SOL     OW37600   3.608   0.944   5.624  0.2444  0.1855 -0.0024
 8714SOL    HW137601   3.581   0.915   5.711  0.4074  0.6910  0.2147
 8714SOL    HW237602   3.702   0.932   5.615  0.6915  1.8447  2.5416
 8715SOL     OW37603   0.163   1.192   6.938  0.0113  0.2781  0.2121
 8715SOL    HW137604   0.089   1.220   6.885  1.1267 -0.3525 -1.6737
 8715SOL    HW237605   0.197   1.112   6.898 -0.2623 -0.4457  1.4090
 8716SOL     OW37606   2.838   0.035   2.028  0.1709  0.0471 -0.1658
 8716SOL    HW137607   2.815   0.053   2.119 -0.7168  1.5136 -0.6782
 8716SOL    HW237608   2.932   0.055   2.021  0.0577  0.7391  0.2729
 8717SOL     OW37609   2.814   2.197   4.422 -0.7170  0.2300  0.0685
 8717SOL    HW137610   2.827   2.272   4.364 -2.6401 -0.0307 -0.7155
 8717SOL    HW237611   2.719   2.187   4.424 -0.5796 -1.0205  0.4915
 8718SOL     OW37612   2.464   1.119   0.821  0.3174  0.6490  0.2274
 8718SOL    HW137613   2.401   1.141   0.890 -2.1287 -1.1099 -1.4294
 8718SOL    HW237614   2.482   1.207   0.787 -0.6637  1.0263  0.6921
 8719SOL     OW37615   0.400   2.805   3.469 -0.0510  0.0905 -0.2329
 8719SOL    HW137616   0.494   2.798   3.487 -0.3812 -0.4619  1.2292
 8719SOL    HW237617   0.381   2.715   3.443 -2.3901  0.0404  1.7194
 8720SOL     OW37618   3.550   2.088   3.733  0.4768  0.2954 -0.2092
 8720SOL    HW137619   3.523   2.146   3.662  0.6678  0.3630 -0.2266
 8720SOL    HW237620   3.466   2.077   3.779  0.4701 -0.8692 -0.4933
 8721SOL     OW37621   0.322   1.529  12.829 -0.1780 -0.0799  0.4601
 8721SOL    HW137622   0.232   1.555  12.809 -0.7547 -1.9764  0.6632
 8721SOL    HW237623   0.353   1.612  12.866  0.3661  0.4498 -1.1538
 8722SOL     OW37624   0.266   1.464   9.879 -0.0923  1.0093 -0.1381
 8722SOL    HW137625   0.249   1.446   9.971  2.9997 -0.3931  0.1320
 8722SOL    HW237626   0.207   1.400   9.838  0.8260 -0.1178  0.3260
 8723SOL     OW37627   2.900   0.569   0.300  0.5608  0.2865 -0.3999
 8723SOL    HW137628   2.805   0.585   0.301  0.7497  1.4961 -2.1135
 8723SOL    HW237629   2.917   0.480   0.330 -3.9241  0.2725  2.0678
 8724SOL     OW37630   4.593   2.147   7.114 -0.3409 -0.1619 -0.1268
 8724SOL    HW137631   4.682   2.178   7.100 -0.8415  0.5735 -1.7113
 8724SOL    HW237632   4.551   2.147   7.028  1.0298 -1.5445 -0.8039
 8725SOL     OW37633   3.150   2.992  16.446  0.5583 -0.0123 -0.3587
 8725SOL    HW137634   3.117   3.081  16.460  1.1539  0.2280 -0.4432
 8725SOL    HW237635   3.156   2.986  16.350 -0.1942 -1.3831 -0.3103
 8726SOL     OW37636   1.229   2.371   5.010  0.1991 -0.5464  0.1642
 8726SOL    HW137637   1.287   2.331   4.945  1.1574  1.0982 -0.0140
 8726SOL    HW237638   1.208   2.294   5.061 -1.1852 -2.1205 -2.7759
 8727SOL     OW37639   2.746   3.088  10.142 -0.1867  0.1490  0.5425
 8727SOL    HW137640   2.746   2.994  10.158  0.1644  0.4917  2.5855
 8727SOL    HW237641   2.659   3.100  10.104  0.0012  1.0462  0.3974
 8728SOL     OW37642   4.116   0.841  17.374  0.2685 -0.6318 -0.2600
 8728SOL    HW137643   4.062   0.852  17.452 -0.3612  2.5206 -1.1355
 8728SOL    HW237644   4.163   0.765  17.410  0.8187  1.0688  2.6860
 8729SOL     OW37645   0.173   0.724   2.497  0.5582  0.2558  0.2735
 8729SOL    HW137646   0.199   0.803   2.544  0.3193  2.0701 -2.6306
 8729SOL    HW237647   0.126   0.675   2.565  0.8168 -1.1226 -0.5450
 8730SOL     OW37648   1.055   2.584  12.379 -0.2077  0.2540  0.5415
 8730SOL    HW137649   0.968   2.612  12.410  0.8283  1.4359  2.3890
 8730SOL    HW237650   1.099   2.566  12.462  0.6581  2.6128  0.5876
 8731SOL     OW37651   1.472   3.652   9.149 -0.6894  0.2869 -0.3880
 8731SOL    HW137652   1.495   3.614   9.234 -0.9359  0.7020 -0.1331
 8731SOL    HW237653   1.403   3.594   9.118 -1.3348  1.3547 -0.9383
 8732SOL     OW37654   2.357   2.735   4.795  0.0686  0.3387 -0.3681
 8732SOL    HW137655   2.420   2.807   4.794  1.6728 -1.0765 -1.8868
 8732SOL    HW237656   2.321   2.765   4.878  0.3817  1.5022 -0.6486
 8733SOL     OW37657   1.737   2.341   6.522  0.5587 -0.8219  0.3778
 8733SOL    HW137658   1.665   2.287   6.490  1.0132 -1.8168  1.0426
 8733SOL    HW237659   1.718   2.346   6.615  0.5567  1.4337  0.2500
 8734SOL     OW37660   3.774   2.102   5.466 -0.1663  0.2211 -0.0509
 8734SOL    HW137661   3.805   2.032   5.524 -2.7522  0.3226  1.4261
 8734SOL    HW237662   3.854   2.150   5.445  0.6450 -1.2375 -0.3601
 8735SOL     OW37663   1.199   2.046   4.391  0.5268  0.0135 -0.2155
 8735SOL    HW137664   1.137   1.974   4.382  0.9921 -0.1372 -2.3055
 8735SOL    HW237665   1.239   2.041   4.304  1.4941 -0.9980  0.2854
 8736SOL     OW37666   4.522   0.558  11.800  0.2948 -0.2827  0.2354
 8736SOL    HW137667   4.483   0.506  11.870 -0.9398  0.0719 -0.1872
 8736SOL    HW237668   4.462   0.561  11.726 -0.3714 -2.2449  0.6996
 8737SOL     OW37669   1.494   3.601   4.952 -0.5185  0.3452  0.1989
 8737SOL    HW137670   1.451   3.669   4.900  1.7225  0.6261 -1.3034
 8737SOL    HW237671   1.469   3.527   4.897  1.9428  0.4333 -1.0535
 8738SOL     OW37672   4.146   2.084   3.550  0.1506 -0.3667 -0.4097
 8738SOL    HW137673   4.168   2.046   3.465 -2.5504  1.9291 -2.1469
 8738SOL    HW237674   4.100   2.160   3.515  0.6738 -0.5219 -1.4200
 8739SOL     OW37675   4.295   3.286   5.915 -0.1443  0.4565  0.1158
 8739SOL    HW137676   4.314   3.194   5.899  1.5213  0.6075  1.2583
 8739SOL    HW237677   4.273   3.308   5.825 -0.3517  0.0639  0.0708
 8740SOL     OW37678   3.939   4.657   6.116  0.3119 -0.2462  0.1504
 8740SOL    HW137679   4.014   4.653   6.175 -0.7870 -0.9189  1.5014
 8740SOL    HW237680   3.986   4.667   6.033 -0.1539  0.4843 -0.0294
 8741SOL     OW37681   3.024   2.829   2.503  0.4403 -0.1953 -0.0506
 8741SOL    HW137682   3.021   2.881   2.423  1.7821  1.9334  1.2903
 8741SOL    HW237683   3.117   2.810   2.510  0.3235 -0.5890  0.4955
 8742SOL     OW37684   3.080   0.244   3.839  0.6834  0.3365  0.4090
 8742SOL    HW137685   3.165   0.223   3.878  0.7994 -1.0909 -0.6019
 8742SOL    HW237686   3.028   0.273   3.913 -1.3295 -0.3876 -0.7298
 8743SOL     OW37687   0.260   3.824  10.793  0.0370  0.4760 -0.3918
 8743SOL    HW137688   0.207   3.829  10.714 -0.6903 -2.2936 -0.0865
 8743SOL    HW237689   0.311   3.744  10.777  0.3170  0.3912  0.9950
 8744SOL     OW37690   4.329   0.188   8.622 -0.2878 -0.7020 -0.2496
 8744SOL    HW137691   4.347   0.282   8.624  2.3401 -1.1920 -0.8640
 8744SOL    HW237692   4.357   0.162   8.710 -0.7065 -1.1262 -0.2448
 8745SOL     OW37693   2.595   3.838  13.588 -0.3712  0.0863  0.0576
 8745SOL    HW137694   2.641   3.918  13.563 -0.8404  0.2023 -0.4230
 8745SOL    HW237695   2.603   3.790  13.505  1.2610  0.4569  0.0018
 8746SOL     OW37696   3.200   2.279   8.997 -0.1137  0.4356 -0.2174
 8746SOL    HW137697   3.206   2.325   8.913 -0.8666  0.2408 -0.3755
 8746SOL    HW237698   3.107   2.257   8.996 -0.0511  0.2325 -1.0902
 8747SOL     OW37699   4.299   3.414   7.288 -0.0624  0.3149 -0.1071
 8747SOL    HW137700   4.380   3.377   7.322  0.5758  1.5124 -0.3189
 8747SOL    HW237701   4.271   3.461   7.366 -0.4970  1.3563 -0.8855
 8748SOL     OW37702   1.037   3.616   6.189  0.3999  0.0547 -0.0434
 8748SOL    HW137703   0.987   3.566   6.254  0.4189 -1.5855 -1.3056
 8748SOL    HW237704   1.115   3.635   6.241  1.4903  0.5441 -1.8843
 8749SOL     OW37705   0.422   2.397   9.467 -0.4268 -0.7156  0.2628
 8749SOL    HW137706   0.517   2.396   9.474 -0.2456  2.1331 -1.9850
 8749SOL    HW237707   0.400   2.482   9.505 -2.3992 -0.2298 -1.9526
 8750SOL     OW37708   2.289   1.699   4.197  0.3990 -0.0389  0.2887
 8750SOL    HW137709   2.324   1.788   4.196 -0.2012  0.2037  0.5258
 8750SOL    HW237710   2.260   1.683   4.107  0.1752  2.0160 -0.0179
 8751SOL     OW37711   1.226   3.747   3.444 -0.1444  0.0905 -0.2925
 8751SOL    HW137712   1.158   3.694   3.486 -0.0769 -2.0695 -2.9571
 8751SOL    HW237713   1.288   3.767   3.515 -0.1767  1.2146 -0.5755
 8752SOL     OW37714   1.469   4.275   2.173 -0.4563 -0.0148  0.2839
 8752SOL    HW137715   1.430   4.343   2.119 -0.3792 -0.5932 -0.5033
 8752SOL    HW237716   1.413   4.272   2.251  1.3089  4.7376  1.7276
 8753SOL     OW37717   1.311   2.765   6.358 -0.4215 -0.2401 -0.7050
 8753SOL    HW137718   1.331   2.673   6.340  0.2051 -0.2873  0.2035
 8753SOL    HW237719   1.392   2.806   6.391 -1.0788  1.1451 -0.7912
 8754SOL     OW37720   3.483   0.442  16.695 -0.0639 -0.2916  0.2094
 8754SOL    HW137721   3.418   0.461  16.628  0.2240  1.9051  0.5463
 8754SOL    HW237722   3.560   0.423  16.641 -0.4536  0.6894 -0.6772
 8755SOL     OW37723   1.004   3.543   0.554  0.4895 -0.4698  0.5661
 8755SOL    HW137724   0.982   3.493   0.633 -2.2724  1.3712  0.9617
 8755SOL    HW237725   1.019   3.632   0.587 -1.0407 -0.4176  1.0898
 8756SOL     OW37726   1.458   2.158   2.409  0.2836 -0.1394  0.5344
 8756SOL    HW137727   1.432   2.225   2.346  4.7460 -0.2216 -1.3827
 8756SOL    HW237728   1.465   2.202   2.494 -0.8858  1.4745 -0.2006
 8757SOL     OW37729   4.567   2.695   6.606  0.4017 -0.0530  0.4045
 8757SOL    HW137730   4.527   2.633   6.667  0.5294  1.3715  1.9333
 8757SOL    HW237731   4.604   2.760   6.666  0.7786  0.2555 -0.1636
 8758SOL     OW37732   0.736   0.130   4.552 -0.3862  0.2007  0.0870
 8758SOL    HW137733   0.817   0.086   4.526  0.1520  0.4021  1.4525
 8758SOL    HW237734   0.682   0.058   4.582  1.0354 -0.0291  2.0442
 8759SOL     OW37735   3.697   1.177  11.521  0.0707 -0.1964  0.1650
 8759SOL    HW137736   3.726   1.094  11.558  2.2652  0.3525 -0.3089
 8759SOL    HW237737   3.663   1.152  11.435 -0.2702 -0.3535  0.3504
 8760SOL     OW37738   3.449   4.549   8.527 -0.3259 -0.5068 -0.1147
 8760SOL    HW137739   3.498   4.579   8.450  1.2691  0.4333  1.2410
 8760SOL    HW237740   3.399   4.628   8.549  2.2813  0.7179  1.5207
 8761SOL     OW37741   4.030   1.367   7.923  0.0489 -0.2239 -0.4235
 8761SOL    HW137742   3.977   1.441   7.950  1.3413  0.4738  0.1922
 8761SOL    HW237743   4.002   1.353   7.832 -3.6760 -0.7591  0.8128
 8762SOL     OW37744   1.719   4.053  16.543  0.0588 -0.0603 -0.4270
 8762SOL    HW137745   1.808   4.072  16.572 -0.5029 -0.4096  1.5595
 8762SOL    HW237746   1.680   4.014  16.622 -0.9484  0.5019 -0.6416
 8763SOL     OW37747   3.595   1.701   1.858  0.4659 -0.0912  0.2320
 8763SOL    HW137748   3.565   1.788   1.882 -0.8582  0.2129 -2.5183
 8763SOL    HW237749   3.647   1.713   1.779  0.2611 -2.0270 -0.2018
 8764SOL     OW37750   4.174   3.407   7.042  0.0696  0.4836 -0.1706
 8764SOL    HW137751   4.095   3.441   7.084 -1.5722 -1.8529 -1.3712
 8764SOL    HW237752   4.223   3.380   7.119  1.3190 -0.3811 -1.2738
 8765SOL     OW37753   1.855   3.017   6.665 -0.3708  0.6182 -0.4202
 8765SOL    HW137754   1.765   2.987   6.673 -0.4717  1.1627  0.5177
 8765SOL    HW237755   1.830   3.105   6.638  1.3991  1.1316 -0.3937
 8766SOL     OW37756   3.674   3.483   5.979 -0.2878  0.0259 -0.0098
 8766SOL    HW137757   3.662   3.578   5.985  0.4775  0.2514 -1.8389
 8766SOL    HW237758   3.686   3.462   6.071  0.4308  1.6945  0.2660
 8767SOL     OW37759   3.122   3.022  10.969  0.0906 -0.0433  0.1197
 8767SOL    HW137760   3.172   3.102  10.951  2.5929 -1.5311  0.4076
 8767SOL    HW237761   3.131   3.028  11.064  0.0059 -0.8900  0.1812
 8768SOL     OW37762   1.489   2.269  10.053  0.7958 -0.1764 -0.0426
 8768SOL    HW137763   1.553   2.202  10.076  1.5458  1.0309  1.3793
 8768SOL    HW237764   1.503   2.321  10.132 -0.3025 -1.8215  1.2437
 8769SOL     OW37765   1.296   3.075  17.548 -0.2210  0.4858  0.5814
 8769SOL    HW137766   1.224   3.028  17.505 -1.1655  1.3915  1.1564
 8769SOL    HW237767   1.289   3.027  17.630 -0.8933 -2.0299 -0.9207
 8770SOL     OW37768   4.156   0.351   5.934  0.2007  0.7283 -0.0283
 8770SOL    HW137769   4.083   0.290   5.937  1.8025 -1.1972 -0.4126
 8770SOL    HW237770   4.174   0.363   5.841 -2.8078 -0.8716 -0.8364
 8771SOL     OW37771   2.077   0.090   7.775  0.6060  0.2615 -0.2665
 8771SOL    HW137772   2.036   0.096   7.860 -2.6438  0.6738 -1.8776
 8771SOL    HW237773   2.034   0.169   7.742 -1.5266 -0.4428  0.8604
 8772SOL     OW37774   3.529   4.178   2.017 -0.2228  0.3117  0.0807
 8772SOL    HW137775   3.534   4.157   2.110 -1.4166 -0.8960 -0.1209
 8772SOL    HW237776   3.454   4.130   1.982  0.5466 -2.0404  1.7201
 8773SOL     OW37777   0.918   0.305  16.271  0.7020 -0.1170  0.2618
 8773SOL    HW137778   0.866   0.345  16.341  1.0005  2.5758 -1.0660
 8773SOL    HW237779   0.898   0.356  16.193  2.7818 -0.2435 -0.3527
 8774SOL     OW37780   4.123   3.659  17.204  0.2701  0.0285 -0.0939
 8774SOL    HW137781   4.185   3.597  17.166  1.4662  1.1070  0.1314
 8774SOL    HW237782   4.057   3.674  17.136 -0.1677 -0.8979  0.1157
 8775SOL     OW37783   2.379   3.940  16.034  0.0577 -0.0516 -0.1788
 8775SOL    HW137784   2.358   3.893  15.953  2.2414  0.0976 -0.8493
 8775SOL    HW237785   2.292   3.972  16.058 -0.9839 -1.7942 -1.5791
 8776SOL     OW37786   4.198   2.137  12.364  0.6397 -0.2512  0.2406
 8776SOL    HW137787   4.135   2.206  12.345  2.0415  0.8697 -0.2999
 8776SOL    HW237788   4.223   2.099  12.280  0.8785 -2.3951  1.2878
 8777SOL     OW37789   0.250   3.527   4.862  0.0095 -0.8360  0.1211
 8777SOL    HW137790   0.174   3.484   4.821  0.0038 -1.1410  0.4500
 8777SOL    HW237791   0.318   3.461   4.846 -0.9572 -1.9432  0.5202
 8778SOL     OW37792   4.559   0.146   6.704  0.0798  0.6499 -0.2130
 8778SOL    HW137793   4.650   0.157   6.734  0.8582 -1.0093 -1.9532
 8778SOL    HW237794   4.545   0.230   6.661 -1.6674  0.6039  0.2773
 8779SOL     OW37795   0.093   1.687   8.628 -0.4985  0.6387 -0.1886
 8779SOL    HW137796   0.121   1.612   8.576  1.0652  2.3086 -1.7556
 8779SOL    HW237797   0.179   1.725   8.647 -0.0586 -1.4125  2.0414
 8780SOL     OW37798   3.900   0.273   1.750  0.2016 -0.3192  0.2319
 8780SOL    HW137799   3.968   0.256   1.815  0.5581  0.3918  0.0464
 8780SOL    HW237800   3.887   0.367   1.765  0.3827 -0.0678 -1.2028
 8781SOL     OW37801   2.529   0.670   8.389  0.3785  0.5518  0.2940
 8781SOL    HW137802   2.521   0.743   8.328  0.9856 -0.9795 -1.6141
 8781SOL    HW237803   2.464   0.614   8.347  2.8618 -0.7425 -1.7937
 8782SOL     OW37804   0.742   4.664  13.673  0.1842  0.1086 -0.5176
 8782SOL    HW137805   0.688   4.644  13.750 -0.0910  0.4402 -0.6259
 8782SOL    HW237806   0.832   4.654  13.704  0.0560 -1.6000 -0.6479
 8783SOL     OW37807   1.777   0.577   7.667  0.4519  0.2268 -0.0188
 8783SOL    HW137808   1.749   0.532   7.588 -0.8244  0.3560  0.3613
 8783SOL    HW237809   1.733   0.661   7.661 -1.3901 -0.5620  2.5152
 8784SOL     OW37810   3.513   1.404   3.536  0.0625 -0.1817 -0.4961
 8784SOL    HW137811   3.568   1.386   3.460  1.6969 -0.1940  0.6997
 8784SOL    HW237812   3.438   1.445   3.493  0.5342  0.1935 -0.9683
 8785SOL     OW37813   0.095   3.321   3.923 -0.0972  0.7098 -0.8561
 8785SOL    HW137814   0.114   3.345   3.833  1.2524 -0.0180 -0.7648
 8785SOL    HW237815   0.112   3.406   3.963 -0.9934  0.5231 -0.0655
 8786SOL     OW37816   0.126   3.284  16.186 -0.2512 -0.2252 -0.4533
 8786SOL    HW137817   0.059   3.230  16.228  2.3023 -1.6255  1.8131
 8786SOL    HW237818   0.192   3.218  16.163  0.1054  0.9692 -2.8374
 8787SOL     OW37819   2.265   0.639   6.622 -0.4391  0.0681  0.5442
 8787SOL    HW137820   2.237   0.710   6.681 -0.3870  1.1381 -0.7283
 8787SOL    HW237821   2.360   0.635   6.625 -0.3854  0.0777 -1.8150
 8788SOL     OW37822   2.787   0.002   6.479 -0.2819 -0.6525 -0.4693
 8788SOL    HW137823   2.858   4.674   6.437  0.4540  1.0576 -1.1734
 8788SOL    HW237824   2.723   4.655   6.503  1.1962 -1.7660  0.3294
 8789SOL     OW37825   1.833   4.537   6.156 -0.2362  0.0770 -0.0311
 8789SOL    HW137826   1.791   4.550   6.071 -0.5102 -0.9816 -0.0541
 8789SOL    HW237827   1.815   4.628   6.181 -1.6239  0.2449 -1.6689
 8790SOL     OW37828   3.291   1.607   2.524 -0.2690  0.4996 -0.0644
 8790SOL    HW137829   3.208   1.589   2.481 -0.6047 -0.1365  0.8551
 8790SOL    HW237830   3.317   1.515   2.528 -1.1477  0.2439 -0.2559
 8791SOL     OW37831   1.103   3.899   8.554 -0.0464  0.2227  0.3414
 8791SOL    HW137832   1.019   3.858   8.572 -0.9414  1.3166 -1.3884
 8791SOL    HW237833   1.113   3.952   8.634 -0.3910  2.0816 -0.8434
 8792SOL     OW37834   0.858   2.248   7.403 -0.3810 -0.2126  0.1532
 8792SOL    HW137835   0.815   2.163   7.394 -0.9009 -0.3204  3.7952
 8792SOL    HW237836   0.949   2.229   7.425 -0.0498  0.4407 -0.6526
 8793SOL     OW37837   3.576   0.267   8.092  0.4313  0.3209 -0.7319
 8793SOL    HW137838   3.626   0.338   8.053 -0.6346  0.9816 -0.8869
 8793SOL    HW237839   3.509   0.318   8.138  0.6086 -1.6480  1.7331
 8794SOL     OW37840   1.925   0.010  13.188 -0.3174 -0.1865  0.4070
 8794SOL    HW137841   1.893   4.681  13.112  0.9016 -0.5113  0.1126
 8794SOL    HW237842   1.931   0.101  13.160  1.1871 -1.1799 -2.5255
 8795SOL     OW37843   2.902   0.326   0.429  0.3892  0.1903  0.3928
 8795SOL    HW137844   2.931   0.257   0.488 -1.1669  0.6238  1.6721
 8795SOL    HW237845   2.861   0.276   0.357  1.1732  0.5702 -0.3144
 8796SOL     OW37846   3.051   0.844  12.037 -0.0093 -0.1292 -0.2467
 8796SOL    HW137847   3.010   0.862  12.122  1.0748  1.4878 -0.0596
 8796SOL    HW237848   3.146   0.847  12.050 -0.1691 -2.0591  1.4725
 8797SOL     OW37849   2.651   4.180  17.011 -0.0017  0.8363  0.0171
 8797SOL    HW137850   2.562   4.210  16.994  0.0044  0.8658  0.0369
 8797SOL    HW237851   2.701   4.252  16.971  0.5977 -1.2061 -2.9331
 8798SOL     OW37852   3.523   2.919  17.315 -0.3039  0.3045 -0.5056
 8798SOL    HW137853   3.614   2.890  17.322  0.3186  2.8471  1.9518
 8798SOL    HW237854   3.482   2.864  17.248 -1.1150 -0.2969  0.4910
 8799SOL     OW37855   0.001   0.183   8.431  0.3891 -0.1067  0.3384
 8799SOL    HW137856   0.080   0.219   8.390 -0.7843  1.1151 -0.8807
 8799SOL    HW237857   0.006   0.089   8.415  1.3898  0.1905 -1.1243
 8800SOL     OW37858   2.157   3.763  11.487  0.4340 -0.2919  0.1198
 8800SOL    HW137859   2.128   3.675  11.509  1.6191 -1.0703 -1.4340
 8800SOL    HW237860   2.238   3.738  11.444  0.3343  0.7971 -0.7102
 8801SOL     OW37861   2.120   3.391  13.824  0.0153 -0.3921  0.0247
 8801SOL    HW137862   2.143   3.478  13.855  1.4453 -0.5605 -0.5706
 8801SOL    HW237863   2.070   3.412  13.745 -1.1164 -1.3821  0.4930
 8802SOL     OW37864   4.110   3.744   7.605 -0.5089  0.2260 -0.1020
 8802SOL    HW137865   4.071   3.822   7.644 -1.8853  0.4977 -2.0563
 8802SOL    HW237866   4.071   3.744   7.518 -0.1865  0.5797 -0.2459
 8803SOL     OW37867   4.424   3.214   6.600  0.5947  0.3478  0.1243
 8803SOL    HW137868   4.363   3.285   6.579 -1.4913 -0.5852  3.1175
 8803SOL    HW237869   4.411   3.216   6.695  1.2741  1.4021  0.2043
 8804SOL     OW37870   0.455   0.638   6.701  0.2117  0.3254  0.0075
 8804SOL    HW137871   0.522   0.576   6.731  1.2096 -0.5255 -3.9145
 8804SOL    HW237872   0.514   0.711   6.680  0.1208  0.3842 -0.0402
 8805SOL     OW37873   0.815   2.711   9.575  0.3978 -0.3565  1.4107
 8805SOL    HW137874   0.734   2.694   9.623 -1.7016  0.4892 -1.8597
 8805SOL    HW237875   0.830   2.799   9.610  0.8773  1.2540 -2.8673
 8806SOL     OW37876   1.481   3.911   7.126  0.6181 -0.2976 -0.5804
 8806SOL    HW137877   1.514   3.989   7.169  1.0785  0.1689 -1.7639
 8806SOL    HW237878   1.558   3.872   7.084  2.4580  0.7902  1.7728
 8807SOL     OW37879   1.461   0.033   8.380 -0.0546 -0.1718  0.1069
 8807SOL    HW137880   1.377   0.065   8.347  0.3193  0.7642  0.0496
 8807SOL    HW237881   1.468   4.681   8.318  1.8545 -0.2984  0.4637
 8808SOL     OW37882   1.393   4.277   8.379 -0.6308 -0.1156 -0.2921
 8808SOL    HW137883   1.369   4.190   8.348 -2.1626  0.0906  0.2934
 8808SOL    HW237884   1.390   4.268   8.474 -0.4932  2.1327 -0.0640
 8809SOL     OW37885   2.204   0.562   9.032  0.7676  0.6951 -0.3546
 8809SOL    HW137886   2.198   0.468   9.045 -1.5921  0.7628 -1.0215
 8809SOL    HW237887   2.232   0.586   9.121 -0.4255 -0.6234  0.3597
 8810SOL     OW37888   4.670   2.220   4.810  0.0341 -0.5389 -0.1678
 8810SOL    HW137889   4.683   2.288   4.876 -0.6539 -0.2037 -0.3804
 8810SOL    HW237890   4.679   2.280   4.736 -1.6818 -0.4055 -0.2607
 8811SOL     OW37891   4.273   2.701   6.222 -0.5863  0.2248  0.4944
 8811SOL    HW137892   4.350   2.703   6.278  0.3902 -0.7966 -0.7874
 8811SOL    HW237893   4.219   2.736   6.292 -0.8241 -0.7889  0.8088
 8812SOL     OW37894   3.954   4.051   1.514 -0.1616  0.2195  0.5038
 8812SOL    HW137895   3.893   4.058   1.588  1.1089  1.0453  1.4804
 8812SOL    HW237896   3.923   4.133   1.475 -0.5269 -0.4193 -0.5424
 8813SOL     OW37897   4.613   0.129  12.142  0.5154 -0.2470  0.3456
 8813SOL    HW137898   4.655   0.131  12.228  1.3795 -0.5588 -0.0718
 8813SOL    HW237899   4.653   0.210  12.111  2.1090 -1.4704 -0.8328
 8814SOL     OW37900   4.253   0.645  17.508 -0.1575 -0.4278 -0.0608
 8814SOL    HW137901   4.342   0.646  17.474  0.6238  0.5399  2.0378
 8814SOL    HW237902   4.257   0.561  17.554  0.0068 -0.8533 -0.8561
 8815SOL     OW37903   1.659   4.339   6.472  0.4304  0.4238  0.1440
 8815SOL    HW137904   1.574   4.377   6.449 -1.5445 -2.5512  2.5091
 8815SOL    HW237905   1.705   4.416   6.505  0.9637  0.9016 -1.7457
 8816SOL     OW37906   1.257   2.970   5.506 -0.3598 -0.5494 -0.0880
 8816SOL    HW137907   1.229   2.891   5.552  1.3621 -0.3771  1.2880
 8816SOL    HW237908   1.350   2.945   5.500 -0.1644 -0.0827  0.9676
 8817SOL     OW37909   1.121   1.509   6.340  0.1219 -0.7748 -0.0655
 8817SOL    HW137910   1.030   1.507   6.370 -0.1491  0.4687 -0.8076
 8817SOL    HW237911   1.118   1.461   6.257 -0.7588  0.1030 -0.5363
 8818SOL     OW37912   0.520   3.587  12.317  0.2097 -0.1440  0.2386
 8818SOL    HW137913   0.538   3.663  12.262  0.3078 -1.2298 -1.2190
 8818SOL    HW237914   0.432   3.606  12.349 -0.5342 -2.3707 -0.5141
 8819SOL     OW37915   4.497   1.577   3.196  0.3344  0.3849 -0.3767
 8819SOL    HW137916   4.453   1.588   3.112  0.2603 -0.0364 -0.3918
 8819SOL    HW237917   4.577   1.630   3.189 -0.3168  1.5446  0.9353
 8820SOL     OW37918   2.110   1.240   8.441  0.1905 -0.1419  0.5951
 8820SOL    HW137919   2.105   1.265   8.349 -0.5713 -1.8348  0.1819
 8820SOL    HW237920   2.142   1.323   8.476 -1.4921 -0.4922  2.9943
 8821SOL     OW37921   1.855   0.491   4.447  0.6520  0.5782 -0.2497
 8821SOL    HW137922   1.796   0.566   4.446  2.4048  1.9274 -1.8091
 8821SOL    HW237923   1.811   0.436   4.382 -0.2187  0.2599  0.6158
 8822SOL     OW37924   1.402   0.941   1.032  0.4702 -0.6865  0.3082
 8822SOL    HW137925   1.408   0.940   1.127  0.4649  1.0559  0.3196
 8822SOL    HW237926   1.493   0.952   1.006  1.2158 -1.5898  2.5750
 8823SOL     OW37927   1.017   3.110   4.143  0.2825 -0.7494  0.0211
 8823SOL    HW137928   0.967   3.174   4.092  0.9631 -0.8614 -0.7766
 8823SOL    HW237929   0.946   3.064   4.188 -1.5125  0.5186 -1.5057
 8824SOL     OW37930   0.063   2.733   5.373  0.0150  0.1298  0.4046
 8824SOL    HW137931   0.157   2.737   5.387  0.1066  0.0041 -0.1754
 8824SOL    HW237932   0.051   2.642   5.401 -1.6361  0.2399  0.0410
 8825SOL     OW37933   3.731   4.078  14.844  0.0737 -0.5085 -0.3388
 8825SOL    HW137934   3.782   4.070  14.925 -0.7802 -1.2959  0.1277
 8825SOL    HW237935   3.761   4.162  14.809  1.1688 -0.9831 -0.5412
 8826SOL     OW37936   4.643   0.695   3.812 -0.9016 -0.0237 -0.5208
 8826SOL    HW137937   0.007   0.683   3.769 -0.7984  0.1442 -0.3636
 8826SOL    HW237938   4.675   0.710   3.901  0.2202  0.4853 -1.0093
 8827SOL     OW37939   0.833   0.344   1.906 -0.1974  0.0719 -0.2884
 8827SOL    HW137940   0.870   0.410   1.847  0.9338 -2.3124 -2.2495
 8827SOL    HW237941   0.899   0.274   1.908 -0.1606  0.1009 -0.5740
 8828SOL     OW37942   2.846   0.309   3.625 -0.3765  0.2410 -0.0943
 8828SOL    HW137943   2.891   0.328   3.708 -0.9288  0.2488  0.2054
 8828SOL    HW237944   2.780   0.245   3.649  0.7931 -1.0404 -0.3144
 8829SOL     OW37945   4.556   2.678   6.325  0.1638  0.0573 -0.3630
 8829SOL    HW137946   4.605   2.760   6.314  0.6602 -0.2848 -0.6768
 8829SOL    HW237947   4.578   2.651   6.414 -1.3749  2.4216  0.7465
 8830SOL     OW37948   0.464   0.221   0.018  0.1833 -0.3380 -0.4606
 8830SOL    HW137949   0.526   0.153  17.680  2.0339  0.5638  1.9002
 8830SOL    HW237950   0.465   0.204   0.113  0.6034  0.8206 -0.2492
 8831SOL     OW37951   2.181   2.596   6.515 -0.2033  0.0092  0.0847
 8831SOL    HW137952   2.141   2.542   6.583 -1.7520 -0.2576 -1.0289
 8831SOL    HW237953   2.238   2.661   6.557  1.5567  0.2944 -2.7038
 8832SOL     OW37954   3.386   1.756   7.789 -0.0394  0.2222 -0.0498
 8832SOL    HW137955   3.297   1.789   7.784 -0.0870  0.5282  2.5541
 8832SOL    HW237956   3.437   1.793   7.717  2.4168 -1.8291  0.6321
 8833SOL     OW37957   3.506   3.460   0.832 -0.3644  0.4431  0.3143
 8833SOL    HW137958   3.589   3.481   0.876 -0.1884  0.1005  0.1479
 8833SOL    HW237959   3.511   3.534   0.771  1.8238  2.2580  2.6561
 8834SOL     OW37960   1.196   2.427   7.745 -0.1373 -0.0891 -0.1232
 8834SOL    HW137961   1.197   2.356   7.681 -1.1643  0.2442 -0.5220
 8834SOL    HW237962   1.260   2.487   7.707  0.3438  1.2213  2.7991
 8835SOL     OW37963   1.110   1.732  13.719  0.0358 -0.0283  0.1964
 8835SOL    HW137964   1.145   1.820  13.735  1.1422 -0.4891  0.2861
 8835SOL    HW237965   1.053   1.764  13.649 -2.0286 -0.4637  1.6786
 8836SOL     OW37966   4.193   1.966   2.340 -0.3388  0.2989 -0.0361
 8836SOL    HW137967   4.143   2.004   2.268 -0.8519 -2.6848 -1.2489
 8836SOL    HW237968   4.135   1.998   2.409  0.0943 -0.3519  0.6352
 8837SOL     OW37969   3.391   2.495   4.340 -0.0283 -0.3002  0.3920
 8837SOL    HW137970   3.447   2.418   4.328 -0.5907 -0.5295 -0.7745
 8837SOL    HW237971   3.300   2.467   4.329 -0.3556  0.2200  1.7775
 8838SOL     OW37972   3.146   3.644  12.717  0.0489  0.1201 -0.9702
 8838SOL    HW137973   3.153   3.718  12.777  0.8966  0.4661 -1.5026
 8838SOL    HW237974   3.218   3.655  12.655  0.4459  1.8508 -0.1832
 8839SOL     OW37975   0.417   0.090   7.322 -0.2754 -0.2234  0.2443
 8839SOL    HW137976   0.352   0.114   7.256  0.2330 -0.0231 -0.1904
 8839SOL    HW237977   0.364   0.029   7.374 -1.9601  1.4236  0.4453
 8840SOL     OW37978   1.586   2.940   9.390 -0.3321 -0.3882  0.2120
 8840SOL    HW137979   1.659   2.892   9.350  0.2513 -0.5113  1.4385
 8840SOL    HW237980   1.632   2.960   9.472  1.8739 -1.3096 -0.7803
 8841SOL     OW37981   4.582   0.172   7.484  0.2420 -0.1749  0.1342
 8841SOL    HW137982   4.615   0.169   7.394 -1.2815  1.5988 -0.4864
 8841SOL    HW237983   4.597   0.081   7.507  1.0046  0.2375  1.2699
 8842SOL     OW37984   3.960   4.180   8.944  0.5816  0.0724  0.3162
 8842SOL    HW137985   3.969   4.273   8.923  1.7305 -0.8188 -3.1442
 8842SOL    HW237986   3.982   4.174   9.037 -1.9075  4.3008  1.1844
 8843SOL     OW37987   2.673   4.064   5.892 -0.2776  0.4765 -0.7452
 8843SOL    HW137988   2.681   4.025   5.804  0.7769 -0.5918 -0.1658
 8843SOL    HW237989   2.606   4.132   5.883 -0.1612  0.5161 -1.3346
 8844SOL     OW37990   3.197   0.536   7.438  0.3424  0.3844 -1.0086
 8844SOL    HW137991   3.131   0.500   7.379 -0.0229 -1.8268  0.7293
 8844SOL    HW237992   3.160   0.624   7.451  1.4700  0.4229  1.9675
 8845SOL     OW37993   1.084   1.135   7.137  0.9261 -0.1272  0.3247
 8845SOL    HW137994   1.026   1.103   7.206  0.0831 -0.5628 -0.5639
 8845SOL    HW237995   1.025   1.204   7.106 -0.2025 -1.0483  0.4237
 8846SOL     OW37996   0.979   3.106  14.415  0.2501  0.2587 -0.2385
 8846SOL    HW137997   0.975   3.029  14.358 -0.1740 -0.6987  1.1002
 8846SOL    HW237998   0.919   3.078  14.483  0.7420 -1.5081 -0.5183
 8847SOL     OW37999   0.766   1.186  10.631  0.4938 -0.5073  1.0732
 8847SOL    HW138000   0.861   1.186  10.624  0.2769 -1.5009 -1.7497
 8847SOL    HW238001   0.747   1.131  10.707 -2.0489  0.3902  1.0992
 8848SOL     OW38002   1.820   3.240  16.071  0.1461 -0.5103  0.1891
 8848SOL    HW138003   1.888   3.234  16.004 -1.5517  1.3478 -1.7185
 8848SOL    HW238004   1.779   3.323  16.047 -0.8527 -0.9678  0.2888
 8849SOL     OW38005   3.790   3.632   3.631  0.4350 -0.0975 -0.5927
 8849SOL    HW138006   3.781   3.568   3.702 -0.4070  1.1622  0.4332
 8849SOL    HW238007   3.764   3.586   3.552  0.3855 -0.5635 -0.3028
 8850SOL     OW38008   2.191   2.489   2.115 -0.3796 -0.3033 -0.7222
 8850SOL    HW138009   2.141   2.508   2.036 -0.5519  0.1530 -0.5048
 8850SOL    HW238010   2.254   2.561   2.109 -0.6854  0.0556  0.3291
 8851SOL     OW38011   2.056   2.283   3.113 -0.1231  0.2486 -0.0382
 8851SOL    HW138012   2.023   2.194   3.127 -0.1386  0.1247 -0.8760
 8851SOL    HW238013   2.116   2.290   3.187 -1.3429 -0.9172  1.0770
 8852SOL     OW38014   0.015   2.788  15.345  0.1457 -0.4165  0.4843
 8852SOL    HW138015   0.052   2.867  15.385  2.0646 -0.8310 -0.4627
 8852SOL    HW238016   0.051   2.801  15.257 -2.4108  0.3761 -0.4315
 8853SOL     OW38017   1.702   3.905   4.251 -0.4042  0.1918  0.2865
 8853SOL    HW138018   1.676   3.988   4.290  1.7843  0.4670  1.2021
 8853SOL    HW238019   1.772   3.880   4.312 -0.9630  1.7699  1.5716
 8854SOL     OW38020   2.892   0.885  12.271 -0.1794 -0.5302  0.7234
 8854SOL    HW138021   2.906   0.897  12.365  2.0968  2.2297  0.0180
 8854SOL    HW238022   2.804   0.849  12.271  0.2326 -1.5600  1.6616
 8855SOL     OW38023   3.393   2.236   2.014  0.3664  0.3864 -0.3024
 8855SOL    HW138024   3.450   2.184   2.071 -0.0814 -2.3687 -2.3539
 8855SOL    HW238025   3.426   2.324   2.029 -0.1184  0.7669 -1.4404
 8856SOL     OW38026   2.304   3.036   5.368 -0.2410 -0.0665 -0.2033
 8856SOL    HW138027   2.335   3.091   5.296 -0.7137 -0.2677 -0.5577
 8856SOL    HW238028   2.209   3.036   5.361 -0.3227 -2.2369  0.9510
 8857SOL     OW38029   0.451   2.410   3.422 -0.0158  0.0797  0.1790
 8857SOL    HW138030   0.518   2.354   3.462 -1.2666 -0.4937  1.5095
 8857SOL    HW238031   0.489   2.494   3.448 -0.6127  0.5572 -0.4905
 8858SOL     OW38032   3.597   4.487  10.022  0.0883  0.0423 -0.0756
 8858SOL    HW138033   3.541   4.443  10.085 -0.6347  3.8828  1.9872
 8858SOL    HW238034   3.651   4.533  10.086 -0.6607  0.4884  0.2307
 8859SOL     OW38035   2.519   3.257   9.376  0.1996  0.1474  0.2790
 8859SOL    HW138036   2.587   3.311   9.336  1.2766 -0.8531  0.7491
 8859SOL    HW238037   2.472   3.323   9.427 -1.1510 -0.7050  0.1233
 8860SOL     OW38038   0.273   3.370   8.473 -0.3606  0.6227 -0.1634
 8860SOL    HW138039   0.298   3.460   8.457 -0.9501  0.6024 -1.2165
 8860SOL    HW238040   0.270   3.319   8.392 -0.2674  0.3477  0.0063
 8861SOL     OW38041   4.658   0.956  15.613 -0.6725 -0.2133  0.3268
 8861SOL    HW138042   4.594   1.027  15.602  0.8257  1.5730  3.1395
 8861SOL    HW238043   4.637   0.898  15.541  2.2624  0.3529 -0.9627
 8862SOL     OW38044   4.431   0.293   3.461 -0.0104 -0.3862  0.0523
 8862SOL    HW138045   4.452   0.387   3.459 -0.1657 -0.3336  1.3337
 8862SOL    HW238046   4.498   0.264   3.399  2.2862  1.1381  1.7907
 8863SOL     OW38047   3.087   2.100   6.544 -0.3041  0.1664 -0.2112
 8863SOL    HW138048   3.011   2.125   6.596 -0.4121  1.5608 -1.0167
 8863SOL    HW238049   3.153   2.164   6.570 -2.2035  2.2196 -0.3521
 8864SOL     OW38050   4.188   4.538   8.557 -0.4550 -0.1662 -0.6374
 8864SOL    HW138051   4.274   4.520   8.519  0.0382  1.8559 -0.4559
 8864SOL    HW238052   4.167   4.623   8.519  0.3969 -0.0770 -0.9179
 8865SOL     OW38053   3.837   0.348  11.401  0.6347  0.5594 -0.1169
 8865SOL    HW138054   3.797   0.333  11.487  0.5420 -0.0279 -0.2603
 8865SOL    HW238055   3.761   0.347  11.344  0.6016  0.0014 -0.0647
 8866SOL     OW38056   4.066   2.780   1.026  0.1647 -0.1013 -0.2374
 8866SOL    HW138057   3.975   2.804   1.044  0.4411  0.7718  0.0189
 8866SOL    HW238058   4.058   2.685   1.015 -0.3141 -0.0347 -0.4628
 8867SOL     OW38059   4.264   3.774   2.802 -0.1528 -0.2687  0.0982
 8867SOL    HW138060   4.296   3.838   2.738 -2.1265 -0.1341 -0.7334
 8867SOL    HW238061   4.308   3.695   2.769 -1.5767 -0.0418 -2.3832
 8868SOL     OW38062   3.267   0.184   3.157 -0.2169  0.4036  0.4256
 8868SOL    HW138063   3.278   0.271   3.195  0.0446  0.6254 -0.1525
 8868SOL    HW238064   3.352   0.142   3.166 -0.2011 -0.5205 -3.7244
 8869SOL     OW38065   3.082   4.509   1.640  0.4169  0.3896  0.4092
 8869SOL    HW138066   3.040   4.548   1.563 -1.7995 -1.2115  0.8109
 8869SOL    HW238067   3.022   4.437   1.657  0.3958 -0.2997 -2.5285
 8870SOL     OW38068   0.124   3.864   3.916 -0.2324  0.1460 -0.2107
 8870SOL    HW138069   0.184   3.792   3.897  0.9579  1.5596 -1.7070
 8870SOL    HW238070   0.058   3.853   3.848 -2.3582  2.0462  1.5380
 8871SOL     OW38071   2.287   1.209   3.338 -0.3887 -0.0778  0.1409
 8871SOL    HW138072   2.284   1.133   3.396  0.1446 -0.0402  0.2158
 8871SOL    HW238073   2.367   1.241   3.378 -0.5796  0.3058  0.2175
 8872SOL     OW38074   3.507   1.600   1.478 -0.3860  0.0540  0.0961
 8872SOL    HW138075   3.442   1.614   1.408  0.6189  2.5370 -0.3442
 8872SOL    HW238076   3.583   1.653   1.451  0.3099 -0.8031  0.4035
 8873SOL     OW38077   3.994   0.796   1.819 -0.2372 -0.1024  0.3187
 8873SOL    HW138078   4.034   0.835   1.742  0.6709 -0.6759  0.4967
 8873SOL    HW238079   4.040   0.843   1.888 -0.2187 -2.5006  1.9451
 8874SOL     OW38080   1.007   2.140   1.198 -0.3218  0.2749  0.4231
 8874SOL    HW138081   0.922   2.143   1.241 -0.4179 -1.7821  0.3952
 8874SOL    HW238082   1.001   2.210   1.133 -1.8862  1.3133  1.7001
 8875SOL     OW38083   2.056   2.144   6.325 -0.5154 -0.6374 -1.3244
 8875SOL    HW138084   2.043   2.171   6.415 -0.5066  0.2956 -1.5977
 8875SOL    HW238085   2.109   2.065   6.335 -0.1214 -0.1187  0.6392
 8876SOL     OW38086   3.470   1.648   7.273 -0.0072 -0.0092 -0.1715
 8876SOL    HW138087   3.431   1.577   7.222 -2.1503  0.9352  0.1242
 8876SOL    HW238088   3.420   1.719   7.232 -0.1424 -0.1636 -0.2768
 8877SOL     OW38089   3.731   3.643   6.948 -0.0598  0.0888 -0.2228
 8877SOL    HW138090   3.757   3.706   6.881 -0.9062  0.6918  0.0215
 8877SOL    HW238091   3.684   3.576   6.899 -0.2235  1.3199 -1.7328
 8878SOL     OW38092   3.820   3.983   2.988  0.0255  0.1292 -0.1634
 8878SOL    HW138093   3.734   4.017   2.963 -0.6010 -0.5115  1.1092
 8878SOL    HW238094   3.816   3.895   2.950 -2.7109 -1.2314  3.2496
 8879SOL     OW38095   3.587   1.404   3.049 -0.6538 -0.5793  0.4588
 8879SOL    HW138096   3.548   1.319   3.068  1.3750 -1.3985  0.9372
 8879SOL    HW238097   3.533   1.452   2.986 -0.7988  1.3445  2.0336
 8880SOL     OW38098   3.647   2.465  15.726 -0.2749 -0.7164  0.0923
 8880SOL    HW138099   3.590   2.493  15.799  1.2537 -1.5417  1.6025
 8880SOL    HW238100   3.573   2.435  15.674 -1.0651  1.6233 -0.1554
 8881SOL     OW38101   1.883   2.323   3.679  0.0422 -0.3526 -0.4887
 8881SOL    HW138102   1.849   2.272   3.753  0.2067  0.3057  0.0498
 8881SOL    HW238103   1.811   2.383   3.663  0.2371 -0.0992 -0.4257
 8882SOL     OW38104   3.590   0.997   2.732  0.3662 -0.3857  0.0300
 8882SOL    HW138105   3.646   1.072   2.710 -0.2202  0.2937  0.8630
 8882SOL    HW238106   3.656   0.931   2.712  2.0970  1.3167  0.0988
 8883SOL     OW38107   2.269   4.577   2.694 -0.2665 -0.0042  0.0670
 8883SOL    HW138108   2.297   4.535   2.775 -0.0338 -0.0751 -0.0500
 8883SOL    HW238109   2.351   4.618   2.666  0.4292 -0.4315  1.4681
 8884SOL     OW38110   2.821   0.745   5.281  0.0325 -0.4450 -0.1118
 8884SOL    HW138111   2.746   0.798   5.255  0.8441  0.1787 -1.1979
 8884SOL    HW238112   2.800   0.741   5.374 -1.1963  0.1550 -0.3615
 8885SOL     OW38113   1.706   3.034   1.698 -0.5814  0.5729  0.0446
 8885SOL    HW138114   1.792   2.999   1.720 -1.5252 -2.1932 -0.6526
 8885SOL    HW238115   1.721   3.128   1.688  1.2872  0.3032  0.2495
 8886SOL     OW38116   1.269   4.509  17.503  0.0329 -0.5695  0.3554
 8886SOL    HW138117   1.337   4.534  17.565  0.8718  0.6171 -1.0737
 8886SOL    HW238118   1.253   4.418  17.530  1.2119 -0.7959  0.2522
 8887SOL     OW38119   2.986   0.602   2.461 -0.4919 -0.1239 -0.4086
 8887SOL    HW138120   2.970   0.696   2.464  1.3370  0.1100  2.3172
 8887SOL    HW238121   3.047   0.600   2.535 -0.3525 -3.6543 -0.6155
 8888SOL     OW38122   3.507   3.462   2.247 -0.0728 -0.2597  0.5152
 8888SOL    HW138123   3.412   3.474   2.236 -0.6273 -2.1286  3.3456
 8888SOL    HW238124   3.525   3.429   2.159 -2.0660  0.2533 -0.1022
 8889SOL     OW38125   3.706   2.412   7.260 -0.4911 -0.0704  0.2068
 8889SOL    HW138126   3.674   2.446   7.177  1.7982  0.4692 -0.4766
 8889SOL    HW238127   3.744   2.489   7.302 -0.2091  0.0970 -0.3532
 8890SOL     OW38128   3.803   4.264   6.610 -0.0534  0.3366 -0.4207
 8890SOL    HW138129   3.820   4.293   6.520 -3.5196  3.7338  0.0318
 8890SOL    HW238130   3.846   4.179   6.600 -0.1490  0.4008 -1.4042
 8891SOL     OW38131   3.611   2.614   6.060  0.3199 -0.1683 -0.3688
 8891SOL    HW138132   3.581   2.699   6.090  1.5248  1.4440 -3.6383
 8891SOL    HW238133   3.526   2.581   6.033 -1.1530 -0.1621  4.4134
 8892SOL     OW38134   3.891   0.102   9.034 -0.0802 -0.3759 -0.0392
 8892SOL    HW138135   3.824   0.092   9.102  0.8645 -0.6739  0.8597
 8892SOL    HW238136   3.867   0.049   8.958  1.0114 -1.3708  0.3072
 8893SOL     OW38137   3.500   2.008   7.036  0.1355  0.0052  0.3078
 8893SOL    HW138138   3.578   1.953   7.027 -0.5519 -0.3412 -3.2319
 8893SOL    HW238139   3.434   1.943   7.012 -0.5193  0.8880 -0.2842
 8894SOL     OW38140   2.517   3.718  15.374 -0.4053 -0.1142  0.7288
 8894SOL    HW138141   2.563   3.801  15.363  2.2270 -1.7649 -0.8992
 8894SOL    HW238142   2.593   3.662  15.391  0.5269  0.7933 -0.4442
 8895SOL     OW38143   4.333   4.410   5.878 -0.0782  0.7667 -0.1062
 8895SOL    HW138144   4.417   4.438   5.842 -0.8316 -0.0078 -2.4674
 8895SOL    HW238145   4.334   4.318   5.853  2.6207  1.2303 -1.7352
 8896SOL     OW38146   3.930   1.002  17.252  0.0096 -0.1084 -0.1264
 8896SOL    HW138147   3.978   0.922  17.276  1.6301  0.7712 -0.4054
 8896SOL    HW238148   3.920   1.038  17.340 -1.4839  0.3139 -0.4703
 8897SOL     OW38149   4.360   2.879   7.851 -0.3145  0.3784 -0.1614
 8897SOL    HW138150   4.282   2.913   7.895  0.3559  2.3274 -0.4579
 8897SOL    HW238151   4.331   2.839   7.770  0.4369 -0.5285  0.0168
 8898SOL     OW38152   3.813   0.249   7.618 -0.2713 -0.3100  0.4632
 8898SOL    HW138153   3.830   0.287   7.532 -1.0540 -0.9151  0.0408
 8898SOL    HW238154   3.726   0.287   7.630 -0.7029 -1.1492 -0.0106
 8899SOL     OW38155   2.075   4.110   5.841  0.4475 -0.0921  0.2973
 8899SOL    HW138156   2.123   4.089   5.921  0.4165  1.2848  0.6758
 8899SOL    HW238157   2.000   4.052   5.855  1.1104 -1.3342 -1.2803
 8900SOL     OW38158   2.031   2.780   3.704  0.3114  0.0974 -0.2017
 8900SOL    HW138159   1.947   2.741   3.680  0.7824 -0.1498 -1.4440
 8900SOL    HW238160   2.043   2.753   3.795 -0.2838 -0.4251 -0.2708
 8901SOL     OW38161   4.337   3.613   3.457  0.2419  0.0088  0.4820
 8901SOL    HW138162   4.345   3.702   3.423 -2.3090 -0.2040 -0.6554
 8901SOL    HW238163   4.259   3.578   3.414  0.1933 -0.4822  0.9760
 8902SOL     OW38164   3.238   3.311   5.001 -0.4624 -0.3975  0.5463
 8902SOL    HW138165   3.167   3.262   5.042 -0.1155  0.1823  1.8573
 8902SOL    HW238166   3.315   3.284   5.051 -0.0641  4.0056  2.3015
 8903SOL     OW38167   3.311   0.780   2.181 -0.2466 -0.4484  0.5223
 8903SOL    HW138168   3.359   0.815   2.256  1.5345  1.0681 -1.3392
 8903SOL    HW238169   3.383   0.730   2.143 -0.7581 -0.2391 -0.7381
 8904SOL     OW38170   4.180   1.417   2.655  0.9082 -0.0272 -0.1433
 8904SOL    HW138171   4.141   1.421   2.568  0.9043 -0.5638 -0.1668
 8904SOL    HW238172   4.247   1.350   2.643  0.4362 -0.6662  0.7651
 8905SOL     OW38173   2.411   4.239   1.894 -0.4037 -0.6091 -0.4691
 8905SOL    HW138174   2.396   4.334   1.890 -1.2102 -0.8641 -3.9215
 8905SOL    HW238175   2.327   4.204   1.924 -0.4717  1.5424  1.8532
 8906SOL     OW38176   1.012   2.120   3.718  0.8934 -0.2296 -0.1831
 8906SOL    HW138177   1.080   2.130   3.785  0.5941 -0.4249  0.1513
 8906SOL    HW238178   1.057   2.158   3.642  1.4783 -0.8825 -0.1662
 8907SOL     OW38179   1.647   0.246   0.235 -0.4654 -0.0714  0.1821
 8907SOL    HW138180   1.564   0.293   0.239 -0.1101  0.4474  1.4570
 8907SOL    HW238181   1.683   0.257   0.324 -4.0228 -0.5358  1.6527
 8908SOL     OW38182   2.942   4.441   0.875 -0.1692  0.2486  0.1170
 8908SOL    HW138183   2.899   4.498   0.811  0.6161  1.4204  0.6526
 8908SOL    HW238184   2.990   4.505   0.927 -1.1137 -0.7063  2.1864
 8909SOL     OW38185   2.220   4.145   2.792  0.2883 -0.7456 -0.5139
 8909SOL    HW138186   2.178   4.130   2.877  3.6641 -1.3534  1.0360
 8909SOL    HW238187   2.150   4.124   2.730 -1.0697 -2.0161  1.4160
 8910SOL     OW38188   0.002   1.839   2.731  0.1821 -0.6862  0.0294
 8910SOL    HW138189   0.096   1.820   2.733  0.4651  0.6506 -0.2966
 8910SOL    HW238190   4.693   1.770   2.671 -0.3421 -0.2939 -0.1623
 8911SOL     OW38191   3.845   1.247   2.777 -0.3510  0.1576 -0.0984
 8911SOL    HW138192   3.763   1.291   2.752 -0.5929  0.4260  1.1828
 8911SOL    HW238193   3.848   1.177   2.712 -2.0608  0.0811 -0.1029
 8912SOL     OW38194   2.191   4.426   1.453 -0.3864 -0.2766 -0.1096
 8912SOL    HW138195   2.202   4.332   1.466 -3.9455 -0.4627  1.4459
 8912SOL    HW238196   2.270   4.447   1.503 -1.3465 -0.7183  1.5928
 8913SOL     OW38197   2.781   0.399   8.233  0.3554  0.0787  0.1669
 8913SOL    HW138198   2.735   0.435   8.157 -0.6211  1.5011  1.4327
 8913SOL    HW238199   2.753   0.308   8.234 -0.0254  0.1974  0.2353
 8914SOL     OW38200   1.412   1.844   3.930  0.2537 -0.4155  0.1047
 8914SOL    HW138201   1.351   1.852   3.857  0.7151  1.2270 -0.0962
 8914SOL    HW238202   1.390   1.759   3.969  1.3914 -0.0882  1.4425
 8915SOL     OW38203   0.212   0.237  15.288  0.1311 -0.3487 -0.2090
 8915SOL    HW138204   0.270   0.250  15.212  1.5240  0.4186  0.9721
 8915SOL    HW238205   0.179   0.326  15.292 -1.1011 -0.7265 -2.2331
 8916SOL     OW38206   0.574   0.202  13.388 -0.3313 -0.3964  0.4933
 8916SOL    HW138207   0.600   0.230  13.301  0.3985  1.7413  1.3837
 8916SOL    HW238208   0.571   0.108  13.374 -0.6649 -0.5319  1.4178
 8917SOL     OW38209   3.099   0.819  13.393 -0.2889 -0.2445  0.3107
 8917SOL    HW138210   3.133   0.877  13.462 -0.2584  0.0482  0.0480
 8917SOL    HW238211   3.010   0.852  13.405  0.2884  2.1402 -1.9576
 8918SOL     OW38212   0.935   0.746   4.882  0.1632 -0.4851 -0.3851
 8918SOL    HW138213   0.864   0.766   4.821 -0.7343  3.0510  1.8218
 8918SOL    HW238214   0.991   0.819   4.857  1.8387 -2.3469 -2.0613
 8919SOL     OW38215   4.681   3.823  16.098  0.4543 -0.4064  0.2406
 8919SOL    HW138216   4.638   3.800  16.016 -2.9528  1.0521  1.6326
 8919SOL    HW238217   0.017   3.895  16.069  0.0345 -0.2530 -0.1898
 8920SOL     OW38218   2.148   1.136   5.210 -0.4944  0.1376  0.4063
 8920SOL    HW138219   2.092   1.061   5.189  0.0123 -0.9151  2.8064
 8920SOL    HW238220   2.228   1.112   5.164 -0.4216  1.4618 -0.1672
 8921SOL     OW38221   3.082   0.576  17.225 -1.1864  0.5279 -0.1733
 8921SOL    HW138222   3.020   0.528  17.170 -0.0218  0.7110 -1.6541
 8921SOL    HW238223   3.046   0.662  17.205 -2.1474 -0.3568 -2.1913
 8922SOL     OW38224   1.910   1.258   5.764  0.3414  0.5305  0.3300
 8922SOL    HW138225   1.984   1.269   5.705  0.5177  0.1459  0.4776
 8922SOL    HW238226   1.870   1.345   5.765  0.6143  0.6603 -1.7200
 8923SOL     OW38227   0.665   2.088   3.434 -0.2465 -0.0885  0.0865
 8923SOL    HW138228   0.756   2.103   3.408 -0.3839 -0.5698 -0.6671
 8923SOL    HW238229   0.664   2.015   3.495 -2.9510  0.5296  0.7786
 8924SOL     OW38230   4.123   4.060   6.844 -0.5841  0.2509  1.1677
 8924SOL    HW138231   4.143   4.033   6.934 -1.4529 -0.6773  1.0801
 8924SOL    HW238232   4.208   4.074   6.802 -1.0375 -2.4215 -0.6315
 8925SOL     OW38233   2.424   2.414   7.832 -0.2276 -0.2131 -0.2277
 8925SOL    HW138234   2.460   2.327   7.852  2.0235  0.3984 -1.6961
 8925SOL    HW238235   2.491   2.478   7.855  2.6535 -3.3357  0.2050
 8926SOL     OW38236   0.128   3.303   6.305  0.3768  0.6240  0.4233
 8926SOL    HW138237   0.083   3.261   6.379  1.1076 -1.5765 -0.3871
 8926SOL    HW238238   0.157   3.233   6.247 -1.8617  1.0132 -1.1740
 8927SOL     OW38239   3.443   2.867   6.586  0.2097  0.3685 -0.5544
 8927SOL    HW138240   3.463   2.950   6.630  1.2871 -0.0941 -0.1752
 8927SOL    HW238241   3.455   2.804   6.657  0.7242 -0.3879 -1.3226
 8928SOL     OW38242   1.904   1.156   4.356  0.2952 -1.0565 -0.1025
 8928SOL    HW138243   1.988   1.138   4.314  0.0382 -1.5406 -0.4082
 8928SOL    HW238244   1.854   1.083   4.319  0.6256 -0.5740 -1.5114
 8929SOL     OW38245   0.077   4.370  13.491 -0.0302 -0.1006 -0.0708
 8929SOL    HW138246   0.025   4.444  13.459  1.6660  1.6450  1.2056
 8929SOL    HW238247   0.041   4.304  13.431  1.3023 -0.2649 -0.6882
 8930SOL     OW38248   4.222   1.764   7.288 -0.7900  0.7453 -0.0629
 8930SOL    HW138249   4.152   1.734   7.346 -0.1537  1.3858  1.0386
 8930SOL    HW238250   4.281   1.689   7.286 -0.1386  1.2383  0.5570
 8931SOL     OW38251   1.530   4.255  16.682  0.0682 -0.1225 -0.3359
 8931SOL    HW138252   1.593   4.276  16.613 -0.7402 -0.8484 -1.2909
 8931SOL    HW238253   1.574   4.181  16.725 -0.4844  1.5248  3.0778
 8932SOL     OW38254   2.905   0.945   1.479  0.0667 -0.2396 -0.0086
 8932SOL    HW138255   2.830   0.960   1.536 -1.2849  0.4662 -1.9859
 8932SOL    HW238256   2.950   1.028   1.496 -0.2102 -0.0403 -0.2572
 8933SOL     OW38257   1.457   1.403   6.980  0.3988 -0.4451  0.3608
 8933SOL    HW138258   1.403   1.345   7.036 -1.5547  1.7088  0.7053
 8933SOL    HW238259   1.522   1.439   7.040  0.2320 -0.8699  0.8045
 8934SOL     OW38260   2.488   4.576   7.127  0.6796  0.8693 -0.3424
 8934SOL    HW138261   2.457   4.546   7.213 -4.1459 -0.9271 -2.7232
 8934SOL    HW238262   2.583   4.578   7.141  0.7669  0.8111 -0.9677
 8935SOL     OW38263   0.344   2.445  13.645  0.6877  0.2644 -0.3210
 8935SOL    HW138264   0.298   2.499  13.708 -2.3878 -1.8411 -0.7920
 8935SOL    HW238265   0.275   2.421  13.584  2.0917 -3.4119 -0.4777
 8936SOL     OW38266   2.678   1.438  12.165 -0.7016 -0.3989  0.1878
 8936SOL    HW138267   2.689   1.483  12.249 -0.1995 -0.2999  0.0634
 8936SOL    HW238268   2.718   1.489  12.095  2.4057 -0.9742  1.5407
 8937SOL     OW38269   2.036   3.346   8.763 -0.6374 -0.6029  0.8235
 8937SOL    HW138270   2.052   3.256   8.790 -1.0354 -0.4976  1.4313
 8937SOL    HW238271   2.120   3.388   8.784  0.5310 -1.6615 -1.7714
 8938SOL     OW38272   0.293   1.567   3.411 -0.3889  0.1102  0.1368
 8938SOL    HW138273   0.319   1.483   3.450 -0.1348 -0.2939 -0.9090
 8938SOL    HW238274   0.271   1.617   3.490  2.5904  1.1276  0.3297
 8939SOL     OW38275   0.263   2.839   8.052  0.3107  0.1706  0.1495
 8939SOL    HW138276   0.346   2.798   8.076  0.7353  0.1269 -1.3392
 8939SOL    HW238277   0.224   2.775   7.993  0.5553 -1.5022  1.8281
 8940SOL     OW38278   0.884   3.136   0.595  0.2062  0.1529 -0.0915
 8940SOL    HW138279   0.803   3.104   0.633  0.6835  0.3655  1.0919
 8940SOL    HW238280   0.902   3.220   0.637  0.7931 -0.7089  1.3650
 8941SOL     OW38281   2.835   0.008  10.521 -0.0207 -0.3225  0.5583
 8941SOL    HW138282   2.891   4.703  10.594  1.6235  2.5001  0.2956
 8941SOL    HW238283   2.846   0.103  10.510  2.8847 -0.9053 -1.3993
 8942SOL     OW38284   2.732   2.733   8.881  0.2378  0.1976  0.1143
 8942SOL    HW138285   2.648   2.694   8.905  0.0142  1.3232  1.1988
 8942SOL    HW238286   2.720   2.828   8.879 -0.6793  0.0566 -1.1757
 8943SOL     OW38287   0.667   3.423  15.706 -0.5153  0.1138  0.0675
 8943SOL    HW138288   0.716   3.341  15.712 -2.6415 -0.9804  2.3998
 8943SOL    HW238289   0.622   3.411  15.789 -0.6231  3.8637  0.5799
 8944SOL     OW38290   4.688   3.154  12.368  0.1100 -0.5055 -0.1950
 8944SOL    HW138291   4.666   3.231  12.420  2.9980 -1.3705  2.3505
 8944SOL    HW238292   0.063   3.144  12.369  0.1186 -0.6099 -1.9719
 8945SOL     OW38293   3.691   2.137   2.038 -0.0835  0.1900 -0.0290
 8945SOL    HW138294   3.727   2.060   2.083 -0.8181 -0.0885  0.0833
 8945SOL    HW238295   3.730   2.203   2.096  2.4504 -2.3132  1.1457
 8946SOL     OW38296   1.494   3.898   8.712 -0.7954  0.1553  0.1958
 8946SOL    HW138297   1.441   3.882   8.790 -1.4861  2.3228  0.1966
 8946SOL    HW238298   1.441   3.863   8.641 -0.9712  0.9894 -0.0834
 8947SOL     OW38299   0.255   0.308   6.397  0.0059  0.0053 -0.5777
 8947SOL    HW138300   0.230   0.263   6.317 -0.1479  0.5233 -0.8224
 8947SOL    HW238301   0.182   0.308   6.458  0.3334 -1.2687 -0.1909
 8948SOL     OW38302   1.618   4.059   9.230 -0.5015 -0.6928  0.0460
 8948SOL    HW138303   1.712   4.045   9.241  0.2429  3.7455 -0.4947
 8948SOL    HW238304   1.604   4.050   9.136 -1.2582  1.7471 -0.0827
 8949SOL     OW38305   0.851   1.104   5.296  0.2693  0.1531 -0.3454
 8949SOL    HW138306   0.930   1.067   5.335 -0.0833 -0.0055  0.2149
 8949SOL    HW238307   0.851   1.070   5.206  1.1346 -0.2858 -0.1802
 8950SOL     OW38308   4.027   4.574  16.812  0.1480  0.1798  0.1153
 8950SOL    HW138309   3.968   4.646  16.833 -1.6429 -1.1187 -0.3963
 8950SOL    HW238310   3.997   4.511  16.878  1.5362 -0.9606 -0.3407
 8951SOL     OW38311   2.473   2.392   0.590 -0.3037 -0.0924 -0.3599
 8951SOL    HW138312   2.533   2.449   0.543 -1.3588 -1.1674 -3.0098
 8951SOL    HW238313   2.496   2.308   0.549  0.1736 -0.8176  1.3878
 8952SOL     OW38314   2.581   3.499  11.081  0.0735  0.0905 -0.0826
 8952SOL    HW138315   2.527   3.577  11.074  1.9142  1.5315  1.7181
 8952SOL    HW238316   2.582   3.458  10.994 -1.5042  1.1606 -0.6030
 8953SOL     OW38317   3.510   4.405  11.041  0.2655 -0.5674 -0.2698
 8953SOL    HW138318   3.515   4.465  11.116 -0.1490  1.2998 -1.7443
 8953SOL    HW238319   3.558   4.453  10.974  0.4375 -0.5768 -0.1562
 8954SOL     OW38320   1.021   0.689   3.074  0.5919  0.1623 -0.0284
 8954SOL    HW138321   0.958   0.631   3.116  0.9416  0.7041  1.2364
 8954SOL    HW238322   1.098   0.633   3.085  1.7014  1.6345 -0.2193
 8955SOL     OW38323   4.529   2.601   8.878 -0.5161  0.3695  0.4068
 8955SOL    HW138324   4.561   2.619   8.966  1.4395  0.1959 -0.2588
 8955SOL    HW238325   4.608   2.625   8.830 -0.1785  1.1663  1.3653
 8956SOL     OW38326   1.961   0.300  10.361  0.2871  0.0294 -0.7494
 8956SOL    HW138327   1.901   0.304  10.436  2.4225 -0.6330  0.9758
 8956SOL    HW238328   2.036   0.351  10.390  0.0848 -0.2053  0.2035
 8957SOL     OW38329   1.273   1.634   4.065 -0.0188  0.0326 -0.3189
 8957SOL    HW138330   1.263   1.583   3.985 -1.1942 -0.0583 -0.1169
 8957SOL    HW238331   1.337   1.581   4.114 -1.0786  1.5395  2.7254
 8958SOL     OW38332   0.338   2.649   7.235 -0.0509  0.4333  0.0941
 8958SOL    HW138333   0.328   2.563   7.274  1.8047  0.4789  0.7156
 8958SOL    HW238334   0.392   2.700   7.297  0.6443 -2.2608  1.6968
 8959SOL     OW38335   2.285   4.159   5.692 -0.1748 -0.3971 -0.8836
 8959SOL    HW138336   2.207   4.142   5.743 -0.1376  0.9977 -0.3605
 8959SOL    HW238337   2.340   4.197   5.761  0.8698 -1.7130 -0.9848
 8960SOL     OW38338   2.551   0.098  15.382  0.0205 -0.4212  0.6663
 8960SOL    HW138339   2.638   0.089  15.343 -0.2801  2.6734 -0.6992
 8960SOL    HW238340   2.518   0.181  15.347 -0.9009 -1.0894 -0.0734
 8961SOL     OW38341   1.434   3.783   3.630  0.3043 -0.2638 -0.1184
 8961SOL    HW138342   1.528   3.796   3.614  0.7765 -1.6389  1.5907
 8961SOL    HW238343   1.434   3.717   3.699 -0.2349  1.1481  1.2473
 8962SOL     OW38344   0.183   1.693  16.830  0.4267 -0.3633  0.1949
 8962SOL    HW138345   0.167   1.613  16.881  1.8030 -0.9804 -0.3345
 8962SOL    HW238346   0.218   1.656  16.749 -1.2537 -0.5362 -0.4509
 8963SOL     OW38347   3.280   2.006  17.078 -0.1466 -0.0353 -0.0811
 8963SOL    HW138348   3.219   2.069  17.116 -1.2211 -0.2809 -1.3738
 8963SOL    HW238349   3.219   1.938  17.050  0.2138 -1.3880  2.4281
 8964SOL     OW38350   2.719   2.521   2.113  0.1801  0.2370 -0.0908
 8964SOL    HW138351   2.758   2.462   2.178 -0.7748 -2.2125 -1.7439
 8964SOL    HW238352   2.763   2.488   2.034  2.8051  0.0950  1.4034
 8965SOL     OW38353   3.109   3.954   8.016  0.1648  0.4008  0.3661
 8965SOL    HW138354   3.166   3.990   8.084  2.7844 -1.3781 -0.9113
 8965SOL    HW238355   3.170   3.916   7.953  0.3339  0.1854  0.6616
 8966SOL     OW38356   2.558   1.244   3.953  0.0055  0.0408  0.4456
 8966SOL    HW138357   2.527   1.333   3.971  0.7499  0.3697  0.1018
 8966SOL    HW238358   2.646   1.274   3.932  0.5707 -2.2194 -0.3440
 8967SOL     OW38359   2.354   3.644  15.042  0.6006  0.0559  0.1975
 8967SOL    HW138360   2.389   3.576  15.100 -1.7000 -1.8429 -0.6511
 8967SOL    HW238361   2.298   3.689  15.106 -0.1513 -0.2501 -0.2368
 8968SOL     OW38362   2.560   1.317   9.295  0.6798 -0.2168  0.3299
 8968SOL    HW138363   2.628   1.307   9.362  1.0253 -0.5667 -0.0742
 8968SOL    HW238364   2.612   1.355   9.224 -0.3243  0.3434 -0.1082
 8969SOL     OW38365   1.820   2.449   8.640 -0.5983  0.2461 -0.6888
 8969SOL    HW138366   1.725   2.453   8.656 -0.6411 -2.5061 -0.2013
 8969SOL    HW238367   1.829   2.537   8.605  3.9729  0.4356  0.9414
 8970SOL     OW38368   4.685   2.229  16.265  0.0366 -0.3641 -0.3108
 8970SOL    HW138369   4.634   2.300  16.225  0.3413  0.4262  0.6858
 8970SOL    HW238370   4.628   2.197  16.336  1.7276  0.0093  1.2248
 8971SOL     OW38371   0.105   0.384   5.553 -0.3337  0.1518 -0.4719
 8971SOL    HW138372   0.051   0.424   5.621 -0.9596  0.4806 -1.1619
 8971SOL    HW238373   0.128   0.465   5.507 -1.9035  1.4873  1.0997
 8972SOL     OW38374   3.836   2.941   3.783  0.1363 -0.7121 -0.1943
 8972SOL    HW138375   3.740   2.942   3.781  0.0786 -0.0849  2.0698
 8972SOL    HW238376   3.862   2.949   3.875 -0.0707 -1.6476 -0.0442
 8973SOL     OW38377   1.898   1.547   1.981 -0.1789  0.2874  0.2812
 8973SOL    HW138378   1.959   1.517   2.048  0.3977 -0.3336 -0.5318
 8973SOL    HW238379   1.916   1.489   1.907 -0.9212 -0.1889  0.4745
 8974SOL     OW38380   2.091   3.384   5.197 -0.7643 -0.3032  0.3307
 8974SOL    HW138381   2.021   3.335   5.153  0.2134  0.3587 -1.9479
 8974SOL    HW238382   2.046   3.463   5.224  1.1351  0.4073  1.4161
 8975SOL     OW38383   1.298   2.015   3.433 -0.2084  0.0496  0.4978
 8975SOL    HW138384   1.235   1.963   3.383 -0.5156  1.5552 -0.6615
 8975SOL    HW238385   1.368   1.992   3.372  0.7565 -0.7032  1.8933
 8976SOL     OW38386   1.458   1.327   7.443  0.8111  0.6599  0.3359
 8976SOL    HW138387   1.553   1.314   7.446  1.0299  1.9740 -0.8092
 8976SOL    HW238388   1.431   1.337   7.535  0.0576 -1.2820  0.3299
 8977SOL     OW38389   0.687   0.046   7.247 -0.0551  0.0969  0.4113
 8977SOL    HW138390   0.679   0.049   7.152  2.6107 -0.4169  0.1828
 8977SOL    HW238391   0.595   0.069   7.262 -0.4646 -1.0725 -0.3115
 8978SOL     OW38392   3.936   1.002   5.600  0.5846 -0.5645  0.9771
 8978SOL    HW138393   3.917   0.970   5.688 -0.3955 -1.1699  0.5530
 8978SOL    HW238394   4.031   1.013   5.592  0.2780  3.1064  2.4039
 8979SOL     OW38395   2.353   3.308   4.096  0.0524  0.5603  0.6359
 8979SOL    HW138396   2.377   3.281   4.007  2.6592  1.3382  1.1019
 8979SOL    HW238397   2.332   3.401   4.082  1.1741  0.8615  0.9372
 8980SOL     OW38398   0.592   0.472   2.860  0.5219 -0.1640  0.3381
 8980SOL    HW138399   0.509   0.509   2.828  0.4353  0.8280  1.6938
 8980SOL    HW238400   0.613   0.542   2.922 -0.8038 -0.3722  1.0278
 8981SOL     OW38401   3.392   1.551   9.432 -0.3398  0.2014 -0.2737
 8981SOL    HW138402   3.346   1.615   9.485  0.8944  1.9249 -1.2898
 8981SOL    HW238403   3.331   1.522   9.364  0.2641 -0.1853 -0.6529
 8982SOL     OW38404   1.988   0.041  10.120  0.3423  0.1514 -0.2453
 8982SOL    HW138405   1.950   4.715  10.195 -0.2266  1.3561  0.2192
 8982SOL    HW238406   2.014   4.688  10.065 -0.4315 -1.6974  1.8438
 8983SOL     OW38407   2.446   0.239   9.577  0.2086 -0.2025 -0.1719
 8983SOL    HW138408   2.360   0.199   9.572 -0.8247  1.8972  0.9798
 8983SOL    HW238409   2.501   0.174   9.621  0.4035 -2.2407 -3.4516
 8984SOL     OW38410   0.100   0.449   3.492  0.6166 -0.0550  0.1404
 8984SOL    HW138411   0.177   0.393   3.482 -0.2625 -1.4040  0.9467
 8984SOL    HW238412   0.050   0.389   3.547  0.2659 -1.2820 -1.5237
 8985SOL     OW38413   4.153   2.806   9.264 -0.2174  0.7646 -0.1758
 8985SOL    HW138414   4.070   2.837   9.301  0.2995  1.3237  0.5068
 8985SOL    HW238415   4.182   2.746   9.333 -1.2442 -1.8222 -1.9965
 8986SOL     OW38416   2.802   2.894   4.779 -0.1683  0.7556 -0.1611
 8986SOL    HW138417   2.808   2.865   4.688  0.2832  1.0806 -0.2323
 8986SOL    HW238418   2.869   2.841   4.823  0.4697  2.9682  1.5401
 8987SOL     OW38419   2.304   3.174   6.576  0.3156  0.1740  0.1956
 8987SOL    HW138420   2.342   3.224   6.504  1.3825  0.5707  1.0386
 8987SOL    HW238421   2.303   3.086   6.537  0.9362  0.6644 -0.9282
 8988SOL     OW38422   2.649   2.242   8.923 -0.5048 -0.2551  0.3657
 8988SOL    HW138423   2.736   2.224   8.886  0.6525  0.1703  2.9121
 8988SOL    HW238424   2.666   2.275   9.011 -0.5154 -3.4638  1.5630
 8989SOL     OW38425   1.523   3.675   5.317  0.4956  0.5682 -0.0393
 8989SOL    HW138426   1.500   3.756   5.362  0.3534 -0.2862  1.4049
 8989SOL    HW238427   1.442   3.665   5.267  1.2299  1.5476 -1.4324
 8990SOL     OW38428   2.393   0.270   1.275  0.1830 -0.5571  0.0261
 8990SOL    HW138429   2.451   0.202   1.242 -0.9463 -0.5559 -1.9992
 8990SOL    HW238430   2.450   0.333   1.319 -0.0651 -1.8618  2.2310
 8991SOL     OW38431   4.680   2.196   6.806 -0.0336 -0.3082 -0.4789
 8991SOL    HW138432   4.655   2.281   6.844 -2.1803 -0.5966 -1.2248
 8991SOL    HW238433   0.036   2.207   6.750  0.7755  0.9240  0.8671
 8992SOL     OW38434   2.330   4.176   8.416 -0.0802  1.0011 -0.3315
 8992SOL    HW138435   2.253   4.123   8.396 -1.5968  2.3314  1.9227
 8992SOL    HW238436   2.379   4.124   8.481  0.6024  2.2405  0.1462
 8993SOL     OW38437   2.857   3.100  10.438 -0.5183  0.0603  0.1622
 8993SOL    HW138438   2.893   3.106  10.349 -1.0421 -0.6229 -0.0988
 8993SOL    HW238439   2.833   3.191  10.453 -3.2742 -0.7446  0.6523
 8994SOL     OW38440   0.860   1.723   9.433  0.1830  0.0756  0.5169
 8994SOL    HW138441   0.860   1.739   9.527  1.9344 -1.2072  0.7455
 8994SOL    HW238442   0.880   1.630   9.431  2.6001  0.6302 -1.4208
 8995SOL     OW38443   2.380   2.923  15.911 -0.1215  0.2506 -0.1842
 8995SOL    HW138444   2.387   2.873  15.992 -2.0812 -1.5114 -1.1160
 8995SOL    HW238445   2.471   2.955  15.908 -0.3960  0.9738 -0.9002
 8996SOL     OW38446   0.467   1.174   4.593  0.1405  0.2205 -0.3955
 8996SOL    HW138447   0.384   1.220   4.584 -1.1705 -1.8290  1.0909
 8996SOL    HW238448   0.494   1.192   4.503 -0.3470  0.8221 -0.4156
 8997SOL     OW38449   3.114   0.101   1.947  0.3943  0.5077 -0.0123
 8997SOL    HW138450   3.115   0.193   1.921  0.8697  1.4045  3.1788
 8997SOL    HW238451   3.116   0.067   1.857 -0.2045  0.5826 -0.0540
 8998SOL     OW38452   1.697   2.843   2.669 -0.2137 -0.0298 -0.4682
 8998SOL    HW138453   1.775   2.878   2.711  0.0570 -0.6867 -0.4165
 8998SOL    HW238454   1.662   2.927   2.639 -0.8622 -0.4397 -0.8483
 8999SOL     OW38455   3.113   0.211  11.079  1.0583  0.9565 -0.3629
 8999SOL    HW138456   3.093   0.149  11.149  2.4996  1.3783  0.4202
 8999SOL    HW238457   3.059   0.283  11.112  1.1604  1.2385 -0.8033
 9000SOL     OW38458   2.389   0.170   5.265  0.2738  0.1729  0.1549
 9000SOL    HW138459   2.470   0.201   5.304  0.0798  0.6977  0.1343
 9000SOL    HW238460   2.343   0.253   5.261  1.3073  0.6758 -1.3720
 9001SOL     OW38461   0.800   0.642   4.251  0.4005 -0.6406  0.6635
 9001SOL    HW138462   0.833   0.641   4.161  1.1311 -3.0741  0.9399
 9001SOL    HW238463   0.862   0.588   4.302  1.3883  1.4795  1.7170
 9002SOL     OW38464   2.410   2.895  16.469  0.0505 -0.3487  0.2323
 9002SOL    HW138465   2.400   2.958  16.540  1.1791  0.3420 -0.2102
 9002SOL    HW238466   2.386   2.810  16.505 -1.3005 -0.0782 -0.0351
 9003SOL     OW38467   2.533   0.003   1.938 -0.3622  0.2683  0.6658
 9003SOL    HW138468   2.481   0.077   1.970 -2.6518 -1.2223  0.3725
 9003SOL    HW238469   2.623   0.010   1.970 -0.1556 -1.9930  0.5233
 9004SOL     OW38470   4.053   4.566   4.513  0.1504 -0.4988 -0.2738
 9004SOL    HW138471   3.972   4.572   4.564  0.6822  1.1347  0.3832
 9004SOL    HW238472   4.016   4.566   4.425 -1.4142 -2.9716  0.3689
 9005SOL     OW38473   2.335   2.247   2.945 -0.0396 -0.2927 -0.5444
 9005SOL    HW138474   2.412   2.200   2.976 -1.6342 -1.4687  1.6285
 9005SOL    HW238475   2.376   2.298   2.875 -0.5837 -0.9532 -1.3440
 9006SOL     OW38476   4.049   3.760   5.194  0.2812  0.1785 -0.0165
 9006SOL    HW138477   3.998   3.758   5.112  1.4239  1.4262 -0.7542
 9006SOL    HW238478   4.132   3.790   5.157  1.2351 -0.8511  1.2953
 9007SOL     OW38479   2.323   1.917   8.570  0.8795 -0.9748 -0.1165
 9007SOL    HW138480   2.406   1.871   8.559  0.5043 -1.2107 -1.9555
 9007SOL    HW238481   2.275   1.844   8.608  2.2156 -1.6744  0.2353
 9008SOL     OW38482   3.611   3.723   5.733 -0.0758 -0.0783 -0.0167
 9008SOL    HW138483   3.577   3.813   5.733  1.2975  0.4155 -2.1529
 9008SOL    HW238484   3.680   3.742   5.796 -0.4502 -0.1211  0.4103
 9009SOL     OW38485   0.732   0.716   3.894  0.0161 -0.3256  0.0197
 9009SOL    HW138486   0.710   0.647   3.832  0.9165 -0.4689 -0.1379
 9009SOL    HW238487   0.807   0.676   3.940 -0.5299 -2.7183 -1.1677
 9010SOL     OW38488   1.042   0.073  11.898 -0.2809  0.0426  0.2886
 9010SOL    HW138489   1.030   0.168  11.906 -1.1418 -0.0637  0.2593
 9010SOL    HW238490   0.976   0.053  11.965 -0.1786 -0.7592  0.1485
 9011SOL     OW38491   0.931   2.487   5.877  0.5394  1.0766 -0.3555
 9011SOL    HW138492   1.001   2.466   5.815  1.8068 -1.6183  1.9855
 9011SOL    HW238493   0.875   2.411   5.861  1.5835 -0.0731  1.4764
 9012SOL     OW38494   2.399   4.023   4.787 -0.7561 -0.0452  0.6249
 9012SOL    HW138495   2.384   3.930   4.768 -0.4987  0.0504 -0.0395
 9012SOL    HW238496   2.449   4.021   4.868 -1.1025 -0.9797  0.8180
 9013SOL     OW38497   2.189   4.427   6.807 -0.0714 -0.1902  0.1842
 9013SOL    HW138498   2.127   4.420   6.879 -0.0944  2.0066  0.3867
 9013SOL    HW238499   2.268   4.399   6.854 -0.3247 -2.8359 -0.9888
 9014SOL     OW38500   2.368   1.566   0.712 -0.1757  0.0353  0.1345
 9014SOL    HW138501   2.438   1.617   0.754 -1.6502  0.8018  1.6406
 9014SOL    HW238502   2.356   1.613   0.630  1.4125  0.4639  0.1444
 9015SOL     OW38503   1.544   2.058   0.239  0.0135  0.5606  0.0624
 9015SOL    HW138504   1.556   1.969   0.205  1.1593  1.1902 -1.1978
 9015SOL    HW238505   1.632   2.096   0.238 -0.1519  0.9226 -0.7724
 9016SOL     OW38506   1.253   3.398   8.706 -0.2477  0.1397  0.4343
 9016SOL    HW138507   1.168   3.415   8.666  0.0963 -1.1289 -0.8560
 9016SOL    HW238508   1.299   3.356   8.633 -0.3230 -0.2206  0.5910
 9017SOL     OW38509   1.927   0.581   5.190 -0.1855  0.1575  0.6480
 9017SOL    HW138510   1.967   0.493   5.193 -3.4906 -1.4067 -0.9349
 9017SOL    HW238511   1.855   0.564   5.129 -0.2087  0.8038  0.5040
 9018SOL     OW38512   2.046   0.930   9.292 -0.2032  0.4158 -0.1942
 9018SOL    HW138513   2.011   0.911   9.379  0.6517 -0.1847  0.0113
 9018SOL    HW238514   2.056   1.024   9.302  1.9565  0.3568 -1.9432
 9019SOL     OW38515   0.259   0.473   9.450 -0.4033  0.0856 -0.1191
 9019SOL    HW138516   0.331   0.445   9.507  0.0680  1.0058 -0.2550
 9019SOL    HW238517   0.271   0.567   9.437 -2.0945  0.2487 -0.5012
 9020SOL     OW38518   2.449   2.314   3.629  0.4688 -0.3142  0.1088
 9020SOL    HW138519   2.478   2.393   3.676 -3.7632  0.7132  0.9407
 9020SOL    HW238520   2.357   2.329   3.610  0.5500 -0.6859 -0.5713
 9021SOL     OW38521   1.720   1.141   7.411 -0.0142  0.1098  0.0009
 9021SOL    HW138522   1.753   1.119   7.498 -2.1503  0.7256  0.9609
 9021SOL    HW238523   1.664   1.064   7.398  0.0395  0.3077 -1.4482
 9022SOL     OW38524   3.492   1.916   1.389 -0.0415  0.3220  0.2072
 9022SOL    HW138525   3.575   1.874   1.365 -0.1215  0.1545  0.2280
 9022SOL    HW238526   3.424   1.878   1.335 -0.6139 -0.2816  1.3444
 9023SOL     OW38527   2.549   1.928  16.641 -0.7544 -0.0595  0.3356
 9023SOL    HW138528   2.529   1.857  16.581  1.1575 -0.1178 -0.2147
 9023SOL    HW238529   2.632   1.965  16.612 -0.7239 -1.9782 -2.0260
 9024SOL     OW38530   3.926   0.535   3.100 -0.6279 -0.4477  0.0881
 9024SOL    HW138531   3.976   0.560   3.178 -0.9635 -0.4457  0.3071
 9024SOL    HW238532   3.846   0.534   3.153 -0.3793  0.2102  0.4777
 9025SOL     OW38533   4.499   3.393  12.289 -0.0122  0.2297  0.1822
 9025SOL    HW138534   4.454   3.477  12.305  0.1868  0.4951 -0.6506
 9025SOL    HW238535   4.541   3.382  12.375 -0.0836  1.5242  0.3908
 9026SOL     OW38536   1.395   4.552   4.172 -0.3180  0.2190 -0.1200
 9026SOL    HW138537   1.355   4.566   4.258 -0.6921 -1.6887  0.0077
 9026SOL    HW238538   1.325   4.594   4.122 -0.4289 -1.3867 -1.3014
 9027SOL     OW38539   4.539   2.810   7.395  0.1076  0.4437  0.2350
 9027SOL    HW138540   4.498   2.767   7.470  0.3597 -0.0041  0.1155
 9027SOL    HW238541   4.527   2.758   7.315 -0.4739  0.0850  0.5603
 9028SOL     OW38542   0.609   3.675   9.381 -0.0386  0.5979  0.1414
 9028SOL    HW138543   0.616   3.746   9.317 -3.4657 -2.6841 -3.8777
 9028SOL    HW238544   0.671   3.618   9.335 -1.0782  1.3805 -2.2390
 9029SOL     OW38545   2.508   1.280  10.888 -0.1786  0.4412  0.1773
 9029SOL    HW138546   2.595   1.297  10.851 -1.0049 -1.3948 -2.5758
 9029SOL    HW238547   2.466   1.245  10.810 -0.2731  1.5199 -0.2570
 9030SOL     OW38548   1.385   2.490   8.043  0.0151  0.3941  0.0099
 9030SOL    HW138549   1.373   2.562   7.981 -1.8650 -0.9109 -1.1262
 9030SOL    HW238550   1.351   2.532   8.122 -0.3505  1.6587 -0.8197
 9031SOL     OW38551   4.418   3.978  11.731 -0.3931 -0.0361 -0.4627
 9031SOL    HW138552   4.506   3.997  11.700 -0.1661  0.0095  0.1955
 9031SOL    HW238553   4.389   4.068  11.748 -0.4411 -0.6301  2.7322
 9032SOL     OW38554   3.057   2.142  12.984  0.1616 -0.3490 -0.4426
 9032SOL    HW138555   2.968   2.160  13.015  0.4194 -0.4267  0.3465
 9032SOL    HW238556   3.105   2.205  13.038 -0.0661 -2.1742  1.9200
 9033SOL     OW38557   4.246   0.882   3.991 -0.3988  0.0161  0.3462
 9033SOL    HW138558   4.166   0.831   4.000 -0.8336  0.5424 -0.5277
 9033SOL    HW238559   4.296   0.865   4.071  1.0563 -2.6562 -1.1419
 9034SOL     OW38560   4.081   1.311   2.883 -0.4021 -0.9520  0.0701
 9034SOL    HW138561   4.004   1.277   2.837  0.5364 -1.3030 -1.2263
 9034SOL    HW238562   4.134   1.342   2.810 -0.2048 -2.9061 -0.5914
 9035SOL     OW38563   0.873   1.613   1.419  0.3643 -1.1482  0.3364
 9035SOL    HW138564   0.834   1.667   1.349  1.9860  1.2906  1.3093
 9035SOL    HW238565   0.935   1.555   1.374  1.9026 -0.2586  1.3200
 9036SOL     OW38566   0.060   0.922   0.198 -0.2433 -0.0243  0.3109
 9036SOL    HW138567   0.010   0.887   0.125  1.0570 -2.0509  0.3886
 9036SOL    HW238568   4.703   0.954   0.244 -0.8846 -1.3787  0.1763
 9037SOL     OW38569   1.929   2.216   7.660 -0.1790  0.0374 -0.4772
 9037SOL    HW138570   1.945   2.305   7.693 -1.3418  0.3846 -0.8590
 9037SOL    HW238571   1.842   2.242   7.631 -0.6772 -0.4333  0.5914
 9038SOL     OW38572   4.383   0.806   0.439  0.1425  0.0098 -0.2134
 9038SOL    HW138573   4.437   0.867   0.489  0.4512 -0.2774 -0.2029
 9038SOL    HW238574   4.445   0.771   0.375 -0.7873  0.1527 -1.2159
 9039SOL     OW38575   1.029   2.807   8.454 -0.3400  0.1458 -0.5293
 9039SOL    HW138576   1.121   2.786   8.470 -0.0146  2.1497  0.1800
 9039SOL    HW238577   1.031   2.894   8.414 -0.1818 -0.2067 -1.2825
 9040SOL     OW38578   3.414   2.412   5.214  0.2400  0.1750 -0.2699
 9040SOL    HW138579   3.449   2.326   5.189 -2.5945 -1.1065  0.2171
 9040SOL    HW238580   3.333   2.416   5.163  2.7354  1.0888 -4.1519
 9041SOL     OW38581   2.610   3.701  16.039  0.6980 -0.2144 -0.3455
 9041SOL    HW138582   2.605   3.721  16.133 -1.2716  0.5722 -0.6144
 9041SOL    HW238583   2.535   3.751  16.008  1.2235 -0.6286 -2.2613
 9042SOL     OW38584   4.161   1.448  12.601 -0.2673  0.3248  0.0909
 9042SOL    HW138585   4.221   1.505  12.553  1.9840 -1.4159  0.8489
 9042SOL    HW238586   4.207   1.399  12.668 -0.7255 -0.9729 -0.5309
 9043SOL     OW38587   1.696   2.718   7.527 -0.6516  0.0724  0.2749
 9043SOL    HW138588   1.754   2.729   7.602  1.2432 -1.7342 -0.9017
 9043SOL    HW238589   1.621   2.770   7.554  0.2584  0.9127  1.1738
 9044SOL     OW38590   1.571   3.605   0.561 -0.2999 -0.3252 -0.5067
 9044SOL    HW138591   1.558   3.631   0.470 -1.4596 -1.9842 -0.8071
 9044SOL    HW238592   1.662   3.574   0.565 -1.3590 -3.0237  2.1934
 9045SOL     OW38593   4.425   4.248  11.795 -0.0007 -0.2585  0.3848
 9045SOL    HW138594   4.436   4.342  11.785 -1.3391 -0.2048 -0.6234
 9045SOL    HW238595   4.486   4.223  11.726  0.5899 -0.7780  1.0963
 9046SOL     OW38596   2.807   2.413   4.251 -0.0056 -0.3379 -0.5549
 9046SOL    HW138597   2.756   2.489   4.224  0.6546 -0.0019 -0.8696
 9046SOL    HW238598   2.887   2.439   4.205  0.3557 -1.5533 -0.6333
 9047SOL     OW38599   4.207   0.456   7.160 -0.0190  0.1160 -0.4367
 9047SOL    HW138600   4.222   0.550   7.155  1.2978 -0.1012 -0.6231
 9047SOL    HW238601   4.122   0.453   7.203  0.6233  0.5222  0.8626
 9048SOL     OW38602   2.857   3.782  16.405  0.1615  0.3148  0.5374
 9048SOL    HW138603   2.888   3.814  16.321 -0.1050 -2.1137 -0.5045
 9048SOL    HW238604   2.919   3.816  16.469  0.5831  0.3007  0.1354
 9049SOL     OW38605   1.883   2.980   6.118 -0.2529 -0.0210 -0.2150
 9049SOL    HW138606   1.965   2.966   6.163 -0.6166  1.6273  0.9635
 9049SOL    HW238607   1.916   3.041   6.052  0.7250 -1.4038 -0.9966
 9050SOL     OW38608   2.252   2.297   3.320  0.1769 -0.1382  0.0922
 9050SOL    HW138609   2.331   2.244   3.311  0.0833  0.3960 -3.9648
 9050SOL    HW238610   2.240   2.309   3.414 -0.0831  0.0318  0.0373
 9051SOL     OW38611   3.934   1.109  11.694  0.1696 -0.0690  0.0598
 9051SOL    HW138612   3.948   1.121  11.788  1.2276 -2.5797  0.2073
 9051SOL    HW238613   3.952   1.016  11.689  2.8510  0.4179  0.3160
 9052SOL     OW38614   0.711   1.251   9.934 -0.0417  0.3512  0.2779
 9052SOL    HW138615   0.669   1.337   9.924 -1.1129 -0.0466  1.3549
 9052SOL    HW238616   0.774   1.251   9.862 -1.8958  0.9962 -1.3521
 9053SOL     OW38617   0.317   3.323   4.551  0.2574 -0.2737 -0.0227
 9053SOL    HW138618   0.268   3.245   4.576  1.0047 -0.8748 -0.4380
 9053SOL    HW238619   0.382   3.298   4.485 -1.5789 -1.7051 -1.2882
 9054SOL     OW38620   4.424   3.831   9.282 -0.1516 -0.5909 -0.4971
 9054SOL    HW138621   4.413   3.742   9.248 -2.2299 -0.8724  0.9272
 9054SOL    HW238622   4.368   3.832   9.360 -0.4264  1.1389 -0.7241
 9055SOL     OW38623   1.675   2.981  15.418  0.0833 -0.0585 -0.1676
 9055SOL    HW138624   1.608   3.021  15.473 -2.5585  0.2823 -3.6820
 9055SOL    HW238625   1.707   3.043  15.352 -1.6311  0.4358 -0.5153
 9056SOL     OW38626   3.959   0.772  11.669 -0.1743  0.7197 -0.6036
 9056SOL    HW138627   3.957   0.680  11.642 -1.6785  0.8849 -1.0676
 9056SOL    HW238628   4.054   0.778  11.671 -0.1189 -1.3085  2.3828
 9057SOL     OW38629   4.195   2.615   2.626  0.0566  0.2492 -0.3881
 9057SOL    HW138630   4.275   2.575   2.658  0.6563 -0.7905 -3.1765
 9057SOL    HW238631   4.181   2.574   2.541 -0.8627  0.8395 -0.5337
 9058SOL     OW38632   1.937   1.492   5.415  0.6486 -0.2897  0.5345
 9058SOL    HW138633   1.881   1.417   5.394 -0.9733  0.1014  3.5302
 9058SOL    HW238634   2.018   1.476   5.366  1.1175 -0.1429  1.2553
 9059SOL     OW38635   2.372   0.691  12.346  0.4471  0.1469  0.3886
 9059SOL    HW138636   2.335   0.694  12.258  0.9099 -2.4463  0.1084
 9059SOL    HW238637   2.350   0.604  12.377 -1.3725 -0.5706 -2.9880
 9060SOL     OW38638   3.864   0.978   2.110  0.0205  0.1898 -0.6862
 9060SOL    HW138639   3.830   1.068   2.101 -0.6426 -0.1938 -2.0150
 9060SOL    HW238640   3.957   0.982   2.130 -0.2314  2.3518  0.1274
 9061SOL     OW38641   1.674   4.371   9.131  0.3472 -0.2701  0.0844
 9061SOL    HW138642   1.683   4.320   9.212 -2.0053  0.1661  0.6055
 9061SOL    HW238643   1.723   4.448   9.160  1.3103 -1.2360  1.0456
 9062SOL     OW38644   0.219   3.208   7.428 -0.3449 -0.7071  0.0087
 9062SOL    HW138645   0.134   3.238   7.395 -1.1605 -0.6175  2.1407
 9062SOL    HW238646   0.189   3.145   7.494 -2.4026  0.3495  0.0750
 9063SOL     OW38647   3.433   0.512   0.917  0.0621  0.4590 -0.0761
 9063SOL    HW138648   3.519   0.544   0.889 -1.1979  2.6467 -1.3828
 9063SOL    HW238649   3.365   0.568   0.881 -0.9931 -1.8693 -1.6795
 9064SOL     OW38650   2.904   3.698   9.491  0.1098 -0.4060 -0.3544
 9064SOL    HW138651   2.949   3.760   9.548 -0.4045  1.0541 -1.5270
 9064SOL    HW238652   2.936   3.734   9.409  0.4942 -1.5990 -0.7384
 9065SOL     OW38653   0.371   3.067   5.940  0.2123  0.2353 -0.4627
 9065SOL    HW138654   0.465   3.080   5.933  0.3582 -1.6423 -2.1295
 9065SOL    HW238655   0.342   3.050   5.850  1.1830 -1.3751 -0.4741
 9066SOL     OW38656   3.052   3.071   2.376 -0.2667  0.0896  0.1713
 9066SOL    HW138657   3.009   3.132   2.316  1.2809 -0.5854 -1.6042
 9066SOL    HW238658   3.085   3.131   2.443  1.1850  1.1408 -1.5155
 9067SOL     OW38659   1.002   0.362  11.957  0.4459  0.4896  0.2429
 9067SOL    HW138660   1.091   0.396  11.965  0.5756 -0.5800  3.4833
 9067SOL    HW238661   0.973   0.362  12.048  0.7304 -1.0301  0.3405
 9068SOL     OW38662   2.524   2.778   5.124  0.4649 -0.2546 -0.1967
 9068SOL    HW138663   2.436   2.773   5.161  1.0737  0.9188  1.4476
 9068SOL    HW238664   2.511   2.747   5.035 -1.8425 -0.4143  0.2068
 9069SOL     OW38665   2.468   0.957   1.857 -0.5648  0.8005 -0.4358
 9069SOL    HW138666   2.475   1.044   1.817  0.7919 -0.6266 -3.2581
 9069SOL    HW238667   2.520   0.981   1.934  0.4105 -0.6589 -0.6545
 9070SOL     OW38668   2.499   3.927   7.721  0.1046 -0.4393 -0.2338
 9070SOL    HW138669   2.465   3.851   7.675 -1.8600  0.9412 -1.0581
 9070SOL    HW238670   2.581   3.941   7.673  0.5815  0.9278  0.9660
 9071SOL     OW38671   0.026   2.801  12.686  0.5123 -0.7055 -0.6007
 9071SOL    HW138672   4.681   2.746  12.727 -0.1980  0.4278 -0.2037
 9071SOL    HW238673   0.105   2.756  12.716 -0.0484 -1.4213 -0.2116
 9072SOL     OW38674   3.906   1.701   3.052 -0.3390  0.5216  0.2668
 9072SOL    HW138675   3.887   1.607   3.044 -2.8373  1.0651 -0.0342
 9072SOL    HW238676   3.963   1.686   3.127  0.9021 -0.3031 -0.8257
 9073SOL     OW38677   4.189   3.839  15.407 -0.4362  0.3164  0.2834
 9073SOL    HW138678   4.123   3.811  15.470  0.1633 -1.9313 -0.0973
 9073SOL    HW238679   4.135   3.839  15.328  1.7848 -2.5034 -1.2094
 9074SOL     OW38680   1.359   3.836   8.950  0.1478  0.0907 -0.2577
 9074SOL    HW138681   1.316   3.767   8.899 -3.9023  0.8752  2.1966
 9074SOL    HW238682   1.404   3.791   9.021  0.2183  0.8469  0.1743
 9075SOL     OW38683   0.069   4.030   6.284 -0.0492  0.1569 -0.1584
 9075SOL    HW138684   0.011   4.106   6.288 -0.0685 -0.0351  2.8934
 9075SOL    HW238685   0.131   4.061   6.217  0.5818 -0.4030  0.1742
 9076SOL     OW38686   0.241   2.064   3.278  0.4824 -0.3541 -0.6339
 9076SOL    HW138687   0.325   2.093   3.242  1.1971 -1.2214  0.3558
 9076SOL    HW238688   0.256   2.085   3.370  2.4748  0.3962 -1.1269
 9077SOL     OW38689   3.055   2.795  17.059  0.2602 -0.4077  0.2914
 9077SOL    HW138690   2.997   2.742  17.003  1.4248 -1.3234 -0.0662
 9077SOL    HW238691   3.030   2.771  17.148 -1.9354  1.4297  0.1506
 9078SOL     OW38692   1.570   1.163   5.171  0.3822  0.4414  0.3444
 9078SOL    HW138693   1.605   1.092   5.118 -2.1716  0.8372 -1.8653
 9078SOL    HW238694   1.578   1.244   5.120 -1.2476 -1.9886 -3.6763
 9079SOL     OW38695   4.113   1.122   2.536 -0.2097  0.2827 -0.1441
 9079SOL    HW138696   4.081   1.035   2.560  0.1006 -0.0087 -0.7978
 9079SOL    HW238697   4.038   1.174   2.506  0.0110  1.0683  0.6555
 9080SOL     OW38698   3.021   1.400   3.239 -0.0668  0.4519 -0.6041
 9080SOL    HW138699   3.055   1.364   3.321  4.9026  0.0939 -2.8459
 9080SOL    HW238700   2.966   1.469   3.277 -0.3689 -0.0022 -0.2157
 9081SOL     OW38701   0.441   0.059   7.704 -0.1139  0.4313  0.0740
 9081SOL    HW138702   0.357   0.046   7.660 -0.0001  0.8370 -0.2629
 9081SOL    HW238703   0.415   0.133   7.759 -0.7638  0.7523 -0.6691
 9082SOL     OW38704   0.857   3.672  12.758  0.1566  0.0148  0.4174
 9082SOL    HW138705   0.801   3.721  12.819 -2.3879 -3.4602  0.9003
 9082SOL    HW238706   0.939   3.688  12.805 -0.2241  2.1147  0.3648
 9083SOL     OW38707   4.473   2.418  15.379  0.2452  0.4228  0.1513
 9083SOL    HW138708   4.539   2.387  15.316  0.7450 -0.0793  0.9170
 9083SOL    HW238709   4.480   2.512  15.368  0.4010  0.2584 -1.0973
 9084SOL     OW38710   2.530   0.579  13.709  0.5661 -0.2951  0.1436
 9084SOL    HW138711   2.493   0.491  13.724 -0.0667 -0.0477  0.0336
 9084SOL    HW238712   2.529   0.620  13.795 -3.1905 -1.5246  0.6777
 9085SOL     OW38713   1.711   0.385   5.118 -0.4050  0.4308 -0.5628
 9085SOL    HW138714   1.640   0.323   5.132 -1.1007  0.9103 -1.9794
 9085SOL    HW238715   1.754   0.365   5.201  0.2937 -1.5075 -1.3798
 9086SOL     OW38716   2.323   3.042   3.298 -0.5001  0.4820 -0.0840
 9086SOL    HW138717   2.342   2.950   3.312  0.1449  0.7106  0.5642
 9086SOL    HW238718   2.408   3.077   3.326  0.1516 -1.0589 -0.1345
 9087SOL     OW38719   2.666   2.383   5.148 -0.4900  0.3501 -0.0607
 9087SOL    HW138720   2.630   2.420   5.068 -2.7038  3.2053  2.2206
 9087SOL    HW238721   2.586   2.355   5.193  0.5838  1.1156  2.3479
 9088SOL     OW38722   2.780   2.504   9.691  0.3160  0.1564 -0.5750
 9088SOL    HW138723   2.811   2.576   9.636 -2.5239  1.0201 -1.0759
 9088SOL    HW238724   2.748   2.452   9.617  0.5565 -0.4388 -0.2572
 9089SOL     OW38725   0.005   3.553  11.334  0.3711 -0.3942 -0.0397
 9089SOL    HW138726   4.706   3.578  11.424 -0.3406  2.7710 -1.0856
 9089SOL    HW238727   0.099   3.572  11.335 -0.3996  3.2162  2.3029
 9090SOL     OW38728   2.494   2.595  16.309 -0.3311 -0.2754 -0.2025
 9090SOL    HW138729   2.573   2.544  16.325  0.1005  0.3964 -0.1911
 9090SOL    HW238730   2.475   2.640  16.392  0.8411  2.0151 -1.1811
 9091SOL     OW38731   4.005   1.274   5.045  1.0213 -0.5309 -0.1561
 9091SOL    HW138732   4.035   1.218   5.117  0.3513 -0.1806  0.3948
 9091SOL    HW238733   3.917   1.238   5.037 -0.6226  3.7024 -1.2880
 9092SOL     OW38734   2.655   0.301   5.255  0.4760 -0.1324 -0.3605
 9092SOL    HW138735   2.700   0.217   5.269  0.9913  0.2564  0.3427
 9092SOL    HW238736   2.718   0.356   5.302  1.0584 -0.7050 -0.4703
 9093SOL     OW38737   2.130   1.210   0.838  0.2589  0.4345 -0.2096
 9093SOL    HW138738   2.053   1.263   0.858  0.2922  0.4416 -0.0976
 9093SOL    HW238739   2.175   1.207   0.923 -0.4083 -1.4768  0.0863
 9094SOL     OW38740   2.311   3.281   3.505 -0.7731  0.6887 -0.3146
 9094SOL    HW138741   2.215   3.289   3.511 -0.7509  1.1988 -0.7051
 9094SOL    HW238742   2.316   3.194   3.466 -1.6111  1.2564 -1.6971
 9095SOL     OW38743   3.861   0.926  16.687 -0.0378  0.0350 -0.2900
 9095SOL    HW138744   3.934   0.939  16.748 -0.5502 -3.7643  1.1684
 9095SOL    HW238745   3.786   0.906  16.743 -1.6601  1.4655 -1.9514
 9096SOL     OW38746   1.719   4.246   9.378 -0.1665 -0.1555  0.3030
 9096SOL    HW138747   1.736   4.213   9.466 -2.1887  1.3640  1.2717
 9096SOL    HW238748   1.673   4.168   9.346 -3.3405  1.2217  1.4373
 9097SOL     OW38749   0.660   2.468   3.200  0.4078 -0.3897 -0.4402
 9097SOL    HW138750   0.677   2.380   3.168  0.5153 -0.2789 -0.6935
 9097SOL    HW238751   0.747   2.509   3.208  0.5677 -0.5847 -1.1523
 9098SOL     OW38752   2.503   0.669   8.053 -0.1208  0.2567  0.2961
 9098SOL    HW138753   2.545   0.753   8.034 -0.1726  0.7313  2.3271
 9098SOL    HW238754   2.436   0.697   8.115 -0.1154  0.7403  0.0844
 9099SOL     OW38755   1.013   3.735   7.013  0.2040  0.3478 -0.4070
 9099SOL    HW138756   0.925   3.772   7.021 -0.1628  0.2797 -4.0753
 9099SOL    HW238757   1.070   3.809   7.036  1.3998 -0.9324  0.8110
 9100SOL     OW38758   4.082   0.581  14.211 -0.4067 -0.1014  0.2783
 9100SOL    HW138759   4.131   0.504  14.240  0.2234 -0.8507 -2.7623
 9100SOL    HW238760   4.099   0.576  14.117  2.8360 -0.7058  0.8861
 9101SOL     OW38761   0.439   2.988   7.329 -0.1625 -0.4242 -0.1381
 9101SOL    HW138762   0.369   3.024   7.383  0.2412 -0.9057  0.6981
 9101SOL    HW238763   0.399   2.991   7.242  0.3419  3.3312 -0.2341
 9102SOL     OW38764   0.428   1.893   7.897  0.3631  0.0250 -0.3946
 9102SOL    HW138765   0.341   1.879   7.936  1.6425  1.6187  3.0282
 9102SOL    HW238766   0.481   1.868   7.973  1.6478  0.1706 -1.2608
 9103SOL     OW38767   3.044   1.844  11.168 -0.0338 -0.1999 -0.1261
 9103SOL    HW138768   3.058   1.935  11.144  0.1134 -0.7328 -2.0509
 9103SOL    HW238769   3.014   1.858  11.258 -1.6741  0.0554 -0.7016
 9104SOL     OW38770   3.475   3.829   3.187  0.0936  0.1792  0.7008
 9104SOL    HW138771   3.446   3.915   3.157  0.5468 -0.4818 -1.5938
 9104SOL    HW238772   3.515   3.853   3.271  0.3474 -0.0832  0.6563
 9105SOL     OW38773   2.616   4.115   5.221  0.4304 -0.3354 -0.2404
 9105SOL    HW138774   2.643   4.090   5.132 -0.6746 -1.8738 -0.1340
 9105SOL    HW238775   2.521   4.125   5.213  0.6788  0.2037 -2.6341
 9106SOL     OW38776   3.948   4.025   2.252 -0.5629 -0.0713 -0.3399
 9106SOL    HW138777   4.037   4.059   2.260 -1.3966  1.7795  1.2406
 9106SOL    HW238778   3.916   4.041   2.341  0.7634  0.5766  0.0226
 9107SOL     OW38779   4.590   0.370   8.570  0.0470  0.4331 -0.7224
 9107SOL    HW138780   4.643   0.312   8.515  2.0304 -0.1056  1.7762
 9107SOL    HW238781   4.581   0.314   8.647  0.8955 -2.3161 -2.6334
 9108SOL     OW38782   2.283   4.542   6.333 -0.0576 -0.2002  0.2049
 9108SOL    HW138783   2.255   4.588   6.254  0.3403 -0.2087  0.0586
 9108SOL    HW238784   2.375   4.553   6.310  0.3817 -2.8912  0.6883
 9109SOL     OW38785   2.327   3.694  10.604 -0.1277  0.0176 -0.7664
 9109SOL    HW138786   2.349   3.785  10.583 -2.6358  0.5667 -0.9927
 9109SOL    HW238787   2.330   3.693  10.700  3.2054 -1.5193 -0.8727
 9110SOL     OW38788   4.511   1.512  12.638 -0.5439 -0.1678 -0.1205
 9110SOL    HW138789   4.453   1.467  12.699 -2.5643  0.4562 -1.5588
 9110SOL    HW238790   4.443   1.561  12.592  1.0294  1.3795 -0.8065
 9111SOL     OW38791   0.913   2.628   7.322 -0.2293  0.0221 -0.6071
 9111SOL    HW138792   0.868   2.708   7.351  2.3769  0.1927  2.9041
 9111SOL    HW238793   0.847   2.559   7.333 -2.1351  1.4040 -3.2791
 9112SOL     OW38794   0.008   3.125   7.264  0.0670  0.0268 -0.0801
 9112SOL    HW138795   4.651   3.089   7.308  0.0035 -0.7213 -0.7992
 9112SOL    HW238796   0.057   3.044   7.249 -0.6901 -0.1389 -1.6018
 9113SOL     OW38797   0.300   2.998   6.476 -0.3529  0.1722 -0.3284
 9113SOL    HW138798   0.376   2.956   6.517  1.1853  1.9283 -1.4461
 9113SOL    HW238799   0.324   3.011   6.385  0.9136  0.2966  0.0220
 9114SOL     OW38800   3.551   0.264   4.485 -0.1627 -0.0983 -0.3540
 9114SOL    HW138801   3.575   0.332   4.421  0.1796 -0.7558 -0.9323
 9114SOL    HW238802   3.540   0.190   4.425  0.4111  0.0673 -0.6605
 9115SOL     OW38803   3.895   2.865  15.329 -0.2192  0.2159  0.3635
 9115SOL    HW138804   3.959   2.866  15.400 -0.5788 -1.2535  0.7029
 9115SOL    HW238805   3.907   2.951  15.290  3.3159  0.1088  1.2220
 9116SOL     OW38806   1.306   2.810   5.073 -0.5663 -0.1061  0.7252
 9116SOL    HW138807   1.268   2.729   5.040 -1.3512  0.2139  0.8564
 9116SOL    HW238808   1.269   2.816   5.161 -0.4122 -1.2952  0.8813
 9117SOL     OW38809   3.505   2.776   4.969  0.1219  0.1179 -0.2605
 9117SOL    HW138810   3.435   2.748   5.028 -0.3561  1.1994 -0.3251
 9117SOL    HW238811   3.526   2.865   4.998 -0.2147  0.0852  0.0915
 9118SOL     OW38812   0.152   1.154   6.419  0.2369 -0.4033  0.7457
 9118SOL    HW138813   0.245   1.152   6.443  0.3150 -0.0032  0.4818
 9118SOL    HW238814   0.119   1.090   6.483 -2.5193 -0.7392 -1.0095
 9119SOL     OW38815   1.533   4.332   2.898  0.2040  0.0445 -0.2021
 9119SOL    HW138816   1.463   4.363   2.955  1.2126  0.9747  0.5148
 9119SOL    HW238817   1.535   4.243   2.935 -2.1910 -0.6631 -1.7858
 9120SOL     OW38818   0.156   4.203   5.918  0.6233 -0.1324  0.0157
 9120SOL    HW138819   0.077   4.151   5.926  1.1520 -1.3579 -2.6377
 9120SOL    HW238820   0.208   4.159   5.985  0.2642 -0.1056  0.3076
 9121SOL     OW38821   3.262   1.253   1.129  0.2355  0.2485  0.3791
 9121SOL    HW138822   3.271   1.169   1.173  1.3755  0.2047  0.0720
 9121SOL    HW238823   3.317   1.313   1.179  2.2276 -1.7772  0.6032
 9122SOL     OW38824   3.326   3.875  11.483  0.0189 -0.1827  0.3262
 9122SOL    HW138825   3.354   3.950  11.536 -0.6440 -0.0702  0.5160
 9122SOL    HW238826   3.263   3.836  11.543 -1.0830 -2.3781 -2.2542
 9123SOL     OW38827   1.221   3.152  17.229  0.3970  0.6115 -0.4426
 9123SOL    HW138828   1.276   3.222  17.264  0.3116 -0.0339  0.9933
 9123SOL    HW238829   1.223   3.084  17.296 -0.1062 -0.4967 -1.5404
 9124SOL     OW38830   0.339   2.600   2.494 -0.2525 -0.2713  0.2514
 9124SOL    HW138831   0.387   2.571   2.417 -0.9972 -1.7175  0.3250
 9124SOL    HW238832   0.370   2.691   2.493 -0.0929 -0.3515 -1.7345
 9125SOL     OW38833   2.318   0.343   9.257  0.3443 -0.0680 -0.7191
 9125SOL    HW138834   2.407   0.341   9.293 -0.8709 -1.1250  2.2157
 9125SOL    HW238835   2.309   0.436   9.278 -3.0839 -0.1907 -1.6122
 9126SOL     OW38836   2.471   0.731   4.439  0.3631 -0.1939  0.8231
 9126SOL    HW138837   2.545   0.778   4.400 -0.1588  0.1743  0.2744
 9126SOL    HW238838   2.491   0.726   4.533  0.2369 -2.6869  0.7166
 9127SOL     OW38839   1.559   0.589  10.358 -0.2896  0.0811 -0.0951
 9127SOL    HW138840   1.570   0.622  10.447 -1.5832  2.7299 -0.9271
 9127SOL    HW238841   1.536   0.498  10.379  0.4074 -0.3188 -1.0866
 9128SOL     OW38842   2.497   0.804   2.639  0.7748  0.1131 -0.6182
 9128SOL    HW138843   2.485   0.879   2.696  0.9523 -1.1144  1.0250
 9128SOL    HW238844   2.587   0.814   2.609  2.0295 -2.7482  2.2998
 9129SOL     OW38845   1.627   3.760   7.499  0.8552  0.4760 -0.2421
 9129SOL    HW138846   1.709   3.775   7.453  0.4282  0.9428 -0.8448
 9129SOL    HW238847   1.610   3.850   7.526  0.1138  0.4220 -0.5141
 9130SOL     OW38848   0.717   0.987   8.295  0.1874  0.2366  0.1618
 9130SOL    HW138849   0.749   0.972   8.384  1.2063 -0.7961 -0.3701
 9130SOL    HW238850   0.638   1.040   8.301 -1.2332 -1.6558 -1.9732
 9131SOL     OW38851   3.976   2.641   5.798  0.9540 -0.5558 -0.1563
 9131SOL    HW138852   3.946   2.590   5.872  1.9660  0.4227  0.9322
 9131SOL    HW238853   4.068   2.613   5.792  1.1656 -0.1637  1.2773
 9132SOL     OW38854   0.369   2.447   5.826 -0.3337 -0.1284  0.4438
 9132SOL    HW138855   0.402   2.494   5.750 -0.3266 -0.0968  0.4666
 9132SOL    HW238856   0.291   2.408   5.786  1.0111 -0.2674 -2.0283
 9133SOL     OW38857   2.585   4.407   8.415  0.0139  0.4798  0.0447
 9133SOL    HW138858   2.661   4.404   8.358 -0.7043 -1.1169 -0.8191
 9133SOL    HW238859   2.532   4.334   8.385  1.1006 -0.7926  1.2407
 9134SOL     OW38860   3.467   4.506  11.712 -0.1991  0.1990  0.1229
 9134SOL    HW138861   3.537   4.571  11.706 -0.2275  0.1332 -0.9018
 9134SOL    HW238862   3.409   4.538  11.782 -1.4440 -1.3034 -0.2166
 9135SOL     OW38863   4.697   0.477   8.897 -0.4312 -0.8035 -0.1011
 9135SOL    HW138864   4.648   0.397   8.879 -0.3597 -1.0730  0.9015
 9135SOL    HW238865   4.622   0.532   8.920  0.3175  0.4525 -0.6372
 9136SOL     OW38866   0.364   0.615   5.721 -0.6994  0.0744 -0.3773
 9136SOL    HW138867   0.325   0.612   5.808 -3.2602 -0.9921 -1.5686
 9136SOL    HW238868   0.439   0.556   5.731  0.6270  1.8132  0.0235
 9137SOL     OW38869   4.321   1.864   8.733  0.3339  0.4651 -0.2008
 9137SOL    HW138870   4.404   1.837   8.693 -1.4472 -0.0211 -3.5420
 9137SOL    HW238871   4.273   1.784   8.754 -0.2729  0.1979 -2.5898
 9138SOL     OW38872   2.498   1.256  15.247 -0.3238  0.0532  0.3102
 9138SOL    HW138873   2.407   1.243  15.223  0.0456  1.1195 -1.6749
 9138SOL    HW238874   2.546   1.259  15.164  0.6611 -1.2324  0.8175
 9139SOL     OW38875   0.825   1.512   5.730  0.3069  0.7917  0.2114
 9139SOL    HW138876   0.735   1.478   5.732  0.9100 -0.7839  0.7584
 9139SOL    HW238877   0.874   1.460   5.793  0.3702 -0.1555 -0.6116
 9140SOL     OW38878   0.423   1.612   8.911  0.6262  0.4867 -0.7518
 9140SOL    HW138879   0.510   1.649   8.927  1.0843 -0.8784  0.0108
 9140SOL    HW238880   0.375   1.689   8.881 -1.0160 -0.7947 -1.3913
 9141SOL     OW38881   4.203   4.051   8.746 -0.3240 -0.5441  0.2996
 9141SOL    HW138882   4.219   4.131   8.795  2.1225 -0.2692 -0.9291
 9141SOL    HW238883   4.140   4.000   8.797 -1.4039  0.0635 -0.4331
 9142SOL     OW38884   4.358   0.518   7.537 -0.5127 -0.6641  0.1548
 9142SOL    HW138885   4.385   0.562   7.618  1.8498  1.3933 -1.7368
 9142SOL    HW238886   4.444   0.506   7.496 -0.3377  0.6194  0.1413
 9143SOL     OW38887   3.325   4.499   4.021  0.2195 -0.1257  0.1349
 9143SOL    HW138888   3.379   4.573   3.992  1.1851 -0.2420  1.6393
 9143SOL    HW238889   3.301   4.467   3.934 -0.2637  0.1247  0.1768
 9144SOL     OW38890   1.552   3.004   8.103 -0.0909  0.1792  0.3748
 9144SOL    HW138891   1.587   2.966   8.183  1.1081  0.8864  0.1945
 9144SOL    HW238892   1.634   3.011   8.052 -1.0966 -3.9954 -1.7719
 9145SOL     OW38893   1.130   0.245   3.698 -0.2784  0.7893  0.3535
 9145SOL    HW138894   1.077   0.218   3.774 -3.3156 -0.4315 -2.2163
 9145SOL    HW238895   1.063   0.268   3.634  0.5343 -2.3755 -1.6307
 9146SOL     OW38896   1.349   2.225   3.009 -0.1732  0.3582  0.4253
 9146SOL    HW138897   1.288   2.239   2.936 -0.3611 -2.1666  0.0982
 9146SOL    HW238898   1.337   2.131   3.019 -1.6610  0.3946 -1.0463
 9147SOL     OW38899   3.217   3.266   4.720  0.4984  0.2252  0.3887
 9147SOL    HW138900   3.174   3.185   4.693  0.3492  0.3537  0.2362
 9147SOL    HW238901   3.240   3.267   4.813 -0.7344  0.0436  0.6935
 9148SOL     OW38902   2.349   3.926   9.474 -0.0499  0.1638 -0.1025
 9148SOL    HW138903   2.346   3.935   9.569  2.3715  1.5700 -0.1412
 9148SOL    HW238904   2.260   3.896   9.458  0.6958 -1.8859 -0.3762
 9149SOL     OW38905   3.625   3.141   8.882 -0.5684  0.2369 -0.3320
 9149SOL    HW138906   3.708   3.104   8.852 -0.1797  1.7466 -1.1519
 9149SOL    HW238907   3.572   3.146   8.802  0.1492 -0.2214 -0.8339
 9150SOL     OW38908   4.636   0.741   3.544 -0.2371  0.0642  0.3432
 9150SOL    HW138909   4.547   0.763   3.516 -1.9955 -2.5963  3.8207
 9150SOL    HW238910   4.624   0.707   3.633 -1.0280 -2.2468 -0.6550
 9151SOL     OW38911   1.044   3.723  12.509 -0.3829  0.0048  0.0839
 9151SOL    HW138912   0.986   3.647  12.500  1.2672 -1.2414 -0.0773
 9151SOL    HW238913   1.122   3.681  12.544 -1.0534 -1.4258 -0.1420
 9152SOL     OW38914   1.103   3.325   3.154  0.7319  0.0409  0.3359
 9152SOL    HW138915   1.081   3.232   3.155  0.9651 -0.0161  0.1131
 9152SOL    HW238916   1.016   3.348   3.119  0.6959  0.8734  0.9806
 9153SOL     OW38917   1.943   3.580   5.920 -0.0001 -0.1036  0.9249
 9153SOL    HW138918   1.985   3.552   6.002  0.8232  0.7936  0.8033
 9153SOL    HW238919   1.985   3.517   5.862 -0.5180 -0.3405  0.8047
 9154SOL     OW38920   1.776   1.348   8.325 -0.1867  0.1671  0.7464
 9154SOL    HW138921   1.856   1.394   8.300 -0.6931  1.4548  1.4979
 9154SOL    HW238922   1.739   1.338   8.238  0.4938 -0.1794  0.4960
 9155SOL     OW38923   2.190   1.831  11.771  0.2956 -0.3249  0.2079
 9155SOL    HW138924   2.108   1.781  11.762  0.4337 -0.6374  0.6546
 9155SOL    HW238925   2.261   1.767  11.780 -0.5150 -1.1849  0.5539
 9156SOL     OW38926   2.854   0.798  11.847 -0.1081 -0.1318  0.1858
 9156SOL    HW138927   2.865   0.703  11.845 -1.1022 -0.2997  1.9956
 9156SOL    HW238928   2.929   0.822  11.901  1.0861  1.5220 -2.2290
 9157SOL     OW38929   4.140   2.980   3.093 -0.6695 -0.4052 -0.6344
 9157SOL    HW138930   4.117   3.060   3.045  0.6669  0.6391  0.4774
 9157SOL    HW238931   4.222   2.962   3.047 -1.5404 -0.0363 -2.3232
 9158SOL     OW38932   1.981   2.012   3.107 -0.3561 -0.2448  0.2578
 9158SOL    HW138933   2.038   1.941   3.078 -1.1805 -1.1582  0.8647
 9158SOL    HW238934   1.902   1.994   3.056  0.3975 -0.3357 -0.8724
 9159SOL     OW38935   2.116   1.710   9.309  0.0664 -0.6798 -0.0749
 9159SOL    HW138936   2.207   1.741   9.308 -0.3658  0.6050  0.4035
 9159SOL    HW238937   2.090   1.758   9.388 -1.3119 -2.3389  0.4619
 9160SOL     OW38938   3.377   4.236  16.147 -0.3681  0.3353 -0.7125
 9160SOL    HW138939   3.426   4.303  16.099  1.3729 -0.6117 -0.2543
 9160SOL    HW238940   3.288   4.270  16.138  0.5501  2.7360 -0.6626
 9161SOL     OW38941   1.339   2.112   8.283  0.1560  0.3041  0.0901
 9161SOL    HW138942   1.425   2.131   8.246 -1.0238  1.2173 -2.1697
 9161SOL    HW238943   1.346   2.149   8.371 -2.9427  2.0942 -0.4507
 9162SOL     OW38944   4.333   3.378  15.222  0.1859  0.1640  0.4353
 9162SOL    HW138945   4.370   3.393  15.310 -0.3224 -0.6268  0.7774
 9162SOL    HW238946   4.275   3.304  15.240 -1.8329  1.4184 -0.9797
 9163SOL     OW38947   2.854   0.012   4.242  0.4816 -0.3513 -0.3944
 9163SOL    HW138948   2.804   4.705   4.166 -1.7174 -1.0425  1.3122
 9163SOL    HW238949   2.942   0.026   4.206  1.4544 -1.1708  1.6267
 9164SOL     OW38950   4.296   3.525   6.835 -0.9375 -1.0061  0.6322
 9164SOL    HW138951   4.256   3.467   6.900 -1.7399 -0.5085  0.5800
 9164SOL    HW238952   4.384   3.542   6.867 -1.1473  1.7478 -0.2231
 9165SOL     OW38953   2.341   4.475   0.731  0.5046  0.5674  0.2784
 9165SOL    HW138954   2.359   4.561   0.768  1.6726  0.8924 -1.0175
 9165SOL    HW238955   2.339   4.499   0.638 -1.1255  2.6171  0.8534
 9166SOL     OW38956   2.957   1.183   4.207 -0.0764 -0.2477  0.0819
 9166SOL    HW138957   2.941   1.090   4.223 -0.5787  0.0853  1.6096
 9166SOL    HW238958   3.048   1.189   4.236 -0.3141 -0.6933  0.9432
 9167SOL     OW38959   4.181   3.512   4.980 -0.7087 -0.4482 -0.6836
 9167SOL    HW138960   4.236   3.494   4.904 -0.9580 -0.3195 -0.8930
 9167SOL    HW238961   4.122   3.574   4.937  1.3498  1.3800 -0.8762
 9168SOL     OW38962   3.089   4.143   6.887 -0.2836  0.4715  0.0173
 9168SOL    HW138963   3.087   4.230   6.846 -2.8262  0.2891 -0.2191
 9168SOL    HW238964   3.122   4.106   6.805  2.6184  2.2402  0.3716
 9169SOL     OW38965   4.194   2.847  11.674 -0.5150  0.0786 -0.4351
 9169SOL    HW138966   4.271   2.900  11.653 -0.2690 -0.1783 -0.1795
 9169SOL    HW238967   4.125   2.913  11.686 -0.3767 -0.3951  3.0391
 9170SOL     OW38968   4.524   0.069  17.653 -0.6885 -0.1154  0.8021
 9170SOL    HW138969   4.590   0.017  17.605 -1.5770  1.9050 -2.6096
 9170SOL    HW238970   4.454   0.067  17.588  0.4995  1.6216 -0.5362
 9171SOL     OW38971   3.249   0.718  13.179  0.0919  0.2128 -0.5497
 9171SOL    HW138972   3.274   0.626  13.184 -0.2084  0.1475 -0.2752
 9171SOL    HW238973   3.187   0.735  13.249 -0.1094 -0.5563 -0.5470
 9172SOL     OW38974   0.357   0.038   8.342  0.0665  0.4319  0.2719
 9172SOL    HW138975   0.364   4.663   8.332  1.1695  0.8352 -2.9577
 9172SOL    HW238976   0.445   0.048   8.376  0.4994  0.2052 -0.7823
 9173SOL     OW38977   2.935   0.823  14.823 -0.1777 -0.2571 -0.5885
 9173SOL    HW138978   2.931   0.875  14.904  0.9220 -3.0469  1.2777
 9173SOL    HW238979   3.026   0.795  14.819 -0.4899 -1.2416 -0.8214
 9174SOL     OW38980   1.607   0.264   7.642  0.1541 -0.0754 -0.4821
 9174SOL    HW138981   1.672   0.237   7.576  1.7129  1.3592  0.4536
 9174SOL    HW238982   1.552   0.318   7.585 -0.4789 -1.3149 -1.0558
 9175SOL     OW38983   3.009   1.605  12.283 -0.0340 -0.2147 -0.7347
 9175SOL    HW138984   3.061   1.649  12.350  1.2062 -2.8046 -0.0255
 9175SOL    HW238985   2.920   1.642  12.283  0.1011  0.1322  1.9049
 9176SOL     OW38986   1.982   2.431   6.646  0.1715 -0.2235  0.3385
 9176SOL    HW138987   1.908   2.432   6.586 -0.9856 -0.9093  1.7548
 9176SOL    HW238988   2.028   2.356   6.609 -0.9855 -0.9038  0.2651
 9177SOL     OW38989   3.859   4.618  15.874 -1.0425  0.3038 -0.1685
 9177SOL    HW138990   3.912   4.550  15.915 -1.6500  0.4753  0.8874
 9177SOL    HW238991   3.882   4.696  15.924  1.7173 -0.5269 -0.1748
 9178SOL     OW38992   2.492   0.572   8.726  0.2229  0.7549  0.0341
 9178SOL    HW138993   2.420   0.574   8.663  0.6112 -0.8727 -0.4805
 9178SOL    HW238994   2.539   0.651   8.701  2.5904 -0.4285  0.7155
 9179SOL     OW38995   0.058   0.700   0.924 -0.1591 -0.2494 -0.0056
 9179SOL    HW138996   0.019   0.639   0.985 -0.7298 -0.2169 -0.3416
 9179SOL    HW238997   0.124   0.736   0.983  0.1741 -1.8891  0.6274
 9180SOL     OW38998   3.627   0.123   4.701 -0.3847  0.0217  0.4690
 9180SOL    HW138999   3.541   0.125   4.744 -0.4346 -0.5107  0.3913
 9180SOL    HW239000   3.606   0.174   4.623 -0.7657 -0.0307  0.5334
 9181SOL     OW39001   3.122   1.277   2.371  0.4885 -0.4321  0.0187
 9181SOL    HW139002   3.213   1.263   2.398  0.8013  0.8750 -0.3341
 9181SOL    HW239003   3.128   1.280   2.276  0.3416 -1.0175 -0.0085
 9182SOL     OW39004   2.166   3.286   9.224 -0.0786  0.4263  0.7746
 9182SOL    HW139005   2.183   3.300   9.317 -0.2280  0.3176  0.8184
 9182SOL    HW239006   2.241   3.234   9.194 -0.0910  0.9084 -0.0773
 9183SOL     OW39007   4.109   2.438   7.494 -0.2853 -0.4580 -0.2616
 9183SOL    HW139008   4.183   2.467   7.440 -1.1294  1.1661 -0.5581
 9183SOL    HW239009   4.063   2.522   7.494  0.6911  0.0900  1.6635
 9184SOL     OW39010   1.096   2.238  13.253  0.1190 -0.1440 -0.0073
 9184SOL    HW139011   1.114   2.313  13.309 -1.4214 -0.4181  0.8728
 9184SOL    HW239012   1.004   2.253  13.229  0.0497  0.7210  0.8325
 9185SOL     OW39013   1.346   2.953   2.736 -0.6937  0.0974 -0.0137
 9185SOL    HW139014   1.338   2.933   2.643 -0.3234 -0.5142  0.0876
 9185SOL    HW239015   1.397   2.878   2.766 -1.7325 -1.4767 -2.2022
 9186SOL     OW39016   0.957   1.981   9.073  0.1965  0.2035  0.0478
 9186SOL    HW139017   0.912   1.996   9.155  0.2868  1.1472 -0.0746
 9186SOL    HW239018   1.013   2.059   9.070  1.1957 -0.5693 -1.7406
 9187SOL     OW39019   2.228   2.249   5.807  0.0466  0.3296 -0.3402
 9187SOL    HW139020   2.174   2.317   5.767  2.1365  1.8888 -0.4882
 9187SOL    HW239021   2.172   2.225   5.882  0.5932  2.6006  0.7816
 9188SOL     OW39022   1.883   0.013  15.923  0.1288 -0.1323 -0.6914
 9188SOL    HW139023   1.879   0.086  15.984 -0.8124 -0.9372  0.2111
 9188SOL    HW239024   1.978   0.002  15.923 -0.0370 -1.5294 -1.0725
 9189SOL     OW39025   2.771   2.067  13.315  0.3720  0.2031 -0.3528
 9189SOL    HW139026   2.740   2.155  13.336  1.2103  0.9740 -2.3837
 9189SOL    HW239027   2.793   2.080  13.223 -1.9395 -0.8281 -1.0507
 9190SOL     OW39028   0.498   1.500   3.933 -0.3184 -0.6682  0.1003
 9190SOL    HW139029   0.433   1.568   3.949  1.7394  1.3135  0.0362
 9190SOL    HW239030   0.462   1.413   3.949 -0.8697 -1.0904 -3.3810
 9191SOL     OW39031   4.085   2.672   2.339 -0.2657 -0.0635 -0.3193
 9191SOL    HW139032   3.994   2.652   2.320  0.1963 -2.0436 -0.3990
 9191SOL    HW239033   4.117   2.700   2.253  1.8438 -0.1208  0.4310
 9192SOL     OW39034   0.933   2.037  10.071 -0.6799  0.2222  0.0821
 9192SOL    HW139035   0.912   1.974  10.002  0.9663  1.3838 -1.5071
 9192SOL    HW239036   0.874   2.103  10.035 -2.4518 -0.3398  2.0147
 9193SOL     OW39037   1.340   0.146  11.742  0.1156 -0.4168  0.3346
 9193SOL    HW139038   1.407   0.140  11.674  0.0981  1.0749  0.1743
 9193SOL    HW239039   1.275   0.082  11.714 -0.8715  1.0559 -0.7164
 9194SOL     OW39040   1.314   1.789   8.342  0.5287  0.0204 -0.0596
 9194SOL    HW139041   1.400   1.820   8.313  0.5644 -0.0894 -0.0679
 9194SOL    HW239042   1.313   1.698   8.314 -0.6549  1.0434 -3.3798
 9195SOL     OW39043   1.088   2.230   9.049 -0.2371 -0.6528  0.0470
 9195SOL    HW139044   1.113   2.284   9.123 -0.6534  1.3696 -1.2962
 9195SOL    HW239045   1.149   2.251   8.978 -1.0536 -0.0476 -0.4664
 9196SOL     OW39046   1.200   3.106   3.603 -0.1570 -0.1808 -0.3815
 9196SOL    HW139047   1.197   3.157   3.684  1.4959 -0.7751  0.0425
 9196SOL    HW239048   1.275   3.146   3.559 -0.1244 -0.8258 -0.9145
 9197SOL     OW39049   1.268   3.679   7.737 -0.5015  0.3131  0.0895
 9197SOL    HW139050   1.191   3.659   7.790  1.3451 -0.5164  2.4409
 9197SOL    HW239051   1.301   3.590   7.725  0.6118  0.6430  0.8127
 9198SOL     OW39052   0.165   3.215  15.540  0.1566  0.1440  0.3707
 9198SOL    HW139053   0.147   3.248  15.628  1.0633 -0.6422  0.8395
 9198SOL    HW239054   0.200   3.292  15.496  0.7621 -0.6463 -0.5122
 9199SOL     OW39055   3.939   0.849   0.727 -0.0628  0.5935 -0.1168
 9199SOL    HW139056   3.890   0.904   0.788  1.3926 -1.1697  2.6663
 9199SOL    HW239057   4.025   0.861   0.767 -0.7153  1.0287  1.1624
 9200SOL     OW39058   2.516   0.912  11.015  0.4096  0.2504 -0.3570
 9200SOL    HW139059   2.584   0.884  11.077  1.7191 -0.7949 -2.2608
 9200SOL    HW239060   2.565   0.928  10.934  0.0264  0.3432 -0.5681
 9201SOL     OW39061   2.812   2.495   6.390  0.5377 -0.1005  0.1863
 9201SOL    HW139062   2.818   2.564   6.324  0.8893  1.8809  2.2898
 9201SOL    HW239063   2.890   2.507   6.444  0.7618  0.5505 -0.2770
 9202SOL     OW39064   2.763   3.603  14.493 -0.5383 -0.5450 -0.2389
 9202SOL    HW139065   2.839   3.617  14.550 -1.1366  0.1418  0.3979
 9202SOL    HW239066   2.713   3.536  14.541 -0.1727 -1.8822 -1.7131
 9203SOL     OW39067   0.747   2.696   5.278  0.0500 -0.0371  0.0584
 9203SOL    HW139068   0.728   2.669   5.368  1.1075 -3.7691 -0.8140
 9203SOL    HW239069   0.776   2.786   5.292 -3.2654  1.2517 -1.3430
 9204SOL     OW39070   0.098   3.344  13.164  0.0303  0.3445  0.0281
 9204SOL    HW139071   0.146   3.367  13.244  1.7445  1.6730 -1.4056
 9204SOL    HW239072   0.076   3.434  13.138  1.0697  0.2701 -1.0702
 9205SOL     OW39073   4.249   0.448   1.678  0.6164  0.1845  0.3005
 9205SOL    HW139074   4.226   0.361   1.643 -1.1806  1.3501 -1.4283
 9205SOL    HW239075   4.207   0.508   1.617  1.0184 -0.2381 -0.3899
 9206SOL     OW39076   3.142   0.972   3.468 -0.1283 -0.4590 -0.4829
 9206SOL    HW139077   3.165   0.924   3.547  3.7207 -0.6578 -1.7104
 9206SOL    HW239078   3.049   0.984   3.488 -0.4494  0.8041 -2.6947
 9207SOL     OW39079   3.205   4.527   2.219 -0.0630 -0.3204  0.1079
 9207SOL    HW139080   3.167   4.488   2.140  0.2603 -2.4730  1.0174
 9207SOL    HW239081   3.283   4.473   2.235  0.7067  0.6128 -0.4903
 9208SOL     OW39082   0.532   0.781   7.882 -0.1950  0.4304  0.3429
 9208SOL    HW139083   0.540   0.787   7.978 -0.5483  0.5041  0.3677
 9208SOL    HW239084   0.583   0.700   7.872 -0.0182  0.5754  0.0836
 9209SOL     OW39085   0.911   2.093   3.316  0.1018  0.1049  0.4782
 9209SOL    HW139086   0.957   2.009   3.308  0.3299  0.1938  0.9188
 9209SOL    HW239087   0.982   2.154   3.301 -0.0235  0.3004  0.6848
 9210SOL     OW39088   2.269   3.064   8.006 -0.9429 -0.5458  0.8846
 9210SOL    HW139089   2.253   3.114   7.926 -0.3675 -2.0143 -0.1463
 9210SOL    HW239090   2.282   2.976   7.972 -3.3921 -0.2979 -0.6515
 9211SOL     OW39091   0.811   1.536   8.567 -0.3361  0.0225 -0.6039
 9211SOL    HW139092   0.902   1.516   8.591 -1.7820 -1.6431  3.4231
 9211SOL    HW239093   0.799   1.621   8.608 -3.1655 -0.5253 -0.3382
 9212SOL     OW39094   2.843   3.539   5.914  0.3209 -0.4104 -0.9576
 9212SOL    HW139095   2.852   3.569   6.005  2.9283 -0.5348 -1.1869
 9212SOL    HW239096   2.893   3.605   5.865 -0.9523  0.3711 -1.2208
 9213SOL     OW39097   4.013   1.124   6.869  0.1924  0.7197 -0.2005
 9213SOL    HW139098   4.078   1.107   6.936 -0.5137 -0.4831  0.1752
 9213SOL    HW239099   4.068   1.117   6.791 -0.2847  2.1723 -0.6691
 9214SOL     OW39100   0.312   3.355   8.857 -0.1144  0.0450  0.2794
 9214SOL    HW139101   0.268   3.419   8.801 -0.8415 -1.0706 -0.4150
 9214SOL    HW239102   0.401   3.369   8.824  0.4512  0.2666  1.8614
 9215SOL     OW39103   3.760   3.421   4.831 -0.0809  0.3959  0.9197
 9215SOL    HW139104   3.841   3.425   4.882 -0.7037  1.0245  1.8484
 9215SOL    HW239105   3.731   3.330   4.841  1.5577 -0.2829 -0.4405
 9216SOL     OW39106   2.952   4.651   9.857  0.3793  0.2542  0.1778
 9216SOL    HW139107   3.016   4.616   9.920 -1.0315 -2.9598 -0.1689
 9216SOL    HW239108   2.932   0.017   9.893 -0.8591 -0.2054  0.5877
 9217SOL     OW39109   2.188   4.484  10.193  0.2052  0.3484 -0.0323
 9217SOL    HW139110   2.132   4.519  10.124 -0.9807 -0.1983  0.6562
 9217SOL    HW239111   2.158   4.393  10.195  0.9336  0.0715 -1.8316
 9218SOL     OW39112   4.527   1.990   6.686  0.1484  0.2404  0.1334
 9218SOL    HW139113   4.549   1.930   6.615 -0.4932  0.7503 -0.4874
 9218SOL    HW239114   4.610   2.036   6.703 -0.6123  1.0205  1.7786
 9219SOL     OW39115   4.016   1.665   7.432 -0.4116 -0.1320  0.2943
 9219SOL    HW139116   4.020   1.651   7.527 -0.4501  1.0726  0.4707
 9219SOL    HW239117   3.921   1.653   7.427 -0.2699 -0.8000 -0.6924
 9220SOL     OW39118   3.833   0.259   4.139 -0.3165  0.2474  0.4528
 9220SOL    HW139119   3.917   0.222   4.167 -0.6224 -1.7396 -1.3005
 9220SOL    HW239120   3.865   0.315   4.068  0.4343 -0.0334  0.5635
 9221SOL     OW39121   2.844   4.366   9.246 -0.0041  0.0766  0.1995
 9221SOL    HW139122   2.762   4.371   9.295  1.1718 -1.3179  2.3043
 9221SOL    HW239123   2.818   4.422   9.172  0.1937 -0.5113 -0.3166
 9222SOL     OW39124   3.212   1.211   6.671  0.5572 -0.0888  0.3737
 9222SOL    HW139125   3.126   1.232   6.708  1.2929  0.5546  1.7450
 9222SOL    HW239126   3.266   1.290   6.671  2.7213 -1.5972 -0.3561
 9223SOL     OW39127   1.622   4.143   2.015 -0.4228 -0.1189 -0.8568
 9223SOL    HW139128   1.585   4.158   1.927 -0.3430 -1.7838 -1.1788
 9223SOL    HW239129   1.559   4.199   2.061 -0.1878 -3.3412  3.4010
 9224SOL     OW39130   3.844   3.768   6.725  0.1859 -0.1780 -0.4856
 9224SOL    HW139131   3.875   3.852   6.692  1.7722  0.2901  2.1385
 9224SOL    HW239132   3.918   3.737   6.777 -0.5698  1.8271  1.8220
 9225SOL     OW39133   0.793   3.845   4.601 -0.1732 -0.2287 -0.4333
 9225SOL    HW139134   0.854   3.900   4.551 -0.7280  0.0967 -0.7552
 9225SOL    HW239135   0.794   3.896   4.682  0.1231 -0.9291  0.0027
 9226SOL     OW39136   2.473   1.150  11.149 -0.5085  0.0728  0.0189
 9226SOL    HW139137   2.468   1.203  11.069  1.6897 -0.5963 -0.5651
 9226SOL    HW239138   2.439   1.071  11.108  1.2307 -0.5216 -0.2671
 9227SOL     OW39139   0.257   3.908   1.850 -0.5136 -0.5543 -0.0672
 9227SOL    HW139140   0.295   3.820   1.851  0.0780 -0.2791  1.2983
 9227SOL    HW239141   0.278   3.944   1.763  0.6475 -2.8440 -0.7417
 9228SOL     OW39142   0.434   2.772   2.839  0.1218  0.3831  0.4163
 9228SOL    HW139143   0.401   2.844   2.786  0.3822 -0.2403 -0.5953
 9228SOL    HW239144   0.504   2.818   2.884 -0.1356  2.0807 -0.9181
 9229SOL     OW39145   1.635   1.098  14.109 -0.4801 -0.0641 -0.0933
 9229SOL    HW139146   1.665   1.134  14.193 -1.3017  0.0276  0.1688
 9229SOL    HW239147   1.662   1.010  14.133  1.9902  0.8892  0.5711
 9230SOL     OW39148   0.035   3.411  14.810  0.0004 -0.6047 -0.1740
 9230SOL    HW139149   0.115   3.420  14.862  1.2368  0.5897 -2.2882
 9230SOL    HW239150   4.711   3.488  14.844  0.8456 -0.2938  0.2186
 9231SOL     OW39151   1.623   2.624   3.002 -0.4154  0.1109 -0.1809
 9231SOL    HW139152   1.698   2.676   3.029  0.7660 -1.1722 -0.9715
 9231SOL    HW239153   1.672   2.545   2.978  1.4126  1.3781 -0.6476
 9232SOL     OW39154   3.651   4.251   7.444  0.2949  0.1839 -0.3360
 9232SOL    HW139155   3.633   4.200   7.523  0.2269 -0.6770 -0.9106
 9232SOL    HW239156   3.703   4.185   7.398  2.4866  1.4220  0.4024
 9233SOL     OW39157   2.268   4.106   4.032 -0.2645 -0.3919 -0.0010
 9233SOL    HW139158   2.195   4.132   4.088 -0.2755  2.5213 -1.4175
 9233SOL    HW239159   2.239   4.086   3.943  0.0056  2.7683 -0.7901
 9234SOL     OW39160   0.285   3.032   5.684 -0.1812  0.2701  0.1081
 9234SOL    HW139161   0.370   3.061   5.651  0.4965  0.0785  1.6745
 9234SOL    HW239162   0.220   3.088   5.641  0.1358 -0.3418 -1.1708
 9235SOL     OW39163   1.907   1.753   9.155  0.0980  0.3435  0.1336
 9235SOL    HW139164   1.984   1.721   9.200  0.7622  2.8477  0.7925
 9235SOL    HW239165   1.904   1.848   9.166  1.1186  0.0782  2.6314
 9236SOL     OW39166   3.209   0.757   8.029 -0.5219 -0.1469 -0.1009
 9236SOL    HW139167   3.291   0.787   7.989 -1.0256 -0.0384 -1.0673
 9236SOL    HW239168   3.184   0.698   7.958 -1.2097 -1.0927  0.9246
 9237SOL     OW39169   2.928   3.952   7.590  0.4186  0.9476 -0.1136
 9237SOL    HW139170   3.022   3.967   7.583  0.3918  1.0882 -0.1991
 9237SOL    HW239171   2.936   3.886   7.658  0.9832  0.3467 -0.7672
 9238SOL     OW39172   1.170   2.563  12.607 -0.2126 -0.0429 -0.0537
 9238SOL    HW139173   1.210   2.618  12.674 -2.5573  0.5998  0.8308
 9238SOL    HW239174   1.150   2.484  12.658 -2.1322 -0.0515 -0.8055
 9239SOL     OW39175   0.317   4.055   7.005  0.3649 -0.4529  0.0453
 9239SOL    HW139176   0.404   4.036   6.969  0.8913 -0.0903  1.1215
 9239SOL    HW239177   0.300   4.147   6.984  0.5220 -0.6095 -0.7796
 9240SOL     OW39178   3.931   3.742   9.247 -0.6612  0.3658  0.3381
 9240SOL    HW139179   3.999   3.799   9.285 -0.9625  2.4548 -2.2639
 9240SOL    HW239180   3.855   3.754   9.303 -0.1820 -0.9677  1.2623
 9241SOL     OW39181   4.609   3.412   6.174 -0.0073  0.2149 -0.4762
 9241SOL    HW139182   4.700   3.396   6.199 -0.4331  0.7063  1.3560
 9241SOL    HW239183   4.569   3.337   6.217  0.3706  2.3549  3.6740
 9242SOL     OW39184   1.699   0.605   1.897 -0.4759 -0.1659 -0.2821
 9242SOL    HW139185   1.717   0.514   1.921  0.4884 -0.3921 -1.8496
 9242SOL    HW239186   1.776   0.647   1.935 -0.5978 -1.4186  1.3364
 9243SOL     OW39187   0.359   1.719   3.787 -0.0494 -0.0260  0.0987
 9243SOL    HW139188   0.449   1.685   3.784 -0.5937 -1.1837 -3.0366
 9243SOL    HW239189   0.368   1.814   3.800  1.6316 -0.2463  0.6359
 9244SOL     OW39190   3.608   4.003   5.348 -0.2935 -0.7042 -0.4933
 9244SOL    HW139191   3.622   3.915   5.383  1.0864  0.1553  1.1310
 9244SOL    HW239192   3.542   3.991   5.280 -0.6977  0.5803 -0.3151
 9245SOL     OW39193   0.597   0.729  14.483 -0.1481 -0.1083  0.2279
 9245SOL    HW139194   0.559   0.642  14.475 -0.2983  0.0115 -0.3966
 9245SOL    HW239195   0.527   0.787  14.453 -0.4211 -0.6127 -0.1058
 9246SOL     OW39196   0.690   1.172   2.275  0.0909  0.4312  0.5454
 9246SOL    HW139197   0.719   1.174   2.366  1.9470 -1.7792 -0.0036
 9246SOL    HW239198   0.740   1.247   2.243 -0.6234  1.5785  2.1163
 9247SOL     OW39199   0.422   1.237   3.916  0.1589 -0.5567 -0.3656
 9247SOL    HW139200   0.351   1.180   3.946  0.3637 -0.2768  0.6612
 9247SOL    HW239201   0.390   1.248   3.827 -0.8904  0.7055  0.1600
 9248SOL     OW39202   1.234   2.561   3.093 -0.3007  0.3849  0.6797
 9248SOL    HW139203   1.166   2.495   3.105 -0.9585  0.9022 -0.1698
 9248SOL    HW239204   1.237   2.570   2.998  2.3610  0.9223  0.8180
 9249SOL     OW39205   3.728   1.306  14.551  0.2131 -0.1375 -0.4241
 9249SOL    HW139206   3.811   1.259  14.541  0.9259  0.2826  3.5134
 9249SOL    HW239207   3.769   1.392  14.538 -1.2288  0.3133 -2.1382
 9250SOL     OW39208   0.944   1.548   4.645  0.5541 -0.3423 -0.0496
 9250SOL    HW139209   0.849   1.549   4.636  0.6009  0.8231 -0.4844
 9250SOL    HW239210   0.963   1.576   4.555  1.5168 -0.2462  0.1756
 9251SOL     OW39211   0.306   3.736   3.197 -0.8156  0.2801 -0.5094
 9251SOL    HW139212   0.255   3.668   3.243 -0.2532  0.3977  0.2899
 9251SOL    HW239213   0.356   3.766   3.273 -1.4706 -0.9333  0.4109
 9252SOL     OW39214   2.616   3.679   0.825 -0.2156 -0.3013  0.1395
 9252SOL    HW139215   2.550   3.747   0.841 -1.1620 -0.6820 -2.0474
 9252SOL    HW239216   2.563   3.601   0.809  1.3271 -1.0666 -1.1881
 9253SOL     OW39217   4.223   0.530   4.734  0.4248 -0.8840 -0.2134
 9253SOL    HW139218   4.268   0.493   4.810  1.1812 -0.3881 -0.4107
 9253SOL    HW239219   4.139   0.490   4.753  0.5894 -0.8546  0.5534
 9254SOL     OW39220   2.322   4.283  12.257  0.0656 -0.0624 -0.2192
 9254SOL    HW139221   2.319   4.285  12.162 -0.4518  1.1353 -0.1804
 9254SOL    HW239222   2.326   4.375  12.283  1.2501  0.2780 -1.6229
 9255SOL     OW39223   0.993   3.322  16.822  0.2589  0.2216  0.3491
 9255SOL    HW139224   0.998   3.320  16.918 -0.7160 -0.5964  0.3870
 9255SOL    HW239225   0.935   3.397  16.806  0.0084  0.0584  0.4778
 9256SOL     OW39226   1.696   1.938   9.431 -0.1698  0.0409  0.1013
 9256SOL    HW139227   1.762   2.008   9.429 -0.7708  0.6411  0.8768
 9256SOL    HW239228   1.647   1.966   9.509 -1.5957  1.4723 -1.3169
 9257SOL     OW39229   0.588   3.290  13.287  0.5742 -0.1989  0.8751
 9257SOL    HW139230   0.632   3.350  13.226  1.1179  0.5542  2.0051
 9257SOL    HW239231   0.660   3.282  13.350 -0.0218  0.8069  1.6863
 9258SOL     OW39232   4.688   0.901   0.778 -0.3619 -0.6898  0.0945
 9258SOL    HW139233   4.678   0.936   0.867 -0.7923 -0.2048 -0.1406
 9258SOL    HW239234   0.025   0.829   0.803  1.9158  0.5285 -1.5793
 9259SOL     OW39235   2.199   2.485  14.053  0.6618 -0.1218  0.0333
 9259SOL    HW139236   2.143   2.546  14.005  0.1914 -0.9616 -0.4878
 9259SOL    HW239237   2.276   2.489  13.996 -0.3164 -0.3915 -1.3226
 9260SOL     OW39238   4.545   0.449   8.303 -0.3146 -0.0334  0.5816
 9260SOL    HW139239   4.576   0.518   8.361  2.5008 -0.5984 -0.2299
 9260SOL    HW239240   4.455   0.431   8.332  1.1168 -3.0033  3.1476
 9261SOL     OW39241   3.737   1.849   7.020  0.9373 -0.7516  0.2240
 9261SOL    HW139242   3.830   1.865   7.037  1.3695 -2.6172 -0.2714
 9261SOL    HW239243   3.743   1.766   6.972 -0.9357 -0.3496 -0.6766
 9262SOL     OW39244   0.364   3.847   9.250  0.6422  0.5933  0.0073
 9262SOL    HW139245   0.295   3.818   9.190  0.4746 -1.7355  1.3265
 9262SOL    HW239246   0.439   3.836   9.191  0.0363 -0.3899 -0.5694
 9263SOL     OW39247   1.414   2.989  11.799 -0.1328 -0.4265  0.6677
 9263SOL    HW139248   1.326   2.968  11.830 -0.6726 -1.5401 -1.6137
 9263SOL    HW239249   1.445   2.900  11.779 -0.5693 -0.1130 -1.3374
 9264SOL     OW39250   4.332   2.888   6.950 -0.2826 -0.3925  0.2478
 9264SOL    HW139251   4.346   2.899   6.856 -0.4142 -1.2141  0.1279
 9264SOL    HW239252   4.369   2.968   6.987  0.6950 -1.1109  0.8214
 9265SOL     OW39253   2.923   2.634   2.867 -0.2815 -0.1014  0.2104
 9265SOL    HW139254   2.887   2.720   2.845 -0.4526 -0.7991 -2.2759
 9265SOL    HW239255   3.016   2.658   2.872 -0.3954  0.3528  0.1046
 9266SOL     OW39256   0.047   0.316   0.785  0.4839  0.0459  0.0920
 9266SOL    HW139257   0.059   0.255   0.713 -1.2468  0.6067 -0.6845
 9266SOL    HW239258   0.039   0.251   0.855 -1.9233  1.2194  0.9338
 9267SOL     OW39259   0.337   4.052   4.292  0.5178  0.5742  0.3791
 9267SOL    HW139260   0.382   4.081   4.371  1.2144  1.4744 -0.3542
 9267SOL    HW239261   0.398   4.084   4.225 -0.3284 -0.5818 -0.9624
 9268SOL     OW39262   0.282   4.025   4.661  0.8701  0.0337  0.7692
 9268SOL    HW139263   0.276   3.930   4.672  1.4194 -0.2892 -1.5778
 9268SOL    HW239264   0.305   4.054   4.749  2.0356  0.2635  0.3905
 9269SOL     OW39265   2.865   2.793  16.033 -0.1878  0.4209  0.0678
 9269SOL    HW139266   2.844   2.790  16.126  0.2550  0.7845  0.1746
 9269SOL    HW239267   2.918   2.872  16.031 -1.1672  1.0768 -0.1591
 9270SOL     OW39268   2.912   1.144   4.828  0.8631  0.2613  0.0790
 9270SOL    HW139269   2.993   1.191   4.811  0.7589  0.4305  0.0563
 9270SOL    HW239270   2.886   1.184   4.911  0.0400  3.2422 -1.6321
 9271SOL     OW39271   2.842   2.883   8.627 -0.1095  0.0589 -0.0745
 9271SOL    HW139272   2.899   2.822   8.673  0.5368 -1.1683 -2.5103
 9271SOL    HW239273   2.802   2.928   8.701  0.5508 -0.3012  0.4889
 9272SOL     OW39274   3.322   4.070   4.128 -0.5683 -0.2471  0.2607
 9272SOL    HW139275   3.402   4.088   4.177 -0.6266 -0.0773  0.2948
 9272SOL    HW239276   3.254   4.132   4.154  0.4026  0.6597  0.6815
 9273SOL     OW39277   4.247   2.069   3.010 -0.0572 -0.2408  0.1222
 9273SOL    HW139278   4.159   2.030   3.008  0.8367 -2.2595  0.6811
 9273SOL    HW239279   4.277   1.992   2.962  1.0432  1.3288 -1.7139
 9274SOL     OW39280   0.050   0.680   3.312 -1.0571  0.2712 -0.4428
 9274SOL    HW139281   0.059   0.594   3.354 -0.1615  0.1989 -0.7720
 9274SOL    HW239282   4.718   0.723   3.380 -0.2692 -0.3127  0.5243
 9275SOL     OW39283   1.241   3.957   3.772 -0.3494  0.0889  0.2453
 9275SOL    HW139284   1.270   4.040   3.735  0.3945  0.2062  1.0856
 9275SOL    HW239285   1.315   3.907   3.737 -1.2702  0.0383 -1.6195
 9276SOL     OW39286   3.461   2.228  16.626  0.3716  0.5219 -0.5550
 9276SOL    HW139287   3.502   2.182  16.699  0.4287 -0.5352 -1.2427
 9276SOL    HW239288   3.380   2.260  16.666  1.0734 -1.3653  2.3624
 9277SOL     OW39289   0.403   1.136   2.294 -0.2748  0.4607 -0.4366
 9277SOL    HW139290   0.396   1.211   2.235 -1.4868 -0.3154 -1.2718
 9277SOL    HW239291   0.497   1.134   2.314 -0.2545 -0.9258 -0.6670
 9278SOL     OW39292   3.715   0.980   3.129 -0.4138  0.2939 -0.1091
 9278SOL    HW139293   3.670   0.930   3.060  0.0140 -0.7836  0.3876
 9278SOL    HW239294   3.666   1.061   3.133  0.3851  0.6726  2.0593
 9279SOL     OW39295   3.394   4.636   7.818  0.4239 -0.2262  0.7428
 9279SOL    HW139296   3.464   4.688   7.858  0.7766 -0.0131 -0.1395
 9279SOL    HW239297   3.380   4.694   7.743  0.4398  1.7650  2.2677
 9280SOL     OW39298   1.108   2.229   3.215  0.3252 -0.2985 -0.3488
 9280SOL    HW139299   1.077   2.277   3.138 -0.2618  0.2381  0.2160
 9280SOL    HW239300   1.195   2.205   3.183  0.0495  0.3922 -1.5939
 9281SOL     OW39301   0.860   0.679  10.753 -0.0597 -0.1432  0.3476
 9281SOL    HW139302   0.773   0.694  10.791 -0.8888  1.8865 -2.3126
 9281SOL    HW239303   0.881   0.760  10.706  0.7790  0.5170  1.8777
 9282SOL     OW39304   2.698   0.201  16.747  0.1514 -0.0675 -0.3774
 9282SOL    HW139305   2.610   0.231  16.768  0.4711  0.5006  0.1537
 9282SOL    HW239306   2.744   0.263  16.803 -0.7093  0.2867 -0.0639
 9283SOL     OW39307   2.762   2.678   5.274 -0.0475  0.3374  0.1882
 9283SOL    HW139308   2.680   2.651   5.232  1.0059 -0.0177 -1.6374
 9283SOL    HW239309   2.775   2.762   5.230 -1.8486  0.6871  0.3202
 9284SOL     OW39310   3.935   1.209  14.368 -0.0352 -0.2328  0.0486
 9284SOL    HW139311   3.993   1.207  14.292  1.5630 -0.3161  1.2797
 9284SOL    HW239312   3.944   1.300  14.396  2.2382 -0.5297  0.3119
 9285SOL     OW39313   3.206   0.328   8.689  0.1570 -0.0961 -0.0023
 9285SOL    HW139314   3.154   0.252   8.714 -2.4958  0.9838 -2.2262
 9285SOL    HW239315   3.140   0.394   8.710  0.9185  1.0302 -1.1223
 9286SOL     OW39316   4.131   0.327   1.438 -0.3001  0.1779  0.0911
 9286SOL    HW139317   4.198   0.271   1.397  1.0113  2.0822 -0.3611
 9286SOL    HW239318   4.125   0.390   1.366  2.7801 -0.9554 -1.1921
 9287SOL     OW39319   2.106   4.175   9.802  0.0460 -0.0894 -0.6392
 9287SOL    HW139320   2.171   4.186   9.870  1.8707  2.7607 -2.8625
 9287SOL    HW239321   2.124   4.251   9.747 -0.2355  0.8055  0.5272
 9288SOL     OW39322   1.112   3.575  12.198  0.2419 -0.8461 -0.1864
 9288SOL    HW139323   1.205   3.591  12.183 -0.1435 -0.1837 -1.8263
 9288SOL    HW239324   1.097   3.544  12.109 -0.4794  1.2796 -0.8047
 9289SOL     OW39325   1.742   0.120   6.670 -0.0299  0.0392 -0.2345
 9289SOL    HW139326   1.757   0.198   6.617  0.4121 -0.3172 -0.6321
 9289SOL    HW239327   1.649   0.123   6.695 -0.6521  0.3614 -2.5974
 9290SOL     OW39328   3.008   4.516   3.938 -0.1776 -0.2667  0.0083
 9290SOL    HW139329   3.048   4.589   3.986 -1.7290  1.1442 -0.8303
 9290SOL    HW239330   3.006   4.565   3.856 -1.1278 -1.5020 -0.7047
 9291SOL     OW39331   4.490   3.820   4.667  0.0924 -1.1773  0.2171
 9291SOL    HW139332   4.432   3.892   4.688  0.6293 -0.4878 -0.6467
 9291SOL    HW239333   4.564   3.846   4.722 -0.3547 -0.7189  0.5953
 9292SOL     OW39334   0.458   2.850   4.954  0.2229 -0.1302 -0.7209
 9292SOL    HW139335   0.517   2.780   4.980 -0.6022  0.4291  2.6500
 9292SOL    HW239336   0.380   2.803   4.924 -0.3371  0.8466 -0.7905
 9293SOL     OW39337   2.351   0.579   7.427 -0.6503  0.5621 -0.0815
 9293SOL    HW139338   2.438   0.592   7.388  0.5560  0.1507  2.4661
 9293SOL    HW239339   2.331   0.494   7.389  2.3045 -0.5989  0.9739
 9294SOL     OW39340   3.021   1.431  11.722  0.6912 -0.3568  0.8109
 9294SOL    HW139341   3.103   1.472  11.693  0.5618 -0.1926  0.6734
 9294SOL    HW239342   3.038   1.341  11.695  1.2340  0.1521 -0.6009
 9295SOL     OW39343   2.612   3.507   5.197  0.0285 -0.1985  0.2550
 9295SOL    HW139344   2.672   3.462   5.138 -1.8025 -1.5900 -0.5155
 9295SOL    HW239345   2.530   3.514   5.149  0.0859 -0.2129  0.1551
 9296SOL     OW39346   3.820   3.205   2.345 -0.2067  0.3292  0.8179
 9296SOL    HW139347   3.803   3.295   2.374 -0.1949  0.2030  1.2115
 9296SOL    HW239348   3.892   3.182   2.403  0.0810 -2.8450 -0.7878
 9297SOL     OW39349   3.892   1.401  11.562  0.1835 -0.4984 -0.6749
 9297SOL    HW139350   3.874   1.495  11.557 -0.9161 -0.8095 -2.5319
 9297SOL    HW239351   3.829   1.357  11.505 -1.6900  0.8364  0.3714
 9298SOL     OW39352   1.707   1.214   6.590 -0.3515  0.6470  0.0479
 9298SOL    HW139353   1.751   1.138   6.551  1.3215  0.5601  2.1320
 9298SOL    HW239354   1.682   1.183   6.677  0.4628 -0.6533 -0.1858
 9299SOL     OW39355   2.928   2.171   5.824 -0.4213 -0.1114  0.1569
 9299SOL    HW139356   3.011   2.209   5.853  0.0192 -2.7561  2.2941
 9299SOL    HW239357   2.911   2.204   5.736 -0.8797  1.6577  0.9058
 9300SOL     OW39358   4.486   2.248   5.172  0.1647  0.0893 -0.2238
 9300SOL    HW139359   4.495   2.191   5.249 -1.5849  0.4304  0.2481
 9300SOL    HW239360   4.507   2.196   5.095  0.1193  0.3602 -0.4182
 9301SOL     OW39361   0.830   3.288   6.966  0.1714  0.0508 -0.2389
 9301SOL    HW139362   0.903   3.343   6.996  0.9551 -0.7863 -0.6382
 9301SOL    HW239363   0.876   3.228   6.907  0.6396  0.6406 -0.4714
 9302SOL     OW39364   2.067   1.412  11.032 -0.6966  0.8027  0.1450
 9302SOL    HW139365   2.043   1.331  10.987  0.9848 -0.0372  0.7568
 9302SOL    HW239366   2.162   1.396  11.035 -0.2142  2.9050 -3.8978
 9303SOL     OW39367   1.934   3.897   9.066 -0.3085  0.4245 -1.0335
 9303SOL    HW139368   1.907   3.988   9.066 -1.9748 -0.0683 -0.0815
 9303SOL    HW239369   1.865   3.851   9.019 -2.4104  0.4930  2.0017
 9304SOL     OW39370   4.403   1.717   3.920 -0.6681 -0.5342  0.9835
 9304SOL    HW139371   4.413   1.787   3.855  0.1325 -0.5751  1.0626
 9304SOL    HW239372   4.461   1.762   3.981 -2.6079  0.9210  1.7626
 9305SOL     OW39373   3.818   2.648  16.685  0.7491 -1.0263  0.2154
 9305SOL    HW139374   3.769   2.729  16.670  3.3107  0.6346  0.8309
 9305SOL    HW239375   3.841   2.623  16.595 -1.3194 -3.9190  0.5012
 9306SOL     OW39376   4.262   1.128  11.680 -0.1051  0.5837 -0.0209
 9306SOL    HW139377   4.298   1.092  11.599 -0.1683 -1.5832  0.9141
 9306SOL    HW239378   4.269   1.048  11.732 -0.0270 -1.1484 -2.6854
 9307SOL     OW39379   0.938   1.377   5.135 -0.0512  0.0950 -0.6234
 9307SOL    HW139380   0.895   1.329   5.207  0.3021  0.0232 -0.4622
 9307SOL    HW239381   0.885   1.358   5.058  1.2981 -0.0780 -1.5034
 9308SOL     OW39382   3.691   2.583   2.448 -0.5714 -0.7914  0.4727
 9308SOL    HW139383   3.683   2.635   2.528  2.6788 -0.0389  0.3185
 9308SOL    HW239384   3.754   2.640   2.404  0.7439  0.0300  3.4150
 9309SOL     OW39385   1.790   2.077  13.641 -0.2108  0.4029 -0.2755
 9309SOL    HW139386   1.762   2.083  13.732  1.3207  0.1296  0.2206
 9309SOL    HW239387   1.870   2.129  13.651  0.4986 -0.4672 -1.4205
 9310SOL     OW39388   3.630   2.850   3.338  0.4361 -0.3945  0.6368
 9310SOL    HW139389   3.725   2.835   3.341  0.6132  0.9539  1.6393
 9310SOL    HW239390   3.602   2.814   3.422  1.8392  1.3167  1.8402
 9311SOL     OW39391   1.054   4.260   5.074 -0.4143 -0.1559  0.6812
 9311SOL    HW139392   1.020   4.272   4.985 -0.6036 -0.3964  0.7225
 9311SOL    HW239393   1.122   4.194   5.064 -0.4137 -0.2490  1.2819
 9312SOL     OW39394   1.543   1.405   5.506 -0.2117  0.6868 -0.5906
 9312SOL    HW139395   1.597   1.484   5.501  1.0056 -0.1929 -1.1178
 9312SOL    HW239396   1.599   1.340   5.548 -0.8544  0.1165 -0.6203
 9313SOL     OW39397   3.060   0.431  14.844 -0.3756 -0.3936 -0.0675
 9313SOL    HW139398   3.044   0.381  14.924  0.8825 -0.8148 -0.0708
 9313SOL    HW239399   3.077   0.513  14.890 -0.1376 -0.7394  0.4620
 9314SOL     OW39400   2.217   3.450   3.889  0.2730 -0.0250 -0.3530
 9314SOL    HW139401   2.280   3.410   3.829 -0.4534 -1.4252 -0.1917
 9314SOL    HW239402   2.178   3.517   3.833 -1.6869  0.5305  1.7016
 9315SOL     OW39403   4.407   0.747  16.853 -0.1907 -0.1306 -0.4200
 9315SOL    HW139404   4.385   0.754  16.945 -1.5703 -0.3116 -0.7347
 9315SOL    HW239405   4.331   0.702  16.816 -0.7677  0.5800 -0.0831
 9316SOL     OW39406   3.329   3.801   0.205 -0.2117  0.0067  0.5751
 9316SOL    HW139407   3.277   3.721   0.199  0.4975 -0.4658  0.6608
 9316SOL    HW239408   3.301   3.822   0.294  1.5587  0.9788  0.9122
 9317SOL     OW39409   0.856   4.272   7.996  0.3095 -0.8647  0.5288
 9317SOL    HW139410   0.876   4.225   8.078 -0.9461 -1.8924  0.2502
 9317SOL    HW239411   0.796   4.212   7.951 -0.0881 -0.2396  0.2291
 9318SOL     OW39412   3.847   4.682   4.689  0.3151 -0.1156 -0.1335
 9318SOL    HW139413   3.842   4.595   4.729  0.7109  0.0110  0.1882
 9318SOL    HW239414   3.765   0.003   4.717 -0.0451 -0.2131 -1.0453
 9319SOL     OW39415   3.318   4.601   6.561 -0.6018  0.1501 -0.7868
 9319SOL    HW139416   3.397   4.619   6.509  1.6872 -1.1309  2.2320
 9319SOL    HW239417   3.357   4.526   6.607 -0.1167  0.5266 -0.5871
 9320SOL     OW39418   2.109   0.307  15.948 -0.0060  0.0214 -0.3430
 9320SOL    HW139419   2.124   0.231  15.891 -0.3515  1.5608 -2.4452
 9320SOL    HW239420   2.049   0.278  16.016  1.9222 -1.0616  0.9297
 9321SOL     OW39421   2.123   3.515   9.034  0.2633  0.3709 -0.6961
 9321SOL    HW139422   2.143   3.439   9.088 -2.0189  0.3334  0.0913
 9321SOL    HW239423   2.042   3.478   9.001  0.4068  0.6695 -1.3755
 9322SOL     OW39424   3.058   1.018   8.734 -0.3193 -0.4589  0.0728
 9322SOL    HW139425   3.065   0.995   8.642 -0.4804  2.6630 -0.7226
 9322SOL    HW239426   2.979   1.073   8.731  1.2440  1.6142 -3.3865
 9323SOL     OW39427   3.426   3.771   1.420  0.4739  0.1574 -0.3217
 9323SOL    HW139428   3.439   3.738   1.331 -0.6428  1.8022 -1.1077
 9323SOL    HW239429   3.416   3.866   1.409  2.3375  0.3588 -0.3169
 9324SOL     OW39430   3.842   2.606   5.334  0.0632  0.2846  0.2530
 9324SOL    HW139431   3.878   2.647   5.413  0.0059 -0.9764  0.9402
 9324SOL    HW239432   3.777   2.673   5.316 -0.8883 -0.2217  1.7492
 9325SOL     OW39433   0.051   0.273   5.843 -0.1375  0.2007 -0.4347
 9325SOL    HW139434   4.720   0.291   5.922  0.1895 -2.2308  0.3522
 9325SOL    HW239435   0.059   0.362   5.810  0.4504 -0.6617 -2.6332
 9326SOL     OW39436   3.854   1.525   1.684 -0.1051  0.0659  0.0059
 9326SOL    HW139437   3.796   1.483   1.620  1.0276  0.6033 -1.3829
 9326SOL    HW239438   3.872   1.612   1.649 -0.0471 -0.2949 -0.8650
 9327SOL     OW39439   2.108   1.772   5.307  0.1173 -0.7174  0.2783
 9327SOL    HW139440   2.187   1.780   5.361  0.3952 -0.5920 -0.1445
 9327SOL    HW239441   2.114   1.690   5.259  1.7669 -0.4985  0.0962
 9328SOL     OW39442   0.826   4.219   5.745  0.2281  0.1421  0.0728
 9328SOL    HW139443   0.876   4.140   5.765 -0.7281 -0.6935 -0.8191
 9328SOL    HW239444   0.740   4.180   5.736  0.3782  0.2059 -1.5778
 9329SOL     OW39445   0.624   3.032  13.145  0.1527 -0.3509  0.2061
 9329SOL    HW139446   0.603   3.121  13.170 -0.6970 -1.0188  1.8753
 9329SOL    HW239447   0.685   3.006  13.214 -2.0938  0.9587  2.6730
 9330SOL     OW39448   3.600   4.094   8.723  0.1791 -0.2420  0.2281
 9330SOL    HW139449   3.672   4.046   8.764  1.2789  1.8049  0.6520
 9330SOL    HW239450   3.567   4.160   8.784  0.2696 -0.2907  0.3281
 9331SOL     OW39451   2.773   2.833   6.805  0.5088 -0.3871 -0.6552
 9331SOL    HW139452   2.678   2.828   6.807  0.4042  1.7127 -0.1714
 9331SOL    HW239453   2.804   2.798   6.888  1.6804  0.1071 -0.8789
 9332SOL     OW39454   2.928   3.609   4.476 -0.2334  0.4395  0.2850
 9332SOL    HW139455   2.978   3.535   4.510 -0.7546  0.6144  1.4000
 9332SOL    HW239456   2.954   3.668   4.546 -1.2404 -0.3059  1.2796
 9333SOL     OW39457   2.162   0.936   3.777  0.5817  0.4436  0.3876
 9333SOL    HW139458   2.153   0.844   3.751 -2.4388  1.3471 -1.7768
 9333SOL    HW239459   2.105   0.935   3.854  1.1229 -0.8363  0.7755
 9334SOL     OW39460   4.284   4.446   4.442 -0.0064  0.0481  0.1819
 9334SOL    HW139461   4.209   4.489   4.483 -0.5605  0.4347 -1.2433
 9334SOL    HW239462   4.294   4.361   4.485 -0.5997  0.3071  0.8337
 9335SOL     OW39463   4.492   3.149   0.042 -0.0405  0.2269 -0.4112
 9335SOL    HW139464   4.583   3.165   0.015  0.1618 -0.3794 -0.0937
 9335SOL    HW239465   4.503   3.057   0.067  1.4973  0.2795 -0.8800
 9336SOL     OW39466   2.576   3.452   6.668 -0.1355 -0.0427  0.2993
 9336SOL    HW139467   2.559   3.460   6.762 -0.5218  0.7082  0.1697
 9336SOL    HW239468   2.610   3.363   6.664 -0.4154 -0.1436  0.1835
 9337SOL     OW39469   3.699   4.312   3.453 -0.6528 -0.6025  0.2224
 9337SOL    HW139470   3.647   4.391   3.440 -0.7270 -0.8272 -0.8203
 9337SOL    HW239471   3.787   4.346   3.471 -0.5561 -0.0890 -1.1781
 9338SOL     OW39472   2.576   1.145   5.238  0.0010 -0.6406  0.6220
 9338SOL    HW139473   2.529   1.133   5.156  0.3964  0.1001  0.2887
 9338SOL    HW239474   2.529   1.212   5.287 -1.6393  0.0915 -1.9550
 9339SOL     OW39475   1.793   1.089  10.584  0.2866  0.0255 -0.3809
 9339SOL    HW139476   1.800   1.120  10.493 -3.6030  1.3605 -0.1833
 9339SOL    HW239477   1.705   1.053  10.591  1.6426 -3.0496  0.8724
 9340SOL     OW39478   0.045   4.637   2.198  0.3384 -0.1194 -0.4253
 9340SOL    HW139479   0.103   4.563   2.217  0.2369  0.0633  0.5890
 9340SOL    HW239480   4.701   4.621   2.266 -1.9716  0.5607 -2.4620
 9341SOL     OW39481   3.303   0.383   8.297 -0.4175 -0.1592 -0.1511
 9341SOL    HW139482   3.281   0.291   8.282  0.5981 -0.1530 -1.6135
 9341SOL    HW239483   3.216   0.423   8.299  0.3081  1.4010 -0.3490
 9342SOL     OW39484   3.547   4.271   3.085  0.4537  0.2984  0.4625
 9342SOL    HW139485   3.505   4.188   3.064  4.1850 -1.4812  0.1310
 9342SOL    HW239486   3.506   4.341   3.034  0.1258 -0.9267 -0.9627
 9343SOL     OW39487   0.477   2.345   0.013 -0.0558 -0.7087  0.4326
 9343SOL    HW139488   0.514   2.372   0.097 -0.2172  0.6038  0.0788
 9343SOL    HW239489   0.463   2.431  17.659  1.5099 -0.5552  0.2193
 9344SOL     OW39490   1.222   2.344   0.661 -0.5921 -0.4731 -0.0855
 9344SOL    HW139491   1.198   2.270   0.606  1.8435 -1.4725  0.2068
 9344SOL    HW239492   1.312   2.315   0.679  0.4571  1.6623 -1.8261
 9345SOL     OW39493   4.383   2.934   6.678  0.4586  0.1372 -0.0945
 9345SOL    HW139494   4.408   3.020   6.645  0.1645 -0.6901 -2.4844
 9345SOL    HW239495   4.364   2.894   6.593  1.4824 -1.5917  0.4813
 9346SOL     OW39496   4.231   3.607   6.186  0.0319 -0.0359  0.2796
 9346SOL    HW139497   4.258   3.698   6.172 -1.1980  0.2440 -0.3211
 9346SOL    HW239498   4.287   3.562   6.124  1.1519 -1.5124  2.3646
 9347SOL     OW39499   2.494   1.993   6.564 -0.0794  0.4077 -0.1726
 9347SOL    HW139500   2.503   2.000   6.659 -1.5682 -1.3891  0.0902
 9347SOL    HW239501   2.420   1.933   6.557  0.9429 -0.9646  0.7919
 9348SOL     OW39502   4.334   1.440   4.509 -0.4157 -0.1478  0.2081
 9348SOL    HW139503   4.344   1.373   4.576  2.0872 -0.7567 -0.7756
 9348SOL    HW239504   4.238   1.441   4.508 -0.3946  2.0708  0.4683
 9349SOL     OW39505   3.568   3.657   1.621 -0.0333  0.3044  0.1046
 9349SOL    HW139506   3.539   3.741   1.587  0.5123  1.1159  1.6428
 9349SOL    HW239507   3.660   3.677   1.637 -1.1376  3.0333  2.9894
 9350SOL     OW39508   2.369   3.913  14.313 -0.7989  0.2651 -0.3061
 9350SOL    HW139509   2.317   3.852  14.366  0.6130 -0.5987  0.0776
 9350SOL    HW239510   2.455   3.921  14.355 -1.1917 -2.8506  1.0435
 9351SOL     OW39511   0.199   1.702   5.415 -0.1266 -0.0461 -0.2067
 9351SOL    HW139512   0.218   1.609   5.399 -0.3075  0.0226 -0.8165
 9351SOL    HW239513   0.183   1.743   5.330  1.6122  1.3087  0.1113
 9352SOL     OW39514   0.305   2.128   6.327  1.0213 -0.1010  0.3083
 9352SOL    HW139515   0.246   2.191   6.286 -1.1107 -2.1181  0.2316
 9352SOL    HW239516   0.352   2.087   6.255 -0.3466  0.4347 -0.8851
 9353SOL     OW39517   3.391   3.464  16.028  0.1324  0.6236 -0.1019
 9353SOL    HW139518   3.362   3.378  15.998  1.7188  0.1284 -0.2184
 9353SOL    HW239519   3.330   3.471  16.101 -1.7745  1.0364 -1.7481
 9354SOL     OW39520   2.674   0.307  13.194 -0.1417 -0.0534  0.2246
 9354SOL    HW139521   2.703   0.372  13.257  0.7736 -1.0933  0.8927
 9354SOL    HW239522   2.753   0.286  13.144 -0.7430  0.5174 -0.9493
 9355SOL     OW39523   2.672   1.922   8.743 -0.2712  0.0902  0.1123
 9355SOL    HW139524   2.658   1.964   8.827 -0.6797 -0.4387  0.3089
 9355SOL    HW239525   2.745   1.867   8.772  0.4838  1.5802  1.0443
 9356SOL     OW39526   0.845   2.283   6.324 -0.2479 -0.4206 -0.3178
 9356SOL    HW139527   0.899   2.361   6.313 -1.9837  0.9002  0.4625
 9356SOL    HW239528   0.780   2.326   6.380 -0.1236  0.2721 -0.7141
 9357SOL     OW39529   4.171   3.846   9.406  1.0984  0.4460 -0.3860
 9357SOL    HW139530   4.086   3.829   9.446  1.3017 -1.3663 -0.7341
 9357SOL    HW239531   4.224   3.827   9.483 -0.4424  1.4975  0.9287
 9358SOL     OW39532   2.693   3.821  14.325  0.0447  0.1597  0.2839
 9358SOL    HW139533   2.706   3.911  14.356 -0.7017  0.4105 -0.1292
 9358SOL    HW239534   2.709   3.767  14.402  1.0030  0.2114  0.1211
 9359SOL     OW39535   2.716   2.135   9.953  0.3082  0.0762  0.0229
 9359SOL    HW139536   2.635   2.124  10.003 -0.4224  4.4339 -0.2522
 9359SOL    HW239537   2.775   2.102  10.021  0.7703 -1.3577 -1.0625
 9360SOL     OW39538   0.899   0.415   4.359 -0.1894  0.6497 -0.3844
 9360SOL    HW139539   0.853   0.440   4.440  0.8602  1.1300  0.0599
 9360SOL    HW239540   0.984   0.397   4.398 -0.0209  0.1216 -0.9952
 9361SOL     OW39541   3.511   0.580   3.839  0.4639 -0.1615  0.2731
 9361SOL    HW139542   3.504   0.544   3.927 -4.2305  0.6110  0.1901
 9361SOL    HW239543   3.515   0.499   3.788 -1.6028 -0.2589  0.2827
 9362SOL     OW39544   0.757   4.333   7.107  0.4088  0.6188 -0.2445
 9362SOL    HW139545   0.710   4.250   7.112  0.3504  0.5300 -2.4915
 9362SOL    HW239546   0.736   4.362   7.196  0.2775 -2.1434  0.6249
 9363SOL     OW39547   0.286   1.852   2.825 -0.1655 -0.1983 -0.2792
 9363SOL    HW139548   0.305   1.838   2.918 -1.9235  1.3919  0.3218
 9363SOL    HW239549   0.329   1.777   2.785 -0.9848 -1.8169  1.8947
 9364SOL     OW39550   2.817   2.803   1.295 -0.2235 -0.2216  0.3509
 9364SOL    HW139551   2.823   2.886   1.341 -2.1868  1.4510 -2.3811
 9364SOL    HW239552   2.846   2.739   1.360 -2.2052  1.3761  2.8022
 9365SOL     OW39553   3.879   2.290  14.209 -0.7702  0.2141  0.0045
 9365SOL    HW139554   3.880   2.364  14.148 -2.1848 -0.6310 -1.0303
 9365SOL    HW239555   3.786   2.285  14.230 -0.2257 -0.4698  2.2303
 9366SOL     OW39556   4.050   3.562   3.443  0.5282 -0.1270 -0.2441
 9366SOL    HW139557   4.004   3.490   3.486  3.8151 -1.2291  1.4029
 9366SOL    HW239558   3.987   3.585   3.375 -1.6476 -0.7932  1.5378
 9367SOL     OW39559   3.278   0.755   6.042  0.0422  0.0439  0.0082
 9367SOL    HW139560   3.219   0.696   6.089 -0.2245  1.5304  1.5456
 9367SOL    HW239561   3.213   0.800   5.987  0.4867  0.4644 -0.1695
 9368SOL     OW39562   0.635   3.880   5.287  0.1539  0.2699  0.0622
 9368SOL    HW139563   0.716   3.884   5.337  1.3089 -0.4173 -1.7326
 9368SOL    HW239564   0.566   3.885   5.353 -1.6497  0.2244 -1.8010
 9369SOL     OW39565   2.361   1.918  10.782 -0.3367  0.3579 -0.7236
 9369SOL    HW139566   2.296   1.962  10.837  0.6719 -2.8788  3.1102
 9369SOL    HW239567   2.322   1.931  10.696  0.3974  1.0392 -0.9491
 9370SOL     OW39568   1.963   2.527  12.833 -0.1252 -0.2778  0.2861
 9370SOL    HW139569   2.025   2.528  12.760  1.1894  1.3262  1.4214
 9370SOL    HW239570   2.010   2.575  12.901 -0.6723  0.9921 -0.2296
 9371SOL     OW39571   3.870   1.800  14.855 -0.8986 -0.1712  0.0680
 9371SOL    HW139572   3.957   1.762  14.863 -0.7278  0.5846  1.7647
 9371SOL    HW239573   3.878   1.861  14.928 -2.0002  1.1133 -0.8881
 9372SOL     OW39574   3.964   3.348   5.068  0.6480 -0.7523  0.1642
 9372SOL    HW139575   4.026   3.298   5.121 -2.2168 -1.5111  2.8042
 9372SOL    HW239576   4.021   3.424   5.058 -1.1583  0.4531 -0.9527
 9373SOL     OW39577   3.420   3.552   4.003  0.5457  0.1976 -0.0348
 9373SOL    HW139578   3.379   3.617   3.946  0.9776  1.0472  0.6340
 9373SOL    HW239579   3.478   3.511   3.938 -1.2355 -0.5454 -1.1679
 9374SOL     OW39580   4.355   2.149   3.719  0.0068  0.7385 -0.3364
 9374SOL    HW139581   4.285   2.123   3.659  0.7848 -0.4291 -0.7113
 9374SOL    HW239582   4.430   2.109   3.675 -2.1238 -1.6846 -1.7461
 9375SOL     OW39583   3.250   2.729   5.048 -0.0620 -0.6467 -0.0866
 9375SOL    HW139584   3.228   2.638   5.033 -0.4286 -0.9260  2.1243
 9375SOL    HW239585   3.172   2.778   5.021 -0.0529  0.1407  1.3274
 9376SOL     OW39586   4.044   1.003   2.968 -0.2901  0.5898  0.0153
 9376SOL    HW139587   4.120   1.017   2.912 -0.6781 -2.3164 -1.2588
 9376SOL    HW239588   3.985   1.076   2.951  1.7196  2.3783  0.7366
 9377SOL     OW39589   2.736   3.980   2.654  0.8575 -0.3344 -1.0273
 9377SOL    HW139590   2.780   4.018   2.731 -0.8902 -1.0131  0.2978
 9377SOL    HW239591   2.808   3.941   2.604  0.0401 -0.5574 -2.0268
 9378SOL     OW39592   3.641   3.914   2.431  0.4427 -0.0120  0.1799
 9378SOL    HW139593   3.719   3.859   2.439  0.1194 -0.6504 -0.9121
 9378SOL    HW239594   3.603   3.910   2.519 -2.0982  0.6981 -0.8823
 9379SOL     OW39595   0.261   2.972  16.843  0.6263 -0.1395  0.0832
 9379SOL    HW139596   0.189   3.010  16.894  1.7928 -1.0682  2.4334
 9379SOL    HW239597   0.337   3.017  16.882  1.6115 -1.1648 -0.6581
 9380SOL     OW39598   2.641   1.104   1.161  0.2754 -0.6743  0.0303
 9380SOL    HW139599   2.565   1.054   1.132 -0.3204  0.9156 -1.1775
 9380SOL    HW239600   2.617   1.137   1.248  1.2878 -0.9781  0.4249
 9381SOL     OW39601   3.905   0.029  15.618  0.7797 -0.1786 -0.2522
 9381SOL    HW139602   3.892   4.697  15.697  1.3972 -0.0395 -0.0618
 9381SOL    HW239603   3.821   0.013  15.574  2.0736 -0.1181 -2.7203
 9382SOL     OW39604   1.064   0.361  13.411 -0.3302  0.6260  0.6414
 9382SOL    HW139605   1.104   0.330  13.492  0.2731  0.4431  0.2695
 9382SOL    HW239606   0.983   0.395  13.448 -0.4830 -0.8928  1.6978
 9383SOL     OW39607   3.920   0.517   1.472 -0.8367  0.1513 -0.5785
 9383SOL    HW139608   3.997   0.574   1.462 -2.0308  1.3322 -2.8812
 9383SOL    HW239609   3.967   0.435   1.488  0.2820  0.5279 -1.9678
 9384SOL     OW39610   0.707   2.369   6.880 -0.7180  0.0638  0.3879
 9384SOL    HW139611   0.668   2.290   6.842  1.8393  0.0624 -2.1793
 9384SOL    HW239612   0.749   2.338   6.960 -2.1082  1.4674  1.6780
 9385SOL     OW39613   0.184   2.345   8.968  0.0384  0.3647 -0.2882
 9385SOL    HW139614   0.176   2.440   8.964  0.4183  0.3608 -1.0267
 9385SOL    HW239615   0.137   2.324   9.050 -1.5770 -1.8255 -1.7677
 9386SOL     OW39616   2.365   2.729  11.153 -0.1138 -0.0134  0.9031
 9386SOL    HW139617   2.272   2.708  11.165 -0.2471 -0.2428 -0.4664
 9386SOL    HW239618   2.382   2.702  11.062 -1.0391 -1.8430  1.2752
 9387SOL     OW39619   4.433   1.278   4.256 -0.4793 -0.6354 -0.7479
 9387SOL    HW139620   4.350   1.269   4.302 -0.4890  0.3854 -0.5488
 9387SOL    HW239621   4.490   1.238   4.321 -1.3281 -1.4651 -0.5126
 9388SOL     OW39622   1.416   4.160  13.149 -0.8472 -0.0467  0.5822
 9388SOL    HW139623   1.426   4.122  13.236  0.8406  2.3075  1.4112
 9388SOL    HW239624   1.403   4.250  13.176 -2.7433 -0.6467  1.6354
 9389SOL     OW39625   0.247   4.388  17.380  0.1572  0.0125 -0.1952
 9389SOL    HW139626   0.250   4.412  17.287 -0.6912  2.4627  0.4180
 9389SOL    HW239627   0.172   4.329  17.377  0.0094  0.2070 -0.3113
 9390SOL     OW39628   0.971   2.635   9.086  0.3336 -0.0401  0.0080
 9390SOL    HW139629   1.049   2.599   9.044  1.3829  1.7897  0.3661
 9390SOL    HW239630   1.015   2.668   9.165 -0.8325  0.7272  0.3399
 9391SOL     OW39631   2.964   4.630   7.361 -0.1671  0.1831 -0.0817
 9391SOL    HW139632   2.991   4.637   7.453 -2.1624  1.2266  0.4336
 9391SOL    HW239633   2.943   0.002   7.351 -0.8005 -0.0027 -0.4587
 9392SOL     OW39634   2.520   3.654   7.626  0.0977  0.2024  0.1048
 9392SOL    HW139635   2.559   3.569   7.604 -1.9479 -0.5790 -0.5813
 9392SOL    HW239636   2.585   3.693   7.683  2.2496 -0.8954 -1.5968
 9393SOL     OW39637   4.688   1.874   3.057  0.1887  0.1791 -0.1176
 9393SOL    HW139638   4.670   1.838   2.970  0.1857  0.8929 -0.4086
 9393SOL    HW239639   0.062   1.859   3.063  0.1987  0.0463 -0.6798
 9394SOL     OW39640   3.032   4.091   4.741  0.5914  0.1568  0.0616
 9394SOL    HW139641   3.039   4.086   4.645  1.2105 -2.9910  0.2650
 9394SOL    HW239642   2.939   4.106   4.758  0.7039 -1.8536  2.4400
 9395SOL     OW39643   2.463   3.117   5.825 -0.4852  0.2208 -0.7533
 9395SOL    HW139644   2.383   3.169   5.837 -0.6636  0.1645 -1.6999
 9395SOL    HW239645   2.526   3.186   5.802 -1.2760  1.4101  0.6607
 9396SOL     OW39646   1.410   2.595  16.627 -0.1679  0.4998  0.0466
 9396SOL    HW139647   1.413   2.623  16.536  0.3683  3.7932  1.0907
 9396SOL    HW239648   1.352   2.661  16.665 -0.4654  0.0382  0.4006
 9397SOL     OW39649   2.032   2.298   8.591  0.6752  0.0952 -0.3160
 9397SOL    HW139650   1.964   2.365   8.599  0.2419 -0.1796 -1.7298
 9397SOL    HW239651   2.034   2.294   8.495  0.2448  0.2856 -0.3295
 9398SOL     OW39652   0.302   3.345   1.294  0.1603 -0.6318  0.3790
 9398SOL    HW139653   0.268   3.310   1.377  1.8924  0.9062  1.7296
 9398SOL    HW239654   0.301   3.266   1.240 -2.6486 -0.6600  0.4455
 9399SOL     OW39655   0.640   0.173   2.698  0.1396  0.0090  0.3407
 9399SOL    HW139656   0.733   0.151   2.686  0.4772  1.1137  0.9434
 9399SOL    HW239657   0.608   0.159   2.608 -3.7309 -0.9741  1.8828
 9400SOL     OW39658   4.625   1.463   5.519  0.1985 -0.0974  0.0631
 9400SOL    HW139659   4.578   1.546   5.506  0.3131 -0.1450 -0.6383
 9400SOL    HW239660   4.633   1.434   5.428 -0.0352  0.5478 -0.1605
 9401SOL     OW39661   1.462   2.045  14.703 -0.1297 -0.8012 -0.1181
 9401SOL    HW139662   1.512   2.016  14.780  0.4912  1.3969  0.3066
 9401SOL    HW239663   1.532   2.064  14.641 -0.5632 -1.3034 -0.7566
 9402SOL     OW39664   2.749   2.691   4.225  0.0390  0.0044 -0.5429
 9402SOL    HW139665   2.755   2.777   4.184 -2.5648  1.0949  1.3885
 9402SOL    HW239666   2.680   2.646   4.175 -1.1559  0.6105  0.5586
 9403SOL     OW39667   4.598   1.400   3.450 -0.0911 -0.1401  0.3671
 9403SOL    HW139668   4.668   1.392   3.385 -1.2135  2.4905 -1.1620
 9403SOL    HW239669   4.551   1.477   3.419  1.0041  0.7967  1.0484
 9404SOL     OW39670   2.555   3.025   7.884 -0.1172  0.2458  0.4951
 9404SOL    HW139671   2.644   2.991   7.887  0.2036  1.1109  0.6680
 9404SOL    HW239672   2.573   3.118   7.894 -1.6503  0.8319 -2.3483
 9405SOL     OW39673   0.151   0.051   4.884 -0.1739  0.5396 -0.0568
 9405SOL    HW139674   0.105   0.110   4.824  0.6407 -0.0987 -1.2900
 9405SOL    HW239675   0.209   4.719   4.829 -1.3490 -2.1019  1.2233
 9406SOL     OW39676   0.897   0.188   7.803 -0.5742 -0.1711  0.5344
 9406SOL    HW139677   0.975   0.244   7.810 -0.7390  0.0498  0.6061
 9406SOL    HW239678   0.821   0.243   7.786 -0.5762 -0.4372 -0.3200
 9407SOL     OW39679   3.288   2.960  17.623  0.4476 -0.0995  0.6426
 9407SOL    HW139680   3.323   2.956   0.028  0.0164 -1.1148  0.7669
 9407SOL    HW239681   3.235   2.881  17.613  1.6094 -0.9113  1.0105
 9408SOL     OW39682   2.742   3.702   6.611 -0.1455  0.5300 -0.0992
 9408SOL    HW139683   2.701   3.650   6.680  0.1749  0.9174  0.3837
 9408SOL    HW239684   2.721   3.795   6.624  2.0083  0.9640  0.1459
 9409SOL     OW39685   1.442   0.496   0.710 -0.6528 -0.4222  0.3254
 9409SOL    HW139686   1.503   0.424   0.721  0.5351  0.1901 -2.1910
 9409SOL    HW239687   1.436   0.512   0.804  1.1054 -0.7292  0.4901
 9410SOL     OW39688   3.223   3.832   4.492 -0.2956 -0.5844  0.4256
 9410SOL    HW139689   3.165   3.822   4.417  0.4565  1.7945 -0.4485
 9410SOL    HW239690   3.303   3.849   4.443 -1.2423  1.0954 -0.5367
 9411SOL     OW39691   3.884   0.789   7.786  0.6853 -0.2484  0.3091
 9411SOL    HW139692   3.951   0.842   7.828  1.2318 -1.5110  1.0396
 9411SOL    HW239693   3.814   0.790   7.852 -0.9843 -2.0279 -1.4355
 9412SOL     OW39694   3.147   2.699   6.119  0.3104 -0.4971 -0.2037
 9412SOL    HW139695   3.202   2.634   6.077  2.8703  0.9651  0.8803
 9412SOL    HW239696   3.151   2.771   6.056  1.3730  0.4190  0.9128
 9413SOL     OW39697   3.697   1.137  16.544  0.2914  0.3620 -0.1514
 9413SOL    HW139698   3.702   1.149  16.639 -0.3612  2.8195 -0.4193
 9413SOL    HW239699   3.714   1.043  16.533 -0.0404  0.1552  1.0178
 9414SOL     OW39700   2.034   3.504   9.760 -0.4980 -0.2498  0.0174
 9414SOL    HW139701   1.999   3.572   9.818 -0.0827 -0.0861  0.0748
 9414SOL    HW239702   2.123   3.492   9.792 -0.0200  0.0188 -1.2321
 9415SOL     OW39703   2.310   0.432   2.483 -0.0946  0.0723  0.1329
 9415SOL    HW139704   2.369   0.442   2.557  1.6820  2.3211 -1.5720
 9415SOL    HW239705   2.367   0.388   2.420  1.4369  1.0393  0.8361
 9416SOL     OW39706   3.374   2.283   3.053  0.2379 -0.2040 -0.1975
 9416SOL    HW139707   3.392   2.376   3.042 -2.6260  0.3588 -0.1038
 9416SOL    HW239708   3.297   2.282   3.111  0.3969  2.8820  0.0754
 9417SOL     OW39709   1.661   3.420  10.990  0.1209  0.1339  0.4464
 9417SOL    HW139710   1.593   3.486  11.006  2.4012  1.8743  3.0704
 9417SOL    HW239711   1.633   3.377  10.910 -0.0616 -0.8040  1.0173
 9418SOL     OW39712   1.580   3.742   2.183 -0.1626 -0.1863 -0.0402
 9418SOL    HW139713   1.514   3.811   2.195  1.8346  1.5463  1.1595
 9418SOL    HW239714   1.530   3.661   2.190  1.0399 -1.1148 -2.4737
 9419SOL     OW39715   0.898   0.491   2.387  0.2934 -0.6557 -0.2494
 9419SOL    HW139716   0.924   0.400   2.394 -0.6876 -0.9447 -0.3117
 9419SOL    HW239717   0.826   0.484   2.449  1.4861 -1.5291  1.0193
 9420SOL     OW39718   1.464   3.242   8.020  0.3237 -0.6633  0.2816
 9420SOL    HW139719   1.553   3.277   8.017  0.1087 -0.4542 -3.8636
 9420SOL    HW239720   1.478   3.165   8.075 -0.5991 -0.3363  0.9758
 9421SOL     OW39721   3.638   0.876   9.369 -0.1004 -0.6363 -0.6536
 9421SOL    HW139722   3.556   0.923   9.350  0.3293  0.1847 -0.4827
 9421SOL    HW239723   3.674   0.925   9.443 -0.7922  1.0116 -1.3963
 9422SOL     OW39724   2.047   3.260   7.424  0.1851  0.0611  0.0434
 9422SOL    HW139725   2.019   3.214   7.345  0.4731  2.6356 -1.5751
 9422SOL    HW239726   2.119   3.203   7.450 -0.5313 -0.2632  1.3182
 9423SOL     OW39727   2.994   0.579   4.181  0.7796 -0.1272  0.0702
 9423SOL    HW139728   3.045   0.635   4.239  0.0029  0.1759  0.4504
 9423SOL    HW239729   2.909   0.577   4.224  0.6185  5.8681  0.0612
 9424SOL     OW39730   0.654   1.679   9.179  0.2452  0.1102  0.3704
 9424SOL    HW139731   0.700   1.596   9.179 -0.0827 -0.0709  0.0449
 9424SOL    HW239732   0.583   1.665   9.241  0.2828  2.3358  0.9140
 9425SOL     OW39733   2.112   3.687   2.987  0.6159  0.0619  0.5227
 9425SOL    HW139734   2.125   3.753   2.919 -1.0319 -1.0397 -0.8671
 9425SOL    HW239735   2.043   3.736   3.033  0.4730  0.4851 -0.1552
 9426SOL     OW39736   4.150   0.210   1.045 -0.0901 -0.0521 -0.4501
 9426SOL    HW139737   4.211   0.138   1.034 -2.0155 -2.0385  1.7376
 9426SOL    HW239738   4.124   0.213   0.953 -2.7416 -1.1766  0.2477
 9427SOL     OW39739   1.139   1.470   6.616 -0.7289  0.4052 -0.2188
 9427SOL    HW139740   1.170   1.451   6.527  1.9092  0.1473  0.7762
 9427SOL    HW239741   1.164   1.561   6.628 -1.5005  0.6711 -0.5981
 9428SOL     OW39742   2.608   0.981   7.370 -0.1502  0.1798 -0.3227
 9428SOL    HW139743   2.670   1.054   7.359  0.7954 -0.6650 -0.5671
 9428SOL    HW239744   2.590   0.991   7.464 -1.9213  2.0555 -0.8717
 9429SOL     OW39745   1.795   3.036  15.772  0.3913  0.3160 -0.2771
 9429SOL    HW139746   1.765   3.107  15.715 -0.1281  1.0289  0.8832
 9429SOL    HW239747   1.726   3.042  15.838  2.1484 -0.5988  1.6384
 9430SOL     OW39748   3.609   3.173   8.300  0.0139  0.6651 -0.5123
 9430SOL    HW139749   3.672   3.165   8.228  1.8444 -2.0057  1.3622
 9430SOL    HW239750   3.611   3.269   8.300 -1.1564  0.6898  0.8913
 9431SOL     OW39751   1.351   4.231   2.455 -0.1992 -0.8097  0.4459
 9431SOL    HW139752   1.337   4.138   2.439 -1.5216 -1.1044  3.4304
 9431SOL    HW239753   1.274   4.257   2.506  0.6290  0.5031  1.0499
 9432SOL     OW39754   1.033   0.279   7.513 -0.2627 -0.2977  0.2623
 9432SOL    HW139755   1.105   0.226   7.547  0.8774  1.5611  0.7505
 9432SOL    HW239756   0.958   0.244   7.560  0.1307 -0.2579  0.9176
 9433SOL     OW39757   2.761   1.087   5.733  0.1780 -0.0344 -1.0527
 9433SOL    HW139758   2.797   1.021   5.674 -0.2313 -1.2338  0.0400
 9433SOL    HW239759   2.795   1.163   5.685 -2.1356  1.2216 -0.6880
 9434SOL     OW39760   3.998   0.205   5.467  0.2612  0.9507  0.3081
 9434SOL    HW139761   3.911   0.187   5.504  0.3727 -0.6400 -0.1930
 9434SOL    HW239762   4.045   0.133   5.510  0.7174 -0.9443 -3.3442
 9435SOL     OW39763   0.253   1.045   1.728 -0.0140 -0.1794 -0.3756
 9435SOL    HW139764   0.296   1.102   1.664  1.5736 -0.7422  0.1712
 9435SOL    HW239765   0.298   1.074   1.808  1.3884 -0.6512 -0.9804
 9436SOL     OW39766   0.569   0.158   2.446  0.5843  1.1754 -0.1251
 9436SOL    HW139767   0.524   0.075   2.433  0.5431  0.5270  4.2108
 9436SOL    HW239768   0.519   0.216   2.389  0.1959 -0.8435 -1.8210
 9437SOL     OW39769   2.709   3.928  10.534  0.7218 -0.5916 -0.0563
 9437SOL    HW139770   2.778   3.922  10.599 -0.0222  0.8057  0.8701
 9437SOL    HW239771   2.761   3.982  10.474  0.4795  0.5163  0.7266
 9438SOL     OW39772   3.194   3.947   4.913 -0.0270  0.1985 -0.0727
 9438SOL    HW139773   3.264   3.917   4.855 -1.2853 -2.6278 -0.1438
 9438SOL    HW239774   3.135   3.987   4.849 -0.9684  0.9745  1.2718
 9439SOL     OW39775   1.682   1.174   5.614  0.7635  0.1048  0.2597
 9439SOL    HW139776   1.766   1.193   5.655  1.0354 -1.6808  0.5221
 9439SOL    HW239777   1.654   1.100   5.669  2.4837 -0.5149  0.2965
 9440SOL     OW39778   0.630   1.004  17.211  0.1845 -0.5022 -0.5916
 9440SOL    HW139779   0.599   1.091  17.238 -1.6444 -1.1795 -0.5299
 9440SOL    HW239780   0.553   0.975  17.163 -1.1414  2.8132 -0.4748
 9441SOL     OW39781   3.106   4.299   8.025  0.2585 -0.4781 -0.0759
 9441SOL    HW139782   3.092   4.394   8.031  1.9633 -0.2585  0.5641
 9441SOL    HW239783   3.178   4.290   7.963  1.9706 -0.0594  1.8346
 9442SOL     OW39784   1.275   3.937   7.792  0.3354 -0.4759 -0.1664
 9442SOL    HW139785   1.286   3.967   7.702  1.9947  3.5581  1.3437
 9442SOL    HW239786   1.283   3.842   7.784  3.5835 -0.1229 -1.2750
 9443SOL     OW39787   4.378   1.240   2.757  0.4446 -0.2644 -0.5527
 9443SOL    HW139788   4.378   1.186   2.836 -1.1100 -0.2057 -0.5027
 9443SOL    HW239789   4.390   1.175   2.687  2.7434  0.1827 -0.5799
 9444SOL     OW39790   4.708   4.406  10.070 -0.6342  0.0210 -0.2808
 9444SOL    HW139791   4.678   4.359   9.992  2.1128 -0.7443 -0.8816
 9444SOL    HW239792   4.718   4.490  10.026  0.2616 -0.4501 -0.9967
 9445SOL     OW39793   1.851   2.471   7.746  0.1530 -0.1589  0.5364
 9445SOL    HW139794   1.784   2.539   7.744 -1.1030 -1.3454  1.8094
 9445SOL    HW239795   1.835   2.451   7.839 -0.9292  1.3402  0.6515
 9446SOL     OW39796   2.463   4.380   6.921  0.0461  0.3634 -0.0272
 9446SOL    HW139797   2.444   4.325   6.997  0.4626 -1.0789 -0.9835
 9446SOL    HW239798   2.487   4.459   6.970 -0.5567  1.5090 -1.5779
 9447SOL     OW39799   4.235   2.806   2.118  0.9378 -0.4382  0.3279
 9447SOL    HW139800   4.327   2.781   2.108  0.1431 -2.8720 -0.8507
 9447SOL    HW239801   4.210   2.812   2.025  1.1841 -1.2667  0.2100
 9448SOL     OW39802   1.019   2.991   1.653 -0.0318  0.8406  0.2081
 9448SOL    HW139803   0.961   3.027   1.720  2.3023  1.5103  1.8966
 9448SOL    HW239804   1.100   2.994   1.705 -0.7345 -0.7758  1.4001
 9449SOL     OW39805   3.128   0.418   7.036 -0.4505 -0.1861 -0.3890
 9449SOL    HW139806   3.084   0.346   7.081  2.2391 -2.1667 -0.9193
 9449SOL    HW239807   3.134   0.370   6.954  0.2407  0.7087 -0.8717
 9450SOL     OW39808   1.850   1.482  17.114 -0.1110 -0.3284 -0.0637
 9450SOL    HW139809   1.789   1.556  17.102 -1.5454 -1.6460 -0.8878
 9450SOL    HW239810   1.883   1.478  17.025  0.1687  1.9720 -0.0679
 9451SOL     OW39811   3.079   1.443  12.562 -0.2339 -0.1833 -0.5701
 9451SOL    HW139812   3.056   1.352  12.544 -2.2611  0.3436 -0.6849
 9451SOL    HW239813   3.074   1.457  12.656  0.8859  2.1043 -0.8459
 9452SOL     OW39814   1.817   0.115   3.378  0.3680 -0.9847  0.2544
 9452SOL    HW139815   1.911   0.108   3.394  1.0998  0.9164 -3.0873
 9452SOL    HW239816   1.804   0.071   3.294 -0.9195  0.6546 -0.4066
 9453SOL     OW39817   3.574   2.551   6.449  0.0881  0.0784 -0.4102
 9453SOL    HW139818   3.478   2.553   6.447  0.0988  1.7427  0.3373
 9453SOL    HW239819   3.598   2.586   6.363 -0.8885  1.4226 -0.1395
 9454SOL     OW39820   1.626   4.093   3.041  0.7731  0.3086  0.2381
 9454SOL    HW139821   1.691   4.023   3.052 -1.3593 -1.8206 -0.5278
 9454SOL    HW239822   1.571   4.036   2.987  0.9202  0.5216 -0.1336
 9455SOL     OW39823   1.788   4.291   0.974 -0.2318  0.7053  0.0324
 9455SOL    HW139824   1.864   4.350   0.980  0.9754 -0.7337 -1.0677
 9455SOL    HW239825   1.749   4.321   0.892  1.6997  0.4688 -0.9738
 9456SOL     OW39826   2.677   3.936   5.653  0.2426  0.3462  0.2926
 9456SOL    HW139827   2.723   4.009   5.611  2.2845 -1.0495  0.0978
 9456SOL    HW239828   2.602   3.927   5.594 -0.0206  1.0341  0.5247
 9457SOL     OW39829   4.376   2.639   8.017 -0.1222 -0.4152 -0.0817
 9457SOL    HW139830   4.289   2.600   8.020  0.1417 -1.1513 -2.1385
 9457SOL    HW239831   4.366   2.714   7.958  2.4479 -1.4220 -1.8111
 9458SOL     OW39832   2.816   2.524   8.117 -0.2889 -0.0087  0.1268
 9458SOL    HW139833   2.911   2.516   8.124 -0.5296 -2.3349  0.7491
 9458SOL    HW239834   2.782   2.489   8.199  0.0947 -1.1967 -0.2106
 9459SOL     OW39835   4.354   3.830   2.161 -0.1248 -0.4813  0.6159
 9459SOL    HW139836   4.337   3.807   2.252 -1.2577 -3.2247 -0.2790
 9459SOL    HW239837   4.357   3.740   2.126 -0.5529  0.4766 -1.9059
 9460SOL     OW39838   0.208   0.185   3.993  0.0717  0.1327  0.0832
 9460SOL    HW139839   0.145   0.255   3.980 -0.6662 -0.4075  0.7426
 9460SOL    HW239840   0.237   0.160   3.905  0.3039  2.3489 -0.4688
 9461SOL     OW39841   2.935   3.486   5.370 -0.1107 -0.0012 -0.8492
 9461SOL    HW139842   2.972   3.452   5.288  1.2326  0.1058 -0.2874
 9461SOL    HW239843   2.855   3.435   5.380  0.0183  0.3060  1.8341
 9462SOL     OW39844   0.930   0.577   4.010 -0.1248 -0.6309  0.9224
 9462SOL    HW139845   0.982   0.605   3.935 -0.0685  0.3939  1.3494
 9462SOL    HW239846   0.953   0.484   4.017 -3.8084 -1.6067  0.1743
 9463SOL     OW39847   4.324   4.658   9.238  0.4592  0.4295  0.0769
 9463SOL    HW139848   4.292   4.603   9.310 -0.0842 -0.6098 -0.9706
 9463SOL    HW239849   4.370   0.006   9.288 -0.3482  1.2655 -0.3302
 9464SOL     OW39850   0.417   3.145  15.661 -0.2867 -0.0007 -0.2358
 9464SOL    HW139851   0.340   3.146  15.604 -1.0313  0.2682  0.7819
 9464SOL    HW239852   0.438   3.052  15.654  0.6405  0.1774  0.2651
 9465SOL     OW39853   0.590   0.266   3.045 -0.5312 -0.3854 -0.5095
 9465SOL    HW139854   0.602   0.316   2.964 -1.1117 -0.6476 -0.7548
 9465SOL    HW239855   0.495   0.259   3.053 -0.6949  0.5962 -1.6109
 9466SOL     OW39856   1.932   4.185  10.047  0.0511 -0.4053  0.2380
 9466SOL    HW139857   1.971   4.134  10.118 -0.8214  1.6497  2.1877
 9466SOL    HW239858   1.977   4.161   9.966 -0.8852  1.0050 -0.6770
 9467SOL     OW39859   2.938   4.635   6.678  0.1146 -0.8643 -0.4574
 9467SOL    HW139860   2.987   4.703   6.724  0.0192 -1.0684 -0.0578
 9467SOL    HW239861   2.882   4.681   6.614 -1.0169 -1.7548 -0.1117
 9468SOL     OW39862   3.425   0.744  13.525 -0.0115 -0.8246  0.3525
 9468SOL    HW139863   3.415   0.751  13.620 -0.5251 -1.6583  0.3633
 9468SOL    HW239864   3.512   0.706  13.516  0.4124  0.5166 -1.3299
 9469SOL     OW39865   3.561   2.302   5.680 -0.5619 -0.1489  0.0332
 9469SOL    HW139866   3.596   2.357   5.609 -1.2113  2.8120  1.9836
 9469SOL    HW239867   3.594   2.219   5.645  0.9105  0.4004  0.1206
 9470SOL     OW39868   0.810   3.155   4.809 -0.0323  0.4624 -0.0968
 9470SOL    HW139869   0.821   3.110   4.893  1.6080 -0.0454 -0.5894
 9470SOL    HW239870   0.715   3.164   4.814 -0.1501 -1.0215  0.2979
 9471SOL     OW39871   1.192   1.817   9.473 -0.0770 -0.1236 -0.1636
 9471SOL    HW139872   1.187   1.798   9.566  1.3263  2.0048  0.3371
 9471SOL    HW239873   1.192   1.727   9.438  0.8804 -0.6969  1.2961
 9472SOL     OW39874   3.580   4.129   4.260 -0.3154  0.0473 -0.0563
 9472SOL    HW139875   3.673   4.109   4.248  0.0371  1.3939  0.4653
 9472SOL    HW239876   3.574   4.218   4.224 -1.6824 -0.1953 -0.4215
 9473SOL     OW39877   1.712   2.738  10.460  0.1595  0.1463  0.2801
 9473SOL    HW139878   1.707   2.642  10.468  0.2219 -0.1120 -2.7334
 9473SOL    HW239879   1.761   2.746  10.378  0.9086  0.5256  0.7692
 9474SOL     OW39880   1.430   2.219   3.847  0.5797 -0.2110 -0.1147
 9474SOL    HW139881   1.477   2.279   3.905 -0.9300  0.4033  0.4872
 9474SOL    HW239882   1.498   2.208   3.781 -0.8635 -1.6116 -1.3785
 9475SOL     OW39883   3.113   4.105  15.530  0.8025 -0.1604 -0.0546
 9475SOL    HW139884   3.196   4.093  15.484  0.7863 -2.8515  0.6502
 9475SOL    HW239885   3.053   4.089  15.456 -0.7782  1.4342  0.8849
 9476SOL     OW39886   3.603   3.762  11.413 -0.1315  0.3103 -0.0081
 9476SOL    HW139887   3.652   3.724  11.340  1.4717  0.3044  1.0790
 9476SOL    HW239888   3.512   3.756  11.384 -0.2504 -0.2827  0.5014
 9477SOL     OW39889   3.005   2.373   4.844  0.4649  0.4011  0.4546
 9477SOL    HW139890   2.966   2.301   4.894 -0.8766  0.8315  0.0173
 9477SOL    HW239891   2.926   2.407   4.802 -0.8716 -1.5436  1.3809
 9478SOL     OW39892   0.346   1.961   4.081  0.2089 -0.3832  0.0658
 9478SOL    HW139893   0.266   2.013   4.080 -0.6141 -1.6559  0.7508
 9478SOL    HW239894   0.311   1.875   4.058 -0.5836  0.2320 -1.0379
 9479SOL     OW39895   3.439   0.792   6.649 -0.3258 -0.3796  0.0466
 9479SOL    HW139896   3.376   0.827   6.586  1.7182  1.2487 -1.0942
 9479SOL    HW239897   3.396   0.710   6.673  1.3897 -1.3612 -0.2117
 9480SOL     OW39898   2.564   4.364   0.831  0.6613  0.0193 -0.3993
 9480SOL    HW139899   2.476   4.392   0.803 -0.5526 -0.1599  3.1797
 9480SOL    HW239900   2.607   4.448   0.813 -1.3536  0.8346 -1.4686
 9481SOL     OW39901   2.361   2.541   0.835  0.0720  0.1405  0.4448
 9481SOL    HW139902   2.392   2.508   0.751 -0.0692 -2.0353  1.2198
 9481SOL    HW239903   2.271   2.508   0.833 -0.3173  1.2147  0.4608
 9482SOL     OW39904   1.837   4.688  10.612  0.4474 -0.2261  0.1945
 9482SOL    HW139905   1.795   4.605  10.591 -1.8746  0.8390  0.5967
 9482SOL    HW239906   1.927   4.658  10.608 -0.0023 -1.5351 -0.0190
 9483SOL     OW39907   1.517   2.938   1.852 -0.4551  0.2257 -0.4478
 9483SOL    HW139908   1.570   2.858   1.849  0.1563  0.5500  2.1285
 9483SOL    HW239909   1.580   2.987   1.800  0.2236  1.2036  1.2793
 9484SOL     OW39910   2.111   2.548   3.150 -0.0453 -0.0771  0.6653
 9484SOL    HW139911   2.091   2.457   3.128 -4.6200  1.7293 -2.6329
 9484SOL    HW239912   2.192   2.569   3.104  0.1925 -0.6464  0.8206
 9485SOL     OW39913   1.372   3.408   3.082 -0.3487  0.0711 -0.2893
 9485SOL    HW139914   1.342   3.400   2.992  1.0611 -0.3432 -0.7232
 9485SOL    HW239915   1.290   3.379   3.122 -0.1364  0.7533  0.6555
 9486SOL     OW39916   0.697   1.165   3.869 -0.5064  0.5452 -0.5749
 9486SOL    HW139917   0.602   1.176   3.872 -0.5235 -0.1382  1.1409
 9486SOL    HW239918   0.708   1.086   3.922 -0.3135  0.0334 -1.3741
 9487SOL     OW39919   3.243   0.575  13.461  0.0389  0.1014 -0.3035
 9487SOL    HW139920   3.186   0.637  13.415  0.6924  0.3591 -0.7522
 9487SOL    HW239921   3.304   0.642  13.491 -0.0795  1.6747 -3.6129
 9488SOL     OW39922   2.389   0.033   2.979  0.1898 -0.1395 -0.3591
 9488SOL    HW139923   2.456   4.697   3.017  0.9007 -0.4233 -2.0317
 9488SOL    HW239924   2.428   0.089   2.912  0.5932  0.9015  0.7433
 9489SOL     OW39925   2.041   3.183   1.330 -0.2227  0.0842  0.1603
 9489SOL    HW139926   2.037   3.273   1.359  0.3346  0.6192 -1.3837
 9489SOL    HW239927   2.117   3.193   1.272 -0.5736  0.7718 -0.1845
 9490SOL     OW39928   0.525   1.347   4.804  0.0015  0.1048  0.2192
 9490SOL    HW139929   0.457   1.390   4.856 -0.7010 -0.4971 -0.2193
 9490SOL    HW239930   0.480   1.273   4.764  1.4179 -0.3320 -0.5777
 9491SOL     OW39931   4.705   3.563   9.843  0.4148  0.1511 -0.1305
 9491SOL    HW139932   0.031   3.524   9.916 -1.6677  0.3248  1.2821
 9491SOL    HW239933   0.041   3.639   9.826  0.4788  0.2083  0.3363
 9492SOL     OW39934   1.069   0.933   0.008  0.0219  0.1943 -0.5078
 9492SOL    HW139935   1.082   0.885  17.611  1.4721  1.1080 -0.8086
 9492SOL    HW239936   0.976   0.917   0.027 -1.1775  3.7817 -3.3976
 9493SOL     OW39937   0.137   0.994   2.696  0.5043  0.0529  0.1182
 9493SOL    HW139938   0.100   1.075   2.662  0.1229 -1.3143 -2.7101
 9493SOL    HW239939   0.225   0.987   2.659  0.6121  1.5146  0.0980
 9494SOL     OW39940   3.044   1.130   6.464 -0.6320  0.3458  0.1870
 9494SOL    HW139941   3.107   1.164   6.528 -0.1094  0.0411 -0.1642
 9494SOL    HW239942   3.000   1.205   6.424 -1.9758 -0.7006 -0.2781
 9495SOL     OW39943   4.242   0.164  14.443  0.1343  0.2250  0.1253
 9495SOL    HW139944   4.163   0.216  14.459 -1.0217 -0.7680 -2.4712
 9495SOL    HW239945   4.212   0.083  14.485  0.5522 -0.9538 -1.8493
 9496SOL     OW39946   1.856   3.189  14.380  0.4099 -0.4212  0.3658
 9496SOL    HW139947   1.763   3.199  14.398  0.0850  1.3857 -2.2495
 9496SOL    HW239948   1.865   3.104  14.338 -1.1449 -0.3292 -0.1643
 9497SOL     OW39949   1.090   0.734   4.588 -0.4299  0.4610 -0.2889
 9497SOL    HW139950   1.094   0.795   4.663 -0.9094 -0.8017  0.7578
 9497SOL    HW239951   0.997   0.750   4.572  0.1105  1.9337 -1.9797
 9498SOL     OW39952   4.082   1.031   7.477 -0.5271  1.1086  0.3372
 9498SOL    HW139953   4.124   1.098   7.530  1.1333  1.0831 -0.9001
 9498SOL    HW239954   4.052   0.966   7.540  0.9144  1.8837  1.8240
 9499SOL     OW39955   3.163   3.667  15.173 -0.8464 -0.2829  0.3118
 9499SOL    HW139956   3.199   3.754  15.155  0.1362 -0.2784  2.4036
 9499SOL    HW239957   3.209   3.620  15.103  0.0844  0.4495  0.4301
 9500SOL     OW39958   0.426   1.978  14.078  0.4216 -0.5013 -0.6853
 9500SOL    HW139959   0.435   2.054  14.021 -0.1768 -2.3010 -3.2342
 9500SOL    HW239960   0.380   2.012  14.155  0.7590  0.6992 -1.0140
 9501SOL     OW39961   4.332   4.446   5.144  0.2892  0.5043  0.1136
 9501SOL    HW139962   4.256   4.451   5.085 -1.3422 -1.5836  2.0600
 9501SOL    HW239963   4.375   4.369   5.107  4.4132  2.3651  1.0489
 9502SOL     OW39964   1.245   1.149  17.398  0.2709  0.4356  0.2359
 9502SOL    HW139965   1.310   1.168  17.466 -0.3340  2.5410  0.2317
 9502SOL    HW239966   1.275   1.059  17.390 -0.7058  0.1805 -0.6261
 9503SOL     OW39967   0.630   2.781   4.214 -0.0157  0.2643 -0.2166
 9503SOL    HW139968   0.694   2.749   4.151  0.9834  2.3046 -0.2423
 9503SOL    HW239969   0.624   2.704   4.271  2.4688 -0.2829 -0.7266
 9504SOL     OW39970   0.041   4.012   8.270  0.2712 -0.5360  0.0214
 9504SOL    HW139971   4.668   4.005   8.249 -0.1557 -3.3642  2.7675
 9504SOL    HW239972   0.069   4.097   8.235 -1.6838 -0.3442 -1.1055
 9505SOL     OW39973   1.825   3.636   4.234  0.5637 -0.2722 -0.2411
 9505SOL    HW139974   1.875   3.702   4.282  0.9675 -1.2799  0.7562
 9505SOL    HW239975   1.832   3.559   4.292 -0.4231 -1.1054 -1.2264
 9506SOL     OW39976   1.833   3.857   0.112  0.0278  0.3644  0.1089
 9506SOL    HW139977   1.769   3.888   0.048 -0.9504  0.8973  1.3349
 9506SOL    HW239978   1.919   3.887   0.082  0.3886 -0.4783  0.3179
 9507SOL     OW39979   1.430   0.374   8.256 -0.2439  0.2228  0.0391
 9507SOL    HW139980   1.458   0.407   8.342 -0.4312  0.4141  0.0247
 9507SOL    HW239981   1.384   0.290   8.266  1.5995 -0.7646  0.2739
 9508SOL     OW39982   3.153   4.447   4.930  0.2891  0.2223 -0.6592
 9508SOL    HW139983   3.149   4.536   4.895  0.5569  0.3103 -0.4630
 9508SOL    HW239984   3.121   4.386   4.863  0.3610 -0.8274  0.2693
 9509SOL     OW39985   4.191   4.542   8.835 -0.7666  0.2240  0.8165
 9509SOL    HW139986   4.162   4.534   8.744 -1.4861  1.7662  0.8986
 9509SOL    HW239987   4.145   4.623   8.858 -1.1103 -0.1319  1.3453
 9510SOL     OW39988   0.868   2.757   3.657 -0.3571  0.4144  0.3975
 9510SOL    HW139989   0.952   2.716   3.637 -2.3018 -1.9635 -2.8008
 9510SOL    HW239990   0.808   2.686   3.682  1.4545 -0.9560  0.8763
 9511SOL     OW39991   3.022   3.236   6.633  0.4487 -0.2264  0.3266
 9511SOL    HW139992   2.977   3.297   6.692  0.3346 -0.1061  0.1162
 9511SOL    HW239993   3.109   3.224   6.672  0.2981 -0.5957  0.5517
 9512SOL     OW39994   3.872   2.038   0.291 -0.1477  0.2870  0.1049
 9512SOL    HW139995   3.938   2.002   0.232 -1.3524  1.5044 -2.0105
 9512SOL    HW239996   3.813   1.965   0.311  0.2975 -0.0736  0.1022
 9513SOL     OW39997   2.998   4.065   3.650  0.1133 -0.1394 -0.3032
 9513SOL    HW139998   3.052   4.143   3.658  0.2189 -0.2015 -0.4046
 9513SOL    HW239999   2.987   4.048   3.744 -2.6469 -1.2378 -0.8297
 9514SOL     OW40000   4.687   4.491   6.772 -0.2058  0.1799  0.2207
 9514SOL    HW140001   0.022   4.513   6.846 -0.8503  0.7751  0.5198
 9514SOL    HW240002   0.009   4.406   6.755 -2.2562 -0.9239  0.6559
 9515SOL     OW40003   2.026   3.552   7.351 -0.1089 -0.4369  0.3752
 9515SOL    HW140004   2.099   3.568   7.291  0.7720  2.8492  2.3053
 9515SOL    HW240005   2.027   3.456   7.352 -0.2916 -0.4504 -0.6675
 9516SOL     OW40006   3.343   0.103  11.356 -0.4974  0.5064 -0.2729
 9516SOL    HW140007   3.418   0.088  11.299 -0.9897 -1.3970 -0.4296
 9516SOL    HW240008   3.387   0.148  11.427 -1.8921 -1.5891  1.9236
 9517SOL     OW40009   0.149   1.529   5.659 -0.6972 -0.4410 -0.1895
 9517SOL    HW140010   0.214   1.534   5.589  0.7232  0.4730  1.1874
 9517SOL    HW240011   0.073   1.525   5.602  1.7039  0.6901 -3.4473
 9518SOL     OW40012   2.706   0.184   3.871 -0.1152 -0.2593 -0.0555
 9518SOL    HW140013   2.686   0.145   3.786  0.8216 -0.2198 -0.3019
 9518SOL    HW240014   2.707   0.104   3.925  2.9295  0.8211  1.4941
 9519SOL     OW40015   3.791   0.980   5.014 -0.7246 -0.2095  0.9329
 9519SOL    HW140016   3.736   1.018   4.946  0.9354 -1.0155 -0.8655
 9519SOL    HW240017   3.822   0.903   4.967  3.1059  0.2543  2.6382
 9520SOL     OW40018   1.750   3.705   3.269  0.5629 -0.4084  0.3325
 9520SOL    HW140019   1.733   3.629   3.212  0.2399  0.3290 -0.5519
 9520SOL    HW240020   1.667   3.703   3.317 -0.6800  2.5399 -1.6788
 9521SOL     OW40021   4.648   0.822  16.961 -0.0309 -0.5186 -0.0120
 9521SOL    HW140022   4.579   0.780  16.910 -0.2824 -2.2165  1.7515
 9521SOL    HW240023   4.608   0.908  16.972 -1.2016 -0.7587 -2.4668
 9522SOL     OW40024   2.020   2.354   9.005  0.1666 -0.3550  0.3939
 9522SOL    HW140025   2.100   2.340   9.054  0.2343 -0.4225  0.2637
 9522SOL    HW240026   1.965   2.308   9.068 -2.8589  2.4616 -0.1284
 9523SOL     OW40027   0.761   2.211   3.107 -0.5978 -0.6175 -0.0151
 9523SOL    HW140028   0.838   2.204   3.052 -0.8097 -2.1295 -0.1146
 9523SOL    HW240029   0.790   2.159   3.182  0.8128 -0.0351 -0.1580
 9524SOL     OW40030   3.190   1.798   4.791  0.0957 -0.2295 -0.5895
 9524SOL    HW140031   3.175   1.788   4.697 -2.6885  1.8449 -0.3394
 9524SOL    HW240032   3.283   1.812   4.775  0.7462 -0.6148  3.0239
 9525SOL     OW40033   0.453   0.474   1.731 -0.3396  0.2943  0.2903
 9525SOL    HW140034   0.386   0.446   1.792  1.3385  0.8667  2.4110
 9525SOL    HW240035   0.529   0.442   1.779 -1.5708 -1.4468  1.0471
 9526SOL     OW40036   1.702   2.257   7.254  0.0333  0.4111 -0.0673
 9526SOL    HW140037   1.645   2.220   7.187  1.3469  1.3949 -1.7302
 9526SOL    HW240038   1.736   2.331   7.204  0.1214 -0.1025 -0.7614
 9527SOL     OW40039   4.174   1.459   4.980 -0.3337 -0.6885  0.7464
 9527SOL    HW140040   4.126   1.377   4.991  0.3592 -0.7784  3.0658
 9527SOL    HW240041   4.098   1.502   4.941 -0.1269  0.2715  1.3983
 9528SOL     OW40042   4.086   0.998   1.120 -0.3421  0.3135  0.1843
 9528SOL    HW140043   4.081   1.025   1.028  0.6810  0.0278  0.0411
 9528SOL    HW240044   4.180   1.015   1.132 -0.2881  0.3653 -0.3285
 9529SOL     OW40045   0.045   1.417   4.344 -0.5734  0.3287  0.5315
 9529SOL    HW140046   4.691   1.358   4.350 -0.8573  0.6040 -0.3477
 9529SOL    HW240047   0.015   1.483   4.407 -1.4717 -0.3040  0.7530
 9530SOL     OW40048   2.302   4.269   5.431  0.0569 -0.0361  0.2183
 9530SOL    HW140049   2.300   4.249   5.524  1.2449 -0.7674  0.0763
 9530SOL    HW240050   2.241   4.343   5.425 -1.5943 -1.2577  2.0552
 9531SOL     OW40051   3.292   2.187  13.769  0.1633 -0.0617  0.3747
 9531SOL    HW140052   3.198   2.189  13.789  0.1365 -0.1252  0.2531
 9531SOL    HW240053   3.297   2.220  13.680  2.3623 -1.8980 -0.1853
 9532SOL     OW40054   4.358   2.028   9.276  0.3532  0.1583 -0.0475
 9532SOL    HW140055   4.360   1.939   9.241  1.2156  0.0769  0.2133
 9532SOL    HW240056   4.454   2.035   9.273  0.4996 -0.9375  2.5201
 9533SOL     OW40057   1.722   0.240   4.729  0.0036 -0.0149  0.0003
 9533SOL    HW140058   1.803   0.286   4.709  0.3359 -0.9745 -0.8388
 9533SOL    HW240059   1.672   0.312   4.768 -0.4464  0.0000 -0.6071
 9534SOL     OW40060   3.681   4.480   3.791  0.3434  0.3759 -0.0039
 9534SOL    HW140061   3.709   4.546   3.728 -1.4674  3.3267  2.2949
 9534SOL    HW240062   3.754   4.421   3.770 -0.8364 -0.4800 -1.6389
 9535SOL     OW40063   3.133   1.766   0.654  0.3141  0.1732  0.0352
 9535SOL    HW140064   3.206   1.818   0.620  1.2875 -0.5244  1.0657
 9535SOL    HW240065   3.141   1.770   0.749  2.3621 -1.2137 -0.0899
 9536SOL     OW40066   0.058   0.847   1.309  0.3923  0.0168 -0.1450
 9536SOL    HW140067   0.135   0.894   1.277  0.4617  0.5090  0.7469
 9536SOL    HW240068   4.717   0.915   1.283  1.4048  0.9323 -0.1266
 9537SOL     OW40069   3.120   0.961   2.727 -0.2184 -0.1889  0.2368
 9537SOL    HW140070   3.041   1.013   2.741 -0.9703 -0.9617 -1.2306
 9537SOL    HW240071   3.105   0.909   2.806 -0.6678  0.0428  0.3032
 9538SOL     OW40072   0.326   4.690   9.270  0.2303 -0.1732  0.2836
 9538SOL    HW140073   0.323   0.064   9.257  0.2402  0.0434  1.9126
 9538SOL    HW240074   0.401   4.674   9.328  0.6309  1.2936  0.1785
 9539SOL     OW40075   0.233   1.942  11.187  0.0572 -0.3871 -0.2467
 9539SOL    HW140076   0.283   1.908  11.261 -0.6910  0.4469  0.6471
 9539SOL    HW240077   0.211   2.031  11.215 -0.9434 -1.1351  1.3315
 9540SOL     OW40078   2.265   1.949   8.131  0.0827  0.2626  0.3504
 9540SOL    HW140079   2.229   1.865   8.101 -0.8401  0.6905  0.2778
 9540SOL    HW240080   2.338   1.958   8.069 -1.4959  1.9751 -1.2438
 9541SOL     OW40081   4.520   0.622   7.172 -0.1741  0.4241 -0.1945
 9541SOL    HW140082   4.568   0.684   7.117  0.3536  0.1267 -0.0627
 9541SOL    HW240083   4.562   0.634   7.258 -0.4465  2.2922 -0.3043
 9542SOL     OW40084   2.734   4.269   1.515  0.9959 -0.3667  0.1289
 9542SOL    HW140085   2.669   4.213   1.558  0.7574  0.0336  0.2947
 9542SOL    HW240086   2.703   4.285   1.426 -0.6406 -2.8578  0.2631
 9543SOL     OW40087   1.824   4.120   6.378  0.5019 -0.7137  0.1661
 9543SOL    HW140088   1.888   4.191   6.372 -0.1497 -0.0303  1.3473
 9543SOL    HW240089   1.746   4.169   6.407  0.9242  0.3882 -0.5253
 9544SOL     OW40090   3.756   3.100  14.140 -0.0543 -0.5535  0.0109
 9544SOL    HW140091   3.745   3.153  14.061 -2.2440  1.6065  1.7902
 9544SOL    HW240092   3.684   3.041  14.119 -0.5208  0.1269 -0.2997
 9545SOL     OW40093   4.338   2.722   7.639  0.0097 -0.1211  0.2503
 9545SOL    HW140094   4.303   2.717   7.550 -0.5303 -1.9427  0.5616
 9545SOL    HW240095   4.371   2.634   7.656 -0.3095 -0.3576 -0.3399
 9546SOL     OW40096   3.736   4.683   1.410  0.3064 -0.4833 -0.1948
 9546SOL    HW140097   3.730   0.036   1.471 -2.8194 -1.4909  0.6949
 9546SOL    HW240098   3.804   4.718   1.353  2.5403 -1.3086  1.9654
 9547SOL     OW40099   3.675   0.756   6.399  0.1444  0.3585  0.3120
 9547SOL    HW140100   3.584   0.759   6.371  0.8023  1.9693 -1.6164
 9547SOL    HW240101   3.677   0.837   6.450 -2.2260  0.1066  0.7899
 9548SOL     OW40102   2.322   4.015   3.132  0.1292 -0.0451  0.4278
 9548SOL    HW140103   2.303   3.923   3.116  0.5237  0.4566 -2.7851
 9548SOL    HW240104   2.241   4.058   3.104 -0.6313 -1.1991  0.8331
 9549SOL     OW40105   0.787   0.368  13.532 -0.2735  0.0219  0.6648
 9549SOL    HW140106   0.723   0.417  13.583 -1.6325 -2.4102  1.2942
 9549SOL    HW240107   0.722   0.316  13.485 -0.7397  0.9724  0.2602
 9550SOL     OW40108   1.719   3.684   8.412 -0.8920 -0.3492 -0.0736
 9550SOL    HW140109   1.679   3.608   8.455  1.6187 -1.2522  0.6609
 9550SOL    HW240110   1.653   3.708   8.348 -0.3658 -0.2038 -0.5591
 9551SOL     OW40111   4.636   4.280   2.081  0.2590 -0.1766  0.4362
 9551SOL    HW140112   4.714   4.284   2.026 -0.0913 -1.3326 -0.1369
 9551SOL    HW240113   4.567   4.285   2.015  1.6764 -0.2497 -1.0565
 9552SOL     OW40114   0.015   2.806   3.097 -0.1672  0.4331 -0.0121
 9552SOL    HW140115   4.642   2.796   3.079  0.3679 -2.1527 -1.2896
 9552SOL    HW240116   0.024   2.716   3.127  1.1453  0.3491 -0.6889
 9553SOL     OW40117   0.688   2.881   7.840  0.2968 -0.3504  0.0954
 9553SOL    HW140118   0.755   2.836   7.788  0.4114  0.7943 -0.7594
 9553SOL    HW240119   0.615   2.824   7.818 -1.5325  1.5034  1.3842
 9554SOL     OW40120   4.479   0.165  17.266  0.5649 -0.6707  0.4815
 9554SOL    HW140121   4.490   0.259  17.255 -0.3776 -0.3829  1.9767
 9554SOL    HW240122   4.425   0.145  17.343 -0.2347  3.1140  0.8836
 9555SOL     OW40123   2.502   3.040   4.538 -0.5188  0.2683  0.3816
 9555SOL    HW140124   2.483   3.133   4.544  1.2514  0.7474 -1.3398
 9555SOL    HW240125   2.536   3.037   4.448 -1.7815 -2.0170 -0.0290
 9556SOL     OW40126   0.632   0.236   8.167 -0.2499  0.0935 -0.0888
 9556SOL    HW140127   0.724   0.240   8.141 -0.5656 -0.5151 -1.2805
 9556SOL    HW240128   0.607   0.164   8.109  1.6584  0.2211 -1.0647
 9557SOL     OW40129   2.610   0.737   2.220 -0.2695  0.2682  0.7098
 9557SOL    HW140130   2.539   0.803   2.217  0.8119  1.4576  1.2899
 9557SOL    HW240131   2.677   0.792   2.259  0.5133 -0.2623  0.1012
 9558SOL     OW40132   0.012   0.347   7.619 -0.0341 -0.1077  0.2144
 9558SOL    HW140133   0.009   0.315   7.710 -0.0279 -0.7781 -0.0225
 9558SOL    HW240134   4.695   0.275   7.568 -0.2993  0.5174 -0.4643
 9559SOL     OW40135   2.312   0.879   2.945  0.2196 -0.2778 -0.2071
 9559SOL    HW140136   2.304   0.944   3.015  1.6465 -0.2596 -0.0445
 9559SOL    HW240137   2.380   0.924   2.893 -0.9269 -0.2728 -1.6821
 9560SOL     OW40138   0.744   0.363   6.302 -0.1145 -0.6724 -0.6883
 9560SOL    HW140139   0.664   0.355   6.353  0.7556  0.8828  0.9129
 9560SOL    HW240140   0.721   0.306   6.228 -1.0254 -0.6359 -0.4321
 9561SOL     OW40141   3.277   1.738   3.420  0.4847 -0.1088  0.0910
 9561SOL    HW140142   3.311   1.767   3.335  2.2694 -0.0608  0.8092
 9561SOL    HW240143   3.269   1.644   3.404  1.6851 -0.5980  2.3873
 9562SOL     OW40144   0.004   2.454   5.462 -0.0943  0.0609  0.4429
 9562SOL    HW140145   4.682   2.409   5.536  0.0979 -1.3969 -0.3290
 9562SOL    HW240146   0.095   2.431   5.479  0.1286  0.4270 -0.2466
 9563SOL     OW40147   1.866   2.837  11.391  0.6086  0.1541  0.0108
 9563SOL    HW140148   1.817   2.876  11.463  0.5272  0.4031 -0.1779
 9563SOL    HW240149   1.951   2.846  11.434  1.3639 -0.9476 -1.2467
 9564SOL     OW40150   3.656   0.864  10.133  0.3879 -0.8277 -0.1708
 9564SOL    HW140151   3.678   0.956  10.124  0.3245 -1.1953 -3.9372
 9564SOL    HW240152   3.562   0.869  10.155  0.7034 -2.2607  1.5390
 9565SOL     OW40153   2.972   4.173   1.029  0.8247  0.4711  0.2451
 9565SOL    HW140154   3.013   4.178   0.943  0.6016  0.6770  0.1498
 9565SOL    HW240155   2.885   4.200   1.001  0.0717 -1.7302  0.4490
   4.72046   4.72046  17.68441
