Membrane in water
40155
    1TCq1    O1    1   2.203   0.306  11.035  0.2164  0.3076 -0.2830
    1TCq1    C1    2   2.324   0.258  11.015  0.4994  0.0215  0.3407
    1TCq1    O2    3   2.360   0.196  10.919 -0.0569  0.0147  0.5048
    1TCq1    C2    4   2.398   0.350  11.088 -0.6965  0.1063 -1.0594
    1TCq1    C3    5   2.508   0.403  11.029  0.4650 -0.4376 -0.0560
    1TCq1    C4    6   2.617   0.439  11.104 -1.0992 -0.2110  0.0689
    1TCq1    C5    7   2.618   0.408  11.239 -0.6430  0.7085 -0.1421
    1TCq1    C6    8   2.503   0.358  11.296  0.7214 -0.2165 -0.2176
    1TCq1    C7    9   2.394   0.333  11.225 -0.2770 -0.4313 -0.4014
    1TCq1    C8   10   2.523   0.281  11.417 -0.8871 -0.5211 -0.0258
    1TCq1    O4   11   2.426   0.263  11.487 -0.4110  0.5009 -0.6686
    1TCq1    C9   12   2.748   0.473  11.047 -0.5061 -0.0876 -0.2034
    1TCq1    O5   13   2.843   0.480  11.130 -0.4688 -0.1118  0.3816
    1TCq1    O6   14   2.761   0.494  10.922 -0.3052 -0.7871 -0.3036
    1TCq1    H1   15   2.188   0.378  11.100  0.5165  0.6850 -0.6289
    1TCq1    H2   16   2.527   0.419  10.923 -0.4866  0.9296 -0.0263
    1TCq1    H3   17   2.703   0.432  11.302  1.2157 -1.0897 -1.9685
    1TCq1    H4   18   2.311   0.285  11.277 -1.0166  1.8307  0.5333
    2MPD2     C   19   2.820   4.700  11.709  0.3099 -0.1755 -0.0651
    2MPD2    C1   20   2.723   0.067  11.730  0.0634 -0.2800 -0.4038
    2MPD2    C2   21   2.666   0.146  11.632  0.7635  0.9727  0.4457
    2MPD2    C3   22   2.700   0.131  11.506 -0.4327  0.0021  0.3088
    2MPD2    C4   23   2.798   0.040  11.477  0.2743 -0.7741 -0.3903
    2MPD2    C5   24   2.861   4.683  11.576  0.4621  0.4359 -0.3823
    2MPD2     H   25   2.591   0.217  11.664 -0.6273 -1.0916  1.7465
    2MPD2    H1   26   2.830   0.012  11.378  1.3055 -0.2403 -0.1986
    2MPD2    H2   27   2.868   4.632  11.778 -0.2172 -1.2826 -0.7949
    2MPD2    H3   28   2.932   4.606  11.548  0.8392  1.1699 -1.4696
    2MPD2     N   29   2.643   0.211  11.405  0.0308 -0.2832 -0.5704
    2MPD2    H5   30   2.688   0.212  11.314  1.7746  0.4837  0.2951
    2MPD2    N1   31   2.684   0.110  11.857  0.2091  0.5800 -0.0683
    2MPD2    H7   32   2.604   0.171  11.868  0.0971  0.9084 -2.7300
    3TCq1    O1   33   1.962   2.088  10.143 -0.2738  0.1304 -0.3683
    3TCq1    C1   34   2.036   2.193  10.143  0.2014 -0.2098 -0.3950
    3TCq1    O2   35   2.119   2.228  10.059  0.3047 -0.6209 -0.3296
    3TCq1    C2   36   2.018   2.260  10.268 -0.2143  0.0470  0.1318
    3TCq1    C3   37   2.095   2.371  10.282 -0.0098 -0.1628  0.4711
    3TCq1    C4   38   2.110   2.419  10.407 -0.1670 -0.0918  0.3760
    3TCq1    C5   39   2.071   2.346  10.518 -1.2036  0.2598 -0.3345
    3TCq1    C6   40   2.007   2.226  10.502 -0.2567 -0.1517 -0.3421
    3TCq1    C7   41   1.972   2.189  10.374 -0.4158  0.1821 -0.0422
    3TCq1    C8   42   1.950   2.154  10.619  0.5576 -0.3473 -0.8241
    3TCq1    O4   43   1.913   2.040  10.602  0.4483  0.6624 -0.6314
    3TCq1    C9   44   2.155   2.556  10.431 -1.0318  0.5185 -0.5215
    3TCq1    O5   45   2.196   2.622  10.334 -0.1234  0.0245 -0.3065
    3TCq1    O6   46   2.117   2.600  10.541 -0.5026 -0.4950 -0.2198
    3TCq1    H1   47   1.904   2.089  10.222 -1.0036  0.6989 -0.9169
    3TCq1    H2   48   2.113   2.431  10.193 -0.6096  1.9112  1.7266
    3TCq1    H3   49   2.086   2.380  10.620 -1.0588 -0.9400  0.0430
    3TCq1    H4   50   1.914   2.098  10.367 -0.3816 -0.0203  2.2383
    4MPD2     C   51   1.752   2.126  11.107  0.3773 -0.2633  0.9512
    4MPD2    C1   52   1.783   2.255  11.079 -0.1121 -0.1913 -0.5926
    4MPD2    C2   53   1.824   2.281  10.949  0.1960 -0.1474 -0.4339
    4MPD2    C3   54   1.861   2.185  10.854  0.1460 -0.7592  0.1870
    4MPD2    C4   55   1.838   2.059  10.888  0.1465 -0.5642 -0.3047
    4MPD2    C5   56   1.779   2.033  11.011 -0.1801 -0.5504 -0.1576
    4MPD2     H   57   1.840   2.382  10.912  0.1169 -0.6556 -1.8413
    4MPD2    H1   58   1.859   1.977  10.821  3.7088  0.6483 -0.6840
    4MPD2    H2   59   1.707   2.094  11.200  1.4625 -2.0298  0.8817
    4MPD2    H3   60   1.756   1.932  11.045 -1.8884 -0.0976  0.0129
    4MPD2     N   61   1.919   2.229  10.729 -0.2163  0.2944  0.3490
    4MPD2    H5   62   1.924   2.330  10.726  1.1457  0.3214  3.3464
    4MPD2    N1   63   1.761   2.362  11.170 -0.3148  0.2892 -0.0967
    4MPD2    H7   64   1.781   2.451  11.126 -0.6178  1.5979  2.4141
    5TCq1    O1   65   2.018   3.899  10.496  0.1316  0.0048 -0.4575
    5TCq1    C1   66   2.118   3.895  10.586 -0.1334  0.3838  0.1161
    5TCq1    O2   67   2.101   3.871  10.704 -0.6149  0.0746  0.6093
    5TCq1    C2   68   2.230   3.868  10.501  0.3172 -0.0697 -0.8543
    5TCq1    C3   69   2.286   3.964  10.421  0.2439 -0.4213 -0.5281
    5TCq1    C4   70   2.410   3.939  10.362 -0.4391 -0.2196 -0.4695
    5TCq1    C5   71   2.471   3.822  10.372 -0.6580  0.4117 -0.2696
    5TCq1    C6   72   2.413   3.731  10.450 -1.0798 -0.0840 -0.1664
    5TCq1    C7   73   2.290   3.748  10.513 -0.1588 -0.6218  0.2118
    5TCq1    C8   74   2.458   3.594  10.441 -0.9748  0.5506 -0.3324
    5TCq1    O4   75   2.434   3.513  10.529  0.3100 -0.6183  0.4001
    5TCq1    C9   76   2.478   4.040  10.281 -0.5245 -0.9688 -0.0542
    5TCq1    O5   77   2.424   4.151  10.265 -0.0170  0.6109 -0.2735
    5TCq1    O6   78   2.589   4.015  10.229 -0.6212  0.4636 -0.1820
    5TCq1    H1   79   2.048   3.952  10.419 -0.3508  0.3821 -0.3866
    5TCq1    H2   80   2.253   4.067  10.414 -0.7753 -0.6676  0.5955
    5TCq1    H3   81   2.575   3.823  10.341 -0.3568  1.7039  0.8157
    5TCq1    H4   82   2.248   3.673  10.579 -1.2075 -0.6639 -0.5066
    6MPD2     C   83   2.514   3.443  10.101 -0.5805  0.2734 -0.4598
    6MPD2    C1   84   2.505   3.448  10.239 -0.0811 -0.2249 -0.2007
    6MPD2    C2   85   2.524   3.330  10.309 -0.2066  0.2386  0.3258
    6MPD2    C3   86   2.550   3.208  10.251 -0.1045 -0.2558  0.0687
    6MPD2    C4   87   2.563   3.208  10.115  0.8111  0.9110  0.4155
    6MPD2    C5   88   2.548   3.325  10.041 -0.2203 -0.3743 -0.4991
    6MPD2     H   89   2.532   3.336  10.417  0.8751 -0.7737  0.3046
    6MPD2    H1   90   2.588   3.117  10.061  0.8214  1.1249  0.0618
    6MPD2    H2   91   2.500   3.525  10.032 -3.0618 -0.0831 -0.3877
    6MPD2    H3   92   2.555   3.326   9.933  1.3686 -0.8607 -0.4153
    6MPD2     N   93   2.566   3.093  10.329  1.0028  0.0345 -0.8987
    6MPD2    H5   94   2.588   3.109  10.427  0.7815 -0.5020 -0.7667
    6MPD2    N1   95   2.487   3.570  10.306  0.1965 -0.0120  0.0292
    6MPD2    H7   96   2.475   3.654  10.250 -2.0161  0.3584  1.0259
    7TCq1    O1   97   4.029   3.474  13.571 -0.5926  0.0068  0.2480
    7TCq1    C1   98   3.932   3.415  13.499 -0.8908 -0.1447  0.0053
    7TCq1    O2   99   3.816   3.450  13.499  0.5959  0.1070 -0.3966
    7TCq1    C2  100   3.989   3.307  13.424  0.5226  0.5436 -0.1450
    7TCq1    C3  101   3.925   3.253  13.317 -0.0184  0.0839 -0.3521
    7TCq1    C4  102   3.976   3.143  13.257 -1.0403 -0.8686 -0.1528
    7TCq1    C5  103   4.088   3.084  13.304 -0.4860 -0.4917  0.3263
    7TCq1    C6  104   4.140   3.139  13.423  0.0259  0.0611  0.1366
    7TCq1    C7  105   4.093   3.245  13.487 -0.3100 -0.0910  0.1324
    7TCq1    C8  106   4.200   3.037  13.505  0.3305 -0.5682 -0.2508
    7TCq1    O4  107   4.178   2.920  13.480 -0.5726  0.1453 -0.1027
    7TCq1    C9  108   3.907   3.089  13.141  0.3399 -0.5076  0.4803
    7TCq1    O5  109   3.947   2.973  13.101 -0.0579 -0.2726  0.2002
    7TCq1    O6  110   3.802   3.144  13.105  0.2553  0.0752  0.2020
    7TCq1    H1  111   4.124   3.451  13.560 -0.8949 -1.8102  1.3283
    7TCq1    H2  112   3.827   3.292  13.289 -0.9528 -2.4381 -0.5340
    7TCq1    H3  113   4.122   2.995  13.251  0.5891  0.4711 -0.5897
    7TCq1    H4  114   4.111   3.263  13.592  0.5525 -1.3510  0.1929
    8MPD2     C  115   4.544   2.900  13.839  0.2734  0.0038 -0.7957
    8MPD2    C1  116   4.500   2.821  13.733 -0.4607 -0.2134  0.3355
    8MPD2    C2  117   4.410   2.890  13.650  0.6857  0.1475  0.4956
    8MPD2    C3  118   4.380   3.022  13.670 -0.2675 -0.4049  0.0625
    8MPD2    C4  119   4.435   3.094  13.779  0.0292  0.5884  0.1764
    8MPD2    C5  120   4.518   3.028  13.861 -0.3200 -0.3863 -0.5872
    8MPD2     H  121   4.368   2.846  13.560 -0.2442 -0.7649  1.3796
    8MPD2    H1  122   4.431   3.200  13.803 -1.8065  0.6226 -0.3114
    8MPD2    H2  123   4.615   2.862  13.911 -1.5952  0.3822  1.2526
    8MPD2    H3  124   4.569   3.084  13.938 -0.0403 -0.6264 -0.5973
    8MPD2     N  125   4.295   3.091  13.585 -0.2370 -0.5542 -0.1739
    8MPD2    H5  126   4.283   3.188  13.613  0.7758  0.3597 -2.8491
    8MPD2    N1  127   4.545   2.683  13.718 -0.0872  0.4264  0.1237
    8MPD2    H7  128   4.603   2.648  13.793 -1.2564  0.3430  0.9971
    9TCq1    O1  129   1.757   1.663  11.098  0.4039 -0.9492 -0.2739
    9TCq1    C1  130   1.869   1.670  11.166 -0.6915 -0.6548 -0.1107
    9TCq1    O2  131   1.886   1.696  11.285 -0.5851  0.1264  0.0289
    9TCq1    C2  132   1.981   1.687  11.071  0.7361  0.0835  0.6012
    9TCq1    C3  133   1.971   1.723  10.939  0.3689  0.8511  0.7523
    9TCq1    C4  134   2.083   1.732  10.864 -0.2434 -0.3110 -0.1112
    9TCq1    C5  135   2.208   1.714  10.913 -0.3307 -0.4338  0.0559
    9TCq1    C6  136   2.220   1.679  11.051 -0.1300 -0.4502  0.0480
    9TCq1    C7  137   2.108   1.673  11.127  0.1407 -0.2792  1.0688
    9TCq1    C8  138   2.347   1.641  11.101  0.3470 -0.2534 -0.2317
    9TCq1    O4  139   2.449   1.664  11.035  0.1369 -0.4882  0.1451
    9TCq1    C9  140   2.077   1.750  10.719 -1.0433  0.7577 -0.7480
    9TCq1    O5  141   2.182   1.801  10.676  0.1305 -0.1314 -0.3825
    9TCq1    O6  142   1.965   1.732  10.664 -0.2001 -0.2114 -0.3875
    9TCq1    H1  143   1.761   1.615  11.013  1.3319  2.4289 -2.1387
    9TCq1    H2  144   1.874   1.739  10.892  1.6163 -0.7585 -2.3836
    9TCq1    H3  145   2.296   1.738  10.854 -0.4951 -0.3821 -0.1687
    9TCq1    H4  146   2.107   1.652  11.234 -0.3016 -0.7898  0.9661
   10MPD2     C  147   2.578   1.543  11.261  1.2264  0.5594 -0.3192
   10MPD2    C1  148   2.443   1.530  11.298 -0.2595  0.2819  0.5690
   10MPD2    C2  149   2.411   1.480  11.420 -0.6182 -0.4266 -0.2258
   10MPD2    C3  150   2.501   1.412  11.495 -0.6187 -0.4267 -0.7757
   10MPD2    C4  151   2.634   1.416  11.458 -0.3382  0.0415 -0.2697
   10MPD2    C5  152   2.668   1.494  11.349  0.0170  0.5061  0.3331
   10MPD2     H  153   2.305   1.479  11.442 -0.9456  0.6791 -1.7447
   10MPD2    H1  154   2.708   1.355  11.509 -1.1881 -0.4303  0.4040
   10MPD2    H2  155   2.622   1.590  11.174 -1.1783  1.7115 -0.9141
   10MPD2    H3  156   2.773   1.510  11.329 -0.1603  1.6418  0.3379
   10MPD2     N  157   2.459   1.335  11.603 -0.5033  0.0958 -0.7046
   10MPD2    H5  158   2.540   1.300  11.655 -1.7661 -0.9397  0.5763
   10MPD2    N1  159   2.337   1.584  11.224  0.3985  0.4561 -0.3062
   10MPD2    H7  160   2.244   1.575  11.264  0.0721 -0.4499 -1.2742
   11TCq1    O1  161   3.491   1.288  13.921  0.0909  0.2016  0.2443
   11TCq1    C1  162   3.588   1.346  13.997 -0.0815 -0.2644  0.3395
   11TCq1    O2  163   3.707   1.314  13.999 -0.0175 -0.1228 -0.2436
   11TCq1    C2  164   3.521   1.451  14.065 -0.5590 -0.2783 -0.0387
   11TCq1    C3  165   3.595   1.564  14.097 -0.0703 -0.1457  0.3069
   11TCq1    C4  166   3.581   1.618  14.219 -0.1429  0.2189 -0.1778
   11TCq1    C5  167   3.494   1.564  14.306 -0.1561 -0.2387  0.2891
   11TCq1    C6  168   3.413   1.459  14.276  0.1051 -0.5318  0.3279
   11TCq1    C7  169   3.431   1.396  14.158 -0.4925  0.5700 -0.3500
   11TCq1    C8  170   3.325   1.407  14.375 -0.4839 -0.3791  0.5682
   11TCq1    O4  171   3.365   1.405  14.492 -0.9774 -0.1435  1.0551
   11TCq1    C9  172   3.674   1.718  14.259 -0.4813 -0.0510 -0.0845
   11TCq1    O5  173   3.738   1.773  14.166 -0.4633 -0.5888  0.1997
   11TCq1    O6  174   3.638   1.775  14.364 -0.1290 -0.1583 -0.2216
   11TCq1    H1  175   3.406   1.337  13.924 -0.4796 -0.7806 -0.0447
   11TCq1    H2  176   3.677   1.588  14.030 -1.2427  2.2751 -0.2671
   11TCq1    H3  177   3.494   1.607  14.406 -1.5858 -1.6425  0.8810
   11TCq1    H4  178   3.386   1.298  14.152 -0.2670  0.3952  0.7663
   12MPD2     C  179   3.098   1.307  14.543  0.0297 -0.0889 -0.4594
   12MPD2    C1  180   3.103   1.312  14.403 -0.1488 -0.4154  0.4868
   12MPD2    C2  181   2.987   1.277  14.339  0.2304  0.0641 -0.2771
   12MPD2    C3  182   2.880   1.217  14.404 -0.1510  0.4562 -0.0625
   12MPD2    C4  183   2.888   1.199  14.539 -0.1113 -0.2333 -0.0100
   12MPD2    C5  184   2.991   1.246  14.609  0.4320 -0.2156 -0.4875
   12MPD2     H  185   2.985   1.273  14.231  0.0934 -1.6180 -0.2093
   12MPD2    H1  186   2.803   1.153  14.589  0.1462 -0.5203  0.1652
   12MPD2    H2  187   3.178   1.345  14.607  1.1988  1.9367 -3.1478
   12MPD2    H3  188   2.988   1.225  14.716 -1.9224 -0.8166 -0.6688
   12MPD2     N  189   2.768   1.159  14.341 -0.4161 -0.0657 -0.5939
   12MPD2    H5  190   2.699   1.104  14.392 -1.4249  0.5687 -1.2753
   12MPD2    N1  191   3.209   1.354  14.322  0.0911  0.1157  0.6088
   12MPD2    H7  192   3.183   1.384  14.229 -1.7417  1.3611  1.5082
   13TCq1    O1  193   2.709   1.063  10.948 -0.0556 -0.3645 -0.5257
   13TCq1    C1  194   2.747   1.191  10.929  0.3917 -0.0990  0.4239
   13TCq1    O2  195   2.848   1.226  10.871 -0.1581 -0.0878 -0.3242
   13TCq1    C2  196   2.624   1.256  10.893  0.7613  0.0669  0.5455
   13TCq1    C3  197   2.612   1.326  10.771 -0.1356 -0.6328 -0.2627
   13TCq1    C4  198   2.494   1.397  10.745  0.2062 -0.4087 -0.6102
   13TCq1    C5  199   2.383   1.399  10.833 -0.1263 -0.5338  0.5017
   13TCq1    C6  200   2.399   1.328  10.951  0.4961  0.0265  0.2925
   13TCq1    C7  201   2.521   1.265  10.986 -0.0212 -0.0339  0.2568
   13TCq1    C8  202   2.282   1.309  11.029  1.1438  1.0565 -0.3875
   13TCq1    O4  203   2.285   1.266  11.144 -0.3859 -0.2460  0.8490
   13TCq1    C9  204   2.481   1.481  10.629 -0.3575  0.2369  0.0446
   13TCq1    O5  205   2.368   1.529  10.605 -0.1662  0.0397 -0.0369
   13TCq1    O6  206   2.562   1.462  10.537 -0.0571  0.4256 -0.4272
   13TCq1    H1  207   2.612   1.048  10.959 -0.2265  0.6395 -0.7344
   13TCq1    H2  208   2.695   1.338  10.703  2.3763 -0.4902  2.8434
   13TCq1    H3  209   2.307   1.474  10.815 -0.5616 -1.0963  0.0266
   13TCq1    H4  210   2.527   1.221  11.085 -0.0751 -1.7250 -0.4803
   14MPD2     C  211   1.930   1.295  10.910  0.0734  0.7902 -0.4921
   14MPD2    C1  212   2.035   1.319  10.998  0.0178 -0.1028  0.3922
   14MPD2    C2  213   2.011   1.341  11.131  0.7382  0.0504 -0.5250
   14MPD2    C3  214   1.882   1.333  11.183 -0.0913  0.0406  0.9765
   14MPD2    C4  215   1.777   1.292  11.098  0.0501 -0.5342  0.4014
   14MPD2    C5  216   1.805   1.275  10.963 -0.2338 -0.0310  0.5167
   14MPD2     H  217   2.087   1.369  11.204  1.0440 -1.2593 -0.3508
   14MPD2    H1  218   1.682   1.264  11.141 -1.3022  1.9682 -0.9823
   14MPD2    H2  219   1.949   1.273  10.806 -0.5521  0.9321 -0.6362
   14MPD2    H3  220   1.730   1.229  10.900 -0.6901 -1.3388  1.9955
   14MPD2     N  221   1.860   1.364  11.321 -0.4607 -0.0638  0.5660
   14MPD2    H5  222   1.937   1.408  11.370 -0.4580  0.5834 -0.0130
   14MPD2    N1  223   2.167   1.325  10.954  0.0487  1.1082 -0.2611
   14MPD2    H7  224   2.189   1.351  10.858  0.8460 -0.9723 -0.6252
   15TCq1    O1  225   4.344   1.189   2.232  0.1707 -0.1208 -0.1386
   15TCq1    C1  226   4.216   1.213   2.267 -0.1018 -0.3324 -0.6042
   15TCq1    O2  227   4.181   1.324   2.315  0.1379 -0.9746 -0.2598
   15TCq1    C2  228   4.133   1.142   2.165 -0.0647 -0.1812  0.4067
   15TCq1    C3  229   4.014   1.198   2.130 -1.0446 -0.1776 -0.0549
   15TCq1    C4  230   3.936   1.153   2.025  0.3934 -0.6568 -1.4227
   15TCq1    C5  231   3.961   1.033   1.975 -0.1268 -0.8218 -0.3445
   15TCq1    C6  232   4.076   0.969   2.016  0.3378  0.7626 -0.3094
   15TCq1    C7  233   4.163   1.017   2.107 -0.8659  0.0816 -0.0884
   15TCq1    C8  234   4.118   0.847   1.946  0.5588  0.0894 -0.3629
   15TCq1    O4  235   4.230   0.808   1.966  0.2585 -0.0340 -0.3511
   15TCq1    C9  236   3.823   1.234   1.977  0.3785 -0.1720 -0.1685
   15TCq1    O5  237   3.743   1.183   1.891  0.5057 -0.7280 -0.4998
   15TCq1    O6  238   3.815   1.347   2.025 -0.9469 -0.2122  0.1363
   15TCq1    H1  239   4.353   1.103   2.186  1.5271 -0.6141  1.0474
   15TCq1    H2  240   3.992   1.296   2.171  1.6529  0.4062  0.0293
   15TCq1    H3  241   3.911   1.013   1.881  0.5545 -2.6765 -0.3186
   15TCq1    H4  242   4.253   0.963   2.138 -2.2285 -0.9405  2.0782
   16MPD2     C  243   3.887   0.624   1.766 -0.6873  0.1665 -0.0531
   16MPD2    C1  244   4.008   0.673   1.809  0.5574  0.4999  0.1211
   16MPD2    C2  245   4.119   0.589   1.807  1.1428  0.3614  0.2101
   16MPD2    C3  246   4.121   0.458   1.762 -0.2746  0.0226  0.4832
   16MPD2    C4  247   3.995   0.405   1.717  0.2733  0.9350  0.3252
   16MPD2    C5  248   3.886   0.490   1.712  0.4962 -0.6288  0.6107
   16MPD2     H  249   4.219   0.620   1.836  0.4688 -0.9740  3.9635
   16MPD2    H1  250   3.991   0.311   1.663  1.2644  0.7900  0.5128
   16MPD2    H2  251   3.806   0.695   1.770 -1.3661 -0.6498  0.6483
   16MPD2    H3  252   3.791   0.455   1.673  0.6184 -0.4265  0.1323
   16MPD2     N  253   4.252   0.407   1.744  0.2714 -0.0988  1.0793
   16MPD2    H5  254   4.333   0.452   1.785  1.3990  0.7244 -2.0375
   16MPD2    N1  255   4.013   0.795   1.873 -0.8569 -0.3741  0.2051
   16MPD2    H7  256   3.929   0.851   1.876 -1.9100 -1.7315 -3.2795
   17TCq1    O1  257   1.731   0.393  10.201  0.6349  0.5938 -0.0578
   17TCq1    C1  258   1.699   0.521  10.162 -0.6889  0.3184  0.0069
   17TCq1    O2  259   1.627   0.550  10.067 -0.0229  0.2988  0.2672
   17TCq1    C2  260   1.811   0.605  10.210  0.0887  0.2009 -0.3894
   17TCq1    C3  261   1.861   0.703  10.124  0.8483  0.6976  0.2152
   17TCq1    C4  262   1.954   0.794  10.161  0.5238  0.3182 -0.5621
   17TCq1    C5  263   1.998   0.786  10.287 -0.1182 -0.1238 -0.4245
   17TCq1    C6  264   1.933   0.705  10.379 -0.1930  0.5870 -1.0891
   17TCq1    C7  265   1.837   0.615  10.342 -0.5424  0.2213  0.8789
   17TCq1    C8  266   1.980   0.698  10.517 -0.4876 -0.0147 -0.0456
   17TCq1    O4  267   1.914   0.641  10.601 -0.7165  0.4717  0.1562
   17TCq1    C9  268   2.007   0.893  10.070 -0.7008  0.6187  0.2068
   17TCq1    O5  269   2.101   0.963  10.117  0.2884  0.0118  0.0643
   17TCq1    O6  270   1.988   0.865   9.948  0.5117 -0.0275  0.3534
   17TCq1    H1  271   1.812   0.379  10.254  0.2291  0.9303  0.6553
   17TCq1    H2  272   1.819   0.693  10.024 -2.7234 -0.1959  1.7743
   17TCq1    H3  273   2.067   0.863  10.319  0.2253 -0.6532  0.1062
   17TCq1    H4  274   1.793   0.551  10.418 -3.3260 -0.2572 -1.1385
   18MPD2     C  275   2.178   0.671  10.755 -0.3706 -0.7454 -0.0236
   18MPD2    C1  276   2.200   0.744  10.634  0.0361  0.0636 -0.5256
   18MPD2    C2  277   2.321   0.805  10.613 -0.2916 -0.1221 -0.5152
   18MPD2    C3  278   2.430   0.793  10.701 -0.1216 -0.1399  0.0591
   18MPD2    C4  279   2.412   0.715  10.812 -1.0273 -0.2285 -0.7751
   18MPD2    C5  280   2.284   0.668  10.838  0.1011 -0.1217 -0.1378
   18MPD2     H  281   2.333   0.860  10.520  3.1444  1.9128  1.1486
   18MPD2    H1  282   2.491   0.703  10.886 -1.6170 -2.1517 -0.4517
   18MPD2    H2  283   2.088   0.619  10.784  0.2534 -0.1064  3.0432
   18MPD2    H3  284   2.260   0.614  10.928 -1.9786 -2.5717 -2.1359
   18MPD2     N  285   2.552   0.856  10.678 -0.1176 -0.5322 -0.3054
   18MPD2    H5  286   2.627   0.834  10.743  1.1347  1.1924 -1.1859
   18MPD2    N1  287   2.104   0.761  10.532  1.0596 -0.2999  0.0706
   18MPD2    H7  288   2.138   0.821  10.458 -0.6584  0.2567 -0.2506
   19TMC2    C1  289   3.616   0.948  14.231  0.6315  1.0552  0.5616
   19TMC2    C2  290   3.627   0.974  14.100 -0.2408 -0.2319 -0.5796
   19TMC2    C3  291   3.593   0.868  14.020 -1.0450 -0.0569  0.1882
   19TMC2    C4  292   3.566   0.835  14.285  0.4992  0.0573  0.3402
   19TMC2    C5  293   3.536   0.731  14.201 -0.2309  0.1084  0.6559
   19TMC2    C6  294   3.545   0.748  14.065 -0.2993  0.7555  0.3410
   19TMC2     C  295   3.628   1.064  14.320 -0.4566 -0.6456 -0.0915
   19TMC2     O  296   3.610   1.172  14.272  0.8441  0.4421 -0.3478
   19TMC2     H  297   3.657   1.072  14.064  0.6546  0.1965  1.2982
   19TMC2    H1  298   3.549   0.837  14.392  0.2824  0.0809  0.3045
   19TMC2    H2  299   3.519   0.681  13.984  1.0102  1.0162 -0.3088
   19TMC2    C7  300   3.493   0.607  14.260  0.0065  0.4006  0.0539
   19TMC2    C8  301   3.607   0.888  13.878  0.4512 -0.3025  0.0371
   19TMC2    O1  302   3.439   0.615  14.370  0.0761  0.3910  0.2715
   19TMC2    O2  303   3.650   0.994  13.830 -0.1269 -0.0389  0.7661
   19TMC2    O5  304   3.651   0.766  13.842  0.5829  0.6171 -0.2592
   19TMC2    H5  305   3.657   0.692  13.906 -2.3677  1.3922  0.9291
   20MPD2     C  306   3.650   1.233  14.561  0.5322  0.8676  0.2224
   20MPD2    C1  307   3.696   1.104  14.556 -0.4843 -0.1101  0.2322
   20MPD2    C2  308   3.768   1.050  14.661 -0.6148  0.3144 -0.3372
   20MPD2    C3  309   3.786   1.130  14.775 -0.4898  0.3872 -0.3094
   20MPD2    C4  310   3.728   1.255  14.791 -0.2929 -0.0531 -0.0217
   20MPD2    C5  311   3.657   1.306  14.680 -0.2220 -0.1836 -0.2941
   20MPD2     H  312   3.799   0.946  14.661  0.7888  0.7327 -0.7295
   20MPD2    H1  313   3.733   1.319  14.879  1.2059  0.7618 -0.6958
   20MPD2    H2  314   3.599   1.287  14.482  2.7277  0.9950 -1.0999
   20MPD2    H3  315   3.610   1.403  14.682  0.5329  0.2245 -3.0891
   20MPD2     N  316   3.874   1.090  14.873  0.5566 -0.4679  0.2036
   20MPD2    H5  317   3.864   1.140  14.961  0.9180  3.7088 -2.1353
   20MPD2    N1  318   3.685   1.025  14.436 -0.1675  0.0795 -0.2380
   20MPD2    H7  319   3.736   0.937  14.433 -0.5632 -0.2133  1.5619
   21MPD2     C  320   1.581   1.564  14.530  0.2243 -1.0144  1.2649
   21MPD2    C1  321   1.621   1.439  14.575 -0.8680  0.2657 -0.2247
   21MPD2    C2  322   1.529   1.345  14.623 -1.3474  0.0968 -0.0351
   21MPD2    C3  323   1.395   1.371  14.623  0.3344 -0.1246 -0.0846
   21MPD2    C4  324   1.354   1.499  14.578  0.7249 -0.3975 -0.6548
   21MPD2    C5  325   1.445   1.591  14.536 -0.3608 -0.1548  0.0870
   21MPD2     H  326   1.570   1.250  14.653 -3.7620 -0.5708  1.1626
   21MPD2    H1  327   1.249   1.527  14.573  0.6285 -0.5634  0.3477
   21MPD2    H2  328   1.653   1.637  14.495  0.2121 -2.5293 -1.8202
   21MPD2    H3  329   1.411   1.688  14.502 -3.5347 -0.9354  1.0521
   21MPD2     N  330   1.293   1.286  14.673  0.3482  0.8665 -0.1212
   21MPD2    H5  331   1.201   1.326  14.690 -0.1911 -0.3005 -0.3244
   21MPD2    N1  332   1.753   1.400  14.578  0.3250 -0.6508  0.2824
   21MPD2    H7  333   1.765   1.300  14.584 -0.8024 -0.7863  0.3401
   22TCq2    C1  334   1.315   1.156  14.720 -0.0110 -0.2137  0.3429
   22TCq2    O2  335   1.408   1.074  14.706  0.4158 -0.7170  0.2017
   22TCq2    C2  336   1.204   1.112  14.800 -0.2485 -0.1543  0.0230
   22TCq2    C3  337   1.201   0.983  14.846  0.7118 -0.3006  0.1111
   22TCq2    C4  338   1.118   0.959  14.954 -0.6523  0.7474  0.1884
   22TCq2    C5  339   1.030   1.050  15.000  0.7635 -0.4507 -0.6619
   22TCq2    C6  340   1.027   1.168  14.935 -0.2886  0.9810  0.6690
   22TCq2    C7  341   1.109   1.198  14.835 -0.0200 -0.3063 -0.1945
   22TCq2    C8  342   0.955   1.274  15.007 -0.1581 -0.8785 -0.5248
   22TCq2    O4  343   0.953   1.260  15.132  0.4467 -0.0488  0.1329
   22TCq2    C9  344   1.113   0.819  15.003 -0.6600 -0.0545 -0.5855
   22TCq2    O5  345   1.230   0.765  15.004  0.2695 -0.2153  0.8148
   22TCq2    O6  346   1.010   0.783  15.068  0.1188  0.4266 -0.4407
   22TCq2    H2  347   1.268   0.904  14.816 -0.7509 -1.2611 -0.6389
   22TCq2    H3  348   0.966   1.031  15.085  0.2062  1.3712 -0.6813
   22TCq2    H4  349   1.110   1.305  14.816  0.6482 -0.1022  0.9386
   23MPD2     C  350   3.037   2.175  14.734 -0.2520 -0.0639  0.0592
   23MPD2    C1  351   2.913   2.133  14.752 -0.0539  0.0681 -0.1615
   23MPD2    C2  352   2.814   2.177  14.664  0.1925 -0.3691 -0.7023
   23MPD2    C3  353   2.839   2.266  14.566 -0.0890 -0.2147 -0.9340
   23MPD2    C4  354   2.968   2.305  14.546 -0.3449 -0.0055  0.1122
   23MPD2    C5  355   3.065   2.263  14.633 -0.2039  0.2956 -0.4497
   23MPD2     H  356   2.714   2.137  14.674  0.7457 -1.1271  1.6766
   23MPD2    H1  357   2.992   2.370  14.462 -2.0004  2.8512  1.8563
   23MPD2    H2  358   3.127   2.145  14.786 -1.1399 -0.7068  1.2146
   23MPD2    H3  359   3.168   2.292  14.612  0.5690 -1.2128  1.2832
   23MPD2     N  360   2.748   2.319  14.474  0.0962 -0.4678 -0.1000
   23MPD2    H5  361   2.782   2.379  14.400 -0.3035  0.4925  0.4920
   23MPD2    N1  362   2.875   2.049  14.858 -0.5428  0.2055 -0.3816
   23MPD2    H7  363   2.776   2.025  14.863 -1.3832  3.4494 -1.4098
   24TCq2    C1  364   2.614   2.310  14.489  0.8475  0.4545 -0.2529
   24TCq2    O2  365   2.542   2.265  14.576 -0.1939  0.0633 -0.2278
   24TCq2    C2  366   2.562   2.381  14.372  0.3547  0.5263 -0.6751
   24TCq2    C3  367   2.573   2.519  14.380 -0.1309  0.6641  0.1186
   24TCq2    C4  368   2.469   2.597  14.357  0.5594 -0.4976 -0.1424
   24TCq2    C5  369   2.345   2.550  14.313 -0.9412 -0.2352  0.6243
   24TCq2    C6  370   2.338   2.411  14.296  1.2904 -0.0546 -0.1429
   24TCq2    C7  371   2.446   2.328  14.322  0.1309 -0.6348 -0.3387
   24TCq2    C8  372   2.210   2.336  14.289  0.2464  0.7933  0.7893
   24TCq2    O4  373   2.228   2.219  14.268  0.8080 -0.2369 -0.0882
   24TCq2    C9  374   2.475   2.738  14.398  0.0922  0.3230 -0.3731
   24TCq2    O5  375   2.576   2.782  14.457  0.3647 -0.4081 -0.0100
   24TCq2    O6  376   2.359   2.791  14.422  0.0367  0.0832  0.3376
   24TCq2    H2  377   2.658   2.561  14.433 -0.1498  0.5522  0.2366
   24TCq2    H3  378   2.259   2.613  14.294 -0.1333  0.9840  1.0734
   24TCq2    H4  379   2.423   2.224  14.345 -1.1015 -0.2533  0.1755
   25TMC2    C1  380   2.063   0.315  11.642 -0.2893  0.5406 -0.5772
   25TMC2    C2  381   2.186   0.373  11.673  0.7716 -0.4820  0.1755
   25TMC2    C3  382   2.237   0.346  11.795  0.1144 -0.1588 -0.6299
   25TMC2    C4  383   1.980   0.255  11.734 -0.3269  0.9437  0.2528
   25TMC2    C5  384   2.035   0.240  11.858  0.4581  0.5124  0.0349
   25TMC2    C6  385   2.162   0.279  11.892 -0.4930 -0.4068  0.4077
   25TMC2     C  386   2.020   0.325  11.498 -0.1544  0.3012 -0.3289
   25TMC2     O  387   2.056   0.417  11.428 -0.0908  0.0963 -0.4687
   25TMC2     H  388   2.258   0.420  11.607 -0.6711  1.3096 -0.1242
   25TMC2    H1  389   1.879   0.228  11.707  0.2944 -0.8299 -0.2942
   25TMC2    H2  390   2.212   0.240  11.981  1.6698  1.0066 -0.1724
   25TMC2    C7  391   1.950   0.217  11.971 -0.3591  0.0037  0.1354
   25TMC2    C8  392   2.374   0.326  11.809  0.3742  1.0355 -0.2577
   25TMC2    O1  393   2.001   0.169  12.069 -0.7446  0.0245  0.0438
   25TMC2    O2  394   2.418   0.228  11.872 -0.7673  0.1438 -0.2563
   25TMC2    O5  395   2.447   0.436  11.779 -0.0377  0.3197  0.5065
   25TMC2    H5  396   2.403   0.515  11.741 -2.1439 -0.4828  1.2767
   26MPD2     C  397   1.736   0.166  11.110 -0.3160 -0.0659 -0.5799
   26MPD2    C1  398   1.748   0.063  11.205 -0.3215 -0.1196 -0.0901
   26MPD2    C2  399   1.823   0.079  11.320 -0.0877  0.5096 -0.5029
   26MPD2    C3  400   1.887   0.199  11.336  0.3003  0.3464 -0.7154
   26MPD2    C4  401   1.874   0.301  11.241 -0.2527  0.0123  0.4167
   26MPD2    C5  402   1.802   0.283  11.122  0.3734  0.4799  1.3972
   26MPD2     H  403   1.843   0.006  11.396 -0.9788  0.4703 -0.3079
   26MPD2    H1  404   1.904   0.403  11.262  1.7033  0.1359 -2.9035
   26MPD2    H2  405   1.669   0.157  11.025  2.5583 -1.1715 -2.6970
   26MPD2    H3  406   1.795   0.361  11.047 -0.1536  0.3912  1.3578
   26MPD2     N  407   1.955   0.207  11.460 -0.2018 -0.2536 -0.5605
   26MPD2    H5  408   1.943   0.129  11.524  0.5098 -0.6385 -0.8953
   26MPD2    N1  409   1.700   4.654  11.168 -0.1797  0.4372 -0.7549
   26MPD2    H7  410   1.658   4.647  11.076  3.0686  0.1353 -2.2040
   27TMC2    C1  411   0.636   1.775  12.295  0.0534 -0.0911 -0.4882
   27TMC2    C2  412   0.692   1.763  12.167  0.6398  0.4833  0.1882
   27TMC2    C3  413   0.714   1.878  12.098  0.3308 -0.7886 -0.2425
   27TMC2    C4  414   0.608   1.899  12.353 -0.0934  0.1439  0.1034
   27TMC2    C5  415   0.637   2.005  12.278 -0.5570  1.0919  0.3099
   27TMC2    C6  416   0.698   1.999  12.155  0.4217  0.5358 -0.1811
   27TMC2     C  417   0.605   1.658  12.387 -0.6781 -0.5042 -0.0773
   27TMC2     O  418   0.672   1.557  12.374 -0.5440 -0.6059  0.7754
   27TMC2     H  419   0.722   1.667  12.126 -2.4793 -0.2583 -0.3864
   27TMC2    H1  420   0.566   1.908  12.453  0.8414 -0.4336  0.5486
   27TMC2    H2  421   0.723   2.090  12.101 -1.7652  0.2024 -1.7478
   27TMC2    C7  422   0.617   2.137  12.332 -0.2948  0.2410 -0.4251
   27TMC2    C8  423   0.815   1.865  11.989 -0.1369 -0.0625  0.2704
   27TMC2    O1  424   0.505   2.153  12.385 -0.2722  0.1834 -0.2421
   27TMC2    O2  425   0.878   1.764  11.963 -0.3481  0.4483 -0.0757
   27TMC2    O5  426   0.818   1.977  11.912 -0.1455 -0.5992 -0.0876
   27TMC2    H5  427   0.733   2.027  11.912  0.2610  0.0917 -2.9455
   28MPD2     C  428   0.323   1.453  12.754  0.3110  0.2595  0.4929
   28MPD2    C1  429   0.265   1.573  12.714 -0.6984 -0.1878  0.5409
   28MPD2    C2  430   0.322   1.644  12.616  0.6250 -0.1858  0.2575
   28MPD2    C3  431   0.433   1.600  12.550  0.1301  0.7863  0.8035
   28MPD2    C4  432   0.502   1.488  12.593 -1.0041 -0.1517  0.1118
   28MPD2    C5  433   0.439   1.412  12.692  0.8417  0.0604  0.3587
   28MPD2     H  434   0.266   1.724  12.569 -1.2706 -1.4579  0.3657
   28MPD2    H1  435   0.596   1.442  12.565 -0.7671  1.1359 -1.2275
   28MPD2    H2  436   0.275   1.384  12.823 -0.3366 -1.8478 -2.0413
   28MPD2    H3  437   0.468   1.313  12.724 -0.9330 -0.9680 -1.2873
   28MPD2     N  438   0.495   1.685  12.455  0.0028 -0.6705  0.1196
   28MPD2    H5  439   0.453   1.776  12.440 -0.4541 -1.0124 -0.6780
   28MPD2    N1  440   0.144   1.609  12.781  0.5132 -0.7591 -0.7370
   28MPD2    H7  441   0.113   1.546  12.854 -0.4181  1.4336  0.7545
   29MPD2     C  442   4.456   4.182  14.449 -0.0355  0.5360  0.0018
   29MPD2    C1  443   4.570   4.183  14.522 -0.4832  0.2443  0.1132
   29MPD2    C2  444   4.620   4.315  14.555  0.4167 -0.4341  0.5342
   29MPD2    C3  445   4.558   4.431  14.525 -0.1970  0.0008 -0.5122
   29MPD2    C4  446   4.436   4.420  14.451 -0.4502  0.5668  0.3228
   29MPD2    C5  447   4.393   4.297  14.414  0.6453  0.0049 -0.5851
   29MPD2     H  448   4.718   4.321  14.601  1.2024  1.0231 -1.3109
   29MPD2    H1  449   4.385   4.503  14.403 -0.2151  0.7604  0.4104
   29MPD2    H2  450   4.415   4.094  14.400  1.7605  0.1464 -0.7895
   29MPD2    H3  451   4.310   4.295  14.345  0.0216 -2.0796  0.2232
   29MPD2     N  452   4.607   4.559  14.547  0.1745  0.5627  0.0163
   29MPD2    H5  453   4.567   4.634  14.491  0.1659  1.3387  1.0638
   29MPD2    N1  454   4.649   4.068  14.544 -0.4084  0.2468 -0.4512
   29MPD2    H7  455   0.017   4.086  14.584 -0.6513  0.5506 -0.0412
   30TCq2    C1  456   4.710   4.589  14.630  0.2576 -0.1904 -0.4251
   30TCq2    O2  457   0.033   4.517  14.721  0.1426 -0.3173  0.6801
   30TCq2    C2  458   0.050   4.716  14.617 -0.0626 -0.5793 -0.3159
   30TCq2    C3  459   0.083   0.048  14.736 -0.2907  0.2603 -0.3836
   30TCq2    C4  460   0.198   0.109  14.738 -0.2370  0.0616 -0.5197
   30TCq2    C5  461   0.281   0.125  14.633 -0.4055  0.9152  0.6090
   30TCq2    C6  462   0.239   0.080  14.514  0.0942  0.3105  0.2559
   30TCq2    C7  463   0.123   0.004  14.501 -0.0438 -0.0503  0.0961
   30TCq2    C8  464   0.331   0.083  14.406 -0.5932 -0.5837 -0.0182
   30TCq2    O4  465   0.332   4.714  14.328  0.3032  0.4564  0.4212
   30TCq2    C9  466   0.229   0.183  14.860 -0.3945  0.2141 -0.3833
   30TCq2    O5  467   0.329   0.255  14.858 -0.0709 -0.2793  0.2573
   30TCq2    O6  468   0.145   0.186  14.952 -0.2686 -0.3626 -0.0209
   30TCq2    H2  469   0.018   0.032  14.822  0.8145 -0.0240  0.4016
   30TCq2    H3  470   0.380   0.163  14.656 -0.0080  1.1722 -1.5057
   30TCq2    H4  471   0.094   4.685  14.406 -1.1842  0.3957  0.2407
   31MPD2     C  472   2.962   3.520  14.918  0.5476 -0.2634  0.0169
   31MPD2    C1  473   2.844   3.527  14.854  0.3142 -0.2630 -0.2278
   31MPD2    C2  474   2.741   3.446  14.888  0.1269 -0.1057 -0.8458
   31MPD2    C3  475   2.759   3.358  14.991  0.7961  0.1605 -0.6403
   31MPD2    C4  476   2.879   3.351  15.050  0.2706 -0.1482  0.2335
   31MPD2    C5  477   2.981   3.430  15.018  0.3146  0.0957  0.1419
   31MPD2     H  478   2.641   3.461  14.849  0.9387  2.9610 -1.7268
   31MPD2    H1  479   2.904   3.273  15.121 -2.4086 -0.7194  0.5438
   31MPD2    H2  480   3.039   3.594  14.897  0.0314  0.6072  1.1425
   31MPD2    H3  481   3.078   3.425  15.067  0.5578  4.6404  0.1837
   31MPD2     N  482   2.659   3.264  15.022  0.8071  0.0195  0.5501
   31MPD2    H5  483   2.694   3.192  15.085  0.2544 -0.0174  0.8145
   31MPD2    N1  484   2.834   3.617  14.746  0.4529 -0.5788 -0.2600
   31MPD2    H7  485   2.922   3.657  14.715  0.1896 -0.3118 -0.6513
   32TCq2    C1  486   2.537   3.241  14.974  0.3113  0.3533  0.2872
   32TCq2    O2  487   2.463   3.313  14.911 -0.0373  0.1058 -0.7070
   32TCq2    C2  488   2.467   3.128  15.041  0.2633  0.2783  0.2585
   32TCq2    C3  489   2.349   3.092  14.988  0.3626  0.1892 -0.1521
   32TCq2    C4  490   2.260   3.016  15.060  0.4613  0.5473  0.4699
   32TCq2    C5  491   2.304   2.966  15.177  0.5451  0.7404  0.7243
   32TCq2    C6  492   2.431   2.974  15.216  0.0810 -0.0043  0.0259
   32TCq2    C7  493   2.517   3.063  15.152 -0.6240 -0.1443  0.4212
   32TCq2    C8  494   2.469   2.939  15.352 -0.0206  0.3929  0.4437
   32TCq2    O4  495   2.586   2.904  15.372 -0.3758 -0.6608 -0.0133
   32TCq2    C9  496   2.129   2.980  15.008  0.3139 -0.2904 -0.5265
   32TCq2    O5  497   2.046   2.928  15.082 -0.4545 -0.1990 -0.0434
   32TCq2    O6  498   2.111   3.002  14.885 -0.3287 -0.8706 -0.3100
   32TCq2    H2  499   2.316   3.143  14.899 -0.2739  1.0376  0.5676
   32TCq2    H3  500   2.241   2.890  15.222  1.8061 -1.4022 -1.1137
   32TCq2    H4  501   2.615   3.079  15.195 -0.7668 -4.2698  2.2168
   33MPD2     C  502   3.217   1.477  10.529 -0.1191 -0.6557  0.2871
   33MPD2    C1  503   3.099   1.430  10.479  0.0904 -0.7941 -0.0111
   33MPD2    C2  504   3.045   1.496  10.372  0.5861  0.0604 -0.5418
   33MPD2    C3  505   3.088   1.618  10.332  0.2759  0.5469  0.2284
   33MPD2    C4  506   3.207   1.665  10.385  0.2889 -0.2597  0.1468
   33MPD2    C5  507   3.272   1.592  10.481  0.0010  0.7477  0.8239
   33MPD2     H  508   2.965   1.453  10.313  0.5398 -0.7055  0.0787
   33MPD2    H1  509   3.249   1.756  10.342 -1.5687  0.4446 -0.1508
   33MPD2    H2  510   3.266   1.429  10.613 -0.5213  1.3549  1.6847
   33MPD2    H3  511   3.368   1.622  10.520  0.6000 -0.1404  0.0355
   33MPD2     N  512   3.022   1.693  10.230  0.3245 -0.1717  0.5944
   33MPD2    H5  513   3.052   1.785  10.200  0.7781 -0.4523  0.1941
   33MPD2    N1  514   3.057   1.309  10.527  0.2683  0.4152 -0.5892
   33MPD2    H7  515   3.116   1.268  10.598 -0.9671 -1.4075 -0.6370
   34TCq2    C1  516   2.897   1.665  10.183 -0.3354  0.2202 -0.0376
   34TCq2    O2  517   2.818   1.580  10.227 -0.1711  1.3036 -0.2623
   34TCq2    C2  518   2.835   1.774  10.108 -0.5206  0.0419  0.0638
   34TCq2    C3  519   2.700   1.788  10.096  0.2621  0.1431 -0.1767
   34TCq2    C4  520   2.647   1.892  10.021 -0.9661 -0.1635 -0.5085
   34TCq2    C5  521   2.722   1.975   9.946  0.4246 -1.1106 -0.8642
   34TCq2    C6  522   2.860   1.956   9.955 -0.0228 -0.5594 -0.1362
   34TCq2    C7  523   2.922   1.861  10.037 -0.3281  0.1512 -0.0193
   34TCq2    C8  524   2.941   2.038   9.867  0.5133 -0.5988 -0.4776
   34TCq2    O4  525   3.057   2.049   9.904 -0.0393  0.4498  0.2194
   34TCq2    C9  526   2.509   1.920  10.038  0.5865 -0.6328 -0.3353
   34TCq2    O5  527   2.451   1.994   9.954  0.1399  0.0383 -0.6281
   34TCq2    O6  528   2.446   1.844  10.118  0.5283 -0.4180 -0.0687
   34TCq2    H2  529   2.629   1.720  10.142  1.4326  0.1875  1.7135
   34TCq2    H3  530   2.674   2.052   9.886 -2.8540 -1.2186  1.6142
   34TCq2    H4  531   3.028   1.840  10.037  0.0026  1.8746 -3.2777
   35MPD2     C  532   3.612   2.028  11.853 -0.0756  0.0694 -0.8429
   35MPD2    C1  533   3.667   1.906  11.880  0.6722  0.1647 -0.4503
   35MPD2    C2  534   3.613   1.793  11.833 -0.2991  0.0315  0.4920
   35MPD2    C3  535   3.492   1.798  11.765 -0.7608 -0.9121  0.7222
   35MPD2    C4  536   3.438   1.924  11.731  0.2458 -0.6317 -0.0249
   35MPD2    C5  537   3.496   2.035  11.779 -0.4561 -0.3515  0.1995
   35MPD2     H  538   3.663   1.698  11.849 -0.7677 -0.1938  0.6159
   35MPD2    H1  539   3.341   1.935  11.684  0.5532 -0.3514 -0.5933
   35MPD2    H2  540   3.658   2.119  11.890 -0.7442  0.5784 -1.2619
   35MPD2    H3  541   3.455   2.135  11.767 -1.1548 -0.5226  1.1140
   35MPD2     N  542   3.439   1.679  11.719 -0.8185  0.2877  0.0498
   35MPD2    H5  543   3.488   1.591  11.732 -1.2665 -0.0843 -0.7579
   35MPD2    N1  544   3.785   1.906  11.960 -0.2313  0.1387 -0.7295
   35MPD2    H7  545   3.805   1.995  12.006  0.2351 -0.1016 -0.4700
   36TCq2    C1  546   3.309   1.670  11.668  0.4197  0.1504 -0.0073
   36TCq2    O2  547   3.220   1.753  11.669 -0.6694 -0.2454 -0.4142
   36TCq2    C2  548   3.264   1.533  11.665 -0.3094  0.2129 -0.6558
   36TCq2    C3  549   3.131   1.500  11.652  0.1720  0.6338 -0.2116
   36TCq2    C4  550   3.101   1.368  11.626 -0.3522 -0.2028  0.1149
   36TCq2    C5  551   3.198   1.270  11.612 -0.1138 -0.4147  0.1456
   36TCq2    C6  552   3.325   1.314  11.616  0.0199  0.5081 -0.4512
   36TCq2    C7  553   3.361   1.443  11.646  0.1376 -0.3066  0.0733
   36TCq2    C8  554   3.426   1.223  11.572 -1.1084  0.3948  0.1480
   36TCq2    O4  555   3.397   1.107  11.595 -0.7117  0.1046  0.0057
   36TCq2    C9  556   2.960   1.328  11.625  0.4993 -0.8182 -1.1868
   36TCq2    O5  557   2.878   1.410  11.672 -0.3057 -0.7556  0.4015
   36TCq2    O6  558   2.929   1.215  11.576 -0.2162  0.0121  0.3222
   36TCq2    H2  559   3.064   1.584  11.642 -0.5465  0.1970  0.9573
   36TCq2    H3  560   3.167   1.170  11.584 -0.6716  0.2091 -1.4268
   36TCq2    H4  561   3.468   1.462  11.644 -0.1201  1.0588 -0.2648
   37TMC2    C1  562   1.874   2.717  11.507  0.1621  0.5772 -0.0944
   37TMC2    C2  563   1.911   2.800  11.402  0.0808 -1.1958  0.0647
   37TMC2    C3  564   2.042   2.791  11.349  0.9618  0.5794 -0.0753
   37TMC2    C4  565   1.966   2.624  11.553  0.0042 -0.6686  0.2078
   37TMC2    C5  566   2.089   2.625  11.500 -0.4194  1.0899 -0.5790
   37TMC2    C6  567   2.140   2.700  11.398 -0.7714 -0.4847  0.3566
   37TMC2     C  568   1.757   2.756  11.586  0.0914  0.1457 -0.1947
   37TMC2     O  569   1.694   2.851  11.544 -0.1014 -0.0828 -0.1959
   37TMC2     H  570   1.851   2.885  11.374  1.4089  0.7714  3.2360
   37TMC2    H1  571   1.947   2.567  11.643  3.6041  0.3795  1.6328
   37TMC2    H2  572   2.242   2.705  11.363 -0.9881  1.1461 -0.0415
   37TMC2    C7  573   2.180   2.554  11.588  0.6518  0.4695 -0.4299
   37TMC2    C8  574   2.080   2.878  11.236 -0.8421  0.3733  0.0282
   37TMC2    O1  575   2.162   2.565  11.706 -0.3077  0.0216  0.1723
   37TMC2    O2  576   2.192   2.928  11.224  0.0582  0.1642 -0.6826
   37TMC2    O5  577   1.971   2.939  11.180 -0.0440 -0.3389  0.0745
   37TMC2    H5  578   1.892   2.881  11.186 -0.7419  0.5312 -0.6971
   38MPD2     C  579   1.484   2.725  12.018  0.1704  0.2293 -0.3293
   38MPD2    C1  580   1.570   2.617  12.010  0.9006  0.0635  0.2733
   38MPD2    C2  581   1.654   2.596  11.900 -0.3293 -0.9659  0.3894
   38MPD2    C3  582   1.660   2.690  11.802 -0.1367  0.5343 -0.3124
   38MPD2    C4  583   1.574   2.803  11.809 -0.4617  0.2362 -0.4007
   38MPD2    C5  584   1.493   2.817  11.917  0.2578  0.0881 -0.0322
   38MPD2     H  585   1.718   2.509  11.885  1.2530  0.0656  1.1367
   38MPD2    H1  586   1.582   2.886  11.740  3.0351  0.0519 -0.2182
   38MPD2    H2  587   1.427   2.757  12.104  2.4777  1.2717  0.7832
   38MPD2    H3  588   1.427   2.903  11.909  1.1891  0.6317 -1.7913
   38MPD2     N  589   1.741   2.669  11.690  0.3535  0.7375 -0.0821
   38MPD2    H5  590   1.797   2.585  11.687 -1.7750 -0.6551 -0.4345
   38MPD2    N1  591   1.578   2.528  12.116 -0.4149 -0.1871 -0.0803
   38MPD2    H7  592   1.639   2.446  12.110 -2.0377 -1.3064 -1.1453
   39MPD2     C  593   4.644   4.570   2.017  0.4875  0.4089 -0.5377
   39MPD2    C1  594   4.632   4.703   2.036 -0.5853 -0.6663 -0.3463
   39MPD2    C2  595   4.497   0.027   2.040 -0.9692  1.1650  0.0955
   39MPD2    C3  596   4.390   4.659   2.033 -0.2744 -0.3256  0.1568
   39MPD2    C4  597   4.419   4.527   2.027 -0.7503  0.3187  0.6377
   39MPD2    C5  598   4.543   4.481   2.012  0.0313  0.3600  0.3637
   39MPD2     H  599   4.478   0.134   2.053  0.3135  1.3908  0.0472
   39MPD2    H1  600   4.346   4.447   2.025 -1.6879  1.1421  1.5668
   39MPD2    H2  601   0.017   4.524   1.995  0.7551  0.0955  1.3048
   39MPD2    H3  602   4.571   4.376   2.002 -0.3927  0.1666  1.1618
   39MPD2     N  603   4.258   4.700   2.017  0.2447  0.0406 -0.2701
   39MPD2    H5  604   4.183   4.632   2.020  0.1189  0.0786 -2.6575
   39MPD2    N1  605   0.023   0.063   2.024  0.0602  0.2276  0.3902
   39MPD2    H7  606   0.111   0.013   2.031  0.0996  0.1741 -0.4802
   40TCq2    C1  607   0.020   0.195   2.008  0.1460 -0.2462  0.7583
   40TCq2    O2  608   4.645   0.268   2.033  0.3374 -0.7173 -0.1691
   40TCq2    C2  609   0.155   0.252   1.987 -0.4382 -0.1009  0.1638
   40TCq2    C3  610   0.189   0.362   2.063  0.3481 -0.0396  0.0839
   40TCq2    C4  611   0.311   0.417   2.039  0.0456 -0.2553  0.4482
   40TCq2    C5  612   0.408   0.357   1.961  0.0244 -0.2396 -0.3847
   40TCq2    C6  613   0.375   0.245   1.893  1.0347  0.2031 -0.0550
   40TCq2    C7  614   0.246   0.198   1.903 -0.1104 -0.6537 -0.3831
   40TCq2    C8  615   0.464   0.162   1.820  0.1360 -0.7597 -0.2750
   40TCq2    O4  616   0.433   0.052   1.776 -0.0426 -0.5020  0.1494
   40TCq2    C9  617   0.355   0.532   2.113 -0.1949 -0.5671  0.1835
   40TCq2    O5  618   0.478   0.570   2.100 -0.3288 -0.5419  0.0286
   40TCq2    O6  619   0.264   0.591   2.185 -0.5499  0.4793  0.8363
   40TCq2    H2  620   0.119   0.420   2.121 -2.7909 -2.3901 -1.3220
   40TCq2    H3  621   0.505   0.403   1.953 -0.5337  0.9472 -0.2611
   40TCq2    H4  622   0.227   0.109   1.844  1.3370 -0.9748 -0.3638
   41TMC2    C1  623   3.638   2.738  13.516 -0.5644  0.6182  0.6184
   41TMC2    C2  624   3.714   2.827  13.579  0.1937  0.4616 -0.0337
   41TMC2    C3  625   3.740   2.943  13.517 -0.6641  0.1190 -0.1794
   41TMC2    C4  626   3.582   2.763  13.393 -0.9663  0.2311 -0.5120
   41TMC2    C5  627   3.598   2.891  13.335  1.0290 -1.1223  0.0286
   41TMC2    C6  628   3.680   2.978  13.396 -0.0250  0.2380 -0.0051
   41TMC2     C  629   3.613   2.609  13.570  0.7436  0.2350  0.2587
   41TMC2     O  630   3.543   2.539  13.499 -0.0113  0.3847 -0.1255
   41TMC2     H  631   3.764   2.802  13.672  1.7808  0.7435 -0.8119
   41TMC2    H1  632   3.520   2.697  13.334 -0.3585  0.7414 -1.7196
   41TMC2    H2  633   3.703   3.072  13.348 -0.1053 -0.6717 -1.8145
   41TMC2    C7  634   3.577   2.905  13.194 -0.2923 -0.2080  0.4396
   41TMC2    C8  635   3.809   3.040  13.593  0.1180  0.3528 -0.3774
   41TMC2    O1  636   3.511   3.004  13.160  0.0151  0.1519  0.0705
   41TMC2    O2  637   3.874   3.014  13.694 -0.5741 -0.1617 -0.2598
   41TMC2    O5  638   3.760   3.160  13.562  0.1834 -0.0553  0.5666
   41TMC2    H5  639   3.680   3.154  13.506 -1.0515 -2.1060  2.5325
   42MPD2     C  640   3.591   2.361  13.727  0.7229  0.4995  0.3083
   42MPD2    C1  641   3.632   2.484  13.782 -0.4850 -0.0797 -0.1958
   42MPD2    C2  642   3.642   2.496  13.918 -0.4082  0.5660 -0.4065
   42MPD2    C3  643   3.626   2.380  13.995 -0.2629 -0.1370  0.3493
   42MPD2    C4  644   3.592   2.264  13.936  0.6391 -0.1569 -0.1974
   42MPD2    C5  645   3.574   2.250  13.799 -0.2691 -0.0493 -0.2612
   42MPD2     H  646   3.673   2.590  13.963  3.1380 -0.6316 -0.3488
   42MPD2    H1  647   3.572   2.178  13.999  0.2178  0.5016  0.5709
   42MPD2    H2  648   3.595   2.340  13.621 -0.3755 -0.1977  0.4013
   42MPD2    H3  649   3.560   2.158  13.744  2.9514 -0.2617 -0.7090
   42MPD2     N  650   3.661   2.372  14.135 -0.1757 -0.1688 -0.0314
   42MPD2    H5  651   3.671   2.278  14.172  0.0337 -0.5045 -0.9536
   42MPD2    N1  652   3.638   2.603  13.706  0.5006  0.5506 -0.5814
   42MPD2    H7  653   3.647   2.687  13.761  0.0373  0.3370 -0.1728
   43MPD2     C  654   1.633   1.182   0.911 -0.4206  1.0059 -0.3328
   43MPD2    C1  655   1.505   1.126   0.914  0.0788 -1.2917 -0.1672
   43MPD2    C2  656   1.412   1.149   1.014  0.3124 -0.4030  0.1531
   43MPD2    C3  657   1.446   1.247   1.106  0.5850  0.2605  0.1366
   43MPD2    C4  658   1.570   1.305   1.103  0.2028  0.6306  0.2671
   43MPD2    C5  659   1.658   1.282   1.003  0.4828  0.3827 -1.0275
   43MPD2     H  660   1.322   1.089   1.019 -0.0310 -0.0696 -2.1503
   43MPD2    H1  661   1.595   1.381   1.176 -1.4618  0.0458  1.4253
   43MPD2    H2  662   1.693   1.160   0.824 -1.0338  0.9982 -0.7541
   43MPD2    H3  663   1.749   1.341   1.000 -0.6807  2.3042  1.0466
   43MPD2     N  664   1.357   1.294   1.201  0.0445 -0.1564 -0.2541
   43MPD2    H5  665   1.386   1.359   1.273 -0.9525  0.4261 -0.3873
   43MPD2    N1  666   1.465   1.029   0.817  0.2135 -0.5762 -0.4119
   43MPD2    H7  667   1.381   0.979   0.843  0.9545 -1.6769 -0.1415
   44TCq2    C1  668   0.787   1.385   1.365  0.3447 -0.6169  0.3299
   44TCq2    O2  669   0.744   1.371   1.254  0.2533  0.7836 -0.2434
   44TCq2    C2  670   0.928   1.370   1.386  0.8173 -0.9097  0.0962
   44TCq2    C3  671   0.979   1.400   1.507 -0.0848 -0.2390 -0.0783
   44TCq2    C4  672   1.109   1.384   1.543  0.0453  0.6838  0.0029
   44TCq2    C5  673   1.198   1.345   1.443  0.5347  0.3531 -0.1216
   44TCq2    C6  674   1.146   1.321   1.315  0.2938 -0.9407 -0.1400
   44TCq2    C7  675   1.009   1.323   1.288 -0.2523 -0.2222 -0.3308
   44TCq2    C8  676   1.222   1.257   1.209  0.0389 -0.2103  0.0210
   44TCq2    O4  677   1.159   1.181   1.138 -0.0232  0.4197 -0.6834
   44TCq2    C9  678   1.156   1.412   1.677 -0.0717 -0.1128  0.1468
   44TCq2    O5  679   1.074   1.476   1.748  0.3966  1.0390  0.4824
   44TCq2    O6  680   1.283   1.412   1.696  0.1373 -0.5208 -0.6666
   44TCq2    H2  681   0.917   1.436   1.588  0.3775  0.3930 -0.0106
   44TCq2    H3  682   1.303   1.338   1.468  0.5472 -2.2322 -0.9500
   44TCq2    H4  683   0.978   1.304   1.185  0.9858 -0.6752 -0.6223
   45TMC2    C1  684   0.434   2.941   9.661 -1.2714  0.0511  0.9996
   45TMC2    C2  685   0.544   2.861   9.651  0.0962  0.0340  0.3969
   45TMC2    C3  686   0.668   2.919   9.669 -0.5114 -1.0246  0.2547
   45TMC2    C4  687   0.448   3.075   9.681  0.5652 -0.0449  0.3676
   45TMC2    C5  688   0.576   3.129   9.681  0.2740 -0.0121 -0.1879
   45TMC2    C6  689   0.689   3.054   9.674 -0.2838 -0.1162 -0.2689
   45TMC2     C  690   0.297   2.894   9.653  0.6118  0.3077  1.0986
   45TMC2     O  691   0.216   2.969   9.706 -0.0084 -0.1747 -0.2002
   45TMC2     H  692   0.535   2.753   9.643  0.6775 -0.0275  0.5523
   45TMC2    H1  693   0.360   3.138   9.682  0.3150 -0.3797 -0.2900
   45TMC2    H2  694   0.789   3.097   9.671 -0.8199  1.0110 -1.9185
   45TMC2    C7  695   0.581   3.269   9.719  0.4785  0.8579  0.1987
   45TMC2    C8  696   0.786   2.826   9.670 -0.3571  0.3378  0.5622
   45TMC2    O1  697   0.477   3.331   9.706 -0.1345  0.3161 -0.1371
   45TMC2    O2  698   0.768   2.711   9.648 -0.3290 -0.0311 -0.6865
   45TMC2    O5  699   0.875   2.883   9.754  0.4862  0.2754  0.1870
   45TMC2    H5  700   0.873   2.980   9.768 -0.3999  0.0335  1.8091
   46MPD2     C  701   0.194   2.556   9.546 -0.0172  0.2281  0.2598
   46MPD2    C1  702   0.180   2.685   9.593  0.3252 -0.3671  0.2060
   46MPD2    C2  703   0.057   2.730   9.615  0.4149 -0.6895 -0.1762
   46MPD2    C3  704   4.667   2.651   9.616  0.0899 -0.2916  0.1373
   46MPD2    C4  705   4.683   2.520   9.580 -0.5587  0.1010 -0.7403
   46MPD2    C5  706   0.081   2.475   9.533 -0.0786  0.5086 -0.2081
   46MPD2     H  707   0.042   2.835   9.640  0.4575 -0.8320  0.4654
   46MPD2    H1  708   4.599   2.452   9.567 -1.6026  1.4735 -1.1182
   46MPD2    H2  709   0.287   2.502   9.531 -1.3647 -1.7640 -0.8573
   46MPD2    H3  710   0.088   2.369   9.515 -0.4116  0.4687 -0.1086
   46MPD2     N  711   4.542   2.710   9.651 -0.8876  0.2641  0.3690
   46MPD2    H5  712   4.538   2.811   9.661  0.1543  0.2770  0.7104
   46MPD2    N1  713   0.296   2.768   9.597 -0.2969 -0.3491  0.0732
   46MPD2    H7  714   0.380   2.726   9.557 -1.6009 -0.5707 -2.4662
   47TMC2    C1  715   2.848   4.070   9.057 -0.5217  0.1282 -0.0255
   47TMC2    C2  716   2.921   4.018   8.959  0.0402 -0.4345  0.1955
   47TMC2    C3  717   2.851   3.976   8.847 -0.0194  0.1753  0.5485
   47TMC2    C4  718   2.714   4.093   9.047  0.3870 -0.4361 -0.1739
   47TMC2    C5  719   2.646   4.029   8.943 -0.4066 -0.5380  0.1566
   47TMC2    C6  720   2.714   3.975   8.835 -0.0808 -0.1445  0.2780
   47TMC2     C  721   2.914   4.118   9.178 -0.2048 -0.8485 -0.2241
   47TMC2     O  722   2.861   4.204   9.248  0.2027 -0.6009  0.1489
   47TMC2     H  723   3.024   3.995   8.983  0.3770  1.1338  0.2616
   47TMC2    H1  724   2.662   4.118   9.139  2.8971  0.5635  0.9754
   47TMC2    H2  725   2.668   3.921   8.753 -1.9772  2.1170 -0.1127
   47TMC2    C7  726   2.504   4.032   8.934 -0.8271 -1.2780 -0.5844
   47TMC2    C8  727   2.918   3.894   8.763  1.0312  0.1489 -0.5610
   47TMC2    O1  728   2.458   3.962   8.847  0.4058 -1.0636  1.0844
   47TMC2    O2  729   3.006   3.820   8.808 -0.0305  0.0693 -0.1639
   47TMC2    O5  730   2.914   3.962   8.648 -0.2340 -0.3766  0.0560
   47TMC2    H5  731   2.859   4.043   8.653  0.8318  0.6441 -4.5392
   48MPD2     C  732   3.143   4.242   9.333 -0.5125 -0.2316 -0.1746
   48MPD2    C1  733   3.143   4.112   9.274 -0.7361  0.3588  0.3769
   48MPD2    C2  734   3.257   4.033   9.291  0.0675  0.0568  0.1767
   48MPD2    C3  735   3.363   4.068   9.368  0.0830 -0.3166 -0.2105
   48MPD2    C4  736   3.369   4.195   9.425 -0.2644 -0.3835 -0.4384
   48MPD2    C5  737   3.254   4.271   9.408  0.0977 -0.6856 -0.4327
   48MPD2     H  738   3.253   3.931   9.256 -0.2591  0.0005  0.3781
   48MPD2    H1  739   3.445   4.233   9.492  0.2896 -0.3584 -1.0816
   48MPD2    H2  740   3.064   4.317   9.338  2.8817  3.2660  1.9453
   48MPD2    H3  741   3.263   4.363   9.465  0.4904 -0.7011 -0.4680
   48MPD2     N  742   3.457   3.965   9.384  0.1987  0.2752  0.5686
   48MPD2    H5  743   3.446   3.877   9.334 -2.0826 -0.6204  2.6440
   48MPD2    N1  744   3.036   4.055   9.200  0.0001 -0.1668  0.0462
   48MPD2    H7  745   3.058   3.965   9.159  2.5197  1.0157 -1.2298
   49MPD2     C  746   1.535   0.959   9.803  1.2895 -0.0486  0.4872
   49MPD2    C1  747   1.537   0.861   9.891  0.6134  0.1392  0.5774
   49MPD2    C2  748   1.563   0.895  10.022 -0.0195  0.6279 -0.4249
   49MPD2    C3  749   1.610   1.023  10.052 -0.4677 -0.1109  0.1078
   49MPD2    C4  750   1.607   1.120   9.956 -0.6126 -0.3284  0.0944
   49MPD2    C5  751   1.561   1.084   9.839  0.2379  0.2839  0.6750
   49MPD2     H  752   1.554   0.820  10.099  2.3912 -1.1750 -1.9038
   49MPD2    H1  753   1.633   1.224   9.975 -1.2567 -0.2061  0.3348
   49MPD2    H2  754   1.520   0.940   9.697 -0.8588  0.9826  0.6082
   49MPD2    H3  755   1.571   1.162   9.764  0.9391  0.2062  0.6819
   49MPD2     N  756   1.647   1.061  10.182  1.0748  0.3172  0.4671
   49MPD2    H5  757   1.692   1.150  10.200  1.7731  0.2523 -0.9635
   49MPD2    N1  758   1.508   0.723   9.862  0.1129  0.2362 -0.7768
   49MPD2    H7  759   1.525   0.657   9.938  0.6188  0.6534 -0.5306
   50TCq2    C1  760   1.484   0.672   9.738 -0.8245 -0.0142  0.2567
   50TCq2    O2  761   1.490   0.717   9.622 -0.1201 -0.6150 -0.6906
   50TCq2    C2  762   1.443   0.532   9.757  0.5839  0.7826 -0.8699
   50TCq2    C3  763   1.417   0.466   9.641 -0.1904  0.0616  0.2396
   50TCq2    C4  764   1.350   0.351   9.631 -0.5822 -0.0257 -0.0695
   50TCq2    C5  765   1.298   0.297   9.749 -0.3655  0.2860 -0.4731
   50TCq2    C6  766   1.313   0.369   9.864  0.7706 -0.1178 -0.5766
   50TCq2    C7  767   1.385   0.489   9.876  0.1733  0.0734 -0.5480
   50TCq2    C8  768   1.240   0.337   9.987 -0.0773  1.2087  0.4481
   50TCq2    O4  769   1.265   0.410  10.084 -0.5334  0.1676  0.2308
   50TCq2    C9  770   1.324   0.275   9.509  0.9755  0.2077 -0.6560
   50TCq2    O5  771   1.289   0.150   9.526  1.0908  0.3335 -0.7791
   50TCq2    O6  772   1.341   0.334   9.396  0.0966  0.0710  0.1152
   50TCq2    H2  773   1.454   0.498   9.544  0.8882  1.2753  1.0609
   50TCq2    H3  774   1.234   0.211   9.739  0.5823 -0.1270 -3.1683
   50TCq2    H4  775   1.408   0.540   9.969  0.1875 -1.6889  0.4037
   51MPD2     C  776   2.096   3.816   1.148 -0.3567 -0.1787  0.2207
   51MPD2    C1  777   2.057   3.874   1.027  0.4676  0.2425  0.2145
   51MPD2    C2  778   2.119   3.984   0.973  0.3447 -1.1473 -1.0616
   51MPD2    C3  779   2.231   4.043   1.037 -0.2506  0.5608  0.0731
   51MPD2    C4  780   2.268   3.984   1.161 -0.0598 -0.0674  0.9301
   51MPD2    C5  781   2.202   3.878   1.219  0.6261 -0.1693  0.2667
   51MPD2     H  782   2.097   4.004   0.868 -1.1983  1.9717 -0.1302
   51MPD2    H1  783   2.358   4.018   1.211 -1.3100  2.5703  1.3833
   51MPD2    H2  784   2.074   3.720   1.193  1.4280 -0.9159 -0.4671
   51MPD2    H3  785   2.259   3.826   1.296 -0.3204  0.3284  1.3058
   51MPD2     N  786   2.308   4.151   0.992 -0.2818 -0.9180  0.1215
   51MPD2    H5  787   2.394   4.165   1.044 -1.2747  1.0462  1.2232
   51MPD2    N1  788   1.952   3.820   0.955  0.4316 -0.0883 -0.2995
   51MPD2    H7  789   1.947   3.859   0.861 -1.9435 -0.2756 -0.2480
   52TCq2    C1  790   2.264   4.244   0.898 -0.0612  0.8358 -0.8214
   52TCq2    O2  791   2.152   4.251   0.845 -0.4905 -0.0295  0.1811
   52TCq2    C2  792   2.347   4.367   0.914  1.3815 -0.0854 -0.0220
   52TCq2    C3  793   2.483   4.353   0.912 -0.0715  1.0182  0.0669
   52TCq2    C4  794   2.556   4.468   0.932  0.2853  0.0301 -0.4195
   52TCq2    C5  795   2.502   4.583   0.967 -0.5207  0.0513 -0.5448
   52TCq2    C6  796   2.368   4.593   0.949  0.2586 -0.2636  0.2057
   52TCq2    C7  797   2.285   4.487   0.931  0.3749  0.3359 -0.3261
   52TCq2    C8  798   2.311   4.710   0.991 -0.1714  0.2285 -0.2577
   52TCq2    O4  799   2.383   0.059   1.062 -0.1252 -0.2399 -0.4420
   52TCq2    C9  800   2.700   4.453   0.929 -0.0447 -0.1350  0.0176
   52TCq2    O5  801   2.768   4.552   0.937  0.0435 -0.0656  0.1248
   52TCq2    O6  802   2.741   4.336   0.927  0.4442 -0.5945  0.0733
   52TCq2    H2  803   2.534   4.261   0.886 -1.6787  0.1620 -0.0749
   52TCq2    H3  804   2.570   4.664   0.991 -2.2484  0.9251  1.3908
   52TCq2    H4  805   2.178   4.493   0.917  0.0710 -0.5889  1.5489
   53TMC2    C1  806   2.637   2.293  12.087  0.5758  0.6235 -0.0873
   53TMC2    C2  807   2.746   2.245  12.155  0.8659  0.9199 -0.0481
   53TMC2    C3  808   2.734   2.240  12.286 -0.1216  0.6059  0.0352
   53TMC2    C4  809   2.520   2.345  12.142 -0.3134  0.6550  0.5727
   53TMC2    C5  810   2.517   2.330  12.278 -0.5085 -0.5370  0.4490
   53TMC2    C6  811   2.620   2.282  12.347  0.2223  0.6803 -0.1556
   53TMC2     C  812   2.645   2.268  11.948  0.7324 -0.3699 -0.9167
   53TMC2     O  813   2.730   2.194  11.906  0.5232  0.3551 -0.1658
   53TMC2     H  814   2.835   2.227  12.095  0.0788  4.4724 -2.3104
   53TMC2    H1  815   2.440   2.392  12.085 -0.4610  0.1108  0.3244
   53TMC2    H2  816   2.625   2.277  12.455 -0.2130  1.1776 -0.1102
   53TMC2    C7  817   2.416   2.406  12.348  0.5778 -0.1638  0.6769
   53TMC2    C8  818   2.848   2.230  12.379  0.0907 -0.5468 -0.0756
   53TMC2    O1  819   2.342   2.468  12.271  0.2486  0.0274  0.3274
   53TMC2    O2  820   2.847   2.285  12.490 -0.1951 -0.0134  0.5233
   53TMC2    O5  821   2.957   2.219  12.307 -0.2737 -0.5317  1.2314
   53TMC2    H5  822   2.950   2.147  12.240  0.7890 -1.2428  1.8886
   54MPD2     C  823   2.581   2.237  11.640 -0.4098  0.1749  0.5785
   54MPD2    C1  824   2.506   2.311  11.734 -0.0738 -0.0378  0.1757
   54MPD2    C2  825   2.398   2.383  11.692 -0.2825  0.3341 -0.0509
   54MPD2    C3  826   2.361   2.391  11.564  0.1376 -0.1119 -0.3207
   54MPD2    C4  827   2.431   2.315  11.469 -0.1641  0.9725  0.1932
   54MPD2    C5  828   2.538   2.237  11.506 -0.3509  0.2495 -0.2649
   54MPD2     H  829   2.344   2.433  11.772 -0.0200  2.2544 -1.0844
   54MPD2    H1  830   2.411   2.315  11.363  0.9337  0.3588 -0.0201
   54MPD2    H2  831   2.679   2.198  11.662  0.5648  1.4724 -1.4550
   54MPD2    H3  832   2.585   2.178  11.429  1.8094  0.7498  0.6799
   54MPD2     N  833   2.265   2.478  11.514  0.0280 -0.0498 -0.2100
   54MPD2    H5  834   2.254   2.477  11.413  1.8957 -0.2953 -0.4042
   54MPD2    N1  835   2.538   2.324  11.875  0.1799  0.2217 -0.2910
   54MPD2    H7  836   2.473   2.383  11.926 -0.4353 -0.3435 -0.4258
   55MPD2     C  837   3.207   1.201   0.361 -0.8527 -0.2807  0.3599
   55MPD2    C1  838   3.242   1.060   0.362 -0.2105 -0.6828 -0.1967
   55MPD2    C2  839   3.226   0.983   0.471  0.2018 -0.2794  0.6400
   55MPD2    C3  840   3.159   1.046   0.585  1.0209  0.2602 -0.4072
   55MPD2    C4  841   3.137   1.183   0.582 -0.3680  0.3730  0.4906
   55MPD2    C5  842   3.167   1.260   0.475  0.5442 -0.3244 -0.1741
   55MPD2     H  843   3.262   0.881   0.486 -1.2742 -0.8685  0.2169
   55MPD2    H1  844   3.102   1.237   0.669 -1.0161 -2.1351  1.7972
   55MPD2    H2  845   3.233   1.266   0.279  2.5810 -1.1932  0.7276
   55MPD2    H3  846   3.151   1.367   0.484  2.4382 -0.0292 -0.4435
   55MPD2     N  847   3.124   0.966   0.695  0.4968  0.0978 -0.0750
   55MPD2    H5  848   3.134   0.865   0.689  1.3169  0.2761 -1.6906
   55MPD2    N1  849   3.300   1.010   0.242 -0.7625 -0.3855 -0.6233
   55MPD2    H7  850   3.302   1.078   0.166  1.0742  1.3003  0.9525
   56TCq2    C1  851   3.352   0.879   0.228 -0.7478 -0.0294 -0.7934
   56TCq2    O2  852   3.378   0.788   0.307 -0.2923  0.3414  0.0584
   56TCq2    C2  853   3.368   0.851   0.085 -0.4357  0.5661  0.2016
   56TCq2    C3  854   3.355   0.952  17.687  0.0545  0.3540  0.0085
   56TCq2    C4  855   3.303   0.920  17.562  0.0857  0.0588  0.2311
   56TCq2    C5  856   3.262   0.798  17.535 -0.0381 -0.4178  0.1885
   56TCq2    C6  857   3.274   0.700  17.631 -0.8171 -0.1147  0.6026
   56TCq2    C7  858   3.321   0.722   0.065  0.6193 -0.4298  0.3765
   56TCq2    C8  859   3.231   0.574  17.582 -0.0695 -0.9635 -0.5383
   56TCq2    O4  860   3.199   0.555  17.465 -0.1551  0.0256 -0.0266
   56TCq2    C9  861   3.280   1.025  17.476  0.1380  0.2407  0.7152
   56TCq2    O5  862   3.225   0.994  17.367 -0.1119  0.2858 -0.2429
   56TCq2    O6  863   3.337   1.134  17.497  0.0721  0.0995 -0.2966
   56TCq2    H2  864   3.393   1.052   0.010  1.5453 -0.4370  1.4552
   56TCq2    H3  865   3.215   0.777  17.439 -1.1978  0.3857  0.5788
   56TCq2    H4  866   3.329   0.647   0.142 -2.2058 -1.8667 -0.7496
   57TMC2    C1  867   2.047   1.478  14.011  0.7327  0.7251  0.9340
   57TMC2    C2  868   2.123   1.403  14.099 -0.2959 -0.3550  0.0325
   57TMC2    C3  869   2.240   1.360  14.055  0.1249  0.0307  0.8783
   57TMC2    C4  870   2.095   1.516  13.887  0.2875 -0.4019 -0.1673
   57TMC2    C5  871   2.212   1.448  13.841 -0.7807 -0.1178  0.1069
   57TMC2    C6  872   2.280   1.362  13.924  0.6244 -0.7965 -0.4972
   57TMC2     C  873   1.903   1.489  14.030  0.6158 -0.2265 -0.0246
   57TMC2     O  874   1.840   1.556  13.954  0.2660 -0.5867 -0.4390
   57TMC2     H  875   2.088   1.381  14.199 -0.6751  2.4744  0.5248
   57TMC2    H1  876   2.037   1.576  13.817 -1.0785 -1.1432  0.3289
   57TMC2    H2  877   2.380   1.330  13.898 -0.0140 -2.2974 -1.0461
   57TMC2    C7  878   2.269   1.480  13.712 -0.4770 -0.0134  0.4637
   57TMC2    C8  879   2.313   1.268  14.142 -0.0875 -0.8093 -0.5417
   57TMC2    O1  880   2.228   1.586  13.666  0.5180 -0.0633  0.2591
   57TMC2    O2  881   2.314   1.293  14.261  0.2331  0.3636 -0.5229
   57TMC2    O5  882   2.275   1.141  14.088 -0.5951 -0.4888  0.0152
   57TMC2    H5  883   2.246   1.158  13.997  0.2378  1.5566  0.1464
   58MPD2     C  884   1.467   1.356  14.276 -0.2668 -0.1853 -0.3641
   58MPD2    C1  885   1.504   1.477  14.206  0.2742 -0.0868  0.4398
   58MPD2    C2  886   1.639   1.493  14.161  0.6186  0.4217 -0.7187
   58MPD2    C3  887   1.720   1.385  14.163  0.0500  0.5341  1.1832
   58MPD2    C4  888   1.679   1.274  14.231 -0.1028 -0.0337  0.3520
   58MPD2    C5  889   1.552   1.258  14.284  0.1398 -0.6157 -0.5718
   58MPD2     H  890   1.661   1.585  14.109 -1.3741  0.4727 -1.4919
   58MPD2    H1  891   1.746   1.191  14.251 -1.4050 -1.2066 -0.2425
   58MPD2    H2  892   1.371   1.336  14.321 -1.6643  2.6730 -2.1346
   58MPD2    H3  893   1.523   1.163  14.329 -1.6064 -1.5843 -3.7911
   58MPD2     N  894   1.855   1.393  14.105  0.2192  0.0516  0.6179
   58MPD2    H5  895   1.907   1.307  14.119  3.2222  1.7692 -0.0416
   58MPD2    N1  896   1.407   1.576  14.179  0.1911  0.0075 -0.0003
   58MPD2    H7  897   1.445   1.659  14.134  0.1640 -0.3512 -0.6771
   59MPD2     C  898   0.020   1.159  13.436  0.2318 -0.0149 -0.3888
   59MPD2    C1  899   0.056   1.226  13.318  0.6273 -0.6232  0.2572
   59MPD2    C2  900   0.152   1.322  13.331  0.8006 -0.2700  0.4735
   59MPD2    C3  901   0.211   1.358  13.450  0.5143 -0.0550 -0.3859
   59MPD2    C4  902   0.168   1.298  13.569 -0.2077 -0.5182  0.4548
   59MPD2    C5  903   0.075   1.196  13.557  1.2646  0.3885  0.0428
   59MPD2     H  904   0.182   1.364  13.236  2.6242  1.3065  1.7357
   59MPD2    H1  905   0.203   1.334  13.665 -0.9525 -0.0581  0.5508
   59MPD2    H2  906   4.675   1.075  13.425 -0.2826  0.4375 -0.6491
   59MPD2    H3  907   0.043   1.154  13.652 -2.3768  0.5467 -1.1117
   59MPD2     N  908   0.303   1.467  13.464  0.2477 -1.0985 -0.2898
   59MPD2    H5  909   0.330   1.484  13.560 -2.8783 -1.1212  0.6193
   59MPD2    N1  910   0.005   1.197  13.190 -0.0773 -0.2929  0.4002
   59MPD2    H7  911   0.034   1.267  13.123 -1.3882  0.2110  0.3667
   60TCq2    C1  912   4.664   1.081  13.152  0.5136 -0.1970 -0.1159
   60TCq2    O2  913   4.656   0.973  13.207 -0.4173  0.4829 -0.3622
   60TCq2    C2  914   4.614   1.096  13.013  0.0807 -0.2186 -0.1790
   60TCq2    C3  915   4.557   0.983  12.955 -0.0872  0.2982 -0.4789
   60TCq2    C4  916   4.492   0.997  12.839  0.0907 -0.0007  0.3018
   60TCq2    C5  917   4.491   1.121  12.778 -0.3431  0.1739  0.0266
   60TCq2    C6  918   4.531   1.234  12.837  0.1974 -0.3261  0.3936
   60TCq2    C7  919   4.603   1.218  12.949  0.0523 -0.0748  0.1022
   60TCq2    C8  920   4.577   1.327  12.742  0.1620 -0.1537  0.0338
   60TCq2    O4  921   4.695   1.352  12.751  0.1217  0.2181  0.3982
   60TCq2    C9  922   4.438   0.883  12.768  0.3985 -0.3643  0.5230
   60TCq2    O5  923   4.432   0.773  12.831 -0.4457  0.0721 -0.1239
   60TCq2    O6  924   4.417   0.889  12.644  0.3170  0.0882 -0.2283
   60TCq2    H2  925   4.563   0.883  12.995  1.3443  0.3883 -0.4984
   60TCq2    H3  926   4.425   1.124  12.692  0.4681  2.6192 -0.5073
   60TCq2    H4  927   4.656   1.303  12.988  1.0465  0.5949 -2.6967
   61MPD2     C  928   3.933   2.776  14.353  0.3689 -0.7292 -0.5433
   61MPD2    C1  929   3.937   2.807  14.487 -0.1426  0.3208  0.5470
   61MPD2    C2  930   3.897   2.934  14.523  0.0466  0.8138  0.6739
   61MPD2    C3  931   3.876   3.033  14.428  0.4958  0.0788 -0.2053
   61MPD2    C4  932   3.868   3.002  14.297 -0.4648 -0.0759  0.2920
   61MPD2    C5  933   3.905   2.877  14.264 -0.1825 -1.0035  0.0041
   61MPD2     H  934   3.909   2.968  14.625  0.2632 -2.1195  1.6078
   61MPD2    H1  935   3.846   3.072  14.217  0.0039  1.7106  1.7326
   61MPD2    H2  936   3.953   2.675  14.321 -0.2251 -0.7818 -0.7478
   61MPD2    H3  937   3.903   2.854  14.158 -0.3545  2.0602 -0.6669
   61MPD2     N  938   3.842   3.162  14.478 -0.1291 -0.7747  0.2108
   61MPD2    H5  939   3.870   3.178  14.574  1.8611 -1.5577 -0.2389
   61MPD2    N1  940   3.973   2.730  14.597 -0.1622  0.4590 -0.7631
   61MPD2    H7  941   3.950   2.773  14.686  0.5267 -0.4984 -0.1235
   62TCq2    C1  942   4.023   2.600  14.598 -0.3479 -0.4001 -0.4544
   62TCq2    O2  943   4.044   2.521  14.504 -0.0787  0.1774 -0.8037
   62TCq2    C2  944   4.057   2.560  14.728 -0.2021  0.4392 -0.7409
   62TCq2    C3  945   4.029   2.431  14.759 -0.1509  0.3211  0.5277
   62TCq2    C4  946   4.005   2.402  14.893 -0.1812  0.6172  0.2181
   62TCq2    C5  947   4.020   2.501  14.987  0.0468 -0.0630  0.3728
   62TCq2    C6  948   4.045   2.634  14.948  0.1942 -0.4426 -0.2942
   62TCq2    C7  949   4.061   2.665  14.816  0.6972  0.2501  0.6983
   62TCq2    C8  950   4.011   2.750  15.026 -0.0952 -0.3987 -0.2097
   62TCq2    O4  951   4.056   2.858  15.000 -0.2102  0.2568 -0.1107
   62TCq2    C9  952   3.951   2.271  14.927  0.1362 -0.5306  0.5734
   62TCq2    O5  953   3.926   2.191  14.838 -0.1997 -0.0456  0.6952
   62TCq2    O6  954   3.896   2.254  15.037 -0.3048 -0.4142 -0.4423
   62TCq2    H2  955   4.024   2.362  14.676  1.7856  2.3339 -1.2399
   62TCq2    H3  956   4.002   2.471  15.089  0.3990 -1.7037 -0.0426
   62TCq2    H4  957   4.086   2.769  14.797 -0.1395  0.2528 -0.4382
   63TMC2    C1  958   3.093   3.244  10.221  0.3259  0.4435 -0.9051
   63TMC2    C2  959   3.214   3.306  10.240 -0.3227 -0.4049 -0.4036
   63TMC2    C3  960   3.252   3.412  10.163  0.1122  0.0958 -0.5304
   63TMC2    C4  961   3.000   3.295  10.128 -0.0361  0.4749  0.7622
   63TMC2    C5  962   3.039   3.410  10.057  0.1643  0.1161 -0.1865
   63TMC2    C6  963   3.161   3.470  10.076 -0.1854 -0.3409 -0.1029
   63TMC2     C  964   3.066   3.121  10.309  0.3337 -1.0413  0.0471
   63TMC2     O  965   3.122   3.115  10.417 -0.1826  0.2696  0.3430
   63TMC2     H  966   3.268   3.283  10.331  3.8590  1.7699 -2.3416
   63TMC2    H1  967   2.900   3.255  10.111 -0.6451  1.9613  0.8771
   63TMC2    H2  968   3.196   3.557  10.021  2.6253 -1.8209 -0.6338
   63TMC2    C7  969   2.960   3.455   9.946 -0.3427 -0.0063  1.2020
   63TMC2    C8  970   3.380   3.477  10.176 -0.2521  0.1019  0.3150
   63TMC2    O1  971   2.980   3.567   9.907  0.0642  0.4214  0.1781
   63TMC2    O2  972   3.434   3.512  10.074  0.1651  0.5491  0.1307
   63TMC2    O5  973   3.366   3.558  10.277  0.3423 -0.0325 -0.5096
   63TMC2    H5  974   3.319   3.520  10.354  1.3101 -1.5962 -0.7031
   64MPD2     C  975   2.926   2.619  10.370  0.1648  0.2455  0.1186
   64MPD2    C1  976   3.012   2.708  10.435  0.0712 -0.4507  0.3781
   64MPD2    C2  977   3.025   2.835  10.396 -0.0857 -0.0836  0.3961
   64MPD2    C3  978   2.952   2.901  10.297 -0.4558 -1.0046 -0.1962
   64MPD2    C4  979   2.868   2.814  10.235  0.1641  0.1445 -0.3947
   64MPD2    C5  980   2.851   2.682  10.271  0.1506  0.1367  0.1564
   64MPD2     H  981   3.090   2.896  10.458  0.2559 -0.4698  0.4205
   64MPD2    H1  982   2.798   2.845  10.159 -0.6860 -0.9514 -0.0500
   64MPD2    H2  983   2.889   2.521  10.399  2.3213 -0.4014  0.7213
   64MPD2    H3  984   2.768   2.636  10.219  1.2708 -1.9557  0.2005
   64MPD2     N  985   2.973   3.039  10.261 -0.0274  0.1897  0.4110
   64MPD2    H5  986   2.939   3.073  10.172  3.7278  1.6530 -0.4436
   64MPD2    N1  987   3.087   2.669  10.546  0.2867  0.0881  0.3253
   64MPD2    H7  988   3.167   2.728  10.569 -1.2302  3.0927 -2.0932
   65MPD2     C  989   4.477   2.386  16.142 -0.5459 -0.8770 -0.5403
   65MPD2    C1  990   4.428   2.379  16.011 -0.0623 -0.6319  0.5050
   65MPD2    C2  991   4.383   2.260  15.957 -1.1205  0.9635 -0.3507
   65MPD2    C3  992   4.370   2.152  16.036 -0.1458  0.6624  0.2039
   65MPD2    C4  993   4.405   2.161  16.168  0.4910 -0.6957  0.9074
   65MPD2    C5  994   4.470   2.276  16.219  0.0685  0.3790  0.6189
   65MPD2     H  995   4.356   2.263  15.852  0.0748 -3.1085 -0.7691
   65MPD2    H1  996   4.387   2.080  16.238 -1.7184 -1.0432 -0.0638
   65MPD2    H2  997   4.501   2.481  16.187  2.4941 -0.8448 -2.2597
   65MPD2    H3  998   4.490   2.275  16.326 -0.6955 -0.7246  0.7503
   65MPD2     N  999   4.325   2.021  15.992  0.0930  0.5121 -0.2252
   65MPD2    H5 1000   4.329   1.944  16.058 -0.4638  1.3627  0.7855
   65MPD2    N1 1001   4.432   2.492  15.928  0.4376 -0.3396  0.4523
   65MPD2    H7 1002   4.423   2.469  15.830 -2.0971  0.7417  0.4251
   66TCq2    C1 1003   4.457   2.628  15.965  0.0189  0.1217 -0.2075
   66TCq2    O2 1004   4.456   2.683  16.074  0.0372  0.3664 -0.5014
   66TCq2    C2 1005   4.469   2.710  15.850 -0.1250  0.1415  0.3025
   66TCq2    C3 1006   4.480   2.651  15.730  0.3806 -0.0372  0.7671
   66TCq2    C4 1007   4.432   2.720  15.622  0.4467 -0.8648  0.4107
   66TCq2    C5 1008   4.372   2.844  15.639 -0.0204  0.0924  0.9102
   66TCq2    C6 1009   4.364   2.900  15.766  0.7885  0.2896 -0.4680
   66TCq2    C7 1010   4.412   2.833  15.874  0.1947  0.1550  0.1002
   66TCq2    C8 1011   4.294   3.025  15.781  0.1603 -0.1335  0.3223
   66TCq2    O4 1012   4.258   3.069  15.674  0.0850 -0.3475 -0.1423
   66TCq2    C9 1013   4.452   2.664  15.491 -0.0987 -0.3256 -0.6599
   66TCq2    O5 1014   4.391   2.719  15.395 -0.5887  0.2405  0.1863
   66TCq2    O6 1015   4.524   2.558  15.475  0.2690 -0.5999  0.4322
   66TCq2    H2 1016   4.536   2.559  15.718 -1.7248 -0.7946 -3.3370
   66TCq2    H3 1017   4.334   2.889  15.548 -0.5944 -0.8005  0.7121
   66TCq2    H4 1018   4.389   2.862  15.976  0.1245  0.2253  0.0639
   67MPD2     C 1019   0.090   2.152  14.086  0.2138  0.3017  1.0928
   67MPD2    C1 1020   0.005   2.199  14.179 -0.2765  0.1259  0.3276
   67MPD2    C2 1021   4.597   2.236  14.141 -0.0941  0.0230  1.3212
   67MPD2    C3 1022   4.551   2.224  14.009  0.1767  0.4418  0.2473
   67MPD2    C4 1023   4.642   2.178  13.912 -1.1671  0.1230  0.1196
   67MPD2    C5 1024   0.044   2.144  13.953 -0.2297 -0.9962 -0.4028
   67MPD2     H 1025   4.538   2.277  14.223 -0.5182  1.0036  0.5252
   67MPD2    H1 1026   4.612   2.158  13.809 -0.7199 -0.2155  0.0521
   67MPD2    H2 1027   0.198   2.142  14.098  0.2749 -2.0281 -1.3867
   67MPD2    H3 1028   0.104   2.105  13.871  0.6059  2.3136 -1.3290
   67MPD2     N 1029   4.409   2.246  13.989  0.2865  0.7081  0.0211
   67MPD2    H5 1030   4.343   2.258  14.065  3.2580  3.2037  2.1562
   67MPD2    N1 1031   0.036   2.217  14.314  0.0797 -0.4603 -0.4033
   67MPD2    H7 1032   4.696   2.267  14.376  2.0369  1.3416  0.1289
   68TCq2    C1 1033   0.150   2.160  14.373  0.0594  0.2399  0.1038
   68TCq2    O2 1034   0.236   2.085  14.331  0.2658  0.2278  0.4684
   68TCq2    C2 1035   0.151   2.191  14.514  0.2315  0.8504  0.7281
   68TCq2    C3 1036   0.087   2.305  14.566 -0.5890  0.6241  0.3316
   68TCq2    C4 1037   0.093   2.335  14.695 -0.3970 -0.8524  0.1345
   68TCq2    C5 1038   0.167   2.261  14.778  0.5204  0.0757  0.1957
   68TCq2    C6 1039   0.235   2.157  14.723  0.0471  0.0165  0.2491
   68TCq2    C7 1040   0.230   2.120  14.594 -0.1363  0.5330  0.0500
   68TCq2    C8 1041   0.283   2.050  14.814 -0.3578 -0.3301 -0.5575
   68TCq2    O4 1042   0.354   1.961  14.765  0.0415  0.7945  0.3493
   68TCq2    C9 1043   0.026   2.447  14.747 -0.5581 -0.4119 -0.2648
   68TCq2    O5 1044   4.703   2.529  14.660 -0.7288 -0.0529  0.1733
   68TCq2    O6 1045   4.697   2.439  14.864 -0.2523  0.3529 -0.1562
   68TCq2    H2 1046   4.722   2.341  14.515 -1.0413  0.2104  0.8180
   68TCq2    H3 1047   0.161   2.299  14.879  0.9663  1.4745 -0.2999
   68TCq2    H4 1048   0.277   2.027  14.562  0.6605  0.4080  1.5919
   69TMC2    C1 1049   1.946   3.163  12.222 -0.1755  0.4853  0.1826
   69TMC2    C2 1050   1.875   3.275  12.197  0.2594 -0.7500 -0.6793
   69TMC2    C3 1051   1.926   3.361  12.101  0.5086  0.3573 -0.0541
   69TMC2    C4 1052   2.050   3.126  12.142  0.4593  0.2973 -0.3428
   69TMC2    C5 1053   2.096   3.219  12.051  0.8351  0.2327  0.2580
   69TMC2    C6 1054   2.036   3.338  12.023  0.1038  0.7213 -0.0216
   69TMC2     C 1055   1.927   3.098  12.353  0.1464  0.3694 -0.4227
   69TMC2     O 1056   1.827   3.119  12.412  0.1258 -0.6736  0.1942
   69TMC2     H 1057   1.782   3.293  12.250  0.2825 -0.1324 -0.8555
   69TMC2    H1 1058   2.090   3.025  12.148 -1.1847 -0.3278  0.0900
   69TMC2    H2 1059   2.092   3.415  11.972 -0.3669  1.5968  0.7801
   69TMC2    C7 1060   2.188   3.161  11.955  0.2741 -0.8487 -0.5898
   69TMC2    C8 1061   1.842   3.472  12.081  0.0142 -0.2076  0.2733
   69TMC2    O1 1062   2.252   3.059  11.979  0.3371  0.3468  0.3109
   69TMC2    O2 1063   1.751   3.503  12.156 -0.2664  0.4094  0.3588
   69TMC2    O5 1064   1.855   3.506  11.951  0.0964 -0.0784  0.2153
   69TMC2    H5 1065   1.931   3.472  11.898  1.0696  3.0974 -0.4826
   70MPD2     C 1066   2.187   2.893  12.501  0.1044 -0.7112  0.9029
   70MPD2    C1 1067   2.066   2.954  12.503 -0.4132 -0.1330 -0.0324
   70MPD2    C2 1068   1.975   2.934  12.603 -0.3378 -0.8375  0.2555
   70MPD2    C3 1069   2.020   2.866  12.715 -0.2490 -0.0017 -0.5284
   70MPD2    C4 1070   2.146   2.813  12.722 -0.4292 -0.0146 -0.0930
   70MPD2    C5 1071   2.228   2.823  12.614  0.1487  0.3844 -0.4475
   70MPD2     H 1072   1.874   2.974  12.606 -0.1166 -0.2731  0.2677
   70MPD2    H1 1073   2.172   2.764  12.815  1.3025 -1.8405 -1.5300
   70MPD2    H2 1074   2.249   2.911  12.414  0.1624 -0.7309  0.9400
   70MPD2    H3 1075   2.327   2.778  12.609  0.0099  0.2757 -2.1022
   70MPD2     N 1076   1.947   2.850  12.833 -0.0086  0.1006 -0.1550
   70MPD2    H5 1077   1.990   2.800  12.911 -0.2101  0.3391  0.1100
   70MPD2    N1 1078   2.037   3.032  12.390  0.0805  0.2531  0.7992
   70MPD2    H7 1079   2.103   3.032  12.312 -1.2304 -1.2751 -0.3113
   71TMC2    C1 1080   0.640   3.656   1.806 -0.0874 -0.3233  0.6352
   71TMC2    C2 1081   0.767   3.646   1.856  0.9206 -0.2621  0.3319
   71TMC2    C3 1082   0.785   3.557   1.961 -0.3092  0.3134 -0.0387
   71TMC2    C4 1083   0.528   3.606   1.873  0.2142 -0.0943  0.6154
   71TMC2    C5 1084   0.552   3.532   1.987 -0.3393 -0.0235  0.7640
   71TMC2    C6 1085   0.678   3.498   2.023 -0.7949  0.3153 -0.5424
   71TMC2     C 1086   0.630   3.733   1.691  0.1364  0.3187 -0.1897
   71TMC2     O 1087   0.524   3.787   1.677 -0.2478  0.4585  0.1555
   71TMC2     H 1088   0.851   3.706   1.823 -0.0065  2.5110  2.9744
   71TMC2    H1 1089   0.428   3.607   1.833 -0.1514 -3.0291  1.4534
   71TMC2    H2 1090   0.698   3.437   2.110 -0.2808  1.3179  0.0420
   71TMC2    C7 1091   0.445   3.445   2.046 -0.1523  0.5787 -0.7322
   71TMC2    C8 1092   0.921   3.527   2.009  0.1197  0.2391  0.5634
   71TMC2    O1 1093   0.480   3.348   2.108 -0.1616  0.1299 -0.3821
   71TMC2    O2 1094   0.950   3.486   2.122 -0.2686  0.0732  0.3899
   71TMC2    O5 1095   1.011   3.513   1.911  0.0170  0.4193 -0.3411
   71TMC2    H5 1096   0.984   3.520   1.817 -0.5101 -1.0757 -0.3084
   72MPD2     C 1097   0.666   3.796   1.200  0.1844 -0.7743 -0.1821
   72MPD2    C1 1098   0.605   3.881   1.295 -0.2895  0.1938  0.7332
   72MPD2    C2 1099   0.639   3.859   1.427 -0.5035 -0.4027 -0.7706
   72MPD2    C3 1100   0.713   3.743   1.465 -0.9321  0.3469  0.1070
   72MPD2    C4 1101   0.769   3.662   1.366 -0.1614 -0.4545 -0.2341
   72MPD2    C5 1102   0.744   3.689   1.226 -0.3322 -0.4524 -0.1520
   72MPD2     H 1103   0.600   3.913   1.512 -0.0523  1.5758 -1.8289
   72MPD2    H1 1104   0.829   3.580   1.405  2.1523  1.0647 -0.5920
   72MPD2    H2 1105   0.628   3.809   1.100  1.1919 -0.1514 -0.4812
   72MPD2    H3 1106   0.786   3.634   1.143  2.4111  0.8633  0.3659
   72MPD2     N 1107   0.728   3.697   1.599 -0.4308  0.6134 -0.7151
   72MPD2    H5 1108   0.798   3.629   1.626 -0.4154  1.7952  2.2010
   72MPD2    N1 1109   0.518   3.983   1.257 -0.2310  0.0641 -0.7599
   72MPD2    H7 1110   0.466   4.033   1.328  0.9524 -1.8096  1.4258
   73TMC2    C1 1111   4.178   0.476  14.226 -0.0728  0.2583  0.3258
   73TMC2    C2 1112   4.171   0.590  14.295  0.0807 -0.0583 -0.2739
   73TMC2    C3 1113   4.250   0.609  14.405 -0.1679  0.3066  0.1091
   73TMC2    C4 1114   4.262   0.384  14.268  0.0962  0.6100 -0.4899
   73TMC2    C5 1115   4.339   0.396  14.376 -0.4688  0.2862 -0.3325
   73TMC2    C6 1116   4.329   0.506  14.451  0.7063 -1.1540  0.4758
   73TMC2     C 1117   4.184   0.488  14.090  0.3089 -0.4618 -0.2332
   73TMC2     O 1118   4.294   0.445  14.060  0.3280  0.0618 -0.2470
   73TMC2     H 1119   4.131   0.679  14.248  1.9596  0.8264 -0.2056
   73TMC2    H1 1120   4.266   0.295  14.205  0.8613  0.8128 -0.7317
   73TMC2    H2 1121   4.398   0.524  14.533 -0.1364  0.7060  0.7922
   73TMC2    C7 1122   4.474   0.348  14.346 -0.1870  0.4118 -0.1304
   73TMC2    C8 1123   4.283   0.747  14.443 -0.2297  0.9891 -0.0373
   73TMC2    O1 1124   4.543   0.292  14.426 -0.8216 -0.2158  0.2257
   73TMC2    O2 1125   4.313   0.824  14.355  0.0784  0.1162 -0.0288
   73TMC2    O5 1126   4.340   0.743  14.566 -1.3086  1.0762  0.0395
   73TMC2    H5 1127   4.297   0.668  14.612  3.4035 -2.3498 -1.1735
   74MPD2     C 1128   4.057   0.635  13.618  0.2475  0.0824  0.7323
   74MPD2    C1 1129   4.171   0.565  13.664  0.0436  0.4313 -0.4848
   74MPD2    C2 1130   4.179   0.541  13.801  0.6944  0.0526  0.2509
   74MPD2    C3 1131   4.089   0.596  13.889  0.2352 -0.2192 -0.2295
   74MPD2    C4 1132   3.983   0.673  13.838 -0.2329  0.1346  0.6637
   74MPD2    C5 1133   3.967   0.687  13.703  0.1640 -0.3627  0.0149
   74MPD2     H 1134   4.257   0.479  13.843  0.8865  0.1086 -0.0278
   74MPD2    H1 1135   3.909   0.720  13.901 -1.2513 -0.5457 -0.0303
   74MPD2    H2 1136   4.047   0.656  13.512 -2.4251 -3.4460  0.3088
   74MPD2    H3 1137   3.889   0.747  13.656  0.1938 -0.2151  0.1526
   74MPD2     N 1138   4.097   0.580  14.032  0.2258  0.4944 -0.0709
   74MPD2    H5 1139   4.024   0.627  14.085  1.1838  1.6419  0.2340
   74MPD2    N1 1140   4.276   0.530  13.572  0.0369  0.4348 -0.0857
   74MPD2    H7 1141   4.263   0.553  13.474  0.3280  0.5144 -0.1056
   75TCq2    C1 1142   4.343   2.221  13.871  0.2084  0.2193 -0.4199
   75TCq2    O2 1143   4.390   2.208  13.760  0.6196 -0.3728  0.4298
   75TCq2    C2 1144   4.204   2.226  13.887 -0.3789 -0.4754  0.4209
   75TCq2    C3 1145   4.143   2.177  14.001 -0.5261  1.1767  0.0452
   75TCq2    C4 1146   4.006   2.157  14.010  0.4720 -0.2761 -0.1665
   75TCq2    C5 1147   3.935   2.183  13.897  0.0099  0.0250 -0.3799
   75TCq2    C6 1148   3.984   2.238  13.784 -0.1761  0.3432  0.2140
   75TCq2    C7 1149   4.123   2.251  13.782 -0.3794  0.0707 -0.0993
   75TCq2    C8 1150   3.929   2.204  13.660 -0.0763 -0.2863 -0.2603
   75TCq2    O4 1151   3.849   2.109  13.653  0.2178  0.3505  0.5142
   75TCq2    C9 1152   3.956   2.100  14.129  0.6135 -0.4086  0.0730
   75TCq2    O5 1153   3.834   2.086  14.142  0.0751  0.3710 -0.3081
   75TCq2    O6 1154   4.040   2.048  14.210 -0.7230  0.3139  0.0866
   75TCq2    H2 1155   4.198   2.128  14.080 -0.8664  0.0661 -0.4148
   75TCq2    H3 1156   3.828   2.168  13.892 -0.2061  0.9745  1.2970
   75TCq2    H4 1157   4.172   2.266  13.686 -1.1583 -0.8094 -0.6343
   76MPD2     C 1158   3.075   2.473  11.927 -0.4626  0.2550  0.0612
   76MPD2    C1 1159   3.021   2.376  11.839 -1.3277 -0.6536  0.7939
   76MPD2    C2 1160   3.059   2.247  11.856  0.0304  0.6171  0.4289
   76MPD2    C3 1161   3.149   2.208  11.956 -0.0688  0.1252 -0.2983
   76MPD2    C4 1162   3.205   2.308  12.038 -0.3508 -0.5448  0.4458
   76MPD2    C5 1163   3.161   2.429  12.025 -0.4318  0.1772  0.3254
   76MPD2     H 1164   3.006   2.177  11.793  2.2361  0.1418 -0.9075
   76MPD2    H1 1165   3.286   2.301  12.110  0.6525 -1.2020 -0.7458
   76MPD2    H2 1166   3.060   2.580  11.924  0.3949  0.3898  0.7538
   76MPD2    H3 1167   3.196   2.510  12.088  0.3049  0.2480 -0.1710
   76MPD2     N 1168   3.196   2.071  11.968  0.7482  0.7652  0.9084
   76MPD2    H5 1169   3.270   2.064  12.037 -0.0977  1.2559  1.8732
   76MPD2    N1 1170   2.922   2.404  11.745 -0.2516 -0.0946 -0.2526
   76MPD2    H7 1171   2.886   2.327  11.689 -1.9123  0.0540  0.6108
   77TCq2    C1 1172   3.142   1.966  11.908  0.1604  0.9253  0.2967
   77TCq2    O2 1173   3.030   1.960  11.854 -0.2153 -0.0389 -0.0234
   77TCq2    C2 1174   3.178   1.838  11.959  0.2102 -0.2440  0.7263
   77TCq2    C3 1175   3.090   1.734  11.955  0.2614  0.2769  0.0964
   77TCq2    C4 1176   3.122   1.618  12.016 -0.9562 -0.2379  0.4965
   77TCq2    C5 1177   3.238   1.603  12.081  0.5407  0.0875  0.0033
   77TCq2    C6 1178   3.327   1.703  12.083  0.3372  0.2963  0.6628
   77TCq2    C7 1179   3.297   1.827  12.032  0.2408 -0.2161 -0.0686
   77TCq2    C8 1180   3.453   1.674  12.139  0.0834  0.1987 -0.4197
   77TCq2    O4 1181   3.488   1.561  12.124  0.7568  0.0456 -0.0417
   77TCq2    C9 1182   3.038   1.502  12.011 -0.2705 -0.3992 -0.3525
   77TCq2    O5 1183   2.915   1.527  11.982 -0.3324 -0.3463 -0.1103
   77TCq2    O6 1184   3.093   1.387  12.020  0.1469  0.1416 -0.9597
   77TCq2    H2 1185   3.009   1.737  11.884  2.1994  0.5627 -2.1245
   77TCq2    H3 1186   3.253   1.507  12.129  1.6713 -0.2956 -1.1080
   77TCq2    H4 1187   3.372   1.905  12.028 -2.7872  2.6193 -2.3288
   78MPD1     C 1188   3.435   3.497   2.163  0.0851 -0.5538  0.0321
   78MPD1    C1 1189   3.536   3.407   2.189 -0.0581  0.0476 -0.1175
   78MPD1    C2 1190   3.630   3.387   2.086 -0.5460  0.9232 -0.0043
   78MPD1    C3 1191   3.623   3.462   1.969 -0.2464  0.3871 -0.5443
   78MPD1    C4 1192   3.526   3.561   1.955 -0.0270  0.3647 -0.2661
   78MPD1    C5 1193   3.431   3.573   2.054 -0.3464 -0.2188  0.3341
   78MPD1     H 1194   3.702   3.307   2.100 -0.0648  1.3958  0.2220
   78MPD1    H1 1195   3.524   3.622   1.865 -0.0607  0.3482 -0.2765
   78MPD1    H2 1196   3.352   3.504   2.232  2.5014 -3.0964  3.2634
   78MPD1    H3 1197   3.346   3.640   2.043 -2.0959 -2.3903  0.4287
   78MPD1     N 1198   3.707   3.448   1.864  0.1652 -0.5743 -0.0623
   78MPD1    H5 1199   3.687   3.512   1.789 -2.9150 -0.4226  0.8745
   78MPD1    N1 1200   3.515   3.311   2.292  0.0432 -0.0592  0.0318
   78MPD1    H6 1201   3.456   3.346   2.367 -1.1153 -0.3105 -0.7651
   78MPD1    H7 1202   3.607   3.286   2.329  0.1503 -0.4543 -0.4945
   79TCq2    C1 1203   3.831   3.388   1.865  0.4171  0.7064 -0.4086
   79TCq2    O2 1204   3.882   3.322   1.957 -0.3378 -0.7021  0.2034
   79TCq2    C2 1205   3.911   3.405   1.750 -0.2430  0.0192  0.7632
   79TCq2    C3 1206   3.868   3.452   1.631 -1.0101 -0.6444  0.5565
   79TCq2    C4 1207   3.961   3.483   1.536 -0.9326  0.8737 -0.6953
   79TCq2    C5 1208   4.089   3.448   1.550  0.2596  0.5891 -0.5800
   79TCq2    C6 1209   4.132   3.396   1.663  0.2961 -0.2774 -0.5200
   79TCq2    C7 1210   4.040   3.388   1.772  0.2767 -0.9236 -0.7709
   79TCq2    C8 1211   4.271   3.369   1.683 -0.6550  0.0612 -0.3715
   79TCq2    O4 1212   4.350   3.441   1.624 -0.0082  0.1229  0.4581
   79TCq2    C9 1213   3.908   3.534   1.416 -0.1647  0.1213  0.4715
   79TCq2    O5 1214   3.981   3.534   1.311  0.1417  0.2984  0.1883
   79TCq2    O6 1215   3.784   3.548   1.413 -0.1915 -0.0906  0.3817
   79TCq2    H2 1216   3.761   3.462   1.615 -1.1308 -1.4314  0.8786
   79TCq2    H3 1217   4.158   3.450   1.466  1.6650  0.8867  0.5764
   79TCq2    H4 1218   4.077   3.352   1.867 -2.2234 -0.7750  0.2731
   80MPD2     C 1219   2.273   1.968  12.445  0.4960  0.1180 -0.0321
   80MPD2    C1 1220   2.193   1.986  12.324 -0.0676 -0.1746  0.7681
   80MPD2    C2 1221   2.068   2.039  12.324  0.2471  0.6597 -0.2097
   80MPD2    C3 1222   2.017   2.085  12.439 -0.0701  0.7634 -0.6823
   80MPD2    C4 1223   2.089   2.069  12.558  0.1191  1.1926  0.5209
   80MPD2    C5 1224   2.217   2.012  12.563 -0.3606  0.4727 -0.2793
   80MPD2     H 1225   2.010   2.068  12.236  0.1246  0.4500 -0.1963
   80MPD2    H1 1226   2.056   2.103  12.656 -1.0003 -1.6890  1.1674
   80MPD2    H2 1227   2.376   1.934  12.449  0.6851  0.1655 -4.3567
   80MPD2    H3 1228   2.275   2.013  12.655  0.7589  1.2663 -0.9954
   80MPD2     N 1229   1.899   2.157  12.453  0.3390 -0.2937 -0.6655
   80MPD2    H5 1230   1.868   2.169  12.549 -1.3673 -0.9629 -1.1255
   80MPD2    N1 1231   2.234   1.940  12.207  0.3083 -0.0005 -0.5993
   80MPD2    H7 1232   2.166   1.924  12.134  1.7173 -0.0523 -1.8893
   81TCq2    C1 1233   2.364   1.916  12.160 -0.7271  0.3889 -0.2750
   81TCq2    O2 1234   2.469   1.961  12.201  0.1559 -0.3909 -0.4970
   81TCq2    C2 1235   2.370   1.852  12.028 -0.4107  0.1426 -0.0312
   81TCq2    C3 1236   2.479   1.874  11.953 -0.0891 -0.2129 -0.2035
   81TCq2    C4 1237   2.487   1.818  11.829 -1.0742 -0.5882  0.1284
   81TCq2    C5 1238   2.380   1.747  11.783 -0.2966  0.1296 -0.2469
   81TCq2    C6 1239   2.279   1.705  11.873  0.6079 -0.2691 -0.4736
   81TCq2    C7 1240   2.271   1.766  11.996 -0.0136  0.2752 -1.0067
   81TCq2    C8 1241   2.180   1.609  11.823  0.2666 -0.1851  0.1398
   81TCq2    O4 1242   2.206   1.556  11.716  0.4561 -0.0303 -0.2318
   81TCq2    C9 1243   2.612   1.810  11.759  0.4501  0.7818 -0.2639
   81TCq2    O5 1244   2.715   1.844  11.828 -0.0337 -0.1653  0.0382
   81TCq2    O6 1245   2.619   1.735  11.665 -0.8189 -0.2984  0.2843
   81TCq2    H2 1246   2.565   1.923  11.998  0.3358 -1.5696  0.5043
   81TCq2    H3 1247   2.397   1.685  11.696  1.3851  0.2645 -0.0162
   81TCq2    H4 1248   2.195   1.744  12.069  1.3990 -1.1933  0.0067
   82MPD2     C 1249   0.410   2.201  10.831 -0.7464  0.1364 -0.2209
   82MPD2    C1 1250   0.340   2.084  10.838  0.3762  0.2417 -0.1505
   82MPD2    C2 1251   0.359   1.997  10.938 -0.2340  0.8704 -0.3014
   82MPD2    C3 1252   0.460   2.007  11.028 -0.0168 -0.1429 -0.1330
   82MPD2    C4 1253   0.540   2.114  11.015  0.3064 -0.2576 -0.5988
   82MPD2    C5 1254   0.509   2.212  10.925  0.3438  0.0280  0.3613
   82MPD2     H 1255   0.290   1.914  10.950 -0.9312  1.6837  1.2873
   82MPD2    H1 1256   0.624   2.122  11.083 -0.7564 -2.7262  1.0143
   82MPD2    H2 1257   0.393   2.276  10.754 -4.0457 -1.6129 -1.2032
   82MPD2    H3 1258   0.576   2.297  10.921  0.5382 -0.2306 -1.6164
   82MPD2     N 1259   0.480   1.923  11.138 -0.4964  0.1364 -0.1089
   82MPD2    H5 1260   0.554   1.948  11.203 -2.0642  1.8380  1.0396
   82MPD2    N1 1261   0.239   2.071  10.743 -0.1354 -0.1475 -0.3954
   82MPD2    H7 1262   0.216   2.153  10.687 -0.8365 -0.2781 -0.2935
   83TCq2    C1 1263   0.408   1.806  11.155  0.9377 -0.1490  0.1819
   83TCq2    O2 1264   0.318   1.754  11.090 -0.1630  0.0427 -0.0073
   83TCq2    C2 1265   0.467   1.727  11.267 -0.4593  0.0175  0.0036
   83TCq2    C3 1266   0.553   1.792  11.352 -0.2128  0.3541  0.0565
   83TCq2    C4 1267   0.640   1.713  11.423  0.5335 -0.3464 -1.0819
   83TCq2    C5 1268   0.621   1.579  11.420  0.1322  0.2375  0.0083
   83TCq2    C6 1269   0.523   1.526  11.345  0.3718  0.0012 -0.0316
   83TCq2    C7 1270   0.438   1.596  11.269 -0.6582 -0.5352 -0.5834
   83TCq2    C8 1271   0.480   1.391  11.383  0.7720  0.7787 -0.7084
   83TCq2    O4 1272   0.503   1.351  11.498  0.1578 -0.2630 -0.1181
   83TCq2    C9 1273   0.747   1.774  11.495  0.6958 -0.4567 -1.0513
   83TCq2    O5 1274   0.847   1.711  11.520  0.0500  0.4978 -0.5496
   83TCq2    O6 1275   0.755   1.898  11.485  0.3557  0.3190 -0.3641
   83TCq2    H2 1276   0.576   1.898  11.352  0.3014  0.2459  1.2181
   83TCq2    H3 1277   0.694   1.508  11.459  0.1736 -0.6521 -1.6776
   83TCq2    H4 1278   0.364   1.544  11.209 -2.2169 -2.1542  2.7717
   84TCq2    C1 1279   1.638   0.989  10.293 -0.2966 -0.9392 -0.5821
   84TCq2    O2 1280   1.562   0.895  10.316 -0.4370 -0.2747 -0.4037
   84TCq2    C2 1281   1.722   1.044  10.401 -0.1926 -0.7504  0.0708
   84TCq2    C3 1282   1.832   1.121  10.370  0.5149 -0.0721 -0.5150
   84TCq2    C4 1283   1.929   1.122  10.462  0.4374 -0.1188  0.1095
   84TCq2    C5 1284   1.924   1.062  10.581  0.5234  0.1371  0.5006
   84TCq2    C6 1285   1.809   0.988  10.608 -0.1307 -0.7750  0.3436
   84TCq2    C7 1286   1.707   0.985  10.523 -0.2788  0.1279 -0.8679
   84TCq2    C8 1287   1.779   0.963  10.749  0.1399 -0.2098 -0.2087
   84TCq2    O4 1288   1.882   0.968  10.814  0.5383 -0.0708  0.1808
   84TCq2    C9 1289   2.048   1.207  10.437 -0.7163 -0.1387  0.4576
   84TCq2    O5 1290   2.034   1.299  10.351  0.0453  0.7592  0.4351
   84TCq2    O6 1291   2.145   1.197  10.511 -0.0211 -0.2510  0.3561
   84TCq2    H2 1292   1.853   1.171  10.277 -2.9223 -0.8348 -1.7345
   84TCq2    H3 1293   2.002   1.076  10.655  0.6570  1.3901  0.1277
   84TCq2    H4 1294   1.628   0.912  10.530  0.0279 -0.2300 -1.1550
   85MPD2     C 1295   1.709   3.415  16.363 -0.2872  0.1884 -0.1419
   85MPD2    C1 1296   1.815   3.339  16.371  0.3192  0.1769  0.8500
   85MPD2    C2 1297   1.920   3.369  16.289 -0.6939  0.2698 -0.2155
   85MPD2    C3 1298   1.925   3.483  16.207 -0.2357 -0.0635  0.3106
   85MPD2    C4 1299   1.814   3.563  16.209  0.4204  0.0508  0.0849
   85MPD2    C5 1300   1.703   3.523  16.276  0.0141  0.2624 -0.5530
   85MPD2     H 1301   2.011   3.311  16.279 -1.7954 -1.6949  1.2199
   85MPD2    H1 1302   1.809   3.653  16.149 -1.3883  0.0737  0.2679
   85MPD2    H2 1303   1.623   3.397  16.426  0.6447  3.1625  1.9789
   85MPD2    H3 1304   1.604   3.566  16.282  0.6294  1.8502 -2.0872
   85MPD2     N 1305   2.053   3.518  16.145 -0.2013  0.3107  0.1847
   85MPD2    H5 1306   2.130   3.450  16.149 -0.6738 -0.3594 -2.1935
   85MPD2    N1 1307   1.824   3.215  16.443 -0.0464  0.5124  0.0944
   85MPD2    H7 1308   1.898   3.157  16.405  0.6884  0.9544  0.8611
   86TCq2    C1 1309   2.059   3.620  16.051  0.6507  0.6550  0.0440
   86TCq2    O2 1310   1.968   3.696  16.015 -0.0201 -0.5553 -0.0673
   86TCq2    C2 1311   2.182   3.639  15.984 -0.0539  0.2729 -0.1271
   86TCq2    C3 1312   2.189   3.731  15.871  0.3695  0.4415 -0.1698
   86TCq2    C4 1313   2.299   3.740  15.794  0.3543  0.2415 -1.2422
   86TCq2    C5 1314   2.389   3.634  15.799 -0.4864  0.0816 -0.1231
   86TCq2    C6 1315   2.384   3.541  15.900 -0.5993 -0.5876 -0.3491
   86TCq2    C7 1316   2.278   3.537  15.986 -0.1894 -0.1745  0.1264
   86TCq2    C8 1317   2.482   3.438  15.904 -0.4477  0.5711  0.7015
   86TCq2    O4 1318   2.490   3.372  16.005  0.3584 -0.0417 -0.4342
   86TCq2    C9 1319   2.311   3.853  15.696  0.1591 -0.1349 -0.0736
   86TCq2    O5 1320   2.229   3.951  15.713  0.2139  0.2719 -0.5977
   86TCq2    O6 1321   2.404   3.844  15.609  1.1852  0.3054 -0.1029
   86TCq2    H2 1322   2.111   3.803  15.851 -0.0951  0.1838  0.7081
   86TCq2    H3 1323   2.478   3.646  15.739  0.0715 -0.4227  0.6089
   86TCq2    H4 1324   2.278   3.469  16.070  0.3385  0.8806  0.9786
   87MPD2     C 1325   3.719   1.986   1.144 -0.1077  0.1869 -0.3133
   87MPD2    C1 1326   3.725   1.916   1.022  0.0137 -0.3573 -0.7449
   87MPD2    C2 1327   3.678   1.980   0.908 -0.0044 -0.3979 -0.1451
   87MPD2    C3 1328   3.634   2.115   0.908 -0.0250 -0.0857 -0.3752
   87MPD2    C4 1329   3.614   2.179   1.031 -0.1528  0.3983 -0.5655
   87MPD2    C5 1330   3.656   2.111   1.144  0.0619  0.0653  0.6070
   87MPD2     H 1331   3.673   1.928   0.813 -0.7212  1.6056 -1.2063
   87MPD2    H1 1332   3.576   2.280   1.048 -1.1171  0.0746 -0.7631
   87MPD2    H2 1333   3.756   1.952   1.240 -0.9059 -0.2344 -0.1493
   87MPD2    H3 1334   3.638   2.164   1.237 -0.3833  1.6900 -0.4298
   87MPD2     N 1335   3.612   2.170   0.788  0.1460  0.0064  0.5873
   87MPD2    H5 1336   3.629   2.122   0.700  0.3082  0.6067  0.2977
   87MPD2    N1 1337   3.773   1.785   1.016  0.3962  0.2385  0.0555
   87MPD2    H7 1338   3.803   1.735   1.099  2.6152 -3.4160 -2.9565
   88TCq2    C1 1339   3.794   1.707   0.904 -0.4330 -0.1674  0.4172
   88TCq2    O2 1340   3.795   1.737   0.786  0.3460 -0.1862  0.3254
   88TCq2    C2 1341   3.839   1.567   0.934  0.0949  0.3723  0.0912
   88TCq2    C3 1342   3.832   1.517   1.065 -0.3909  0.9064 -0.2159
   88TCq2    C4 1343   3.917   1.421   1.108  0.6665  0.3625  0.1437
   88TCq2    C5 1344   4.001   1.364   1.029 -0.5668  0.2716  0.3349
   88TCq2    C6 1345   4.016   1.413   0.903 -0.6303 -0.4055 -0.1656
   88TCq2    C7 1346   3.936   1.521   0.857  0.4454 -1.1396 -1.2694
   88TCq2    C8 1347   4.129   1.379   0.813 -0.2422  0.1697 -0.1582
   88TCq2    O4 1348   4.164   1.460   0.724  0.1835  0.3709 -0.1135
   88TCq2    C9 1349   3.909   1.382   1.247 -0.2507  0.7473 -0.3742
   88TCq2    O5 1350   3.961   1.271   1.269 -0.2174  0.1740  0.3201
   88TCq2    O6 1351   3.831   1.445   1.331 -0.0887 -0.9845  0.5568
   88TCq2    H2 1352   3.754   1.543   1.136 -0.5125  1.5891 -0.6030
   88TCq2    H3 1353   4.067   1.287   1.066 -2.2078 -1.0397  0.5136
   88TCq2    H4 1354   3.971   1.570   0.767 -1.8884 -0.7173 -1.9333
   89MPD2     C 1355   0.730   0.028   1.730 -0.0358  0.4595 -0.1027
   89MPD2    C1 1356   0.708   0.161   1.757  0.1131  0.2393 -0.1626
   89MPD2    C2 1357   0.818   0.243   1.742  0.8634 -0.5828 -0.0949
   89MPD2    C3 1358   0.943   0.186   1.717  0.1803  0.6189  0.0269
   89MPD2    C4 1359   0.961   0.055   1.682  0.3026  0.5667  0.2642
   89MPD2    C5 1360   0.850   4.703   1.694 -0.5796 -0.8041  0.1610
   89MPD2     H 1361   0.812   0.348   1.766  1.2488 -0.5370 -0.1977
   89MPD2    H1 1362   1.053   0.003   1.659  0.3032  1.4840 -1.7471
   89MPD2    H2 1363   0.652   4.680   1.754  0.0846  1.3669  2.9972
   89MPD2    H3 1364   0.851   4.598   1.667 -0.3532 -0.7760  0.0595
   89MPD2     N 1365   1.051   0.282   1.713  0.0875 -0.2304  0.2553
   89MPD2    H5 1366   1.029   0.372   1.754  0.6983  0.3528 -0.6992
   89MPD2    N1 1367   0.590   0.219   1.803  0.5125 -0.3672 -0.5368
   89MPD2    H7 1368   0.603   0.314   1.838 -1.8013  0.2751 -1.3761
   90TCq2    C1 1369   1.183   0.254   1.704 -0.2841 -0.3590 -0.7387
   90TCq2    O2 1370   1.234   0.148   1.672  0.8012  0.2762 -0.0450
   90TCq2    C2 1371   1.273   0.355   1.752 -0.5836 -0.3454 -1.1970
   90TCq2    C3 1372   1.396   0.309   1.809 -0.3025  0.2756  0.6287
   90TCq2    C4 1373   1.479   0.404   1.869  0.8162  0.3205 -0.1019
   90TCq2    C5 1374   1.452   0.532   1.857 -0.0940 -0.2225  0.1128
   90TCq2    C6 1375   1.331   0.571   1.799  0.9555 -0.2041 -0.3015
   90TCq2    C7 1376   1.235   0.488   1.744  0.2665  0.0656 -0.6861
   90TCq2    C8 1377   1.328   0.706   1.753 -0.3899  0.5881  0.1508
   90TCq2    O4 1378   1.217   0.749   1.785  0.2152 -0.0766 -0.3651
   90TCq2    C9 1379   1.594   0.361   1.951 -0.6356  0.1553  0.0850
   90TCq2    O5 1380   1.686   0.447   1.956 -0.0142  0.5248 -0.3433
   90TCq2    O6 1381   1.599   0.249   2.008 -0.1614  0.2239 -0.2127
   90TCq2    H2 1382   1.410   0.205   1.835  0.6889 -0.3025 -2.1434
   90TCq2    H3 1383   1.507   0.604   1.916 -2.1752  2.6264 -1.4406
   90TCq2    H4 1384   1.132   0.515   1.722  0.1295  0.0815 -0.0393
   91TMC2    C1 1385   2.360   4.718  16.661  0.2687  0.5328 -0.1130
   91TMC2    C2 1386   2.390   0.124  16.696  0.6823 -0.2470  0.1138
   91TMC2    C3 1387   2.309   0.179  16.787 -0.7564 -0.7414  0.0020
   91TMC2    C4 1388   2.259   4.647  16.729 -0.1209 -1.1849  0.4790
   91TMC2    C5 1389   2.190   4.705  16.829 -0.0403 -0.1054 -0.7407
   91TMC2    C6 1390   2.220   0.112  16.869 -0.6070 -0.2825  0.1951
   91TMC2     C 1391   2.461   4.626  16.608 -0.2793  0.4770 -0.1297
   91TMC2     O 1392   2.425   4.515  16.571  0.6354 -0.1675  0.0176
   91TMC2     H 1393   2.459   0.193  16.650  0.4372 -0.3902 -0.4695
   91TMC2    H1 1394   2.242   4.541  16.719 -2.8682 -0.6675 -0.2822
   91TMC2    H2 1395   2.159   0.152  16.948 -1.6347 -0.0627 -0.7095
   91TMC2    C7 1396   2.058   4.667  16.870 -0.2997 -0.6593 -0.0414
   91TMC2    C8 1397   2.358   0.306  16.839 -0.0082  0.1572 -0.9042
   91TMC2    O1 1398   2.009   4.691  16.979 -0.2921  0.7380  0.6121
   91TMC2    O2 1399   2.479   0.336  16.842 -0.2128  1.1392  0.5934
   91TMC2    O5 1400   2.270   0.366  16.921  0.3256  0.0988 -0.1495
   91TMC2    H5 1401   2.177   0.335  16.921  0.3798 -0.0077 -2.7679
   92MPD2     C 1402   2.689   4.504  16.471 -0.1374 -0.1185  0.4383
   92MPD2    C1 1403   2.705   4.609  16.558 -0.2277 -0.4025  0.4993
   92MPD2    C2 1404   2.832   4.658  16.594 -0.2730 -0.0232  0.3987
   92MPD2    C3 1405   2.944   4.587  16.550  0.1442  0.3467 -0.9612
   92MPD2    C4 1406   2.923   4.477  16.469  0.0297  0.4930 -0.6783
   92MPD2    C5 1407   2.798   4.435  16.430 -0.8571 -0.3562 -0.1664
   92MPD2     H 1408   2.836   0.017  16.665 -1.9786 -0.1133  0.6059
   92MPD2    H1 1409   2.999   4.408  16.434 -1.3747 -0.3547 -2.0533
   92MPD2    H2 1410   2.595   4.465  16.433 -1.3955 -0.2406  3.7306
   92MPD2    H3 1411   2.799   4.349  16.363 -2.6151 -2.4053  2.4591
   92MPD2     N 1412   3.068   4.625  16.601  0.5624 -0.2607 -0.0877
   92MPD2    H5 1413   3.074   4.703  16.666  0.9373 -0.5380  0.2075
   92MPD2    N1 1414   2.592   4.672  16.616  0.5107  0.2008 -0.3061
   92MPD2    H7 1415   2.615   0.035  16.667 -2.7790  1.4137 -0.8915
   93MPD2     C 1416   3.960   4.720  14.235 -0.3047  0.8153 -0.7095
   93MPD2    C1 1417   3.951   4.707  14.100 -0.3407  0.0729  0.5025
   93MPD2    C2 1418   3.836   4.664  14.044  0.0270  0.1856  0.1464
   93MPD2    C3 1419   3.735   4.610  14.123 -0.4600  0.7728  0.0817
   93MPD2    C4 1420   3.747   4.623  14.261 -0.4173 -0.1803  0.5018
   93MPD2    C5 1421   3.855   4.682  14.317  0.5703 -0.1610 -0.3545
   93MPD2     H 1422   3.828   4.655  13.936 -0.5248 -1.5250  0.3289
   93MPD2    H1 1423   3.678   4.578  14.331  0.7575 -1.4394  0.8514
   93MPD2    H2 1424   4.043   0.056  14.272 -1.1725  1.4407  0.2442
   93MPD2    H3 1425   3.852   4.706  14.423 -0.5920 -0.5639 -0.2893
   93MPD2     N 1426   3.613   4.567  14.065  0.6424 -0.3983  0.2899
   93MPD2    H5 1427   3.545   4.546  14.137  0.5316  1.3906  0.6899
   93MPD2    N1 1428   4.049   0.036  14.011 -0.0441 -0.0077  0.4302
   93MPD2    H7 1429   4.022   0.030  13.914  1.3842  1.0339 -0.0306
   94TCq2    C1 1430   4.173   0.078  14.042  0.2619 -0.2486  0.1356
   94TCq2    O2 1431   4.232   0.062  14.148  0.5544  0.2028 -0.5357
   94TCq2    C2 1432   4.251   0.124  13.926 -0.5027  0.1374 -0.5076
   94TCq2    C3 1433   4.187   0.162  13.815  0.7551  0.1403  0.0320
   94TCq2    C4 1434   4.251   0.164  13.697  0.4608 -0.1305 -0.6268
   94TCq2    C5 1435   4.382   0.129  13.687 -0.3362  0.5865  0.7471
   94TCq2    C6 1436   4.444   0.082  13.798  0.2068 -0.6603 -1.0406
   94TCq2    C7 1437   4.385   0.085  13.922  0.0987 -0.5668 -0.0127
   94TCq2    C8 1438   4.582   0.049  13.793  0.2841 -0.4562 -0.4751
   94TCq2    O4 1439   4.639   0.039  13.900  0.1663  0.4907  0.6629
   94TCq2    C9 1440   4.180   0.193  13.579 -0.1443 -0.4960 -0.2268
   94TCq2    O5 1441   4.242   0.221  13.472  0.2605 -0.0250  0.0671
   94TCq2    O6 1442   4.057   0.203  13.591 -0.6580  0.0943  0.2699
   94TCq2    H2 1443   4.081   0.185  13.809  0.5575 -1.0553 -1.2543
   94TCq2    H3 1444   4.428   0.141  13.590  0.9727 -0.3291  1.2556
   94TCq2    H4 1445   4.434   0.037  14.006  1.1132 -0.7524 -0.7085
   95TMC2    C1 1446   3.521   1.880  16.523 -0.1755  0.0341  0.2217
   95TMC2    C2 1447   3.563   1.954  16.636 -0.4971  0.2309  0.3128
   95TMC2    C3 1448   3.465   2.027  16.698 -0.1553  0.3194 -0.3532
   95TMC2    C4 1449   3.391   1.891  16.471  0.6118  0.5007  0.2400
   95TMC2    C5 1450   3.294   1.969  16.534  0.4574 -0.5304 -0.1946
   95TMC2    C6 1451   3.333   2.038  16.643  0.0256 -0.1539  0.3884
   95TMC2     C 1452   3.616   1.795  16.450 -0.4275 -0.1389 -0.6104
   95TMC2     O 1453   3.579   1.759  16.340  0.1805  0.2604  0.2194
   95TMC2     H 1454   3.666   1.958  16.669 -0.8585  0.8387  1.3630
   95TMC2    H1 1455   3.368   1.830  16.385  0.5957 -1.6326  1.7518
   95TMC2    H2 1456   3.257   2.093  16.697  0.4497 -0.9835  1.8215
   95TMC2    C7 1457   3.161   1.970  16.493  0.4045 -0.7889 -0.4319
   95TMC2    C8 1458   3.492   2.071  16.834 -0.2413 -0.3893  0.3487
   95TMC2    O1 1459   3.137   1.964  16.376 -0.1953  0.3841  0.0455
   95TMC2    O2 1460   3.417   2.153  16.886 -0.3944 -0.2669 -0.2907
   95TMC2    O5 1461   3.545   1.964  16.901  0.6223  0.6029  0.3289
   95TMC2    H5 1462   3.605   1.904  16.852  0.1831  0.0476  0.4675
   96MPD2     C 1463   4.031   1.506  16.427  0.0362 -0.7652 -0.1573
   96MPD2    C1 1464   3.970   1.594  16.337 -0.9436 -0.0400 -0.3828
   96MPD2    C2 1465   3.849   1.657  16.373 -0.1622 -0.3551  0.2283
   96MPD2    C3 1466   3.801   1.657  16.506 -0.6673  0.5317  0.2291
   96MPD2    C4 1467   3.871   1.578  16.596  0.8535 -0.1200 -0.2751
   96MPD2    C5 1468   3.980   1.507  16.553  0.0062 -0.1178 -0.1323
   96MPD2     H 1469   3.801   1.717  16.296 -0.6458  0.7301  1.3785
   96MPD2    H1 1470   3.837   1.564  16.697  0.1701  0.3940 -0.4356
   96MPD2    H2 1471   4.120   1.447  16.406  0.7106  0.8254 -1.8564
   96MPD2    H3 1472   4.025   1.447  16.631 -0.1555  0.1375  0.1576
   96MPD2     N 1473   3.700   1.742  16.545  0.0964  0.0263  0.0689
   96MPD2    H5 1474   3.683   1.759  16.644 -1.9593 -0.9887 -0.1112
   96MPD2    N1 1475   4.027   1.612  16.206  0.2974 -0.1239  0.4741
   96MPD2    H7 1476   4.109   1.560  16.176 -0.1981 -1.1572  0.9330
   97MPD2     C 1477   1.218   3.735   0.592 -0.0689  0.1187 -0.2237
   97MPD2    C1 1478   1.221   3.861   0.654 -0.7510  0.3636 -0.0593
   97MPD2    C2 1479   1.258   3.979   0.582 -0.5193 -0.2835  0.5664
   97MPD2    C3 1480   1.271   3.966   0.443 -0.2484 -0.0250 -0.2855
   97MPD2    C4 1481   1.266   3.840   0.387  0.1121 -0.1987 -0.3191
   97MPD2    C5 1482   1.245   3.728   0.462 -0.2928  0.2757  0.6411
   97MPD2     H 1483   1.268   4.078   0.627  0.8808 -0.6230  1.0236
   97MPD2    H1 1484   1.272   3.824   0.280  0.4624 -2.2895  0.0166
   97MPD2    H2 1485   1.198   3.644   0.647  1.2718 -0.1194 -0.1446
   97MPD2    H3 1486   1.237   3.633   0.411 -0.3221  0.5588  0.1091
   97MPD2     N 1487   1.292   4.075   0.354  0.0387 -0.3076 -0.1113
   97MPD2    H5 1488   1.300   4.049   0.256  0.4199 -0.9796  0.0946
   97MPD2    N1 1489   1.187   3.864   0.792 -1.1923  0.3491  0.6160
   97MPD2    H7 1490   1.160   3.777   0.836 -1.1069  0.4205  0.8084
   98TCq2    C1 1491   1.304   4.207   0.387  0.3288 -0.0015 -0.0506
   98TCq2    O2 1492   1.276   4.263   0.491 -0.8243  0.2866  0.8152
   98TCq2    C2 1493   1.369   4.288   0.283 -0.6881 -0.0959 -0.5030
   98TCq2    C3 1494   1.358   4.238   0.157 -0.2554 -0.1308  1.0721
   98TCq2    C4 1495   1.433   4.294   0.056  0.1095  0.5043 -0.4259
   98TCq2    C5 1496   1.513   4.402   0.082  0.0398 -0.2035  0.0498
   98TCq2    C6 1497   1.513   4.460   0.202 -0.4443  0.5069 -0.0351
   98TCq2    C7 1498   1.453   4.398   0.307 -0.4136 -0.2006  0.0541
   98TCq2    C8 1499   1.603   4.572   0.222 -0.6073 -0.0074 -0.2696
   98TCq2    O4 1500   1.685   4.594   0.135 -0.2071 -0.3713  0.0207
   98TCq2    C9 1501   1.417   4.246  17.614  0.6298  0.3260 -0.5918
   98TCq2    O5 1502   1.339   4.148  17.609  0.1859 -0.3774 -0.1951
   98TCq2    O6 1503   1.488   4.297  17.525  0.2583 -0.8292 -0.7869
   98TCq2    H2 1504   1.278   4.175   0.121  0.8651 -1.6695  1.2936
   98TCq2    H3 1505   1.578   4.429  17.692 -0.8025  0.0785 -0.5291
   98TCq2    H4 1506   1.473   4.432   0.408 -2.3458  0.8964  0.0681
   99MPD2     C 1507   0.288   1.411   1.507 -0.3272  0.4126 -0.4343
   99MPD2    C1 1508   0.366   1.386   1.625  0.1014 -0.4065  0.2442
   99MPD2    C2 1509   0.504   1.376   1.612 -0.3309  0.6944 -0.4998
   99MPD2    C3 1510   0.568   1.388   1.494  0.0077  0.2256 -0.5068
   99MPD2    C4 1511   0.495   1.422   1.386  0.1483  0.0801 -0.2523
   99MPD2    C5 1512   0.360   1.439   1.394 -0.0366  0.0805  0.1679
   99MPD2     H 1513   0.553   1.378   1.709 -1.9099 -1.7693  0.3500
   99MPD2    H1 1514   0.538   1.437   1.287 -0.6885 -0.2087 -0.6655
   99MPD2    H2 1515   0.181   1.426   1.503 -0.7071 -1.5915  1.6791
   99MPD2    H3 1516   0.303   1.458   1.304  1.4187  1.3444 -0.4751
   99MPD2     N 1517   0.712   1.378   1.488 -0.2542 -0.3539  0.2644
   99MPD2    H5 1518   0.765   1.359   1.572  0.5311 -0.3817 -0.2375
   99MPD2    N1 1519   0.291   1.363   1.747 -0.3994  0.3073  0.7348
   99MPD2    H7 1520   0.190   1.370   1.738 -0.2241  1.3824 -0.3761
  100TCq2    C1 1521   0.343   1.332   1.871 -0.2244 -0.6680 -0.0280
  100TCq2    O2 1522   0.455   1.289   1.894  0.1208 -0.0083 -0.5832
  100TCq2    C2 1523   0.248   1.296   1.973  0.3295 -0.4521 -0.8548
  100TCq2    C3 1524   0.258   1.173   2.034  0.7809  0.3979 -0.2486
  100TCq2    C4 1525   0.148   1.125   2.100 -0.2361 -0.2118  0.9139
  100TCq2    C5 1526   0.040   1.205   2.111  0.3607  0.4315  0.0672
  100TCq2    C6 1527   0.032   1.324   2.050 -0.1836 -0.0383 -0.2259
  100TCq2    C7 1528   0.139   1.374   1.975  0.1363 -1.1562 -0.0693
  100TCq2    C8 1529   4.624   1.366   2.006 -0.4913 -0.6389 -0.0507
  100TCq2    O4 1530   4.579   1.466   2.056 -0.4678  0.0880 -0.2983
  100TCq2    C9 1531   0.143   0.993   2.159  0.3543 -0.0092 -0.3478
  100TCq2    O5 1532   0.036   0.947   2.207  0.4508 -0.1486 -0.4183
  100TCq2    O6 1533   0.236   0.913   2.125 -0.1021 -0.3526  0.1102
  100TCq2    H2 1534   0.340   1.104   2.027  0.6787  0.2036  0.5022
  100TCq2    H3 1535   4.681   1.160   2.166  0.2759 -0.4483 -0.7797
  100TCq2    H4 1536   0.129   1.472   1.930  1.4457 -0.7485  0.5338
  101MPD2     C 1537   0.923   2.204  12.962  0.5907  0.1847 -0.1160
  101MPD2    C1 1538   0.871   2.253  13.079 -0.1669  0.1969  0.0062
  101MPD2    C2 1539   0.804   2.163  13.169  0.1230  0.1207 -0.3351
  101MPD2    C3 1540   0.798   2.031  13.140  0.0065 -0.5178 -0.2824
  101MPD2    C4 1541   0.859   1.983  13.027 -1.0690 -0.1197  0.9440
  101MPD2    C5 1542   0.919   2.067  12.941 -0.9475 -0.2420 -0.7661
  101MPD2     H 1543   0.760   2.196  13.263  0.3179  2.1504 -0.9490
  101MPD2    H1 1544   0.861   1.876  13.010  0.6308  0.1436 -0.5057
  101MPD2    H2 1545   0.977   2.261  12.887 -0.7886  0.2395 -1.0570
  101MPD2    H3 1546   0.947   2.029  12.843  1.8121 -0.9220  0.2848
  101MPD2     N 1547   0.727   1.959  13.239 -0.2563  0.2415  0.4631
  101MPD2    H5 1548   0.678   2.002  13.317 -0.8685  0.7542 -0.2136
  101MPD2    N1 1549   0.874   2.392  13.090  0.2782  0.4412 -0.4267
  101MPD2    H7 1550   0.923   2.445  13.018  0.4488 -0.2806 -0.8420
  102TCq2    C1 1551   0.981   2.811  12.919  0.1990 -0.5844  0.3728
  102TCq2    O2 1552   1.098   2.788  12.941  0.2156  0.7936  0.0622
  102TCq2    C2 1553   0.887   2.768  13.016 -0.0334  0.4295 -0.0240
  102TCq2    C3 1554   0.769   2.839  13.033 -0.1285 -0.8758 -0.1469
  102TCq2    C4 1555   0.686   2.789  13.126 -0.3376  0.3548  0.4630
  102TCq2    C5 1556   0.720   2.671  13.190  0.7084  0.2730 -0.5551
  102TCq2    C6 1557   0.834   2.602  13.163  0.0196  0.3286 -0.2007
  102TCq2    C7 1558   0.928   2.650  13.081  0.7377 -0.4910  0.0607
  102TCq2    C8 1559   0.827   2.464  13.197  0.1587 -0.4264  0.3645
  102TCq2    O4 1560   0.755   2.430  13.292 -0.4191 -0.5024 -0.0391
  102TCq2    C9 1561   0.572   2.865  13.158  0.3417  0.6305 -0.0695
  102TCq2    O5 1562   0.567   2.978  13.119  0.2743 -0.5544 -0.0604
  102TCq2    O6 1563   0.479   2.797  13.208  0.0695 -0.7115 -0.1244
  102TCq2    H2 1564   0.745   2.932  12.983 -0.1812 -0.3680  0.8072
  102TCq2    H3 1565   0.653   2.637  13.268  1.2356 -0.8752 -0.6023
  102TCq2    H4 1566   1.014   2.586  13.067  1.9857  0.7130  2.1824
  103TMC2    C1 1567   3.899   2.215  12.523 -0.2015 -0.3145 -0.5284
  103TMC2    C2 1568   4.028   2.170  12.556  0.5043 -0.3286  0.1651
  103TMC2    C3 1569   4.098   2.250  12.641 -0.6203 -0.0336 -0.0284
  103TMC2    C4 1570   3.837   2.325  12.578  0.5831 -0.1167  0.5001
  103TMC2    C5 1571   3.913   2.400  12.669 -0.1766  0.6907 -0.0057
  103TMC2    C6 1572   4.041   2.367  12.698  0.2064  0.3058  0.4096
  103TMC2     C 1573   3.818   2.128  12.448 -0.0955 -0.0770 -0.3519
  103TMC2     O 1574   3.721   2.172  12.386  0.3678  0.0850 -0.4449
  103TMC2     H 1575   4.080   2.094  12.500  0.4538 -2.5844  3.2137
  103TMC2    H1 1576   3.734   2.357  12.563  1.2816  1.6300 -0.5787
  103TMC2    H2 1577   4.096   2.443  12.751  1.0508  1.6720 -2.4509
  103TMC2    C7 1578   3.846   2.478  12.768  0.8495 -0.2018  0.0082
  103TMC2    C8 1579   4.242   2.224  12.658 -0.0202  0.3117 -0.7959
  103TMC2    O1 1580   3.891   2.457  12.880 -0.0587  0.4963  0.0668
  103TMC2    O2 1581   4.287   2.114  12.684 -0.3121 -0.3094 -0.4710
  103TMC2    O5 1582   4.305   2.341  12.681 -0.3619  0.3659  0.7081
  103TMC2    H5 1583   4.261   2.426  12.657 -2.0949 -0.0697  2.4073
  104MPD2     C 1584   3.847   1.761  12.457 -0.0368  0.1747  0.5580
  104MPD2    C1 1585   3.789   1.885  12.422  0.1604  0.2966  0.0559
  104MPD2    C2 1586   3.674   1.883  12.344 -0.0704 -0.5071 -0.0748
  104MPD2    C3 1587   3.624   1.764  12.296  0.1609 -0.1837 -0.1215
  104MPD2    C4 1588   3.687   1.643  12.316 -0.2278  0.3939 -0.8355
  104MPD2    C5 1589   3.792   1.648  12.407 -0.6190  0.3863  0.7411
  104MPD2     H 1590   3.624   1.972  12.307  1.9889 -0.2089 -2.1603
  104MPD2    H1 1591   3.655   1.548  12.273  0.1600  0.4123 -1.1607
  104MPD2    H2 1592   3.923   1.754  12.535 -0.4801 -1.2457  0.8727
  104MPD2    H3 1593   3.838   1.554  12.435 -1.1527  0.4413  1.8004
  104MPD2     N 1594   3.507   1.773  12.215 -0.0991 -0.1545 -0.4086
  104MPD2    H5 1595   3.459   1.863  12.223  0.7289  0.2152  0.4411
  104MPD2    N1 1596   3.847   2.001  12.480 -0.3549 -0.4383 -0.2464
  104MPD2    H7 1597   3.926   1.980  12.540 -0.3047  1.7632  0.4414
  105MPD2     C 1598   0.679   1.452  17.643 -0.5737  0.4901 -0.1810
  105MPD2    C1 1599   0.583   1.547  17.627 -0.1313  0.0179  0.4086
  105MPD2    C2 1600   0.454   1.523  17.679 -0.0208  1.0571 -0.4686
  105MPD2    C3 1601   0.426   1.407   0.050 -0.4393 -0.5108  0.2796
  105MPD2    C4 1602   0.521   1.315   0.063  0.1068 -0.3973 -0.6958
  105MPD2    C5 1603   0.649   1.342   0.026 -0.2836  0.3197 -0.2533
  105MPD2     H 1604   0.370   1.591  17.669 -1.0891 -0.2491 -0.3544
  105MPD2    H1 1605   0.519   1.212   0.099 -0.5563  0.1373  0.8236
  105MPD2    H2 1606   0.783   1.469  17.617 -0.2530  0.0698  0.7983
  105MPD2    H3 1607   0.723   1.264   0.039 -1.6617 -0.7701  1.1172
  105MPD2     N 1608   0.295   1.396   0.089 -0.4189  0.2182  0.0095
  105MPD2    H5 1609   0.230   1.471   0.068 -0.1965  0.7243  1.1336
  105MPD2    N1 1610   0.606   1.670  17.556 -0.1601  0.6921 -0.3383
  105MPD2    H7 1611   0.529   1.735  17.554 -0.0147  0.7834 -2.3580
  106TCq2    C1 1612   0.247   1.268   0.137 -0.6019 -1.1291 -0.1161
  106TCq2    O2 1613   0.316   1.174   0.175 -0.0384 -0.0227 -0.0272
  106TCq2    C2 1614   0.102   1.278   0.168  0.5602 -0.3355  0.1271
  106TCq2    C3 1615   0.024   1.378   0.115 -0.1862  0.7293 -0.3482
  106TCq2    C4 1616   4.641   1.425   0.197 -0.2220 -0.3754 -0.2706
  106TCq2    C5 1617   4.615   1.374   0.318 -0.7737 -0.2041 -1.2094
  106TCq2    C6 1618   4.684   1.263   0.357 -0.1163 -0.3027  0.9803
  106TCq2    C7 1619   0.066   1.213   0.280 -0.4430  0.4265 -0.3016
  106TCq2    C8 1620   4.635   1.174   0.457  0.0099 -0.3109 -1.1387
  106TCq2    O4 1621   4.709   1.082   0.484  0.3101  0.1383  0.1350
  106TCq2    C9 1622   4.577   1.543   0.149  0.2477 -0.4249 -0.7647
  106TCq2    O5 1623   4.615   1.593   0.037  0.3853  0.1405  0.2130
  106TCq2    O6 1624   4.480   1.590   0.217 -0.0646  0.2526 -0.0784
  106TCq2    H2 1625   0.048   1.425   0.021  1.7425  2.4814  1.0331
  106TCq2    H3 1626   4.541   1.427   0.377  0.4505  0.9802 -0.7363
  106TCq2    H4 1627   0.140   1.168   0.345 -0.5444  0.9035  0.1509
  107TMC2    C1 1628   1.731   0.878  11.713  0.2520 -0.2381 -0.0664
  107TMC2    C2 1629   1.854   0.823  11.691  0.9614  0.2593  0.0160
  107TMC2    C3 1630   1.901   0.820  11.562 -0.0503  0.7919 -0.2481
  107TMC2    C4 1631   1.655   0.929  11.609 -0.7707  0.1047  0.4220
  107TMC2    C5 1632   1.712   0.935  11.487  0.0795  0.3204  0.1877
  107TMC2    C6 1633   1.831   0.873  11.457  0.1246  0.3625 -0.2218
  107TMC2     C 1634   1.658   0.867  11.844  0.9182  0.2555 -0.7213
  107TMC2     O 1635   1.540   0.859  11.842 -0.3233 -0.4682  0.0346
  107TMC2     H 1636   1.917   0.784  11.770 -0.7425  0.1181  1.3119
  107TMC2    H1 1637   1.551   0.957  11.619 -1.1007  0.2349 -3.4161
  107TMC2    H2 1638   1.878   0.871  11.359  0.8189 -1.1566  0.1367
  107TMC2    C7 1639   1.611   0.947  11.386 -0.4050  0.3157 -0.1848
  107TMC2    C8 1640   2.034   0.766  11.551 -0.4535  0.7236  0.1414
  107TMC2    O1 1641   1.496   0.944  11.421 -0.1838 -0.0294 -0.2886
  107TMC2    O2 1642   2.112   0.753  11.643 -0.7445 -0.0699  0.0388
  107TMC2    O5 1643   2.048   0.712  11.428  0.1298  0.4550  1.1368
  107TMC2    H5 1644   1.958   0.709  11.389  0.2026  2.1885  0.8388
  108MPD2     C 1645   1.820   0.865  12.173  0.2047 -0.0520  0.1070
  108MPD2    C1 1646   1.715   0.849  12.090 -0.4607 -0.5678 -0.8056
  108MPD2    C2 1647   1.595   0.811  12.131 -0.6466  0.7709 -0.2443
  108MPD2    C3 1648   1.566   0.800  12.267 -0.5370 -0.0494 -0.0481
  108MPD2    C4 1649   1.668   0.821  12.358  0.3228  0.1792  0.3227
  108MPD2    C5 1650   1.801   0.841  12.308 -0.2781 -0.4568 -0.1201
  108MPD2     H 1651   1.522   0.776  12.059 -0.3069  0.5914 -0.4992
  108MPD2    H1 1652   1.648   0.820  12.464  1.6523 -2.0438  0.5594
  108MPD2    H2 1653   1.918   0.900  12.144  0.6986 -1.9179 -0.4686
  108MPD2    H3 1654   1.893   0.845  12.366 -1.7029 -1.4217  2.2428
  108MPD2     N 1655   1.438   0.774  12.322 -0.3739 -0.2363  0.1249
  108MPD2    H5 1656   1.431   0.784  12.423 -1.4577  0.9741 -0.0551
  108MPD2    N1 1657   1.745   0.870  11.952 -0.3587 -0.4715 -0.6822
  108MPD2    H7 1658   1.838   0.903  11.926 -0.7061  0.6987 -0.4513
  109MPD2     C 1659   0.608   3.068   1.986 -0.3165  0.2082  0.4728
  109MPD2    C1 1660   0.647   3.159   1.887  0.7000  1.4100  0.1867
  109MPD2    C2 1661   0.778   3.200   1.892  0.4345  0.1743 -0.0932
  109MPD2    C3 1662   0.864   3.148   1.985 -0.4385 -0.1055  0.2319
  109MPD2    C4 1663   0.829   3.040   2.062  0.3305  0.1961 -0.0567
  109MPD2    C5 1664   0.697   3.005   2.067  0.5645 -0.8370 -0.2810
  109MPD2     H 1665   0.817   3.263   1.813 -0.3421  1.3635  0.4677
  109MPD2    H1 1666   0.895   2.999   2.138 -1.3812 -1.6650  0.4297
  109MPD2    H2 1667   0.504   3.039   1.992 -0.7483  1.8738  1.0023
  109MPD2    H3 1668   0.667   2.930   2.139 -1.4978 -1.3237 -1.6310
  109MPD2     N 1669   0.994   3.202   1.973 -0.3587 -0.3672  0.2502
  109MPD2    H5 1670   1.010   3.282   1.913 -2.2977  0.7703  1.2855
  109MPD2    N1 1671   0.551   3.201   1.791 -0.1367  0.2528  0.0477
  109MPD2    H7 1672   0.455   3.171   1.802  0.2280 -0.8567  0.1566
  110TCq2    C1 1673   1.108   3.169   2.046  0.8100  0.6222 -0.1359
  110TCq2    O2 1674   1.113   3.082   2.131  0.0110  0.5309 -1.0191
  110TCq2    C2 1675   1.229   3.237   2.004  0.1393 -0.4387  0.4515
  110TCq2    C3 1676   1.341   3.238   2.082  0.9546  0.1875 -0.0870
  110TCq2    C4 1677   1.455   3.301   2.033  0.5029 -0.1244 -0.1189
  110TCq2    C5 1678   1.446   3.380   1.920 -0.3290 -0.4005 -0.5140
  110TCq2    C6 1679   1.327   3.374   1.842  0.2481  0.4248 -0.7059
  110TCq2    C7 1680   1.218   3.306   1.883 -0.4666  1.0643 -0.6354
  110TCq2    C8 1681   1.315   3.447   1.720  0.0224 -0.1683  0.1359
  110TCq2    O4 1682   1.207   3.497   1.695  0.1723  0.8088 -0.4339
  110TCq2    C9 1683   1.573   3.307   2.118  0.2126  0.4146 -0.1347
  110TCq2    O5 1684   1.649   3.404   2.088 -0.2053  0.0212 -0.2658
  110TCq2    O6 1685   1.589   3.215   2.209 -0.5990  0.0780 -0.3194
  110TCq2    H2 1686   1.354   3.169   2.165  0.0183 -1.0165 -0.9267
  110TCq2    H3 1687   1.537   3.419   1.876  0.8401 -0.6366  1.7040
  110TCq2    H4 1688   1.129   3.308   1.821  0.0345 -2.8274 -1.4705
  111TMC2    C1 1689   1.382   3.368  11.594 -0.4617 -0.1560 -0.4822
  111TMC2    C2 1690   1.464   3.453  11.530 -0.2167 -0.4262  0.6328
  111TMC2    C3 1691   1.594   3.457  11.560 -0.5024 -0.8021 -0.9368
  111TMC2    C4 1692   1.436   3.286  11.689 -0.0355 -0.1159 -0.0145
  111TMC2    C5 1693   1.567   3.293  11.716  0.0486 -0.1275  0.0789
  111TMC2    C6 1694   1.654   3.382  11.657  0.0980  0.1871 -0.3929
  111TMC2     C 1695   1.245   3.360  11.547 -0.3708 -0.5377 -0.6854
  111TMC2     O 1696   1.208   3.421  11.447  0.1187 -0.0626  0.0117
  111TMC2     H 1697   1.423   3.496  11.439  0.1830  4.3428  2.6974
  111TMC2    H1 1698   1.386   3.196  11.722 -1.7471  0.0684 -2.1381
  111TMC2    H2 1699   1.761   3.378  11.672 -0.1567 -0.5985  1.2188
  111TMC2    C7 1700   1.610   3.186  11.806 -0.3614  0.6693 -0.3612
  111TMC2    C8 1701   1.683   3.511  11.461  0.6431 -0.0662  0.0504
  111TMC2    O1 1702   1.531   3.161  11.898  0.0654  0.2847 -0.5224
  111TMC2    O2 1703   1.798   3.474  11.441 -0.3249 -0.4375  0.3680
  111TMC2    O5 1704   1.647   3.632  11.430  0.1706 -0.3759  0.2973
  111TMC2    H5 1705   1.569   3.657  11.484  1.2650  1.3179  1.1060
  112MPD2     C 1706   0.774   3.171  11.562  0.7816  0.1468 -0.8185
  112MPD2    C1 1707   0.847   3.233  11.466 -0.6155 -0.3263 -0.4704
  112MPD2    C2 1708   0.978   3.250  11.480  0.1765 -0.0429 -0.6237
  112MPD2    C3 1709   1.046   3.215  11.593  0.5033 -0.6118  0.5074
  112MPD2    C4 1710   0.989   3.140  11.687 -0.2530 -0.4583  0.1146
  112MPD2    C5 1711   0.845   3.131  11.674 -0.0941  0.0125  0.5787
  112MPD2     H 1712   1.033   3.299  11.401  0.0774  1.8507  0.4875
  112MPD2    H1 1713   1.029   3.112  11.784  0.1211  0.9301  0.3718
  112MPD2    H2 1714   0.668   3.146  11.560 -0.0609  3.8759 -1.3905
  112MPD2    H3 1715   0.791   3.076  11.750 -1.2971  2.4560  1.4895
  112MPD2     N 1716   1.175   3.264  11.622 -0.1046  0.6105 -0.3594
  112MPD2    H5 1717   1.212   3.236  11.712 -0.6598 -1.6996 -0.8572
  112MPD2    N1 1718   0.802   3.281  11.342 -0.1514  0.0018  0.4629
  112MPD2    H7 1719   0.874   3.323  11.284  1.5309 -3.2191  0.1945
  113MPD2     C 1720   3.980   0.202   0.948  0.6432 -0.5755 -0.4814
  113MPD2    C1 1721   3.886   0.274   1.021 -0.0839 -0.1481 -0.6322
  113MPD2    C2 1722   3.775   0.216   1.072 -0.1127  0.7339  0.1934
  113MPD2    C3 1723   3.744   0.083   1.041 -0.3654  0.6332  0.0276
  113MPD2    C4 1724   3.841   0.010   0.971 -0.1115 -0.1235  0.6302
  113MPD2    C5 1725   3.958   0.063   0.930  0.4763  0.0771 -0.2508
  113MPD2     H 1726   3.695   0.266   1.124 -0.5614 -0.0760  0.2744
  113MPD2    H1 1727   3.817   4.632   0.941  0.3540 -0.4442  1.3383
  113MPD2    H2 1728   4.065   0.237   0.890  1.1728  1.0504  1.2865
  113MPD2    H3 1729   4.014   4.709   0.879 -0.5403 -0.1430 -1.0375
  113MPD2     N 1730   3.624   0.014   1.073 -0.1420 -0.3098  0.4090
  113MPD2    H5 1731   3.598   4.664   1.009 -1.2666  0.6555 -0.2241
  113MPD2    N1 1732   3.903   0.410   1.051  0.7176 -0.8510  0.1085
  113MPD2    H7 1733   3.833   0.457   1.108 -0.7898 -1.0238 -1.5772
  114TCq2    C1 1734   3.544   0.042   1.177 -0.1304  0.4872  0.7517
  114TCq2    O2 1735   3.566   0.117   1.273  0.2224  0.1379  0.3464
  114TCq2    C2 1736   3.412   4.706   1.176  0.2503 -0.6733  0.3118
  114TCq2    C3 1737   3.384   4.595   1.097  0.3210 -0.2164 -0.7944
  114TCq2    C4 1738   3.258   4.571   1.045 -0.4869  1.1680  0.0893
  114TCq2    C5 1739   3.157   4.659   1.071  0.5264  0.5905  0.1200
  114TCq2    C6 1740   3.182   0.048   1.149 -0.4890  0.1917 -0.1991
  114TCq2    C7 1741   3.307   0.065   1.204  0.6017 -0.6909  0.2964
  114TCq2    C8 1742   3.084   0.154   1.151 -0.0606  0.4034  0.1328
  114TCq2    O4 1743   2.976   0.134   1.090 -0.2963 -0.4712  0.1466
  114TCq2    C9 1744   3.239   4.456   0.952  0.1181  0.1687 -0.1037
  114TCq2    O5 1745   3.118   4.426   0.927 -1.0126 -0.3468  0.1549
  114TCq2    O6 1746   3.344   4.391   0.919 -0.1132  0.0043  0.5572
  114TCq2    H2 1747   3.459   4.519   1.076 -2.6121 -3.3972  0.2137
  114TCq2    H3 1748   3.061   4.648   1.023  1.6155 -0.4357 -1.8002
  114TCq2    H4 1749   3.327   0.148   1.271 -2.6443  0.0877  0.2703
  115TMC2    C1 1750   0.227   4.005   0.055 -0.5409 -0.9117  0.2443
  115TMC2    C2 1751   0.205   4.053  17.621 -0.5146  0.3848  0.1935
  115TMC2    C3 1752   0.223   4.186  17.601 -0.0894 -0.2612  0.7293
  115TMC2    C4 1753   0.264   4.083   0.162  0.4081  0.8299  0.7286
  115TMC2    C5 1754   0.293   4.214   0.137 -0.6034  0.4578 -0.2943
  115TMC2    C6 1755   0.268   4.263   0.010  0.6865  0.2379  0.2160
  115TMC2     C 1756   0.163   3.875   0.074 -0.6309  0.2221 -0.3832
  115TMC2     O 1757   0.113   3.823  17.667 -0.0472 -0.4722 -0.1784
  115TMC2     H 1758   0.185   3.988  17.537 -0.2918  0.8875 -0.2446
  115TMC2    H1 1759   0.287   4.047   0.262 -0.5604 -0.3644  0.5216
  115TMC2    H2 1760   0.276   4.369  17.683  0.3275  0.1398 -0.4682
  115TMC2    C7 1761   0.372   4.288   0.232  0.8051  0.0541 -0.8363
  115TMC2    C8 1762   0.224   4.233  17.466  0.6261  0.8385  0.4715
  115TMC2    O1 1763   0.372   4.256   0.350  0.0504 -0.1511  0.2263
  115TMC2    O2 1764   0.283   4.332  17.433 -0.3083  0.1980  0.2929
  115TMC2    O5 1765   0.111   4.191  17.415  0.2066 -0.5126  0.5634
  115TMC2    H5 1766   0.057   4.139  17.479  0.9159  2.0481  3.1877
  116MPD2     C 1767   0.011   3.471   0.330  0.6348 -0.2572 -0.2033
  116MPD2    C1 1768   4.695   3.515   0.207  0.6249  0.4657  0.5229
  116MPD2    C2 1769   0.017   3.635   0.173  0.9182  0.0181  0.7756
  116MPD2    C3 1770   0.105   3.709   0.249 -0.1931  0.9753 -0.4551
  116MPD2    C4 1771   0.159   3.657   0.364  0.0021 -0.4441 -0.1363
  116MPD2    C5 1772   0.106   3.539   0.407  0.0948 -0.6079 -0.3840
  116MPD2     H 1773   4.686   3.683   0.092  0.2516 -0.2406  1.0648
  116MPD2    H1 1774   0.243   3.697   0.420 -1.5734 -0.0130  1.9270
  116MPD2    H2 1775   4.708   3.373   0.368  2.3247 -1.1396 -1.3371
  116MPD2    H3 1776   0.152   3.504   0.499  0.0434  1.8439  0.5712
  116MPD2     N 1777   0.172   3.827   0.206  0.0323 -0.3030 -0.6219
  116MPD2    H5 1778   0.230   3.876   0.274 -0.7424 -0.4538  0.1588
  116MPD2    N1 1779   4.607   3.441   0.126 -0.3332 -0.5461  0.0791
  116MPD2    H7 1780   4.589   3.474   0.031 -1.4986 -2.2458 -0.2861
  117TMC2    C1 1781   2.847   0.162  14.602 -0.3791  0.2334  0.3127
  117TMC2    C2 1782   2.851   0.132  14.733  0.7425 -0.6933 -0.9210
  117TMC2    C3 1783   2.963   0.136  14.799  0.4922 -0.0333  0.0028
  117TMC2    C4 1784   2.958   0.196  14.535  0.1418 -0.7482  0.0192
  117TMC2    C5 1785   3.075   0.201  14.611 -0.2805 -0.3568 -0.0478
  117TMC2    C6 1786   3.075   0.182  14.744 -0.3423 -0.0402 -0.3793
  117TMC2     C 1787   2.721   0.172  14.544  0.4630 -0.4427  0.6501
  117TMC2     O 1788   2.630   0.109  14.593  0.0149  0.0528  0.7922
  117TMC2     H 1789   2.762   0.103  14.789  0.3014  2.2093 -0.0903
  117TMC2    H1 1790   2.954   0.232  14.433 -2.6548  0.0842  0.3983
  117TMC2    H2 1791   3.164   0.197  14.803 -1.2104 -0.6535  1.0767
  117TMC2    C7 1792   3.199   0.258  14.548 -0.0098 -0.1018 -0.9475
  117TMC2    C8 1793   2.957   0.115  14.940  0.4629 -0.3733 -1.2504
  117TMC2    O1 1794   3.261   0.348  14.609  0.6438  0.4459  1.3046
  117TMC2    O2 1795   2.877   0.049  15.005  0.2359 -0.2441 -0.1992
  117TMC2    O5 1796   3.037   0.211  14.994 -0.4545 -0.0342 -0.4308
  117TMC2    H5 1797   3.060   0.285  14.933  1.7515  0.9631  1.6021
  118MPD2     C 1798   3.325   0.143  14.224  1.1079 -0.4259  0.0691
  118MPD2    C1 1799   3.311   0.233  14.322 -0.1333  0.8511  0.9081
  118MPD2    C2 1800   3.387   0.342  14.322 -0.6678 -0.2131  0.6105
  118MPD2    C3 1801   3.461   0.371  14.207  0.5610 -0.0118  0.1158
  118MPD2    C4 1802   3.471   0.278  14.103  0.6183 -0.1225 -0.3691
  118MPD2    C5 1803   3.404   0.161  14.116 -0.1658  0.7056  0.2713
  118MPD2     H 1804   3.386   0.395  14.417  1.2724  0.5155  0.2294
  118MPD2    H1 1805   3.506   0.310  14.006 -0.1168  3.9414  0.7034
  118MPD2    H2 1806   3.266   0.051  14.227  1.1334 -0.5109 -1.6375
  118MPD2    H3 1807   3.406   0.087  14.036 -1.2647  2.3694 -1.2879
  118MPD2     N 1808   3.507   0.502  14.176  0.5932 -0.2992 -0.4448
  118MPD2    H5 1809   3.557   0.522  14.090  1.9577 -3.7295 -0.4399
  118MPD2    N1 1810   3.211   0.200  14.422  0.2607 -0.4690 -0.2159
  118MPD2    H7 1811   3.144   0.126  14.401  0.3995 -0.6008 -0.1970
  119MPD2     C 1812   1.599   1.952  14.384  0.5322  1.1161  0.3430
  119MPD2    C1 1813   1.509   1.968  14.280 -0.3894 -0.4247  0.8388
  119MPD2    C2 1814   1.537   1.926  14.155  0.3170 -0.3514  0.9902
  119MPD2    C3 1815   1.646   1.851  14.126 -0.0237  0.3384  0.8152
  119MPD2    C4 1816   1.731   1.821  14.231  0.4430 -0.1599 -0.0084
  119MPD2    C5 1817   1.706   1.872  14.354 -0.4450 -0.7821  0.0269
  119MPD2     H 1818   1.470   1.950  14.073 -0.1438  0.1044  1.4906
  119MPD2    H1 1819   1.815   1.753  14.222  0.0073 -0.2329 -3.5704
  119MPD2    H2 1820   1.591   2.009  14.476 -0.8038 -1.2496  1.6692
  119MPD2    H3 1821   1.774   1.840  14.432 -0.6722 -1.6571 -0.1324
  119MPD2     N 1822   1.674   1.796  13.999  0.4818 -0.2891  0.2746
  119MPD2    H5 1823   1.763   1.754  13.977 -0.1625 -1.7794  0.5187
  119MPD2    N1 1824   1.385   2.032  14.310 -0.1896 -0.1055 -0.0084
  119MPD2    H7 1825   1.390   2.086  14.397  2.3084  0.9857 -0.8186
  120TCq2    C1 1826   1.573   1.775  13.907 -0.0613 -0.3394 -0.2239
  120TCq2    O2 1827   1.452   1.772  13.935  0.2858  0.2976 -0.0289
  120TCq2    C2 1828   1.629   1.717  13.786  0.0080 -0.3623  0.4130
  120TCq2    C3 1829   1.736   1.777  13.732 -0.0239 -0.1340 -0.2294
  120TCq2    C4 1830   1.767   1.742  13.607  0.1454  0.2056 -0.9212
  120TCq2    C5 1831   1.692   1.663  13.528  0.0816 -0.2644  0.1634
  120TCq2    C6 1832   1.573   1.624  13.581 -0.3628 -0.1958 -0.8469
  120TCq2    C7 1833   1.549   1.639  13.715  0.3853  0.2416 -0.1150
  120TCq2    C8 1834   1.484   1.555  13.493 -0.1267 -0.2529  0.4269
  120TCq2    O4 1835   1.510   1.535  13.372 -0.2269  0.3668  0.4341
  120TCq2    C9 1836   1.885   1.796  13.544  0.5936 -0.6663 -0.2942
  120TCq2    O5 1837   1.950   1.885  13.604 -0.0505 -0.3138  0.0748
  120TCq2    O6 1838   1.901   1.777  13.421 -0.1503 -0.5206 -0.4390
  120TCq2    H2 1839   1.792   1.856  13.781  0.2343 -0.0316 -0.6850
  120TCq2    H3 1840   1.719   1.650  13.424  1.3269 -2.5382  0.7721
  120TCq2    H4 1841   1.459   1.611  13.768  0.3576 -2.0227 -1.3369
  121TMC2    C1 1842   2.833   3.348  14.450 -0.0279 -0.7496  0.4474
  121TMC2    C2 1843   2.776   3.301  14.567  0.3552 -0.1692  0.9628
  121TMC2    C3 1844   2.645   3.267  14.555 -0.2215  0.2090 -0.1432
  121TMC2    C4 1845   2.769   3.358  14.326  0.3364  0.5338  0.1909
  121TMC2    C5 1846   2.637   3.335  14.327 -0.3383 -0.3148 -0.0172
  121TMC2    C6 1847   2.571   3.285  14.439 -0.6959  0.5033  0.5393
  121TMC2     C 1848   2.966   3.405  14.454  0.0251 -0.3090 -0.4301
  121TMC2     O 1849   3.021   3.406  14.565 -0.1551  0.2913  0.4881
  121TMC2     H 1850   2.846   3.285  14.648  1.1333 -1.2873  0.0794
  121TMC2    H1 1851   2.818   3.341  14.231  0.5641  3.0157 -0.1512
  121TMC2    H2 1852   2.471   3.245  14.427 -0.3268  0.2865 -1.7566
  121TMC2    C7 1853   2.569   3.348  14.200  0.3028  0.2451 -0.6064
  121TMC2    C8 1854   2.593   3.165  14.639  0.3642  0.0329 -0.0909
  121TMC2    O1 1855   2.635   3.340  14.099  0.4314  0.0501 -0.0288
  121TMC2    O2 1856   2.478   3.128  14.631  0.4650 -0.0227  0.6362
  121TMC2    O5 1857   2.686   3.063  14.630  0.3452  0.8517  0.0911
  121TMC2    H5 1858   2.778   3.089  14.608  0.3327 -0.5204 -1.5224
  122MPD2     C 1859   3.201   3.576  14.420  0.7073  0.3097 -0.4762
  122MPD2    C1 1860   3.124   3.532  14.316 -0.4309 -0.7334 -0.1296
  122MPD2    C2 1861   3.155   3.565  14.187 -0.7776 -0.8493 -0.0839
  122MPD2    C3 1862   3.279   3.625  14.162  0.2282  0.2749  0.0416
  122MPD2    C4 1863   3.358   3.664  14.263  0.0864  1.0044 -0.0817
  122MPD2    C5 1864   3.319   3.642  14.392  0.6535 -0.4031 -0.2528
  122MPD2     H 1865   3.076   3.540  14.117  0.1231 -0.2010 -1.3305
  122MPD2    H1 1866   3.457   3.708  14.249  1.5250 -1.0368  3.4395
  122MPD2    H2 1867   3.171   3.573  14.524  1.4391 -1.5092 -0.3275
  122MPD2    H3 1868   3.380   3.691  14.467 -1.1577  1.8324 -0.2381
  122MPD2     N 1869   3.324   3.660  14.030 -0.0411  0.4465 -0.2781
  122MPD2    H5 1870   3.417   3.698  14.022 -0.1396  0.6623 -0.3903
  122MPD2    N1 1871   3.003   3.463  14.337 -0.0889 -0.4383 -0.7294
  122MPD2    H7 1872   2.949   3.445  14.253  0.7015  1.0726 -1.5759
  123MPD2     C 1873   1.275   1.780  11.069  0.0436  0.4976  0.1994
  123MPD2    C1 1874   1.295   1.797  10.929 -0.1622 -0.5820 -0.1881
  123MPD2    C2 1875   1.326   1.933  10.900 -0.5784 -0.4961 -0.3396
  123MPD2    C3 1876   1.343   2.031  10.997 -0.3720  0.1104  0.2199
  123MPD2    C4 1877   1.326   2.005  11.130 -0.0659 -0.1051  0.1511
  123MPD2    C5 1878   1.289   1.877  11.160 -0.2795 -0.1077 -0.5849
  123MPD2     H 1879   1.323   1.976  10.800  2.0321  2.2019  0.7544
  123MPD2    H1 1880   1.342   2.079  11.208 -2.9500  2.5421 -1.7130
  123MPD2    H2 1881   1.268   1.678  11.106  0.8866  1.4292  3.0010
  123MPD2    H3 1882   1.262   1.855  11.262 -1.5370  0.8755 -0.7098
  123MPD2     N 1883   1.403   2.149  10.949 -0.6243 -0.9561 -0.0784
  123MPD2    H5 1884   1.421   2.147  10.850 -1.2392  0.7028 -0.2222
  123MPD2    N1 1885   1.262   1.694  10.835  0.2439 -0.1630 -0.0540
  123MPD2    H7 1886   1.215   1.612  10.871  0.3561 -0.1919  0.0253
  124TCq2    C1 1887   1.425   2.267  11.016  1.1835 -0.1913  0.0035
  124TCq2    O2 1888   1.413   2.292  11.136 -0.0780 -0.0748 -0.3729
  124TCq2    C2 1889   1.475   2.368  10.923 -0.6633 -0.9714  0.1692
  124TCq2    C3 1890   1.451   2.498  10.953 -0.2131 -0.6740 -0.0075
  124TCq2    C4 1891   1.479   2.597  10.859 -0.1609  0.0666 -0.6633
  124TCq2    C5 1892   1.548   2.562  10.744 -0.5813 -0.2412 -0.0148
  124TCq2    C6 1893   1.582   2.429  10.722  0.1288  0.3156  0.2797
  124TCq2    C7 1894   1.534   2.331  10.804  0.5321  0.5236 -0.0964
  124TCq2    C8 1895   1.606   2.382  10.585 -0.3641  0.3087 -0.0924
  124TCq2    O4 1896   1.579   2.267  10.557  0.2309 -0.0066  0.4028
  124TCq2    C9 1897   1.432   2.731  10.886  0.2269 -0.2762  0.0724
  124TCq2    O5 1898   1.439   2.809  10.791 -0.6480 -0.0622  0.7323
  124TCq2    O6 1899   1.402   2.764  11.004  0.4185  0.2861  0.0136
  124TCq2    H2 1900   1.405   2.527  11.046 -0.9809 -0.0169 -0.5890
  124TCq2    H3 1901   1.569   2.638  10.670  1.2684  0.0815  0.8315
  124TCq2    H4 1902   1.559   2.226  10.794  1.8019  0.7960  0.2337
  125TMC2    C1 1903   1.622   3.711   9.082  0.8925  0.0055  0.2737
  125TMC2    C2 1904   1.681   3.594   9.040 -0.0830  0.0291  0.1577
  125TMC2    C3 1905   1.790   3.612   8.955  0.4993 -0.5555 -0.6105
  125TMC2    C4 1906   1.676   3.836   9.065  0.0002  0.4235 -0.3399
  125TMC2    C5 1907   1.795   3.841   8.997  0.0070  0.0379 -0.0444
  125TMC2    C6 1908   1.856   3.736   8.937 -0.3650 -0.1030 -0.4378
  125TMC2     C 1909   1.479   3.712   9.108  0.0666 -0.4757  0.2811
  125TMC2     O 1910   1.428   3.822   9.097 -0.2056  0.2057 -0.1685
  125TMC2     H 1911   1.648   3.495   9.067 -0.5886 -0.2018 -1.3126
  125TMC2    H1 1912   1.637   3.921   9.120 -1.0865 -0.0495 -0.3704
  125TMC2    H2 1913   1.950   3.739   8.883 -1.5280 -1.4289 -2.5349
  125TMC2    C7 1914   1.870   3.965   9.016 -0.0621 -0.6016  0.1623
  125TMC2    C8 1915   1.850   3.486   8.916 -1.0859 -0.3146 -0.0277
  125TMC2    O1 1916   1.799   4.060   9.041  1.1070 -0.1613  0.0309
  125TMC2    O2 1917   1.886   3.406   9.003 -0.0587 -0.3684  0.6966
  125TMC2    O5 1918   1.924   3.516   8.811  0.0771 -0.2207  0.4458
  125TMC2    H5 1919   1.884   3.583   8.752  0.8973 -0.4546 -0.3932
  126MPD1     C 1920   1.021   3.495   9.159  0.0519 -0.0170 -0.2435
  126MPD1    C1 1921   1.113   3.393   9.162 -0.3561  1.0661 -0.2123
  126MPD1    C2 1922   1.248   3.420   9.139  0.1534 -0.2906 -0.4595
  126MPD1    C3 1923   1.293   3.553   9.140  0.1692  0.3011 -0.0386
  126MPD1    C4 1924   1.199   3.653   9.137  0.4875 -0.0424  0.0024
  126MPD1    C5 1925   1.067   3.622   9.140 -0.0169  0.5379 -0.6968
  126MPD1     H 1926   1.324   3.342   9.139  1.9148  1.4534  3.5294
  126MPD1    H1 1927   1.220   3.760   9.141 -0.9801  0.2496  0.0672
  126MPD1    H2 1928   0.915   3.476   9.173  0.8851 -2.2284  2.8812
  126MPD1    H3 1929   0.997   3.704   9.127  0.9514  1.8978  2.6347
  126MPD1     N 1930   1.428   3.585   9.127  0.1911  0.0066  0.0584
  126MPD1    H5 1931   1.494   3.508   9.125  0.8013  0.5362 -0.1985
  126MPD1    N1 1932   1.046   3.264   9.161 -0.2266 -0.2262 -0.2348
  126MPD1    H6 1933   1.103   3.181   9.182  1.5060  0.8910 -0.5272
  126MPD1    H7 1934   0.950   3.262   9.195 -1.2538  3.2403 -2.9926
  127MPD2     C 1935   3.694   3.008   9.257 -0.3801 -0.2176 -0.7345
  127MPD2    C1 1936   3.668   3.015   9.396  0.1551 -0.5170  0.3137
  127MPD2    C2 1937   3.657   3.140   9.451 -0.3916 -0.6947  0.0875
  127MPD2    C3 1938   3.675   3.258   9.376  0.4710  0.6912 -0.0619
  127MPD2    C4 1939   3.693   3.249   9.236 -0.6955  0.3641 -0.7530
  127MPD2    C5 1940   3.695   3.120   9.179 -0.7600 -0.4792  0.0140
  127MPD2     H 1941   3.641   3.158   9.557 -0.3385 -0.9967  0.1447
  127MPD2    H1 1942   3.706   3.336   9.172  0.3876 -0.2626 -1.3837
  127MPD2    H2 1943   3.695   2.910   9.210  2.8110 -0.1594 -0.7687
  127MPD2    H3 1944   3.690   3.118   9.071  1.8063 -0.6234 -0.1022
  127MPD2     N 1945   3.657   3.389   9.436  0.5419  0.3648  0.3231
  127MPD2    H5 1946   3.625   3.389   9.532 -1.6961 -1.9398 -0.3928
  127MPD2    N1 1947   3.637   2.894   9.463  0.3944  0.1865 -0.5434
  127MPD2    H7 1948   3.622   2.807   9.411 -0.6027 -0.2484  0.4648
  128TCq2    C1 1949   3.604   2.888   9.592 -0.3487  0.3240 -0.1999
  128TCq2    O2 1950   3.609   2.970   9.683  0.0354  0.1638 -0.4039
  128TCq2    C2 1951   3.565   2.765   9.649  0.3777  0.0575 -0.7136
  128TCq2    C3 1952   3.581   2.756   9.787  0.0425  0.6771  0.5646
  128TCq2    C4 1953   3.512   2.665   9.854 -0.0142 -0.2917 -0.5585
  128TCq2    C5 1954   3.433   2.577   9.788 -0.3893 -0.4045  0.8339
  128TCq2    C6 1955   3.404   2.593   9.655 -0.1020 -0.9170 -0.1538
  128TCq2    C7 1956   3.475   2.684   9.581 -0.5054 -0.3076  0.1061
  128TCq2    C8 1957   3.289   2.532   9.591 -0.1232  0.0535 -0.8913
  128TCq2    O4 1958   3.276   2.568   9.473  0.5746  0.4192 -0.4396
  128TCq2    C9 1959   3.534   2.643   9.997  0.5830  0.4185  0.4474
  128TCq2    O5 1960   3.629   2.709  10.043 -0.0549 -0.5922 -0.1566
  128TCq2    O6 1961   3.459   2.560  10.060  1.1522  0.0134  0.4202
  128TCq2    H2 1962   3.642   2.827   9.842 -0.1185 -1.3273  3.3256
  128TCq2    H3 1963   3.390   2.495   9.844 -0.8579 -0.3341  0.5724
  128TCq2    H4 1964   3.465   2.683   9.473  0.5001 -1.5446  0.0221
  129MPD2     C 1965   1.068   3.397   1.278 -0.0455  0.1562  0.6947
  129MPD2    C1 1966   1.192   3.353   1.311 -0.5351  0.4609  0.3445
  129MPD2    C2 1967   1.304   3.371   1.227  0.0316 -0.0029 -0.0584
  129MPD2    C3 1968   1.297   3.458   1.121  1.2161 -0.1147  0.1799
  129MPD2    C4 1969   1.170   3.502   1.093 -0.0016  0.3804  0.2084
  129MPD2    C5 1970   1.057   3.486   1.170 -0.5801 -0.7996 -0.0436
  129MPD2     H 1971   1.399   3.335   1.265  0.2465  1.9763  1.2931
  129MPD2    H1 1972   1.149   3.570   1.011  0.4571 -1.0480 -1.1037
  129MPD2    H2 1973   0.979   3.365   1.332 -0.4776 -2.7861 -1.7534
  129MPD2    H3 1974   0.963   3.530   1.139 -1.2629 -1.3562  1.2638
  129MPD2     N 1975   1.414   3.486   1.045  0.0168 -0.7539  0.6619
  129MPD2    H5 1976   1.502   3.441   1.070 -0.1275 -0.7829  1.1225
  129MPD2    N1 1977   1.209   3.262   1.413  0.1787  0.1932 -0.1037
  129MPD2    H7 1978   1.303   3.223   1.421  0.2459 -0.2445 -3.1061
  130TCq2    C1 1979   1.110   3.223   1.508 -0.2592  0.7411 -0.4475
  130TCq2    O2 1980   0.988   3.248   1.529  0.1877  0.1031  0.6713
  130TCq2    C2 1981   1.161   3.122   1.604 -0.0668 -0.1781  0.2977
  130TCq2    C3 1982   1.291   3.113   1.631  0.4588 -0.4943  0.7006
  130TCq2    C4 1983   1.331   3.013   1.712 -0.2684 -0.2097  0.0466
  130TCq2    C5 1984   1.245   2.937   1.787 -0.3427  0.0636  0.3741
  130TCq2    C6 1985   1.116   2.955   1.758 -0.8176 -0.2934 -0.1782
  130TCq2    C7 1986   1.068   3.040   1.662  0.1918 -0.2782  0.3777
  130TCq2    C8 1987   1.022   2.857   1.801 -0.1625  0.0472 -0.0853
  130TCq2    O4 1988   0.943   2.823   1.715 -0.3180 -0.2313 -0.0736
  130TCq2    C9 1989   1.470   2.983   1.720 -0.2548 -0.5165 -0.0220
  130TCq2    O5 1990   1.537   3.046   1.632  0.3010 -0.2700 -0.5167
  130TCq2    O6 1991   1.505   2.888   1.793  0.4359  0.5919 -0.2815
  130TCq2    H2 1992   1.364   3.184   1.594 -3.2542  3.9422  1.7665
  130TCq2    H3 1993   1.281   2.858   1.852  3.1049  0.9496 -0.4401
  130TCq2    H4 1994   0.965   3.047   1.632  0.6866 -0.1060 -1.2687
  131MPD2     C 1995   1.166   2.065   9.947 -0.2787 -0.0445  0.2077
  131MPD2    C1 1996   1.225   2.099  10.069 -0.3735 -0.1885 -0.3859
  131MPD2    C2 1997   1.213   2.001  10.169 -0.2411 -0.1268 -0.1340
  131MPD2    C3 1998   1.146   1.880  10.152  0.0430  0.0392 -0.6306
  131MPD2    C4 1999   1.092   1.845  10.026  0.8051  0.5605 -0.1838
  131MPD2    C5 2000   1.111   1.936   9.921 -0.1762 -0.1143 -0.4485
  131MPD2     H 2001   1.244   2.024  10.271 -1.5914 -0.6668  0.3911
  131MPD2    H1 2002   1.032   1.757  10.008  1.5117 -0.0916  0.6384
  131MPD2    H2 2003   1.159   2.133   9.863 -3.8360 -0.4717  0.1450
  131MPD2    H3 2004   1.070   1.923   9.822  0.4751  0.8074 -0.8316
  131MPD2     N 2005   1.148   1.799  10.262 -0.2220 -0.1626 -0.6600
  131MPD2    H5 2006   1.216   1.820  10.334  0.1817  1.9168 -1.6293
  131MPD2    N1 2007   1.273   2.235  10.087  0.4886 -0.6339 -0.4459
  131MPD2    H7 2008   1.268   2.295  10.005 -3.6501 -1.6564 -0.9635
  132TCq2    C1 2009   1.491   2.657   9.973  0.2512  0.0121 -0.1131
  132TCq2    O2 2010   1.493   2.580   9.880 -0.3622  0.2868 -0.2031
  132TCq2    C2 2011   1.445   2.607  10.101  0.0026 -0.8038  1.0032
  132TCq2    C3 2012   1.428   2.683  10.218 -0.7699 -0.1815 -0.0943
  132TCq2    C4 2013   1.364   2.625  10.323  0.4358  0.6353 -0.4012
  132TCq2    C5 2014   1.332   2.493  10.326 -0.4710 -0.6070 -0.3154
  132TCq2    C6 2015   1.342   2.422  10.205 -0.3328  0.2029  0.3555
  132TCq2    C7 2016   1.406   2.478  10.094 -0.0977  0.4627  0.5372
  132TCq2    C8 2017   1.312   2.282  10.210 -0.0971 -0.3192 -1.0727
  132TCq2    O4 2018   1.324   2.220  10.320  0.2709 -0.4540  0.2631
  132TCq2    C9 2019   1.352   2.688  10.454  0.5427 -0.6631 -0.0405
  132TCq2    O5 2020   1.260   2.639  10.528  0.6716  0.0650  0.6209
  132TCq2    O6 2021   1.399   2.800  10.472 -0.5060  0.0504 -0.1277
  132TCq2    H2 2022   1.478   2.778  10.231  0.0261 -0.8136  1.3869
  132TCq2    H3 2023   1.303   2.439  10.416  1.7422  0.1061  0.8111
  132TCq2    H4 2024   1.399   2.417  10.004  2.2752 -0.6970  1.1489
  133MPD2     C 2025   4.425   3.584   9.698 -0.4480 -0.1371  0.4353
  133MPD2    C1 2026   4.448   3.490   9.603 -0.1846 -0.6896  0.5576
  133MPD2    C2 2027   4.415   3.360   9.625  0.3251  0.1928  0.3500
  133MPD2    C3 2028   4.354   3.325   9.743  0.3502  0.0779  0.5995
  133MPD2    C4 2029   4.331   3.423   9.837 -0.0023 -0.1987 -0.5706
  133MPD2    C5 2030   4.359   3.553   9.817  0.7874 -0.3409  0.2000
  133MPD2     H 2031   4.433   3.283   9.551 -1.2753 -0.8553  1.0430
  133MPD2    H1 2032   4.287   3.404   9.934 -0.7210 -0.2158 -0.8990
  133MPD2    H2 2033   4.442   3.689   9.682  0.3683 -0.1865  0.9327
  133MPD2    H3 2034   4.349   3.628   9.894 -1.0239 -0.6283  0.2454
  133MPD2     N 2035   4.320   3.186   9.776  0.5089 -0.5135 -0.1293
  133MPD2    H5 2036   4.302   3.162   9.873  1.1582  0.3586  0.2059
  133MPD2    N1 2037   4.499   3.540   9.479 -0.4083  0.3139 -0.0156
  133MPD2    H7 2038   4.513   3.641   9.487  2.3924 -0.1126  0.6362
  134TCq2    C1 2039   4.521   3.476   9.364 -0.5505 -0.1781 -0.1019
  134TCq2    O2 2040   4.482   3.366   9.329  0.5267 -0.0887  0.4551
  134TCq2    C2 2041   4.591   3.554   9.260  0.3128 -0.2447 -0.0033
  134TCq2    C3 2042   4.560   3.512   9.134  0.0464  0.3256  0.0579
  134TCq2    C4 2043   4.606   3.583   9.026 -0.6223  0.2096 -0.6766
  134TCq2    C5 2044   4.662   3.707   9.048 -0.2599  0.2026 -0.4240
  134TCq2    C6 2045   4.696   3.748   9.179  0.4612  0.0711 -0.4416
  134TCq2    C7 2046   4.649   3.674   9.283  0.2802 -0.1988 -0.2877
  134TCq2    C8 2047   0.019   3.885   9.202  0.7064 -0.1520  0.1541
  134TCq2    O4 2048   0.013   3.962   9.110 -0.1260  0.1718  0.3409
  134TCq2    C9 2049   4.581   3.535   8.894  0.0597 -0.0291  0.2200
  134TCq2    O5 2050   4.531   3.421   8.881  0.1714 -0.3186 -0.3590
  134TCq2    O6 2051   4.631   3.597   8.794 -0.1584 -0.2794  0.2294
  134TCq2    H2 2052   4.511   3.418   9.112 -0.0089  0.2346  0.5617
  134TCq2    H3 2053   4.691   3.769   8.964  0.4937 -0.1681 -0.4417
  134TCq2    H4 2054   4.653   3.719   9.382  0.0749  0.1878 -0.4552
  135MPD2     C 2055   3.178   0.049   9.693 -0.7208  0.0135 -0.2494
  135MPD2    C1 2056   3.074   4.703   9.629  0.7384  0.5397 -1.3008
  135MPD2    C2 2057   3.092   4.661   9.497 -0.2329  0.5171 -0.0332
  135MPD2    C3 2058   3.207   4.674   9.432  0.9166 -0.8024 -0.3512
  135MPD2    C4 2059   3.307   0.033   9.493 -0.4237  0.0632 -0.0780
  135MPD2    C5 2060   3.289   0.084   9.619 -0.0608  0.8820 -0.7617
  135MPD2     H 2061   3.014   4.605   9.446  1.3590 -0.4661 -1.4039
  135MPD2    H1 2062   3.402   0.059   9.448 -1.2417 -0.0960 -1.9113
  135MPD2    H2 2063   3.176   0.074   9.799  0.0854 -1.7459  0.1947
  135MPD2    H3 2064   3.372   0.145   9.652  0.9088 -1.2168  0.6671
  135MPD2     N 2065   3.215   4.609   9.306 -0.3974 -0.1125 -0.4023
  135MPD2    H5 2066   3.139   4.558   9.262  0.9036 -0.3843 -2.3180
  135MPD2    N1 2067   2.956   4.671   9.689 -0.4721  0.0262 -0.3880
  135MPD2    H7 2068   2.898   4.617   9.626 -1.4233 -0.3399  0.7916
  136TCq2    C1 2069   2.908   4.692   9.822  0.6624  0.2712  0.0916
  136TCq2    O2 2070   2.957   0.032   9.915 -0.7561  0.0219 -0.2726
  136TCq2    C2 2071   2.777   4.634   9.851  0.3175  0.2043  0.2379
  136TCq2    C3 2072   2.748   4.606   9.981 -0.3678 -0.3622  0.8115
  136TCq2    C4 2073   2.628   4.550  10.022 -0.8783  0.0172 -1.1560
  136TCq2    C5 2074   2.530   4.517   9.924  0.6114  0.0233  0.2442
  136TCq2    C6 2075   2.572   4.535   9.787 -0.1876 -0.3054  0.1293
  136TCq2    C7 2076   2.689   4.608   9.754 -0.1620  0.7577 -0.7304
  136TCq2    C8 2077   2.502   4.464   9.684  0.0632 -0.3241  0.1800
  136TCq2    O4 2078   2.550   4.471   9.573 -0.6145 -0.1670 -0.1162
  136TCq2    C9 2079   2.603   4.525  10.164  0.4998  0.4675  0.3762
  136TCq2    O5 2080   2.678   4.597  10.237  0.1643  0.2993  0.3546
  136TCq2    O6 2081   2.523   4.437  10.200 -0.0519  0.6432  0.2765
  136TCq2    H2 2082   2.818   4.637  10.058  1.4002  0.8936 -1.2856
  136TCq2    H3 2083   2.439   4.467   9.953  0.7887 -0.4530 -0.0074
  136TCq2    H4 2084   2.715   4.625   9.650  2.6490  3.2481  0.3778
  137MPD2     C 2085   2.417   2.880   9.546  0.3266 -0.1168  0.0468
  137MPD2    C1 2086   2.382   3.010   9.574  0.5999  0.3644  0.3177
  137MPD2    C2 2087   2.327   3.043   9.695  0.4930  0.0138 -0.1660
  137MPD2    C3 2088   2.307   2.943   9.790 -0.6342  0.2647 -0.3157
  137MPD2    C4 2089   2.343   2.812   9.764 -0.9336  0.3659 -0.0659
  137MPD2    C5 2090   2.398   2.782   9.645  0.2281 -0.3040  0.5948
  137MPD2     H 2091   2.308   3.148   9.713  1.0798  0.1497 -0.3389
  137MPD2    H1 2092   2.332   2.738   9.841  1.2898  0.1406  0.0173
  137MPD2    H2 2093   2.465   2.856   9.452 -2.5581 -0.4356 -1.3245
  137MPD2    H3 2094   2.426   2.678   9.628  0.8836  0.1376 -0.9326
  137MPD2     N 2095   2.242   2.980   9.909  0.8331  0.4867 -0.3170
  137MPD2    H5 2096   2.247   3.081   9.923 -0.9974  0.4836  0.2436
  137MPD2    N1 2097   2.392   3.107   9.464 -0.6957 -0.0481  0.4684
  137MPD2    H7 2098   2.452   3.080   9.387  1.8263  1.5442  1.8718
  138TCq2    C1 2099   2.309   3.217   9.457 -0.3013 -0.2973 -0.1045
  138TCq2    O2 2100   2.231   3.263   9.537 -0.1452  0.0528  0.2930
  138TCq2    C2 2101   2.339   3.299   9.336 -0.3566  1.6269  0.1167
  138TCq2    C3 2102   2.468   3.320   9.303  0.2375 -0.5895 -0.2333
  138TCq2    C4 2103   2.494   3.428   9.219  0.7595 -0.1436 -0.7766
  138TCq2    C5 2104   2.404   3.522   9.179  0.9260  0.1142 -0.2221
  138TCq2    C6 2105   2.277   3.506   9.234 -0.2994  0.4068 -0.5584
  138TCq2    C7 2106   2.244   3.400   9.317 -0.0859  0.7347 -0.1562
  138TCq2    C8 2107   2.187   3.619   9.235  0.3007  0.1951  0.0482
  138TCq2    O4 2108   2.243   3.720   9.198 -0.2106  0.2996  0.1727
  138TCq2    C9 2109   2.631   3.450   9.173  0.0285 -0.6642 -0.7214
  138TCq2    O5 2110   2.650   3.540   9.085  0.0697 -0.0635  0.2040
  138TCq2    O6 2111   2.721   3.375   9.223  0.2977 -0.1315  0.3880
  138TCq2    H2 2112   2.552   3.258   9.334  0.9759  0.5406  0.0132
  138TCq2    H3 2113   2.436   3.608   9.122 -0.5044  0.9235  0.1903
  138TCq2    H4 2114   2.151   3.398   9.372  1.2729 -0.7569  2.0491
  139TMC2    C1 2115   2.931   1.286  13.428 -0.2833 -0.3562 -0.5153
  139TMC2    C2 2116   2.924   1.335  13.295  0.4761  0.1163 -0.0546
  139TMC2    C3 2117   2.872   1.467  13.290 -0.6275  1.0695 -0.1032
  139TMC2    C4 2118   2.885   1.358  13.538  0.1770 -0.4991 -0.6808
  139TMC2    C5 2119   2.821   1.480  13.516 -0.3285 -0.2863  0.9824
  139TMC2    C6 2120   2.819   1.538  13.393  0.2191  0.4555 -0.6200
  139TMC2     C 2121   2.994   1.153  13.436  0.6091  0.0652  0.4603
  139TMC2     O 2122   3.056   1.136  13.334 -0.3287 -0.5381 -0.0460
  139TMC2     H 2123   2.950   1.282  13.205  0.5571  0.5615 -0.2924
  139TMC2    H1 2124   2.901   1.311  13.634  0.1495  1.5442  0.3055
  139TMC2    H2 2125   2.771   1.634  13.375  1.9169  1.4330  0.0081
  139TMC2    C7 2126   2.753   1.552  13.620  0.2951 -0.1027 -0.2256
  139TMC2    C8 2127   2.830   1.501  13.160 -0.8340  0.5530 -0.2476
  139TMC2    O1 2128   2.698   1.657  13.580 -0.3452  0.5089 -0.5655
  139TMC2    O2 2129   2.728   1.556  13.121  0.1315 -0.1355 -0.3948
  139TMC2    O5 2130   2.940   1.481  13.077 -0.3914 -0.3536  0.0995
  139TMC2    H5 2131   3.016   1.451  13.131  0.2762  1.8888  0.4062
  140MPD2     C 2132   2.967   0.867  13.661 -0.5626 -0.0266 -0.5005
  140MPD2    C1 2133   3.019   0.942  13.557 -1.5845  0.5167  0.2379
  140MPD2    C2 2134   3.114   0.886  13.470 -0.1727 -0.1022 -0.1499
  140MPD2    C3 2135   3.155   0.753  13.484  0.2267 -0.6819  0.0645
  140MPD2    C4 2136   3.091   0.675  13.575 -0.4806  0.2899 -0.4324
  140MPD2    C5 2137   3.007   0.734  13.668 -0.2824 -0.0729  0.5682
  140MPD2     H 2138   3.161   0.948  13.395  0.7715  0.1010  0.6144
  140MPD2    H1 2139   3.123   0.572  13.585 -0.5768 -0.0032 -3.2194
  140MPD2    H2 2140   2.898   0.906  13.735 -0.9192  2.3653 -2.0817
  140MPD2    H3 2141   2.955   0.670  13.739 -1.2061  0.3500  0.2811
  140MPD2     N 2142   3.233   0.708  13.380 -0.0502  0.3655  0.0694
  140MPD2    H5 2143   3.275   0.778  13.320 -2.0969  1.6240  0.0707
  140MPD2    N1 2144   2.968   1.074  13.541  0.0682 -0.1649  0.2302
  140MPD2    H7 2145   2.899   1.110  13.606  0.6754  1.9344 -0.2928
  141TCq2    C1 2146   3.695   2.474  14.219  0.6346 -0.2136 -0.5339
  141TCq2    O2 2147   3.691   2.594  14.196  0.0706 -0.1434  0.1270
  141TCq2    C2 2148   3.708   2.424  14.362 -0.5273  1.3004 -0.5809
  141TCq2    C3 2149   3.742   2.295  14.387  0.1161  0.1055  0.3726
  141TCq2    C4 2150   3.727   2.253  14.522 -0.8133  0.9377  0.5467
  141TCq2    C5 2151   3.679   2.337  14.617 -0.0696 -0.3324  0.0170
  141TCq2    C6 2152   3.656   2.467  14.590  0.1707  0.3306  0.5711
  141TCq2    C7 2153   3.674   2.511  14.462  0.4788  0.4955  0.0004
  141TCq2    C8 2154   3.623   2.553  14.700 -0.5428 -0.3514 -0.0359
  141TCq2    O4 2155   3.617   2.493  14.806  0.6370 -0.3970  0.4425
  141TCq2    C9 2156   3.748   2.112  14.558 -0.2041  0.1111 -0.8182
  141TCq2    O5 2157   3.803   2.041  14.469  0.5412  0.4527  0.3966
  141TCq2    O6 2158   3.695   2.070  14.662  0.4907  0.8306 -0.2722
  141TCq2    H2 2159   3.770   2.222  14.312 -1.1176 -1.1172  1.0937
  141TCq2    H3 2160   3.664   2.308  14.720 -1.6063  0.4448  0.0090
  141TCq2    H4 2161   3.661   2.614  14.433  0.4754  0.6374  0.4968
  142MPD2     C 2162   1.446   1.299  10.435 -1.3346  0.0854 -0.0575
  142MPD2    C1 2163   1.399   1.295  10.310 -0.0671  0.1655 -0.2353
  142MPD2    C2 2164   1.391   1.416  10.240 -0.1473  0.9094 -0.3245
  142MPD2    C3 2165   1.451   1.536  10.291  0.0120  0.6810  0.3381
  142MPD2    C4 2166   1.492   1.534  10.422  0.5425  0.5667 -0.5054
  142MPD2    C5 2167   1.489   1.415  10.492 -0.1872  0.4131  0.0165
  142MPD2     H 2168   1.341   1.422  10.144 -1.1020  1.1628  0.1914
  142MPD2    H1 2169   1.517   1.621  10.481 -1.1871 -0.9485  2.4539
  142MPD2    H2 2170   1.450   1.215  10.504  2.2781  2.9728  3.2396
  142MPD2    H3 2171   1.520   1.413  10.596 -1.1036  2.3703  0.3248
  142MPD2     N 2172   1.462   1.658  10.214 -0.1835  0.6565  0.4739
  142MPD2    H5 2173   1.487   1.740  10.269  0.3679 -1.1279  2.8448
  142MPD2    N1 2174   1.346   1.174  10.266 -0.4881 -0.3124  0.0925
  142MPD2    H7 2175   1.348   1.101  10.337 -3.2408 -1.9832 -1.5540
  143TCq2    C1 2176   1.455   1.666  10.075  0.1528  0.2874 -0.2321
  143TCq2    O2 2177   1.414   1.579   9.998 -0.1202  0.1182  0.2055
  143TCq2    C2 2178   1.490   1.799  10.022 -0.2231 -0.2643  0.2961
  143TCq2    C3 2179   1.462   1.827   9.889 -0.0304 -0.0306 -0.5793
  143TCq2    C4 2180   1.501   1.946   9.838 -0.1848 -0.7790  0.3083
  143TCq2    C5 2181   1.567   2.032   9.913  0.4495  0.1585 -0.2157
  143TCq2    C6 2182   1.585   2.008  10.045  0.5755  0.1352  0.1435
  143TCq2    C7 2183   1.532   1.898  10.103 -0.2711 -0.7589  0.1556
  143TCq2    C8 2184   1.638   2.105  10.131  0.3742  0.6702 -0.6644
  143TCq2    O4 2185   1.689   2.060  10.238 -0.2431  0.3507  0.4081
  143TCq2    C9 2186   1.478   1.973   9.695  0.0179  0.6396  0.0277
  143TCq2    O5 2187   1.491   2.092   9.656  0.0513 -0.1185 -0.1262
  143TCq2    O6 2188   1.451   1.873   9.624 -0.1322 -0.3056 -0.0835
  143TCq2    H2 2189   1.415   1.747   9.833  3.0429 -1.9273 -0.4189
  143TCq2    H3 2190   1.606   2.120   9.862 -1.6885  0.2564 -1.6881
  143TCq2    H4 2191   1.532   1.890  10.211 -2.4660 -2.9046  0.0161
  144MPD2     C 2192   4.153   0.230   0.567 -0.7763 -0.4374 -0.0043
  144MPD2    C1 2193   4.100   0.115   0.607 -0.1289 -0.0647 -0.2289
  144MPD2    C2 2194   4.178   0.034   0.685 -0.5808  0.6990  0.1200
  144MPD2    C3 2195   4.282   0.083   0.758 -0.1074 -1.0149  0.0274
  144MPD2    C4 2196   4.328   0.205   0.716 -0.5680 -0.0755  0.8414
  144MPD2    C5 2197   4.269   0.274   0.616 -0.4427 -0.5959 -0.6673
  144MPD2     H 2198   4.148   4.654   0.697  0.6604  0.3900  0.5808
  144MPD2    H1 2199   4.415   0.245   0.767  0.0422  0.4596 -0.6329
  144MPD2    H2 2200   4.107   0.302   0.501  1.3799 -0.4055 -1.4765
  144MPD2    H3 2201   4.289   0.376   0.585  1.0173 -0.6648  0.0518
  144MPD2     N 2202   4.339   0.014   0.867  0.7358  0.2130 -0.6499
  144MPD2    H5 2203   4.420   0.061   0.905 -0.3748  2.3969 -1.0225
  144MPD2    N1 2204   3.971   0.076   0.566 -0.2511  0.1560 -0.3144
  144MPD2    H7 2205   3.938   4.710   0.602 -1.2127 -0.0937 -1.8054
  145TCq2    C1 2206   4.313   4.610   0.920 -0.1730 -0.0732  0.0820
  145TCq2    O2 2207   4.237   4.529   0.865  0.5416 -0.5341  0.2307
  145TCq2    C2 2208   4.409   4.562   1.015 -0.2324 -0.4858  0.3445
  145TCq2    C3 2209   4.471   4.447   0.978 -0.2737 -0.1444 -1.1192
  145TCq2    C4 2210   4.598   4.417   1.015  0.7441  0.7767  0.3795
  145TCq2    C5 2211   4.663   4.504   1.099 -0.5298 -0.1823  0.7128
  145TCq2    C6 2212   4.596   4.618   1.144 -0.5263 -0.0357 -0.3567
  145TCq2    C7 2213   4.468   4.653   1.101  0.4946 -0.5505  0.3325
  145TCq2    C8 2214   4.685   0.001   1.186 -0.2692 -0.4300  0.3527
  145TCq2    O4 2215   0.085   4.700   1.182 -0.1599 -0.4918 -0.4183
  145TCq2    C9 2216   4.664   4.299   0.953  0.1483 -0.0120  0.4683
  145TCq2    O5 2217   4.605   4.242   0.858  0.0422  0.0323  0.2740
  145TCq2    O6 2218   0.060   4.275   0.984 -0.0629  0.5284  0.1922
  145TCq2    H2 2219   4.428   4.378   0.906  2.2461 -2.1095 -0.7489
  145TCq2    H3 2220   0.042   4.480   1.126 -0.5276  1.5484  2.2767
  145TCq2    H4 2221   4.420   0.023   1.131 -0.1004 -0.8688  0.3764
  146TMC2    C1 2222   0.312   3.370  12.668 -0.9153  0.2738 -0.1752
  146TMC2    C2 2223   0.264   3.405  12.543 -0.4415  0.5593 -0.0960
  146TMC2    C3 2224   0.318   3.348  12.428  0.0544 -0.1451 -0.1557
  146TMC2    C4 2225   0.422   3.288  12.674  0.5991 -0.5744  0.0952
  146TMC2    C5 2226   0.462   3.228  12.561 -0.0643 -0.2058 -0.4887
  146TMC2    C6 2227   0.412   3.251  12.445  0.6828 -0.2444  0.0177
  146TMC2     C 2228   0.308   3.473  12.764  0.2370  0.0751 -1.0664
  146TMC2     O 2229   0.267   3.582  12.724  0.5440  0.9724 -0.2556
  146TMC2     H 2230   0.186   3.481  12.543  0.1784  1.1990  0.4519
  146TMC2    H1 2231   0.478   3.261  12.763  1.7941  1.4941 -0.0261
  146TMC2    H2 2232   0.439   3.190  12.360  0.1254  0.7092 -0.8382
  146TMC2    C7 2233   0.607   3.220  12.541  0.2479  0.4661  0.2665
  146TMC2    C8 2234   0.203   3.302  12.343 -0.6351  0.3244 -0.4794
  146TMC2    O1 2235   0.652   3.229  12.428 -0.2498 -0.1504  0.0091
  146TMC2    O2 2236   0.152   3.193  12.350  0.5160  0.5697 -0.0242
  146TMC2    O5 2237   0.128   3.413  12.316  0.1595  0.7461  0.1190
  146TMC2    H5 2238   0.162   3.505  12.305  0.4767  0.1999 -3.5232
  147MPD2     C 2239   1.104   3.211  12.672  0.3530  0.2182  0.1451
  147MPD2    C1 2240   1.030   3.187  12.784  0.2232  0.9109 -0.2877
  147MPD2    C2 2241   0.891   3.192  12.778  1.0098 -0.3510  0.0396
  147MPD2    C3 2242   0.823   3.218  12.661 -0.2207  0.3136  0.1487
  147MPD2    C4 2243   0.898   3.235  12.549  0.7266  0.4725  0.4971
  147MPD2    C5 2244   1.035   3.241  12.557  0.0314 -0.2455 -0.1317
  147MPD2     H 2245   0.831   3.152  12.859 -1.2212 -0.0370 -1.4506
  147MPD2    H1 2246   0.863   3.250  12.448 -1.0746  1.1816  1.2225
  147MPD2    H2 2247   1.212   3.211  12.682  0.3805  0.3774 -0.1593
  147MPD2    H3 2248   1.087   3.258  12.464 -1.7385  0.6505 -0.9555
  147MPD2     N 2249   0.684   3.214  12.660  0.6936 -0.2461 -0.6543
  147MPD2    H5 2250   0.637   3.191  12.747 -1.4844  2.5123 -1.0996
  147MPD2    N1 2251   1.096   3.160  12.903  0.1620  0.0201  0.2131
  147MPD2    H7 2252   1.197   3.167  12.904  0.2001 -1.1168  3.8474
  148MPD2     C 2253   0.940   1.999  11.115  1.0908  0.1271  0.1809
  148MPD2    C1 2254   0.913   2.070  10.998 -0.4305 -0.3648 -0.4424
  148MPD2    C2 2255   0.832   2.013  10.904  0.1519  0.2596  0.0630
  148MPD2    C3 2256   0.770   1.893  10.923 -0.6081  0.1834  0.0574
  148MPD2    C4 2257   0.787   1.829  11.039 -0.4172 -0.3690 -0.2269
  148MPD2    C5 2258   0.866   1.885  11.140 -0.1375  0.5749  0.8769
  148MPD2     H 2259   0.812   2.060  10.808 -1.3868  2.5982  1.5115
  148MPD2    H1 2260   0.740   1.733  11.059  1.6140 -1.3772 -0.2802
  148MPD2    H2 2261   1.016   2.038  11.181  0.3110 -1.6124  2.1314
  148MPD2    H3 2262   0.875   1.839  11.237  1.4600  0.3823  0.6332
  148MPD2     N 2263   0.691   1.852  10.819  0.2403  0.5714 -0.3817
  148MPD2    H5 2264   0.688   1.905  10.732  1.2890  1.3143  0.0356
  148MPD2    N1 2265   0.974   2.187  10.958 -0.7447  0.0946  0.5132
  148MPD2    H7 2266   0.948   2.211  10.863 -1.8809  1.8161  1.2722
  149TCq2    C1 2267   1.056   2.272  11.028 -0.3457  0.4801 -0.1128
  149TCq2    O2 2268   1.062   2.279  11.149 -0.1402  0.1087 -0.0143
  149TCq2    C2 2269   1.095   2.375  10.937  0.6077 -0.2862 -0.7325
  149TCq2    C3 2270   1.083   2.506  10.982  0.0319  0.3822 -0.1508
  149TCq2    C4 2271   1.087   2.607  10.891 -0.0682  0.2671  0.0229
  149TCq2    C5 2272   1.080   2.566  10.757 -1.1963  0.2578 -0.0648
  149TCq2    C6 2273   1.091   2.438  10.716  0.8030 -0.3129 -0.1693
  149TCq2    C7 2274   1.112   2.339  10.810 -0.4376  0.6112  0.4951
  149TCq2    C8 2275   1.046   2.391  10.582  0.5042  0.1745  0.1125
  149TCq2    O4 2276   1.017   2.272  10.568  0.2744 -0.1786 -0.7331
  149TCq2    C9 2277   1.057   2.747  10.914  0.6571 -0.5017  0.3277
  149TCq2    O5 2278   1.001   2.780  11.022  0.5525  0.6161 -0.4933
  149TCq2    O6 2279   1.091   2.827  10.817  0.2029  0.2872 -0.8513
  149TCq2    H2 2280   1.075   2.537  11.086 -0.0912  0.8755 -0.3072
  149TCq2    H3 2281   1.047   2.634  10.680  0.1839  2.0177  0.8979
  149TCq2    H4 2282   1.117   2.237  10.773 -0.6807  0.8874 -0.2937
  150MPD2     C 2283   2.691   1.072  12.365  0.0039 -0.4449 -0.9943
  150MPD2    C1 2284   2.662   1.169  12.274 -0.4560 -0.1411  1.0545
  150MPD2    C2 2285   2.713   1.290  12.292 -0.3038 -0.3794  0.3200
  150MPD2    C3 2286   2.805   1.321  12.385  0.2071 -0.0010 -0.4156
  150MPD2    C4 2287   2.846   1.225  12.475  0.3086  0.1543  0.4366
  150MPD2    C5 2288   2.786   1.104  12.465 -0.4897  0.0840 -0.2873
  150MPD2     H 2289   2.687   1.365  12.219  0.4276 -1.6179 -1.2213
  150MPD2    H1 2290   2.921   1.241  12.553  0.7331 -0.0415  0.0675
  150MPD2    H2 2291   2.640   0.977  12.370 -0.3020 -0.2295  0.1260
  150MPD2    H3 2292   2.802   1.043  12.553  1.5089  0.7894 -0.1713
  150MPD2     N 2293   2.865   1.451  12.369 -0.4796 -0.3119 -0.2073
  150MPD2    H5 2294   2.831   1.512  12.296 -3.3749 -1.2800  0.3112
  150MPD2    N1 2295   2.569   1.131  12.173 -0.1649 -0.4596  0.0448
  150MPD2    H7 2296   2.513   1.046  12.181 -0.3658 -0.3843 -0.5619
  151TCq2    C1 2297   2.966   1.496  12.450  0.1359  0.3174 -0.6295
  151TCq2    O2 2298   3.042   1.445  12.532  0.1971  0.8431 -0.0863
  151TCq2    C2 2299   3.000   1.630  12.406  0.1422  0.1065 -0.3636
  151TCq2    C3 2300   2.930   1.701  12.313 -0.2861  0.0673  0.3117
  151TCq2    C4 2301   2.965   1.828  12.284  0.1142  0.8244  0.6871
  151TCq2    C5 2302   3.080   1.896  12.336 -0.2942 -0.5880 -1.2239
  151TCq2    C6 2303   3.147   1.822  12.429  0.1960 -0.0395 -0.5302
  151TCq2    C7 2304   3.106   1.693  12.466 -0.8794 -0.0095  0.0984
  151TCq2    C8 2305   3.278   1.876  12.482 -0.8008 -0.8112  0.4460
  151TCq2    O4 2306   3.309   1.995  12.473 -0.0893  0.0617 -0.2529
  151TCq2    C9 2307   2.880   1.895  12.192  0.1374  0.1806 -0.1991
  151TCq2    O5 2308   2.913   2.010  12.168  0.2312  0.3883  0.2041
  151TCq2    O6 2309   2.804   1.824  12.122  0.4084 -0.5894 -0.3442
  151TCq2    H2 2310   2.836   1.661  12.276  0.5615 -2.1505  0.5343
  151TCq2    H3 2311   3.094   2.001  12.309 -0.2474 -0.6515 -1.4458
  151TCq2    H4 2312   3.141   1.648  12.559  0.4727  3.4640  1.2739
  152MPD2     C 2313   2.186   0.882  12.712 -0.5953  0.5805 -0.4208
  152MPD2    C1 2314   2.203   1.013  12.689 -0.5565 -0.2944  0.1562
  152MPD2    C2 2315   2.094   1.089  12.644  0.1671 -0.0393 -0.4890
  152MPD2    C3 2316   1.966   1.034  12.634  0.0568  0.3215  0.0629
  152MPD2    C4 2317   1.943   0.902  12.680  0.3410  0.8301 -0.1677
  152MPD2    C5 2318   2.059   0.828  12.709 -0.7743  0.2163 -0.2201
  152MPD2     H 2319   2.104   1.187  12.599 -2.0498 -0.4281 -1.8700
  152MPD2    H1 2320   1.848   0.849  12.683  0.8577 -0.0491  1.0324
  152MPD2    H2 2321   2.272   0.824  12.745 -0.7841 -0.3632 -1.6227
  152MPD2    H3 2322   2.046   0.722  12.725  2.0001 -0.0538  0.1808
  152MPD2     N 2323   1.859   1.108  12.581  0.1736  0.4393 -0.2386
  152MPD2    H5 2324   1.881   1.196  12.535  3.8615 -0.6488 -0.5597
  152MPD2    N1 2325   2.338   1.061  12.703 -0.2402 -0.0792  0.2587
  152MPD2    H7 2326   2.404   0.995  12.742 -0.9655 -0.2336  1.2241
  153TCq2    C1 2327   2.386   1.181  12.652  0.1658 -0.1750 -0.2466
  153TCq2    O2 2328   2.319   1.271  12.600 -0.3915 -0.0107 -0.7330
  153TCq2    C2 2329   2.522   1.209  12.699  0.4722 -0.4036 -0.0143
  153TCq2    C3 2330   2.581   1.137  12.801 -0.0667  0.0420  0.0141
  153TCq2    C4 2331   2.674   1.191  12.880  0.3513  0.6413  0.2517
  153TCq2    C5 2332   2.702   1.326  12.873 -0.2075 -0.2482  0.3475
  153TCq2    C6 2333   2.647   1.396  12.771  0.0306  0.3679  0.1873
  153TCq2    C7 2334   2.561   1.341  12.679  0.3260  0.1861 -0.4616
  153TCq2    C8 2335   2.688   1.532  12.733  0.2177  0.1822 -0.2589
  153TCq2    O4 2336   2.620   1.588  12.650  0.2676 -0.8572  0.4892
  153TCq2    C9 2337   2.704   1.102  12.983  0.4628 -0.0908  0.4139
  153TCq2    O5 2338   2.661   1.133  13.095  0.4058 -0.2653 -0.1265
  153TCq2    O6 2339   2.748   0.990  12.954  0.4589  0.1772 -0.4722
  153TCq2    H2 2340   2.558   1.035  12.832 -2.1926  0.3275 -0.6626
  153TCq2    H3 2341   2.776   1.363  12.943 -1.4431 -0.1029  1.5487
  153TCq2    H4 2342   2.506   1.407  12.613 -1.0189 -0.3292  0.1451
  154MPD2     C 2343   4.647   1.004   0.016 -0.1301  0.4021 -0.0393
  154MPD2    C1 2344   4.587   0.938   0.119  0.0834  0.0684 -0.3164
  154MPD2    C2 2345   4.473   0.996   0.172  0.0227  0.3419 -0.2846
  154MPD2    C3 2346   4.421   1.114   0.128 -0.2323 -0.3429  0.5292
  154MPD2    C4 2347   4.494   1.175   0.024  0.8995  0.4545  0.1381
  154MPD2    C5 2348   4.596   1.116  17.653 -1.1184 -0.1974 -0.3602
  154MPD2     H 2349   4.422   0.946   0.254 -1.5167  2.1671 -0.1217
  154MPD2    H1 2350   4.463   1.270  17.676  0.2535  0.2187  0.0762
  154MPD2    H2 2351   0.016   0.961  17.670 -0.0974  3.2313 -3.0436
  154MPD2    H3 2352   4.660   1.174  17.587  0.2333 -1.9809 -0.6250
  154MPD2     N 2353   4.310   1.176   0.187 -0.2617  0.0949 -0.0239
  154MPD2    H5 2354   4.258   1.126   0.258  2.8211 -1.5414  1.1021
  154MPD2    N1 2355   4.652   0.820   0.176  0.3514 -0.7930 -0.4717
  154MPD2    H7 2356   0.027   0.804   0.156  1.0196  1.8425  0.6301
  155TCq2    C1 2357   4.584   0.735   0.261  0.1258 -0.4170  0.2567
  155TCq2    O2 2358   4.460   0.726   0.268  0.1748 -0.2491 -0.0705
  155TCq2    C2 2359   4.666   0.611   0.282  0.8697  0.4298 -0.2569
  155TCq2    C3 2360   0.079   0.620   0.267 -0.0776 -0.3723 -0.2203
  155TCq2    C4 2361   0.156   0.505   0.285 -0.6519 -0.1483 -0.1989
  155TCq2    C5 2362   0.088   0.388   0.307  0.2285  0.2350 -0.0307
  155TCq2    C6 2363   4.675   0.386   0.333  0.1959 -0.0252  0.6192
  155TCq2    C7 2364   4.599   0.496   0.308  0.2032  0.5934  0.2729
  155TCq2    C8 2365   4.613   0.268   0.387 -0.4022 -0.2951  0.4301
  155TCq2    O4 2366   4.495   0.266   0.408  0.4340 -0.1123 -0.5426
  155TCq2    C9 2367   0.301   0.512   0.272  0.1467 -0.6152  0.1948
  155TCq2    O5 2368   0.351   0.626   0.256  0.0838  0.4307  0.0140
  155TCq2    O6 2369   0.362   0.418   0.333  0.0143  0.7957 -0.1065
  155TCq2    H2 2370   0.128   0.716   0.253 -0.3898  0.0344  1.4077
  155TCq2    H3 2371   0.160   0.311   0.331 -0.9315 -0.3803  1.4458
  155TCq2    H4 2372   4.492   0.507   0.316  0.1216 -0.3229  0.3961
  156MPD2     C 2373   3.498   3.426  12.715  0.9149  0.5554 -1.0755
  156MPD2    C1 2374   3.433   3.446  12.591  0.4106 -0.8272 -0.0137
  156MPD2    C2 2375   3.312   3.517  12.595  0.0058 -0.1069  0.2115
  156MPD2    C3 2376   3.271   3.587  12.707 -0.4051 -0.1285  0.1647
  156MPD2    C4 2377   3.345   3.573  12.819  0.5255 -0.2798  0.1481
  156MPD2    C5 2378   3.454   3.489  12.825 -0.1438 -0.1540  0.7677
  156MPD2     H 2379   3.249   3.530  12.508  2.2554  2.2109 -1.0722
  156MPD2    H1 2380   3.318   3.611  12.917 -1.0363  0.4921 -0.5839
  156MPD2    H2 2381   3.586   3.363  12.722 -0.5642 -1.4365 -0.2984
  156MPD2    H3 2382   3.507   3.482  12.919  0.9129  2.3279  0.3511
  156MPD2     N 2383   3.149   3.663  12.695  0.2762  0.0367  0.6142
  156MPD2    H5 2384   3.099   3.653  12.607  2.3274 -1.8689 -0.3168
  156MPD2    N1 2385   3.466   3.375  12.470  0.3283 -0.2564  0.4617
  156MPD2    H7 2386   3.538   3.303  12.479  0.4409 -0.3343 -1.0081
  157TCq2    C1 2387   3.423   3.401  12.343 -0.2828 -0.1009  0.0356
  157TCq2    O2 2388   3.351   3.491  12.302  0.3781  0.7974 -0.0366
  157TCq2    C2 2389   3.472   3.312  12.242 -0.2329 -0.0455  0.8831
  157TCq2    C3 2390   3.462   3.178  12.266 -0.2970  0.3511 -0.8931
  157TCq2    C4 2391   3.432   3.092  12.168 -0.2301 -0.0037  0.2499
  157TCq2    C5 2392   3.411   3.138  12.038 -0.3656 -0.3701  0.2131
  157TCq2    C6 2393   3.424   3.275  12.010 -0.2498 -0.2661 -0.2629
  157TCq2    C7 2394   3.458   3.362  12.112  0.2660  0.5664  0.2817
  157TCq2    C8 2395   3.368   3.336  11.886 -0.1454  0.3158  0.0492
  157TCq2    O4 2396   3.406   3.448  11.849  0.7740  0.3110  0.3842
  157TCq2    C9 2397   3.420   2.956  12.210  0.4184 -0.0250  0.4937
  157TCq2    O5 2398   3.446   2.937  12.333  0.0371  0.4270 -0.5856
  157TCq2    O6 2399   3.409   2.867  12.119 -0.0809 -0.3301 -0.1410
  157TCq2    H2 2400   3.476   3.148  12.369 -3.3584 -0.3741 -0.7055
  157TCq2    H3 2401   3.386   3.063  11.964  2.1481  0.3213 -1.3205
  157TCq2    H4 2402   3.457   3.468  12.092 -0.7532  0.5606  0.2885
  158TMC2    C1 2403   3.210   2.323  13.649 -0.4102  0.0772 -0.4772
  158TMC2    C2 2404   3.248   2.370  13.521  0.1421 -0.3418 -0.3239
  158TMC2    C3 2405   3.189   2.481  13.479 -0.2193  0.5447  0.6734
  158TMC2    C4 2406   3.096   2.380  13.709 -0.1289  0.2091 -0.0101
  158TMC2    C5 2407   3.048   2.496  13.662  0.2334 -0.4980 -0.2142
  158TMC2    C6 2408   3.101   2.557  13.551 -0.2724 -0.1884 -0.1824
  158TMC2     C 2409   3.240   2.183  13.679 -0.0868  0.5320  0.1299
  158TMC2     O 2410   3.318   2.122  13.610  0.3862  0.1186  0.2027
  158TMC2     H 2411   3.324   2.319  13.463 -1.4861 -0.1342 -2.6182
  158TMC2    H1 2412   3.053   2.351  13.804 -0.3329 -0.6682 -0.3717
  158TMC2    H2 2413   3.068   2.655  13.517 -0.5053 -0.0635  0.4162
  158TMC2    C7 2414   2.929   2.570  13.706 -0.5090 -0.1385 -0.3371
  158TMC2    C8 2415   3.212   2.521  13.346 -0.5404  0.1742 -0.3298
  158TMC2    O1 2416   2.923   2.692  13.693  0.5733  0.0976  0.5495
  158TMC2    O2 2417   3.127   2.583  13.279 -0.1708 -0.4150  0.1465
  158TMC2    O5 2418   3.340   2.502  13.305 -0.0354 -0.1768  0.0220
  158TMC2    H5 2419   3.403   2.506  13.381 -0.4876 -1.0560  0.4372
  159MPD2     C 2420   3.325   1.862  14.061 -0.0305  0.2736 -0.0235
  159MPD2    C1 2421   3.234   1.949  14.108 -0.0480 -0.2423  0.8838
  159MPD2    C2 2422   3.200   2.047  14.011 -0.0197  0.9951  0.1333
  159MPD2    C3 2423   3.251   2.046  13.883 -0.7337  0.1999  0.5599
  159MPD2    C4 2424   3.341   1.950  13.847  0.2459  0.3562 -0.1787
  159MPD2    C5 2425   3.383   1.857  13.937 -1.0384 -0.1105  0.1441
  159MPD2     H 2426   3.126   2.122  14.034 -1.8285 -0.9641  0.7551
  159MPD2    H1 2427   3.395   1.954  13.753 -0.9658  0.5851 -0.8632
  159MPD2    H2 2428   3.357   1.782  14.127 -0.5393 -1.1933 -1.5489
  159MPD2    H3 2429   3.455   1.778  13.921  1.2731  2.1011 -0.3333
  159MPD2     N 2430   3.205   2.153  13.807  0.1160  0.6453 -0.1593
  159MPD2    H5 2431   3.139   2.219  13.847  1.0159  0.9469  0.8389
  159MPD2    N1 2432   3.178   1.938  14.237 -0.5740  0.2780 -0.0430
  159MPD2    H7 2433   3.213   1.868  14.302 -2.1502  1.3244  1.9638
  160TMC2    C1 2434   2.579   2.059   0.938 -0.5748 -0.0747  0.1022
  160TMC2    C2 2435   2.650   2.052   0.828 -0.0412 -0.5475 -0.6276
  160TMC2    C3 2436   2.681   1.924   0.791  0.0221 -0.1200  0.0740
  160TMC2    C4 2437   2.544   1.945   1.015  0.1413  0.7296  0.5221
  160TMC2    C5 2438   2.592   1.822   0.984  0.3840 -0.3383 -0.8883
  160TMC2    C6 2439   2.664   1.805   0.866  1.4428  0.6469  0.5674
  160TMC2     C 2440   2.474   2.152   0.935  0.7376 -0.0958  0.1752
  160TMC2     O 2441   2.490   2.260   0.876  0.3805 -0.1353  0.1584
  160TMC2     H 2442   2.652   2.140   0.764 -0.2507  0.4660  0.7536
  160TMC2    H1 2443   2.487   1.952   1.107  0.0010  0.6637  0.4396
  160TMC2    H2 2444   2.697   1.709   0.826 -0.7890  1.3022 -2.8385
  160TMC2    C7 2445   2.558   1.702   1.055 -0.2213  0.6272 -0.7486
  160TMC2    C8 2446   2.786   1.911   0.693 -0.2031  0.3512 -0.1622
  160TMC2    O1 2447   2.460   1.708   1.130  0.3375  0.5520  0.5139
  160TMC2    O2 2448   2.791   1.988   0.600  0.3533 -0.1628  0.5866
  160TMC2    O5 2449   2.893   1.877   0.770  0.4462 -0.2985 -0.2243
  160TMC2    H5 2450   2.881   1.844   0.862  0.3550  0.6650  0.1107
  161MPD2     C 2451   2.224   2.292   1.002  0.7299  0.1522 -0.7336
  161MPD2    C1 2452   2.242   2.152   1.003  0.2714 -1.1356  0.2640
  161MPD2    C2 2453   2.138   2.070   1.042  0.3217  0.6449  0.2086
  161MPD2    C3 2454   2.013   2.127   1.084  0.2816  0.4872 -0.8217
  161MPD2    C4 2455   2.005   2.262   1.090  0.3072  0.3870  0.0324
  161MPD2    C5 2456   2.106   2.343   1.047 -0.2399 -0.2375 -0.1736
  161MPD2     H 2457   2.147   1.962   1.044 -0.9500  0.5758  2.2252
  161MPD2    H1 2458   1.905   2.297   1.113 -0.3614 -0.9987 -0.7655
  161MPD2    H2 2459   2.301   2.363   0.971 -0.1235  0.7822 -1.4013
  161MPD2    H3 2460   2.085   2.449   1.037  2.8752  0.4602  0.7676
  161MPD2     N 2461   1.902   2.051   1.118 -0.6309  0.5109  0.1532
  161MPD2    H5 2462   1.822   2.097   1.161 -2.0194 -0.4745 -1.3847
  161MPD2    N1 2463   2.363   2.089   0.968 -0.6451  0.4123  0.3648
  161MPD2    H7 2464   2.374   1.990   0.985  0.8910  0.6320  0.6613
  162TMC2    C1 2465   4.677   3.119   1.163 -0.2414 -0.5083 -0.1669
  162TMC2    C2 2466   4.615   3.242   1.146  0.0202 -0.7486  0.3060
  162TMC2    C3 2467   4.544   3.282   1.253 -0.2450 -0.0832  0.0765
  162TMC2    C4 2468   4.671   3.039   1.272 -0.0476 -0.3988 -0.2054
  162TMC2    C5 2469   4.590   3.086   1.375  1.0019 -0.0964 -0.8128
  162TMC2    C6 2470   4.517   3.203   1.365  0.5736  0.1432  0.1435
  162TMC2     C 2471   0.018   3.053   1.051  0.6103  0.2059 -0.2455
  162TMC2     O 2472   0.115   2.981   1.071 -0.0827  0.2110 -0.9857
  162TMC2     H 2473   4.625   3.301   1.056  0.1119 -1.8358 -0.3851
  162TMC2    H1 2474   0.003   2.946   1.285 -2.2592 -1.7310 -0.3909
  162TMC2    H2 2475   4.449   3.241   1.440 -0.3924  2.2843 -1.7976
  162TMC2    C7 2476   4.554   2.991   1.479  0.6576 -0.0021  0.2215
  162TMC2    C8 2477   4.475   3.408   1.256 -0.7323  0.1114 -0.7515
  162TMC2    O1 2478   4.437   3.000   1.510 -0.0456 -0.1369 -0.3819
  162TMC2    O2 2479   4.356   3.409   1.266  0.0884  0.2867  0.1552
  162TMC2    O5 2480   4.536   3.483   1.162 -0.0157 -0.0185 -0.0643
  162TMC2    H5 2481   4.634   3.483   1.155 -0.1193 -1.1106 -1.6554
  163MPD2     C 2482   4.674   2.852   0.588  0.3291  0.2420 -0.1641
  163MPD2    C1 2483   0.064   2.862   0.666 -0.6253 -0.4340 -0.6511
  163MPD2    C2 2484   0.052   2.928   0.783 -0.7001  0.3306  0.0296
  163MPD2    C3 2485   4.663   2.989   0.826 -0.2866  0.3913  0.2427
  163MPD2    C4 2486   4.546   2.978   0.750  0.2705  0.2309 -0.5274
  163MPD2    C5 2487   4.554   2.897   0.631  0.9661  0.4302  0.3218
  163MPD2     H 2488   0.139   2.928   0.848 -1.2026  2.2816  0.7140
  163MPD2    H1 2489   4.452   3.030   0.767 -0.2344 -0.8369 -0.1034
  163MPD2    H2 2490   4.675   2.779   0.508 -2.3665 -1.1783  1.0963
  163MPD2    H3 2491   4.471   2.876   0.566  0.5412  0.6773  0.7867
  163MPD2     N 2492   4.654   3.062   0.945  0.1253  0.7213  0.4115
  163MPD2    H5 2493   4.561   3.097   0.966  0.7272  2.1333  0.7366
  163MPD2    N1 2494   0.184   2.798   0.628  0.0149  0.2406 -0.5107
  163MPD2    H7 2495   0.176   2.747   0.541 -3.6921 -0.9745  0.5313
  164TCq2    C1 2496   1.715   2.357  11.300 -0.4740 -0.4842 -0.7055
  164TCq2    O2 2497   1.702   2.264  11.373 -0.7988 -0.4662 -0.8382
  164TCq2    C2 2498   1.657   2.487  11.334 -0.3358 -0.5948 -0.2344
  164TCq2    C3 2499   1.678   2.599  11.257  0.8287  0.0747  0.2197
  164TCq2    C4 2500   1.588   2.702  11.264 -0.4660  0.2616 -0.5353
  164TCq2    C5 2501   1.483   2.695  11.351 -0.2107 -0.6855 -0.4821
  164TCq2    C6 2502   1.466   2.583  11.418 -0.4108 -0.8856 -0.7538
  164TCq2    C7 2503   1.546   2.468  11.407 -0.1834  0.1294 -0.4708
  164TCq2    C8 2504   1.348   2.577  11.512 -0.1817  0.5346  0.0569
  164TCq2    O4 2505   1.357   2.490  11.597 -0.8066  0.6348  0.2538
  164TCq2    C9 2506   1.620   2.823  11.192  0.0805  0.4041 -0.4315
  164TCq2    O5 2507   1.737   2.829  11.148 -0.1055  0.0236  0.2562
  164TCq2    O6 2508   1.547   2.926  11.204  0.0843  0.2356  0.2409
  164TCq2    H2 2509   1.767   2.607  11.194 -0.4261 -0.1014 -1.5866
  164TCq2    H3 2510   1.408   2.773  11.343  2.1559  1.8146  1.4124
  164TCq2    H4 2511   1.515   2.372  11.447  0.6990 -0.5348 -1.3684
  165MPD2     C 2512   2.001   0.141   0.876 -0.3600 -0.5062 -0.3268
  165MPD2    C1 2513   2.113   0.118   0.958  0.2665  0.1722  0.3602
  165MPD2    C2 2514   2.130   0.204   1.066 -0.0641 -0.4976  0.3663
  165MPD2    C3 2515   2.053   0.314   1.084  0.1157 -0.0176 -0.2901
  165MPD2    C4 2516   1.946   0.334   1.005  0.9636  0.6441 -0.0276
  165MPD2    C5 2517   1.928   0.252   0.899 -0.7211  0.0546  0.3017
  165MPD2     H 2518   2.204   0.187   1.143  0.5461  0.1495 -0.0779
  165MPD2    H1 2519   1.889   0.427   1.003 -1.1099 -0.6204  0.0094
  165MPD2    H2 2520   1.972   0.082   0.790 -2.1510  1.3937 -1.0292
  165MPD2    H3 2521   1.847   0.275   0.832 -1.5068 -1.7744  0.6038
  165MPD2     N 2522   2.072   0.415   1.183 -0.0040 -0.5098 -0.6659
  165MPD2    H5 2523   2.005   0.492   1.176 -0.8516 -1.1764  0.1571
  165MPD2    N1 2524   2.189   0.010   0.929 -0.3448 -0.3835  0.0277
  165MPD2    H7 2525   2.155   4.669   0.857 -1.2039 -1.4001  1.3246
  166TCq2    C1 2526   2.173   0.421   1.275  0.3867  0.4845  0.8162
  166TCq2    O2 2527   2.270   0.343   1.299  0.3189  0.4026  0.1855
  166TCq2    C2 2528   2.166   0.538   1.360 -0.2005  0.5736 -0.5659
  166TCq2    C3 2529   2.050   0.609   1.381  0.4674 -0.0461  0.0877
  166TCq2    C4 2530   2.036   0.704   1.466 -0.3471  0.2408  0.6524
  166TCq2    C5 2531   2.141   0.737   1.542  0.1165  0.3712  0.5941
  166TCq2    C6 2532   2.266   0.682   1.517 -0.0648 -0.3387  0.5646
  166TCq2    C7 2533   2.276   0.571   1.431 -0.0446  0.0334 -0.2407
  166TCq2    C8 2534   2.382   0.721   1.597 -0.0689  0.6427  0.5512
  166TCq2    O4 2535   2.480   0.646   1.588  0.2094 -0.3364 -0.2236
  166TCq2    C9 2536   1.914   0.772   1.469  0.1847  0.5863  0.6625
  166TCq2    O5 2537   1.829   0.752   1.375  0.6601  0.7104 -0.1373
  166TCq2    O6 2538   1.889   0.843   1.571 -0.2210 -0.6757  0.6427
  166TCq2    H2 2539   1.963   0.585   1.320  0.4629  0.3826 -0.0777
  166TCq2    H3 2540   2.125   0.825   1.604 -0.9901 -1.7239  3.2629
  166TCq2    H4 2541   2.369   0.519   1.417  0.3118  0.9330 -1.2136
  167TMC2    C1 2542   0.546   2.548  12.891 -0.2323 -0.8479 -0.4620
  167TMC2    C2 2543   0.458   2.622  12.968  0.6733 -0.0392 -0.2454
  167TMC2    C3 2544   0.371   2.558  13.052 -0.0606 -0.3779 -0.5507
  167TMC2    C4 2545   0.563   2.418  12.917 -0.0788  0.6327 -0.7939
  167TMC2    C5 2546   0.468   2.360  13.002 -0.2387  0.2405 -0.2633
  167TMC2    C6 2547   0.372   2.423  13.075 -0.7117 -0.3838  0.4990
  167TMC2     C 2548   0.599   2.600  12.767  0.1468  0.5343 -0.6441
  167TMC2     O 2549   0.645   2.712  12.754  0.1321 -0.4278 -0.5114
  167TMC2     H 2550   0.442   2.724  12.936 -1.0578 -0.5159 -0.8868
  167TMC2    H1 2551   0.654   2.371  12.881 -0.7295  0.8566 -2.7078
  167TMC2    H2 2552   0.296   2.373  13.134  0.1392 -2.2928 -0.0292
  167TMC2    C7 2553   0.456   2.214  13.000  0.4142 -0.6055  0.2954
  167TMC2    C8 2554   0.239   2.626  13.087 -0.0179  0.1219 -0.3699
  167TMC2    O1 2555   0.370   2.167  13.077  0.7125  0.1989  0.5675
  167TMC2    O2 2556   0.127   2.581  13.082 -0.6523  0.2929 -0.1375
  167TMC2    O5 2557   0.255   2.758  13.101 -0.0171 -0.2871  0.3045
  167TMC2    H5 2558   0.346   2.773  13.134  0.3286 -0.5494 -0.5241
  168MPD2     C 2559   0.744   2.591  12.510  1.0551 -0.3662  0.7864
  168MPD2    C1 2560   0.649   2.497  12.551  0.6490  1.0853  0.0713
  168MPD2    C2 2561   0.641   2.384  12.478  0.4899 -0.2735  0.5438
  168MPD2    C3 2562   0.725   2.355  12.379 -0.2431 -1.2274  0.0072
  168MPD2    C4 2563   0.825   2.439  12.340  0.1006 -0.3481 -0.2165
  168MPD2    C5 2564   0.823   2.559  12.400  0.1166 -0.0812  0.2570
  168MPD2     H 2565   0.559   2.319  12.509 -0.4527  0.8479  0.4021
  168MPD2    H1 2566   0.886   2.417  12.253 -1.9458 -0.9804 -1.5059
  168MPD2    H2 2567   0.748   2.686  12.562  2.8399 -0.2989  0.5124
  168MPD2    H3 2568   0.894   2.633  12.364 -0.3205  0.2018 -0.0349
  168MPD2     N 2569   0.718   2.231  12.314  0.2419  0.0521 -0.1921
  168MPD2    H5 2570   0.791   2.210  12.247 -1.2740 -0.8551 -1.5713
  168MPD2    N1 2571   0.583   2.498  12.674 -0.3005 -0.3551  0.0937
  168MPD2    H7 2572   0.525   2.419  12.703 -1.1571  0.7592  1.4095
  169MPD1     C 2573   2.582   1.945   8.760  0.2925 -0.2986 -0.0117
  169MPD1    C1 2574   2.514   1.971   8.877  0.3090 -1.0756 -0.3252
  169MPD1    C2 2575   2.585   1.981   8.991 -0.5173  0.0312 -1.0145
  169MPD1    C3 2576   2.725   1.964   8.986  0.3706 -0.7987 -0.1348
  169MPD1    C4 2577   2.784   1.912   8.877 -0.1887  0.4445  0.4136
  169MPD1    C5 2578   2.709   1.901   8.761  0.3360 -0.4399  0.3894
  169MPD1     H 2579   2.538   2.011   9.083 -0.5505 -0.4947 -0.8562
  169MPD1    H1 2580   2.888   1.884   8.871 -1.2868 -3.8249  1.5414
  169MPD1    H2 2581   2.538   1.935   8.661  1.0001  1.1077 -0.4643
  169MPD1    H3 2582   2.749   1.865   8.667 -0.6721 -1.4659  0.3483
  169MPD1     N 2583   2.798   1.979   9.107  0.2418  0.2674  0.0891
  169MPD1    H5 2584   2.736   2.004   9.183  0.2027  2.5305 -0.6860
  169MPD1    N1 2585   2.376   2.003   8.870 -0.3613  0.7220 -0.2723
  169MPD1    H6 2586   2.335   1.974   8.959  3.2926 -1.0884  0.8316
  169MPD1    H7 2587   2.331   1.954   8.794  1.1508 -0.3177 -0.5036
  170MPD1     C 2588   1.285   4.193  13.129  0.2784 -0.3133  0.4604
  170MPD1    C1 2589   1.363   4.303  13.105  0.5871  0.2316 -0.0130
  170MPD1    C2 2590   1.429   4.365  13.209 -0.0053  0.4171  0.0087
  170MPD1    C3 2591   1.428   4.312  13.339  0.4745 -0.0418 -0.0462
  170MPD1    C4 2592   1.341   4.204  13.361 -0.3391  0.2355  0.0598
  170MPD1    C5 2593   1.273   4.153  13.260 -0.3005 -0.8016 -0.1145
  170MPD1     H 2594   1.474   4.462  13.190 -1.2993  1.4364  2.2644
  170MPD1    H1 2595   1.317   4.165  13.459  0.1553 -1.2946 -0.4357
  170MPD1    H2 2596   1.237   4.143  13.046  1.9463 -1.3732  0.1582
  170MPD1    H3 2597   1.206   4.072  13.288  0.7502 -0.7859  2.4016
  170MPD1     N 2598   1.519   4.371  13.439 -0.6363  0.0526  0.1370
  170MPD1    H5 2599   1.574   4.454  13.424  0.2378 -0.7526 -1.1347
  170MPD1    N1 2600   1.363   4.361  12.977 -0.5229 -0.1955 -0.6458
  170MPD1    H6 2601   1.419   4.446  12.969  0.5008 -0.9550 -1.5525
  170MPD1    H7 2602   1.413   4.298  12.915 -2.2944 -0.8841 -1.3583
  171MPD1     C 2603   0.466   1.200  15.620 -0.3777 -0.1166 -0.0970
  171MPD1    C1 2604   0.388   1.123  15.535 -0.2275 -0.4047 -0.5749
  171MPD1    C2 2605   0.374   0.986  15.558 -0.3695 -0.2187 -0.0959
  171MPD1    C3 2606   0.452   0.927  15.659  0.3263 -0.3777 -0.3806
  171MPD1    C4 2607   0.540   1.000  15.733 -0.4370 -0.1309  0.5933
  171MPD1    C5 2608   0.546   1.136  15.714  0.2201  0.1026  0.0137
  171MPD1     H 2609   0.298   0.931  15.504 -2.0063 -0.8066  2.7940
  171MPD1    H1 2610   0.602   0.950  15.807 -0.9530 -0.1059  1.0403
  171MPD1    H2 2611   0.461   1.308  15.621 -1.6443 -0.1623 -1.9293
  171MPD1    H3 2612   0.607   1.195  15.781 -0.6411  2.4649 -1.2875
  171MPD1     N 2613   0.436   0.789  15.698 -0.0227 -0.4250  0.3549
  171MPD1    H5 2614   0.499   0.758  15.771  0.7159 -1.0063 -0.5181
  171MPD1    N1 2615   0.296   1.197  15.453 -0.0945 -0.4835  0.4240
  171MPD1    H6 2616   0.263   1.157  15.366 -0.0673 -1.7008  0.9772
  171MPD1    H7 2617   0.323   1.295  15.441  0.9058 -0.7627  0.3300
  172MPD1     C 2618   3.761   4.508   0.146  0.2046  0.5271 -0.0707
  172MPD1    C1 2619   3.774   4.606   0.047  0.2964  0.6126 -0.1957
  172MPD1    C2 2620   3.864   4.704   0.061  0.1134  0.3781 -0.0926
  172MPD1    C3 2621   3.948   4.701   0.170 -0.3442 -0.6175 -0.5335
  172MPD1    C4 2622   3.943   4.602   0.272 -0.3980 -0.3231  0.0502
  172MPD1    C5 2623   3.848   4.504   0.256 -0.2233  0.2752  0.4494
  172MPD1     H 2624   3.863   0.066  17.686  0.0211  0.4059 -0.0569
  172MPD1    H1 2625   4.022   4.589   0.345  1.3761  0.5697 -1.6888
  172MPD1    H2 2626   3.685   4.430   0.140 -1.0486  1.6415  1.0564
  172MPD1    H3 2627   3.853   4.416   0.319 -1.6710 -0.3389 -0.2977
  172MPD1     N 2628   4.049   0.069   0.184 -0.8343 -0.2205 -0.0446
  172MPD1    H5 2629   4.112   0.077   0.263  1.4376  1.2432 -2.0284
  172MPD1    N1 2630   3.692   4.605  17.628 -0.7821  0.0875  0.2120
  172MPD1    H6 2631   3.733   4.648  17.545 -2.8212 -0.0993 -0.8807
  172MPD1    H7 2632   3.642   4.518  17.609  0.6081 -0.3177 -1.5763
  173MPD1     C 2633   1.059   0.019  14.329  0.1805 -0.7946 -0.3242
  173MPD1    C1 2634   1.017   4.613  14.327  0.0267 -0.2118 -0.7949
  173MPD1    C2 2635   0.906   4.575  14.397  0.7431  0.3955  0.8437
  173MPD1    C3 2636   0.832   4.662  14.466  0.4835 -0.5278 -0.4050
  173MPD1    C4 2637   0.865   0.073  14.461  0.0819  0.6754 -1.0911
  173MPD1    C5 2638   0.980   0.115  14.399  0.2348  0.4914  0.4633
  173MPD1     H 2639   0.875   4.472  14.385  0.4923  0.6930 -1.0429
  173MPD1    H1 2640   0.813   0.145  14.524  2.2921 -0.2128  1.7855
  173MPD1    H2 2641   1.144   0.049  14.269  1.4855 -1.1357  1.3560
  173MPD1    H3 2642   1.005   0.220  14.401  2.0519  0.0010  2.5033
  173MPD1     N 2643   0.714   4.609  14.525 -0.2696 -0.1626 -0.0665
  173MPD1    H5 2644   0.690   4.515  14.496 -0.7945  0.2958 -1.1206
  173MPD1    N1 2645   1.097   4.527  14.244 -0.2484  0.9761  0.1590
  173MPD1    H6 2646   1.049   4.453  14.194  0.2524  0.4415  0.4623
  173MPD1    H7 2647   1.151   4.587  14.182  0.2541  0.3287 -0.0300
  174MPD1     C 2648   0.177   4.190  14.048 -0.0716 -0.3596 -0.2506
  174MPD1    C1 2649   0.191   4.329  14.057  0.5078 -0.3623 -0.4086
  174MPD1    C2 2650   0.246   4.390  14.169 -0.0405  0.3105  0.3347
  174MPD1    C3 2651   0.272   4.312  14.284 -0.8193 -0.3069 -0.2219
  174MPD1    C4 2652   0.243   4.177  14.275 -0.0152 -0.0914  0.7640
  174MPD1    C5 2653   0.208   4.120  14.157  0.0670 -0.1629  0.2871
  174MPD1     H 2654   0.267   4.497  14.169  0.6476  0.1788 -0.1630
  174MPD1    H1 2655   0.253   4.114  14.362 -2.0482 -2.5129 -0.7874
  174MPD1    H2 2656   0.124   4.142  13.967 -0.2877 -0.4071 -0.0800
  174MPD1    H3 2657   0.187   4.014  14.156  0.2900 -0.1953 -1.0824
  174MPD1     N 2658   0.324   4.371  14.404  0.5538  0.2156  0.0402
  174MPD1    H5 2659   0.370   4.461  14.396  0.3816  0.2696 -0.3253
  174MPD1    N1 2660   0.153   4.405  13.942 -0.2375  0.0407  0.7271
  174MPD1    H6 2661   0.129   4.502  13.963 -3.3591 -1.0880  2.4019
  174MPD1    H7 2662   0.072   4.356  13.905 -0.2455  2.2110 -2.1475
  175MPD1     C 2663   3.924   1.257  15.860  0.0044 -0.0560 -0.9472
  175MPD1    C1 2664   4.028   1.231  15.948 -0.3240  0.0085 -1.0743
  175MPD1    C2 2665   3.992   1.221  16.079 -0.8986  0.2279  0.2139
  175MPD1    C3 2666   3.866   1.250  16.122  0.1546 -0.0618  0.5750
  175MPD1    C4 2667   3.769   1.289  16.035 -0.2412  0.2374  0.7052
  175MPD1    C5 2668   3.795   1.286  15.899 -0.4119  0.6496 -0.0541
  175MPD1     H 2669   4.072   1.204  16.150  1.2041  0.1899 -2.1603
  175MPD1    H1 2670   3.667   1.266  16.063 -0.7006  0.6867 -0.6062
  175MPD1    H2 2671   3.936   1.251  15.753  0.8995  0.0269 -0.8484
  175MPD1    H3 2672   3.712   1.294  15.830 -0.8754 -1.3695  0.2689
  175MPD1     N 2673   3.831   1.216  16.252 -0.3143 -0.2760  0.4300
  175MPD1    H5 2674   3.747   1.266  16.281  0.4249  0.5893  1.0951
  175MPD1    N1 2675   4.145   1.173  15.897 -0.0085  0.3707 -0.2468
  175MPD1    H6 2676   4.224   1.210  15.949 -0.9782 -0.0145  1.5303
  175MPD1    H7 2677   4.175   1.198  15.803  1.9026 -1.0068  0.0076
  176MPD1     C 2678   1.330   2.673  16.547  0.3169 -0.6491  0.2901
  176MPD1    C1 2679   1.201   2.704  16.538  0.5869 -0.0631 -0.6703
  176MPD1    C2 2680   1.142   2.769  16.643  0.8403  0.3129  0.5089
  176MPD1    C3 2681   1.205   2.809  16.761 -0.0106 -0.0936 -0.3612
  176MPD1    C4 2682   1.338   2.775  16.769 -0.0592 -0.3291  0.6150
  176MPD1    C5 2683   1.399   2.712  16.659  0.1840 -0.1511 -0.0546
  176MPD1     H 2684   1.035   2.787  16.638  1.1144  1.8926  0.2844
  176MPD1    H1 2685   1.406   2.807  16.848  0.7272  1.5589 -0.8408
  176MPD1    H2 2686   1.377   2.613  16.470 -0.5027  0.8874 -1.4037
  176MPD1    H3 2687   1.496   2.666  16.673 -0.5862 -2.2267 -1.4601
  176MPD1     N 2688   1.142   2.894  16.862  0.3103 -0.4027  0.1434
  176MPD1    H5 2689   1.047   2.921  16.839 -0.2160 -1.4339  1.0877
  176MPD1    N1 2690   1.119   2.626  16.457  0.6682  0.3438  0.1345
  176MPD1    H6 2691   1.171   2.610  16.371 -1.6118 -0.8506 -1.0204
  176MPD1    H7 2692   1.029   2.672  16.441  1.0204  0.2183 -2.3392
  177MPD1     C 2693   3.998   3.469  10.177  0.3505  0.1886 -0.0409
  177MPD1    C1 2694   3.876   3.410  10.161  0.4086 -0.1861  0.8897
  177MPD1    C2 2695   3.810   3.464  10.049  0.1928 -0.6627  0.7647
  177MPD1    C3 2696   3.859   3.565   9.973 -0.1339 -0.3639 -0.4580
  177MPD1    C4 2697   3.981   3.629  10.006  0.3033 -0.1582  0.3644
  177MPD1    C5 2698   4.055   3.576  10.102  0.2443 -0.3990 -0.0952
  177MPD1     H 2699   3.710   3.437  10.019 -0.5394  2.2989  0.5292
  177MPD1    H1 2700   4.016   3.716   9.951 -0.6578  0.1726  0.2806
  177MPD1    H2 2701   4.050   3.430  10.264  2.1224  0.6903 -0.8829
  177MPD1    H3 2702   4.149   3.613  10.141  0.7056  0.4932 -2.0758
  177MPD1     N 2703   3.784   3.597   9.857  0.4745 -0.2168  0.1796
  177MPD1    H5 2704   3.699   3.544   9.846  0.2587 -0.4492  2.9365
  177MPD1    N1 2705   3.826   3.303  10.240 -0.6421  0.2133 -0.2917
  177MPD1    H6 2706   3.864   3.308  10.335  2.0634 -0.2336 -1.3629
  177MPD1    H7 2707   3.727   3.317  10.258 -0.2318 -0.4975  2.5398
  178MPD1     C 2708   1.714   4.159   0.463 -0.1082  0.1829 -1.3417
  178MPD1    C1 2709   1.647   4.041   0.453 -0.1649 -0.3755  0.4471
  178MPD1    C2 2710   1.630   3.987   0.328  0.1801  0.0821  0.3928
  178MPD1    C3 2711   1.680   4.053   0.212  0.8213 -0.3792  0.1060
  178MPD1    C4 2712   1.755   4.170   0.233  0.3352  0.1034  0.5088
  178MPD1    C5 2713   1.761   4.227   0.355  0.2895  0.3338  0.4606
  178MPD1     H 2714   1.569   3.898   0.317 -1.2991  1.1612 -0.0807
  178MPD1    H1 2715   1.797   4.230   0.153 -1.0467  2.2351  1.3757
  178MPD1    H2 2716   1.734   4.218   0.552 -2.5521  0.5092 -1.0237
  178MPD1    H3 2717   1.816   4.320   0.359  1.3046 -0.2465 -0.0753
  178MPD1     N 2718   1.671   4.013   0.082 -0.4926  0.1687  0.8908
  178MPD1    H5 2719   1.733   4.062   0.018  1.7742 -1.9695  1.4384
  178MPD1    N1 2720   1.594   3.976   0.568 -0.3006 -0.3500  0.1344
  178MPD1    H6 2721   1.576   4.033   0.650 -0.1726  0.3664 -0.3415
  178MPD1    H7 2722   1.524   3.904   0.547  0.3240 -1.0497  0.4702
  179MPD1     C 2723   1.578   2.127  15.959  0.1945  0.1446  0.2758
  179MPD1    C1 2724   1.525   2.062  15.852 -0.3248  0.2124  0.3576
  179MPD1    C2 2725   1.461   1.943  15.877  0.1630 -0.2846  0.2828
  179MPD1    C3 2726   1.441   1.893  16.008 -0.3042  0.5509 -0.1828
  179MPD1    C4 2727   1.487   1.966  16.117 -0.2368 -0.1094 -0.3968
  179MPD1    C5 2728   1.550   2.083  16.087  0.4729  0.7368  0.2414
  179MPD1     H 2729   1.423   1.887  15.793 -1.4393 -1.0234  1.4875
  179MPD1    H1 2730   1.475   1.931  16.219  1.5338  3.4836  1.0569
  179MPD1    H2 2731   1.648   2.210  15.950 -0.2458  0.4396 -0.4851
  179MPD1    H3 2732   1.592   2.138  16.170 -0.7738  1.3583  0.4625
  179MPD1     N 2733   1.389   1.766  16.031  0.1040  0.0792 -0.0770
  179MPD1    H5 2734   1.403   1.724  16.122  2.2176  0.6717 -0.1439
  179MPD1    N1 2735   1.577   2.088  15.723  0.3280  0.8679 -0.2979
  179MPD1    H6 2736   1.584   2.189  15.719 -0.3991  0.9822  1.0682
  179MPD1    H7 2737   1.507   2.055  15.658  0.7721 -3.7914  1.5786
  180MPD1     C 2738   1.811   3.626  15.149 -0.2524  0.3530  0.9182
  180MPD1    C1 2739   1.797   3.659  15.019 -0.2760  0.4073  0.3037
  180MPD1    C2 2740   1.679   3.652  14.957 -0.5467 -1.0169 -0.0587
  180MPD1    C3 2741   1.564   3.611  15.029 -0.7774  0.7668 -0.2610
  180MPD1    C4 2742   1.578   3.580  15.161  0.6950  0.3668 -1.0349
  180MPD1    C5 2743   1.703   3.568  15.213 -0.7853  0.4676 -0.0790
  180MPD1     H 2744   1.672   3.684  14.854  0.7597  0.8163  0.4132
  180MPD1    H1 2745   1.498   3.545  15.223 -0.9611  2.8957 -1.7412
  180MPD1    H2 2746   1.908   3.625  15.197  0.0504 -0.9120  0.2547
  180MPD1    H3 2747   1.705   3.517  15.309 -1.4918  0.8334  0.1299
  180MPD1     N 2748   1.434   3.611  14.963 -0.0043 -0.1592 -1.0232
  180MPD1    H5 2749   1.440   3.640  14.866 -0.7624  0.6972 -0.8120
  180MPD1    N1 2750   1.883   3.740  14.946  0.2127  0.7076  0.9189
  180MPD1    H6 2751   1.985   3.734  14.952  0.6203  2.6143 -3.8642
  180MPD1    H7 2752   1.865   3.724  14.847  0.1034  1.0936  0.8769
  181MPD1     C 2753   2.462   0.224  10.028  0.1766 -0.0949  0.0643
  181MPD1    C1 2754   2.470   0.307  10.139 -0.4710 -0.0747 -0.2704
  181MPD1    C2 2755   2.592   0.371  10.157  0.4821  0.0200 -0.4166
  181MPD1    C3 2756   2.697   0.360  10.066 -0.1756  0.8805  0.4738
  181MPD1    C4 2757   2.681   0.281   9.953 -0.2721  0.2911  0.5495
  181MPD1    C5 2758   2.564   0.211   9.938  0.3276 -0.3172  0.0743
  181MPD1     H 2759   2.597   0.441  10.240  1.3981 -0.6726  0.1178
  181MPD1    H1 2760   2.751   0.285   9.870  0.3406  1.6229  1.1335
  181MPD1    H2 2761   2.372   0.167  10.007  0.8124 -1.4696  1.0647
  181MPD1    H3 2762   2.535   0.148   9.854  0.1305 -1.2006  0.8031
  181MPD1     N 2763   2.825   0.424  10.080  0.4503  0.9529  0.1805
  181MPD1    H5 2764   2.904   0.395  10.024 -0.1747 -1.7481  0.7130
  181MPD1    N1 2765   2.377   0.301  10.245  0.3942 -0.0178 -0.2053
  181MPD1    H6 2766   2.391   0.373  10.316  2.0067  0.2219 -0.7633
  181MPD1    H7 2767   2.282   0.279  10.216  1.4786 -0.8448 -3.1105
  182MPD1     C 2768   4.341   4.170   1.791 -0.3052  0.2919  0.4341
  182MPD1    C1 2769   4.220   4.147   1.848 -0.0035 -0.3698 -0.3109
  182MPD1    C2 2770   4.106   4.156   1.769  0.2785  0.0139  0.9932
  182MPD1    C3 2771   4.120   4.151   1.631 -0.3051 -0.1386  0.1542
  182MPD1    C4 2772   4.239   4.167   1.575  0.0016 -0.3680  0.1433
  182MPD1    C5 2773   4.352   4.169   1.653 -0.0987 -0.1590  0.3019
  182MPD1     H 2774   4.011   4.146   1.821 -0.8027  0.4693 -0.8914
  182MPD1    H1 2775   4.248   4.160   1.467  0.2573  2.5079 -0.0287
  182MPD1    H2 2776   4.426   4.200   1.852 -1.6017 -2.1924  3.4804
  182MPD1    H3 2777   4.449   4.188   1.609  0.2507 -0.6319  0.8669
  182MPD1     N 2778   4.009   4.125   1.545 -0.3393 -0.8358 -1.1936
  182MPD1    H5 2779   4.029   4.139   1.446 -1.9031 -2.6469 -1.7600
  182MPD1    N1 2780   4.214   4.177   1.988  0.4077 -0.9488  1.0717
  182MPD1    H6 2781   4.298   4.153   2.040  0.5976 -0.3225  1.0497
  182MPD1    H7 2782   4.132   4.125   2.019  0.2306  0.1456  2.4504
  183MPD1     C 2783   3.876   0.900   8.813  0.2782 -0.1421 -0.2367
  183MPD1    C1 2784   3.900   0.797   8.718 -0.0488 -0.1419  0.6723
  183MPD1    C2 2785   3.965   0.688   8.767 -0.8972  0.0242 -0.0205
  183MPD1    C3 2786   4.002   0.677   8.896 -0.0870 -1.0888 -0.6772
  183MPD1    C4 2787   3.958   0.770   8.992 -0.1292  0.1091 -0.1690
  183MPD1    C5 2788   3.898   0.886   8.946 -0.0412  0.1586  0.0193
  183MPD1     H 2789   3.981   0.609   8.694 -1.9241 -0.3325  0.1354
  183MPD1    H1 2790   3.983   0.762   9.097  0.4326  0.9870 -0.2331
  183MPD1    H2 2791   3.825   0.985   8.768  0.3182  0.4806  0.9032
  183MPD1    H3 2792   3.888   0.965   9.020 -0.8695 -2.4332  2.7013
  183MPD1     N 2793   4.077   0.560   8.926  0.7723  0.1181 -0.4989
  183MPD1    H5 2794   4.100   0.504   8.845  2.4976 -0.5746  0.4730
  183MPD1    N1 2795   3.867   0.825   8.587 -0.1854  0.4148 -0.0911
  183MPD1    H6 2796   3.792   0.892   8.574 -0.6465 -0.2267 -0.7372
  183MPD1    H7 2797   3.838   0.737   8.543 -1.0817  0.6403  0.0440
  184MPD1     C 2798   2.920   2.045  10.412 -0.0800 -0.7829  0.3112
  184MPD1    C1 2799   2.802   2.095  10.366 -0.6064  0.3589 -0.3350
  184MPD1    C2 2800   2.802   2.179  10.260 -0.2487 -0.3845  0.0329
  184MPD1    C3 2801   2.922   2.219  10.197 -0.2518 -0.5677  0.2679
  184MPD1    C4 2802   3.036   2.157  10.240 -0.2937 -0.3248 -0.1321
  184MPD1    C5 2803   3.036   2.074  10.346  0.2530 -0.9888  0.0976
  184MPD1     H 2804   2.708   2.229  10.239  1.1862  1.4079 -2.0226
  184MPD1    H1 2805   3.132   2.176  10.193 -0.2961  0.1039  0.0342
  184MPD1    H2 2806   2.938   1.994  10.506 -0.4684  2.2322  2.0262
  184MPD1    H3 2807   3.119   2.013  10.380 -0.9075 -1.3573  2.2697
  184MPD1     N 2808   2.933   2.307  10.086  0.4174 -0.0661  0.2275
  184MPD1    H5 2809   3.024   2.321  10.044  0.1401  2.6465  0.5410
  184MPD1    N1 2810   2.683   2.059  10.441  0.4747  0.9304 -0.1096
  184MPD1    H6 2811   2.700   2.071  10.541 -0.6783  0.5719  0.1268
  184MPD1    H7 2812   2.604   2.117  10.415 -0.5238 -1.3337 -2.1673
  185MPD1     C 2813   2.621   2.599   9.112  0.4402 -0.6875 -0.6780
  185MPD1    C1 2814   2.540   2.564   9.220  0.8251  0.1805  0.4185
  185MPD1    C2 2815   2.590   2.576   9.352 -0.7499  0.7944 -0.3879
  185MPD1    C3 2816   2.723   2.623   9.368  0.2202  0.0709  0.2135
  185MPD1    C4 2817   2.797   2.654   9.260 -0.3247 -0.0181  0.0550
  185MPD1    C5 2818   2.745   2.649   9.134  0.0786 -0.4110  0.3810
  185MPD1     H 2819   2.527   2.557   9.438 -2.1182  2.4646 -1.0080
  185MPD1    H1 2820   2.895   2.699   9.263 -0.9547  1.3338  0.4891
  185MPD1    H2 2821   2.578   2.595   9.012 -0.7557  1.3088 -0.2415
  185MPD1    H3 2822   2.810   2.674   9.052 -0.1228 -2.2917 -0.3532
  185MPD1     N 2823   2.786   2.611   9.493 -0.0596 -0.6801 -0.2651
  185MPD1    H5 2824   2.882   2.640   9.503  0.1713 -1.0790 -1.4028
  185MPD1    N1 2825   2.414   2.501   9.196  0.0738  0.1943 -0.5898
  185MPD1    H6 2826   2.345   2.514   9.270  0.8965  0.2700  0.1628
  185MPD1    H7 2827   2.363   2.542   9.118 -1.2865  0.4167  0.4015
  186MPD1     C 2828   1.392   1.598  16.529 -0.0541  0.3383  0.2975
  186MPD1    C1 2829   1.375   1.718  16.465  0.0291 -0.6361 -0.7564
  186MPD1    C2 2830   1.425   1.827  16.530  0.1026  0.8649  0.5663
  186MPD1    C3 2831   1.472   1.822  16.659 -0.7073 -0.9626 -0.3366
  186MPD1    C4 2832   1.474   1.694  16.720 -0.3678 -0.6100  0.3199
  186MPD1    C5 2833   1.453   1.578  16.648 -0.0865  0.2331 -0.1811
  186MPD1     H 2834   1.419   1.927  16.489 -0.3812  0.3148 -0.7048
  186MPD1    H1 2835   1.528   1.681  16.813  0.7889  0.3532 -0.2152
  186MPD1    H2 2836   1.366   1.505  16.479 -2.7832 -0.5887  3.4310
  186MPD1    H3 2837   1.479   1.483  16.694 -0.2431  1.2210  1.9547
  186MPD1     N 2838   1.516   1.934  16.740  0.1123 -0.3683  0.4978
  186MPD1    H5 2839   1.546   1.913  16.834  0.4840 -1.1207  0.2116
  186MPD1    N1 2840   1.327   1.719  16.335 -0.2879 -0.3152 -0.0334
  186MPD1    H6 2841   1.258   1.644  16.326 -2.5287  1.6498  0.7445
  186MPD1    H7 2842   1.282   1.808  16.313 -1.2912 -0.8785 -0.2476
  187MPD1     C 2843   0.774   3.933   0.810  0.1800 -0.3368 -0.6936
  187MPD1    C1 2844   0.828   3.848   0.726 -0.9812 -0.0730  0.2241
  187MPD1    C2 2845   0.873   3.898   0.611 -0.2208 -0.5518  0.5881
  187MPD1    C3 2846   0.862   4.025   0.566 -0.4160 -0.1314 -0.1651
  187MPD1    C4 2847   0.806   4.110   0.653 -0.3052  0.0262 -1.2595
  187MPD1    C5 2848   0.757   4.069   0.775  0.2493 -0.2114 -0.2586
  187MPD1     H 2849   0.930   3.833   0.546 -2.2172 -0.4114 -1.2995
  187MPD1    H1 2850   0.787   4.213   0.622  1.9345  1.4788  2.2808
  187MPD1    H2 2851   0.734   3.902   0.906 -0.1830 -0.5548 -0.9153
  187MPD1    H3 2852   0.700   4.134   0.841 -0.1308 -0.6077 -0.1921
  187MPD1     N 2853   0.901   4.079   0.442  0.5932 -0.6047 -0.4075
  187MPD1    H5 2854   0.876   4.176   0.422  0.3549 -0.6497 -0.3338
  187MPD1    N1 2855   0.850   3.719   0.774 -0.1866 -0.5487 -0.1970
  187MPD1    H6 2856   0.774   3.688   0.834 -0.3359  0.7751  0.3013
  187MPD1    H7 2857   0.858   3.643   0.706 -0.2737 -1.4674  0.8285
  188MPD1     C 2858   1.080   3.990  10.493 -0.6466  0.0341  0.9108
  188MPD1    C1 2859   1.009   4.038  10.381 -0.4085 -0.0009  0.3171
  188MPD1    C2 2860   0.928   3.950  10.312 -0.1119 -0.8352  0.0940
  188MPD1    C3 2861   0.903   3.830  10.374 -0.5499 -0.0816 -0.2239
  188MPD1    C4 2862   0.972   3.789  10.483  0.8969 -0.9180 -0.1275
  188MPD1    C5 2863   1.064   3.868  10.543 -0.0960 -0.0730 -0.1331
  188MPD1     H 2864   0.880   3.981  10.219 -0.4288  1.9069  1.1698
  188MPD1    H1 2865   0.941   3.697  10.531  1.9996 -1.1745  0.0723
  188MPD1    H2 2866   1.131   4.069  10.548  1.9512 -1.2135  0.3219
  188MPD1    H3 2867   1.135   3.833  10.617 -1.6706 -0.6744  1.0776
  188MPD1     N 2868   0.807   3.739  10.324 -0.1501  0.1761 -0.1808
  188MPD1    H5 2869   0.798   3.648  10.367 -3.3799  0.9948  0.8851
  188MPD1    N1 2870   1.048   4.164  10.327 -0.6726 -0.0962 -0.4798
  188MPD1    H6 2871   1.138   4.162  10.280 -0.4433 -0.6323 -0.0077
  188MPD1    H7 2872   0.986   4.210  10.261  0.9022  0.4428 -1.5810
  189MPD1     C 2873   2.777   4.386   0.103 -0.3984 -0.5807 -0.4641
  189MPD1    C1 2874   2.648   4.346   0.158  0.5612 -0.5248 -0.8325
  189MPD1    C2 2875   2.565   4.447   0.201 -0.0087  0.1578  0.5209
  189MPD1    C3 2876   2.598   4.581   0.199  0.5020 -0.4614 -1.0387
  189MPD1    C4 2877   2.719   4.613   0.149  0.2517 -0.2885 -0.6454
  189MPD1    C5 2878   2.797   4.521   0.084  1.3160 -0.2234  0.0252
  189MPD1     H 2879   2.464   4.421   0.233  0.8621  0.3448  3.4586
  189MPD1    H1 2880   2.747   4.716   0.130 -1.2092  0.3763  0.8480
  189MPD1    H2 2881   2.857   4.316   0.082  2.2081  2.0267  0.9061
  189MPD1    H3 2882   2.893   4.546   0.040  1.2924  1.4572  0.9526
  189MPD1     N 2883   2.501   4.677   0.241 -0.3961  0.5290  0.3019
  189MPD1    H5 2884   2.404   4.652   0.258 -0.2322 -0.7718 -0.6809
  189MPD1    N1 2885   2.624   4.212   0.190 -0.0123 -0.6880 -0.1609
  189MPD1    H6 2886   2.667   4.162   0.113  0.5805 -1.0538  0.4076
  189MPD1    H7 2887   2.523   4.201   0.193 -0.2679  1.2002 -1.4734
  190MPD1     C 2888   0.772   2.386  15.931  0.3347 -0.3465 -0.1176
  190MPD1    C1 2889   0.896   2.339  15.926 -0.1201  0.3743  0.2324
  190MPD1    C2 2890   0.997   2.433  15.946  0.1930  0.3679  0.3824
  190MPD1    C3 2891   0.979   2.564  15.996 -0.2545  1.1584  0.0063
  190MPD1    C4 2892   0.847   2.588  16.033  0.4515  0.6429 -0.1720
  190MPD1    C5 2893   0.745   2.503  15.993 -0.7654  0.1880 -0.5965
  190MPD1     H 2894   1.102   2.410  15.930 -0.7049 -2.3762 -1.6035
  190MPD1    H1 2895   0.808   2.683  16.067 -0.3816 -0.4851  2.0560
  190MPD1    H2 2896   0.687   2.323  15.905  0.5605 -0.4715 -0.5426
  190MPD1    H3 2897   0.642   2.533  16.006 -1.0137 -1.4349  1.2975
  190MPD1     N 2898   1.085   2.648  16.023 -0.5901 -0.1096 -0.5486
  190MPD1    H5 2899   1.172   2.614  15.986 -0.0385  2.3630 -1.5223
  190MPD1    N1 2900   0.921   2.213  15.870  0.1686 -0.0689  0.0033
  190MPD1    H6 2901   1.013   2.170  15.882  1.5669  2.5590 -1.2106
  190MPD1    H7 2902   0.855   2.142  15.901 -1.4937  1.1182 -0.8430
  191MPD1     C 2903   1.171   4.224  12.671  0.0881  0.2331  0.1473
  191MPD1    C1 2904   1.198   4.251  12.540 -0.4162 -0.2973  0.0880
  191MPD1    C2 2905   1.180   4.380  12.494 -0.5379  0.3283 -0.2263
  191MPD1    C3 2906   1.126   4.484  12.572  0.6576 -0.0944 -0.8670
  191MPD1    C4 2907   1.090   4.447  12.702 -0.9908  0.1547  0.5190
  191MPD1    C5 2908   1.107   4.319  12.741 -1.2083  0.6140 -0.8394
  191MPD1     H 2909   1.207   4.389  12.389  0.6675 -1.0366 -0.0340
  191MPD1    H1 2910   1.058   4.523  12.773  0.3531 -0.8982  2.2628
  191MPD1    H2 2911   1.184   4.126  12.716  1.1578 -0.2136 -1.1285
  191MPD1    H3 2912   1.082   4.301  12.845 -2.2567 -3.3088 -1.7699
  191MPD1     N 2913   1.101   4.609  12.519 -0.1413 -0.3691 -0.2287
  191MPD1    H5 2914   1.157   4.639  12.440  0.4840  0.3560  0.5029
  191MPD1    N1 2915   1.214   4.142  12.457 -0.0766  0.2912  0.5041
  191MPD1    H6 2916   1.252   4.165  12.365 -0.0614  0.5665  0.5799
  191MPD1    H7 2917   1.274   4.075  12.503 -2.2005 -0.4196  2.2371
  192MPD1     C 2918   0.491   0.608  12.797  0.0061 -0.2447  0.0355
  192MPD1    C1 2919   0.487   0.608  12.659  0.3168  1.0534 -0.4494
  192MPD1    C2 2920   0.591   0.534  12.600  0.0142 -0.3276 -0.1072
  192MPD1    C3 2921   0.701   0.484  12.671  0.3511  0.9051  0.7198
  192MPD1    C4 2922   0.707   0.501  12.808 -0.1481 -0.2761  0.5362
  192MPD1    C5 2923   0.601   0.565  12.869 -0.2781 -0.3834  0.0553
  192MPD1     H 2924   0.583   0.526  12.493 -0.3048 -2.3157  0.0709
  192MPD1    H1 2925   0.782   0.448  12.866  1.3376 -0.5001 -1.5783
  192MPD1    H2 2926   0.404   0.626  12.859 -0.8613  0.2118 -1.3373
  192MPD1    H3 2927   0.583   0.562  12.976  2.0718 -1.7735  0.4002
  192MPD1     N 2928   0.797   0.402  12.612 -0.1830  0.3127  0.1936
  192MPD1    H5 2929   0.856   0.346  12.673  1.9224  0.0900 -2.0499
  192MPD1    N1 2930   0.361   0.609  12.593 -0.0801  0.1749  0.8228
  192MPD1    H6 2931   0.291   0.676  12.624  0.2922  1.9592 -2.1631
  192MPD1    H7 2932   0.372   0.610  12.492 -1.0780  0.5407  0.7143
  193MPD1     C 2933   4.633   0.102  16.305 -0.6727 -0.2108 -0.0335
  193MPD1    C1 2934   4.626   0.233  16.356  0.3483 -0.2072  0.2278
  193MPD1    C2 2935   0.022   0.280  16.398  0.2852  0.0828 -0.5634
  193MPD1    C3 2936   0.144   0.216  16.394 -0.6440 -0.4616 -0.0168
  193MPD1    C4 2937   0.147   0.096  16.324 -0.1214  0.0994 -0.4192
  193MPD1    C5 2938   0.032   0.040  16.288  0.6974  0.1593  0.6891
  193MPD1     H 2939   0.015   0.378  16.444 -1.0291 -0.5172  0.5006
  193MPD1    H1 2940   0.239   0.046  16.296 -0.1781 -1.1520  1.5811
  193MPD1    H2 2941   4.550   0.051  16.259 -1.7628  1.4310  0.1202
  193MPD1    H3 2942   0.031   4.674  16.225  1.9457 -0.0180  0.9165
  193MPD1     N 2943   0.265   0.271  16.437  0.0911  0.1345  0.7651
  193MPD1    H5 2944   0.341   0.210  16.406  0.6878  0.6849  1.1539
  193MPD1    N1 2945   4.508   0.305  16.357 -0.1495  0.0557 -0.5678
  193MPD1    H6 2946   4.515   0.375  16.431  0.5095  1.8454 -2.3107
  193MPD1    H7 2947   4.422   0.254  16.374 -0.6696  1.0867 -0.0529
  194MPD1     C 2948   2.422   3.158  17.325 -0.5820  0.1403  0.1019
  194MPD1    C1 2949   2.456   3.191  17.448 -0.3012  0.5940  0.3446
  194MPD1    C2 2950   2.572   3.135  17.503  0.2949 -0.2570 -0.4676
  194MPD1    C3 2951   2.660   3.060  17.422 -1.2409  0.4475  0.0513
  194MPD1    C4 2952   2.616   3.024  17.291  0.2466 -0.0293  0.2366
  194MPD1    C5 2953   2.502   3.078  17.245  0.4063  0.4735  0.1317
  194MPD1     H 2954   2.588   3.154  17.608  0.4649  1.3227 -0.7754
  194MPD1    H1 2955   2.673   2.967  17.219  0.2825 -0.7254  0.8217
  194MPD1    H2 2956   2.335   3.198  17.274 -1.2348 -2.2166 -0.6361
  194MPD1    H3 2957   2.475   3.064  17.141 -1.4021 -1.5338  0.8793
  194MPD1     N 2958   2.786   2.997  17.450  0.1207 -0.2577  0.2188
  194MPD1    H5 2959   2.832   2.943  17.377  4.8918  0.8747  2.4257
  194MPD1    N1 2960   2.356   3.251  17.522 -0.1979 -0.0177  0.2604
  194MPD1    H6 2961   2.392   3.316  17.592  1.5417 -0.9495  0.2111
  194MPD1    H7 2962   2.308   3.316  17.460 -0.4607 -0.3896  0.0740
  195MPD1     C 2963   0.558   3.905   0.099 -0.5872  0.0792 -1.0675
  195MPD1    C1 2964   0.603   3.889   0.230 -0.3179 -0.1990 -0.2542
  195MPD1    C2 2965   0.599   3.763   0.290 -1.4357  0.1390  0.1524
  195MPD1    C3 2966   0.563   3.651   0.222 -0.9251 -0.7661  0.8940
  195MPD1    C4 2967   0.543   3.662   0.088  0.0121 -0.0343  0.0125
  195MPD1    C5 2968   0.542   3.789   0.029 -0.3849 -1.2419 -0.1598
  195MPD1     H 2969   0.618   3.751   0.396 -0.8302 -2.3105 -0.2435
  195MPD1    H1 2970   0.532   3.579   0.020 -1.2286  0.9679 -1.0241
  195MPD1    H2 2971   0.548   4.000   0.048 -0.0530  1.0986  0.7118
  195MPD1    H3 2972   0.518   3.794  17.616 -1.4141  1.6287  0.2221
  195MPD1     N 2973   0.562   3.518   0.285 -0.1163 -0.1938 -0.2887
  195MPD1    H5 2974   0.561   3.443   0.217 -0.5960 -0.7926  0.3752
  195MPD1    N1 2975   0.612   4.003   0.317 -0.3200  0.0450  0.5146
  195MPD1    H6 2976   0.674   3.999   0.397  0.9930  2.6890 -0.3757
  195MPD1    H7 2977   0.631   4.092   0.272  0.0687  0.4256  1.4456
  196MPD1     C 2978   0.646   0.266   1.018 -0.3264  0.2609  0.0248
  196MPD1    C1 2979   0.715   0.159   0.966 -0.4169 -0.2804 -0.2846
  196MPD1    C2 2980   0.668   0.027   0.996 -0.3863 -0.1703  0.0297
  196MPD1    C3 2981   0.560   0.006   1.082 -0.1346  0.2103  0.9126
  196MPD1    C4 2982   0.492   0.115   1.137  0.4384  0.3709 -0.3956
  196MPD1    C5 2983   0.543   0.238   1.109  0.0233  0.0260  0.4774
  196MPD1     H 2984   0.721   4.669   0.947 -1.7926 -1.0378 -0.0647
  196MPD1    H1 2985   0.402   0.101   1.197 -0.1985 -1.0175 -1.6652
  196MPD1    H2 2986   0.677   0.367   0.991  5.2032 -1.4319  0.1917
  196MPD1    H3 2987   0.499   0.323   1.159 -2.2389 -1.2901  0.7598
  196MPD1     N 2988   0.523   4.605   1.125 -0.0652  0.3381 -0.5418
  196MPD1    H5 2989   0.441   4.612   1.185 -0.3981 -0.8705 -0.8590
  196MPD1    N1 2990   0.819   0.176   0.874  0.7820 -0.1129 -0.1743
  196MPD1    H6 2991   0.891   0.105   0.878  0.2099 -0.6798  0.1625
  196MPD1    H7 2992   0.854   0.271   0.864  0.9987  0.0065  1.6848
  197MPD1     C 2993   3.946   2.310   0.509 -0.6713  0.4734  0.1311
  197MPD1    C1 2994   3.964   2.174   0.500  0.5915 -0.9231  0.1541
  197MPD1    C2 2995   3.969   2.120   0.370 -0.2588  0.3561 -0.1440
  197MPD1    C3 2996   4.002   2.206   0.266 -0.4217 -0.0233 -0.3206
  197MPD1    C4 2997   3.987   2.343   0.279 -0.8640  0.4245 -0.2024
  197MPD1    C5 2998   3.960   2.395   0.401  0.3997 -0.1637  0.2089
  197MPD1     H 2999   3.974   2.012   0.359 -1.7233  0.0396  2.1963
  197MPD1    H1 3000   3.997   2.412   0.196 -2.2074  0.1204 -0.6274
  197MPD1    H2 3001   3.924   2.358   0.604 -0.5117 -0.8401  0.8310
  197MPD1    H3 3002   3.944   2.502   0.412  1.6264 -0.0567  0.9110
  197MPD1     N 3003   4.007   2.152   0.132 -0.1598  0.0809 -0.1427
  197MPD1    H5 3004   4.021   2.218   0.057 -0.5451 -0.8147 -1.0011
  197MPD1    N1 3005   3.935   2.083   0.605 -0.4366 -0.3519 -0.4592
  197MPD1    H6 3006   3.969   2.115   0.695  2.1267 -0.0313 -1.5241
  197MPD1    H7 3007   3.975   1.990   0.595  0.6925 -0.0856  1.5836
  198MPD1     C 3008   0.980   4.170  15.704 -0.1125 -0.1529 -0.5939
  198MPD1    C1 3009   1.071   4.270  15.682 -0.5491  0.3366 -0.1496
  198MPD1    C2 3010   1.175   4.283  15.773 -0.3784 -0.1816  0.2623
  198MPD1    C3 3011   1.183   4.201  15.879  0.1213  0.6914  0.8996
  198MPD1    C4 3012   1.082   4.114  15.903 -0.0604 -0.1966 -0.7695
  198MPD1    C5 3013   0.982   4.093  15.819 -0.0472  0.3012 -0.1480
  198MPD1     H 3014   1.258   4.350  15.757  2.0597 -3.2631  0.0308
  198MPD1    H1 3015   1.083   4.059  15.995 -1.0173  2.5193  0.8738
  198MPD1    H2 3016   0.898   4.141  15.639  0.3801  1.3018 -1.8610
  198MPD1    H3 3017   0.918   4.011  15.846 -2.3873  1.9699 -0.6803
  198MPD1     N 3018   1.299   4.226  15.964  0.2297  0.1620 -0.8133
  198MPD1    H5 3019   1.373   4.278  15.919  0.5192 -0.5349 -1.1313
  198MPD1    N1 3020   1.074   4.348  15.560  0.5053  0.6742 -0.5389
  198MPD1    H6 3021   0.977   4.372  15.541 -0.7716 -0.5055  4.3667
  198MPD1    H7 3022   1.113   4.441  15.572  0.2143  0.8542 -0.9774
  199MPD1     C 3023   4.040   1.413  10.372  1.0203  0.9976  0.0468
  199MPD1    C1 3024   4.028   1.283  10.313 -0.1219  0.3466  0.2213
  199MPD1    C2 3025   3.937   1.265  10.210  0.0184  0.6140 -0.2560
  199MPD1    C3 3026   3.833   1.359  10.194  0.1491 -0.3365 -0.9830
  199MPD1    C4 3027   3.844   1.488  10.253  0.3558  0.0376 -0.8014
  199MPD1    C5 3028   3.953   1.516  10.334 -0.5146  0.9532  0.2582
  199MPD1     H 3029   3.943   1.169  10.159  1.3453  0.9063 -0.6448
  199MPD1    H1 3030   3.783   1.575  10.230 -0.9442 -0.7129 -0.1819
  199MPD1    H2 3031   4.115   1.440  10.445  0.8887 -0.0917  0.5843
  199MPD1    H3 3032   3.960   1.613  10.383  1.6903  0.3006  1.2540
  199MPD1     N 3033   3.716   1.330  10.117  0.3578  0.0097  0.0782
  199MPD1    H5 3034   3.641   1.397  10.125 -2.9439 -3.9529  2.3669
  199MPD1    N1 3035   4.127   1.189  10.327 -0.2484  0.2941 -0.1538
  199MPD1    H6 3036   4.171   1.184  10.419 -0.3017 -0.2849 -0.1560
  199MPD1    H7 3037   4.084   1.101  10.297  2.1859 -0.6065 -1.0357
  200MPD1     C 3038   1.797   0.934  15.587 -0.3193  0.3414 -0.9237
  200MPD1    C1 3039   1.905   0.908  15.671  0.3013 -0.3723  0.1707
  200MPD1    C2 3040   2.000   0.816  15.624  0.4586 -0.0639  0.0108
  200MPD1    C3 3041   1.987   0.748  15.499  0.5307 -0.7781  0.1758
  200MPD1    C4 3042   1.878   0.777  15.424 -0.5104 -0.1067  0.2281
  200MPD1    C5 3043   1.782   0.867  15.470 -0.3096  0.2279  1.0799
  200MPD1     H 3044   2.080   0.786  15.690 -0.2439  1.2377  1.4604
  200MPD1    H1 3045   1.857   0.731  15.328 -1.2935  0.9533 -0.1088
  200MPD1    H2 3046   1.718   1.004  15.613  0.6713  1.2407 -0.3477
  200MPD1    H3 3047   1.704   0.898  15.402  1.0492 -1.3599 -1.1900
  200MPD1     N 3048   2.092   0.663  15.455  0.4647  0.3925 -0.0840
  200MPD1    H5 3049   2.180   0.653  15.505  1.2189  2.0415 -1.0911
  200MPD1    N1 3050   1.922   0.984  15.788 -0.3586 -0.4018  0.0172
  200MPD1    H6 3051   1.841   1.032  15.826 -0.7478  0.7118 -2.1797
  200MPD1    H7 3052   1.977   0.945  15.864 -2.3399  0.2265  1.7671
  201MPD1     C 3053   4.367   4.525  13.538 -0.0467  0.5313  0.6488
  201MPD1    C1 3054   4.360   4.408  13.602  0.5030 -0.0014  0.0098
  201MPD1    C2 3055   4.439   4.301  13.562 -0.5468  0.4489  0.7774
  201MPD1    C3 3056   4.506   4.307  13.438  0.1733 -0.6470 -0.1860
  201MPD1    C4 3057   4.508   4.425  13.365 -0.0056 -0.2598  0.2369
  201MPD1    C5 3058   4.433   4.534  13.416 -0.3913  0.6545  0.6094
  201MPD1     H 3059   4.444   4.206  13.612 -0.4951  1.5215  2.8199
  201MPD1    H1 3060   4.565   4.442  13.275  1.3355  2.4127  1.5967
  201MPD1    H2 3061   4.324   4.617  13.577 -2.3109  0.8759 -2.6708
  201MPD1    H3 3062   4.444   4.628  13.363  1.8929 -0.4685 -0.9242
  201MPD1     N 3063   4.592   4.191  13.418 -0.4739 -0.2468 -0.0025
  201MPD1    H5 3064   4.593   4.125  13.495  1.3063  0.8179  0.8531
  201MPD1    N1 3065   4.304   4.416  13.727 -0.3573 -0.0811 -0.9780
  201MPD1    H6 3066   4.237   4.493  13.733 -0.7397 -0.4345 -0.6382
  201MPD1    H7 3067   4.264   4.331  13.767  1.7856 -1.0214 -0.8141
  202MPD1     C 3068   4.209   3.809   9.064  0.3050 -0.2895 -0.0531
  202MPD1    C1 3069   4.264   3.725   9.162 -0.2404  0.2498 -0.3997
  202MPD1    C2 3070   4.302   3.796   9.278  0.2047 -0.1527  0.6059
  202MPD1    C3 3071   4.314   3.926   9.284  0.2404  0.2149  0.3446
  202MPD1    C4 3072   4.276   4.005   9.174  0.1010 -0.1953  0.3632
  202MPD1    C5 3073   4.215   3.946   9.071  0.2441  0.3878  0.4123
  202MPD1     H 3074   4.297   3.743   9.372  0.1812 -1.2661 -0.0183
  202MPD1    H1 3075   4.284   4.113   9.184 -0.9417 -0.2131  1.4548
  202MPD1    H2 3076   4.153   3.759   8.986 -0.9468 -1.3236  1.5265
  202MPD1    H3 3077   4.181   4.004   8.986  1.0013  0.6675  0.2951
  202MPD1     N 3078   4.379   3.994   9.387  0.2319  0.1246 -0.4213
  202MPD1    H5 3079   4.386   4.095   9.380 -0.0734  0.0873 -1.3170
  202MPD1    N1 3080   4.216   3.590   9.170  0.7536  0.0852 -0.4510
  202MPD1    H6 3081   4.217   3.542   9.080  1.0313  0.0161 -0.4116
  202MPD1    H7 3082   4.259   3.534   9.244 -0.4452 -2.0668 -1.3790
  203MPD1     C 3083   2.668   4.658  12.856  1.0395 -0.2975  0.2195
  203MPD1    C1 3084   2.728   4.609  12.740 -0.1678  0.5933  0.4889
  203MPD1    C2 3085   2.831   4.516  12.758  0.1547 -0.4702 -0.0843
  203MPD1    C3 3086   2.859   4.466  12.885 -0.0163 -0.1769  0.0996
  203MPD1    C4 3087   2.788   4.513  12.996 -1.2089  0.9210  0.0609
  203MPD1    C5 3088   2.695   4.603  12.980 -0.3417 -0.1937  0.5978
  203MPD1     H 3089   2.878   4.480  12.667 -2.7474 -0.2705 -1.6786
  203MPD1    H1 3090   2.786   4.467  13.095 -0.1549  1.2674  0.2445
  203MPD1    H2 3091   2.592   0.012  12.841  0.1535 -1.4730 -1.3979
  203MPD1    H3 3092   2.638   4.644  13.062  1.6215  2.0267  0.8635
  203MPD1     N 3093   2.969   4.367  12.897  0.1451  0.6175 -0.2764
  203MPD1    H5 3094   3.020   4.337  12.816 -1.1469 -0.4811 -0.6856
  203MPD1    N1 3095   2.713   4.661  12.612 -0.1895  0.3800 -0.1796
  203MPD1    H6 3096   2.702   4.581  12.549  1.9390  0.0784 -0.1869
  203MPD1    H7 3097   2.634   0.002  12.604 -0.9136 -1.0229 -4.1826
  204MPD1     C 3098   2.796   1.171   0.360  0.0844 -0.3120 -0.4376
  204MPD1    C1 3099   2.729   1.203   0.250 -0.3164 -0.4323  0.1020
  204MPD1    C2 3100   2.749   1.131   0.132 -0.9767  0.1872  0.3643
  204MPD1    C3 3101   2.827   1.019   0.131 -0.1941  0.3380  0.1977
  204MPD1    C4 3102   2.878   0.985   0.255  0.4769  0.0194  0.3551
  204MPD1    C5 3103   2.875   1.063   0.366  0.4641  0.3778  0.6853
  204MPD1     H 3104   2.710   1.158   0.035 -2.3906  1.8050  1.3754
  204MPD1    H1 3105   2.934   0.893   0.268  0.4169  0.3151  2.6413
  204MPD1    H2 3106   2.786   1.232   0.449  0.4888 -0.5251 -0.2454
  204MPD1    H3 3107   2.934   1.040   0.454 -0.8227  0.0147  1.4434
  204MPD1     N 3108   2.848   0.949   0.011  0.1931  0.0499  0.2133
  204MPD1    H5 3109   2.808   1.001  17.627  1.8591 -0.3456 -0.9150
  204MPD1    N1 3110   2.648   1.319   0.251  0.2249 -0.6205  0.0088
  204MPD1    H6 3111   2.584   1.325   0.172 -2.7223  0.3644  2.4966
  204MPD1    H7 3112   2.595   1.319   0.337  2.9102 -0.7215  1.6632
  205MPD1     C 3113   3.484   3.894  16.885  0.3024  0.8988 -0.4691
  205MPD1    C1 3114   3.482   4.033  16.883 -0.2362 -0.5489 -0.5627
  205MPD1    C2 3115   3.380   4.100  16.944 -0.5945  0.2923 -0.0407
  205MPD1    C3 3116   3.266   4.031  16.992  0.3297 -0.1114 -0.8703
  205MPD1    C4 3117   3.257   3.894  16.971  0.5060  0.2290  0.5965
  205MPD1    C5 3118   3.372   3.825  16.932 -0.1680  0.1275 -0.7316
  205MPD1     H 3119   3.403   4.204  16.961 -1.7267  0.1534  2.3237
  205MPD1    H1 3120   3.175   3.838  17.013  0.2788 -0.5070 -0.8493
  205MPD1    H2 3121   3.578   3.846  16.863  0.3696 -0.0704  1.9677
  205MPD1    H3 3122   3.378   3.717  16.931 -0.5082  0.1554 -4.8068
  205MPD1     N 3123   3.162   4.097  17.064 -0.4130 -0.2663  0.8630
  205MPD1    H5 3124   3.073   4.051  17.081  0.2955 -1.6747  0.7735
  205MPD1    N1 3125   3.604   4.096  16.857 -0.1465  0.2057 -0.0801
  205MPD1    H6 3126   3.591   4.193  16.830 -0.2511  0.3646  0.5602
  205MPD1    H7 3127   3.644   4.052  16.774 -1.1121  1.2826 -1.1330
  206MPD1     C 3128   2.927   2.285  16.726 -0.1403 -0.5944 -0.0341
  206MPD1    C1 3129   2.802   2.273  16.690  0.3222  0.5357 -0.0711
  206MPD1    C2 3130   2.772   2.309  16.563 -0.4146 -0.3413  0.3497
  206MPD1    C3 3131   2.873   2.337  16.463 -0.0828 -0.3901 -0.1229
  206MPD1    C4 3132   3.004   2.335  16.500  0.6929  0.3484 -0.1315
  206MPD1    C5 3133   3.028   2.319  16.637 -0.1267  0.4426  0.4505
  206MPD1     H 3134   2.673   2.302  16.521  0.3531  1.2105 -1.7331
  206MPD1    H1 3135   3.080   2.361  16.426  0.1277  0.2697 -0.7435
  206MPD1    H2 3136   2.950   2.281  16.832  0.4181  1.7649 -0.0723
  206MPD1    H3 3137   3.124   2.359  16.669  0.1763  0.9358 -1.0449
  206MPD1     N 3138   2.841   2.367  16.329  0.3127 -0.1164  0.3924
  206MPD1    H5 3139   2.917   2.376  16.263  0.9328 -2.5237  0.7832
  206MPD1    N1 3140   2.693   2.254  16.782  0.6584  0.5918  0.1345
  206MPD1    H6 3141   2.737   2.206  16.860 -0.9543 -1.7627 -0.3942
  206MPD1    H7 3142   2.606   2.212  16.752  0.4627  1.2091 -0.1673
  207MPD1     C 3143   0.980   0.449   9.512  0.3486  0.0376 -0.2460
  207MPD1    C1 3144   1.026   0.578   9.500 -0.0538 -0.0281  0.9399
  207MPD1    C2 3145   1.057   0.647   9.608  0.0198  0.5282 -0.0692
  207MPD1    C3 3146   1.038   0.603   9.738 -0.1504 -0.7978  0.5136
  207MPD1    C4 3147   0.985   0.477   9.755  0.3988 -0.5283  0.2299
  207MPD1    C5 3148   0.966   0.399   9.643 -0.7203  0.2256  0.2166
  207MPD1     H 3149   1.098   0.747   9.602  0.4919  0.4767  2.2886
  207MPD1    H1 3150   0.971   0.437   9.854 -3.0400 -0.1112 -0.0868
  207MPD1    H2 3151   0.975   0.376   9.431  0.5775  0.4743 -0.6502
  207MPD1    H3 3152   0.938   0.295   9.653 -2.4914  0.8277  1.6017
  207MPD1     N 3153   1.069   0.688   9.853 -0.5791  0.4200 -0.0632
  207MPD1    H5 3154   1.042   0.651   9.944  1.8700  0.4886  0.6977
  207MPD1    N1 3155   1.053   0.629   9.375 -0.1518 -0.2675 -0.0294
  207MPD1    H6 3156   1.063   0.730   9.384  2.3787 -0.5472  0.2807
  207MPD1    H7 3157   0.983   0.608   9.305  1.0614 -2.7042 -0.4995
  208MPD1     C 3158   4.210   3.753  17.572 -0.1488 -0.8081  0.3569
  208MPD1    C1 3159   4.240   3.780   0.011 -1.3749  0.2663 -0.6288
  208MPD1    C2 3160   4.134   3.789   0.094 -0.1139 -0.0076  0.2820
  208MPD1    C3 3161   4.001   3.794   0.054 -0.0534  0.9074  0.1828
  208MPD1    C4 3162   3.976   3.769  17.614  0.3041 -0.5583 -0.5515
  208MPD1    C5 3163   4.083   3.761  17.527 -0.2839  0.7383  0.4839
  208MPD1     H 3164   4.163   3.817   0.195  2.2534 -1.9922  0.1264
  208MPD1    H1 3165   3.873   3.773  17.579  1.0467  0.9747 -2.5162
  208MPD1    H2 3166   4.295   3.736  17.507 -1.4922  1.2698 -1.9335
  208MPD1    H3 3167   4.061   3.754  17.420 -0.7246 -1.3632  0.7044
  208MPD1     N 3168   3.898   3.838   0.143  0.5706 -0.0785  0.4789
  208MPD1    H5 3169   3.920   3.838   0.242 -0.4784 -1.3801  0.7227
  208MPD1    N1 3170   4.364   3.747   0.060 -0.6495  0.0662  0.2390
  208MPD1    H6 3171   4.432   3.780  17.686 -0.7193  1.1839  0.7163
  208MPD1    H7 3172   4.391   3.795   0.146 -0.0223 -1.1076  0.6946
  209MPD1     C 3173   1.458   4.375  10.475  0.7366  0.4480 -0.1322
  209MPD1    C1 3174   1.335   4.449  10.471  0.3707 -0.5225  0.1017
  209MPD1    C2 3175   1.309   4.541  10.568 -0.3310  0.2748  0.0457
  209MPD1    C3 3176   1.410   4.581  10.659  0.2589  0.6165  0.9551
  209MPD1    C4 3177   1.527   4.519  10.650  0.3034  0.7240 -0.4467
  209MPD1    C5 3178   1.558   4.418  10.562  0.0807  0.2516  0.2381
  209MPD1     H 3179   1.209   4.583  10.569 -0.3726  0.1160  1.6556
  209MPD1    H1 3180   1.602   4.532  10.726  0.5810 -1.5567 -0.3332
  209MPD1    H2 3181   1.483   4.304  10.397 -1.3545  1.6392 -1.9203
  209MPD1    H3 3182   1.656   4.374  10.574 -0.6201 -1.0864  1.1238
  209MPD1     N 3183   1.379   4.677  10.756 -0.9505  0.5561 -0.0316
  209MPD1    H5 3184   1.290   0.002  10.747 -0.4807  1.5116  0.4179
  209MPD1    N1 3185   1.237   4.418  10.379 -0.3596 -0.1415  0.1385
  209MPD1    H6 3186   1.196   4.497  10.331  2.2359  0.8340 -0.4967
  209MPD1    H7 3187   1.267   4.350  10.309 -1.0825  1.5287 -1.8038
  210MPD1     C 3188   1.426   0.551  11.652 -0.0395  1.1136  0.4797
  210MPD1    C1 3189   1.358   0.439  11.626  0.1264  0.1188  0.3548
  210MPD1    C2 3190   1.366   0.386  11.504  0.1157 -0.1047  0.1047
  210MPD1    C3 3191   1.399   0.466  11.396 -0.2971 -0.0213  0.4076
  210MPD1    C4 3192   1.440   0.596  11.420 -0.0446  0.7170  0.8347
  210MPD1    C5 3193   1.458   0.636  11.549  0.1979 -0.4340 -0.8285
  210MPD1     H 3194   1.323   0.287  11.508  0.2337  0.0410  5.1081
  210MPD1    H1 3195   1.468   0.667  11.343  1.8259 -1.7644 -0.7884
  210MPD1    H2 3196   1.426   0.590  11.753 -1.9035 -0.8446  1.2270
  210MPD1    H3 3197   1.496   0.735  11.573 -0.4477 -0.4354  0.2272
  210MPD1     N 3198   1.400   0.418  11.265 -0.2688  0.1309 -0.5841
  210MPD1    H5 3199   1.405   0.485  11.189 -0.5978 -1.9419 -2.4230
  210MPD1    N1 3200   1.337   0.354  11.738  0.1963 -0.1074 -0.1645
  210MPD1    H6 3201   1.325   0.405  11.825 -0.9375 -0.2778 -0.2262
  210MPD1    H7 3202   1.253   0.302  11.714 -1.7668  3.3837 -0.8328
  211MPD1     C 3203   4.077   4.411  16.963  0.4992  0.4025  0.0247
  211MPD1    C1 3204   4.084   4.526  16.890  0.1865 -0.3470  0.1966
  211MPD1    C2 3205   3.971   4.575  16.833  0.8762  0.3670  0.6357
  211MPD1    C3 3206   3.852   4.501  16.836 -0.1730 -0.6555  0.2638
  211MPD1    C4 3207   3.854   4.381  16.896 -0.3586  0.5464 -0.2992
  211MPD1    C5 3208   3.966   4.331  16.960 -0.4116 -0.3096  0.0050
  211MPD1     H 3209   3.964   4.675  16.793  0.6394  0.6143  1.2994
  211MPD1    H1 3210   3.766   4.319  16.895 -1.4337  2.0610  1.3052
  211MPD1    H2 3211   4.162   4.359  17.005  0.2335 -1.6199 -1.9619
  211MPD1    H3 3212   3.969   4.243  17.024 -1.3437  0.7124  1.4652
  211MPD1     N 3213   3.744   4.555  16.765 -0.7872  0.1351 -0.1668
  211MPD1    H5 3214   3.746   4.637  16.706 -1.8792  2.0118  2.3963
  211MPD1    N1 3215   4.207   4.590  16.892 -0.0795  0.1432 -0.1942
  211MPD1    H6 3216   4.207   4.647  16.807 -0.2277  0.4897  0.0424
  211MPD1    H7 3217   4.293   4.539  16.913 -0.1444  0.3710  0.5889
  212MPD1     C 3218   2.227   3.037  17.000  0.6296 -0.1664  0.5629
  212MPD1    C1 3219   2.340   2.970  16.944 -0.4723 -0.5901 -0.5459
  212MPD1    C2 3220   2.378   2.844  16.994  0.6221  0.1086  0.0312
  212MPD1    C3 3221   2.308   2.786  17.094  0.4742  0.2745  1.0401
  212MPD1    C4 3222   2.195   2.845  17.141 -0.3412 -0.0278 -0.6510
  212MPD1    C5 3223   2.146   2.966  17.090  0.9138 -0.1327  0.6998
  212MPD1     H 3224   2.471   2.803  16.955 -0.1364 -2.2161  0.6705
  212MPD1    H1 3225   2.132   2.787  17.207  1.6393 -1.2040  0.2226
  212MPD1    H2 3226   2.195   3.135  16.969  0.9916 -1.0287 -2.5385
  212MPD1    H3 3227   2.054   3.009  17.128  1.4985  2.2497 -0.5896
  212MPD1     N 3228   2.369   2.675  17.167 -0.0111  0.0655  0.8197
  212MPD1    H5 3229   2.326   2.651  17.256 -1.4837  1.9805  0.6154
  212MPD1    N1 3230   2.431   3.043  16.866 -0.6910 -0.1309 -0.4523
  212MPD1    H6 3231   2.481   2.979  16.804  1.7852  0.2809  1.1275
  212MPD1    H7 3232   2.380   3.109  16.808  1.0085  2.7439  1.3851
  213MPD1     C 3233   0.787   3.310  15.914 -0.2835  0.2063  0.4648
  213MPD1    C1 3234   0.692   3.380  15.979 -0.2863  0.0861  0.0682
  213MPD1    C2 3235   0.587   3.434  15.901  0.4352 -0.8444 -0.2676
  213MPD1    C3 3236   0.608   3.452  15.763 -0.0607 -0.3732  0.8539
  213MPD1    C4 3237   0.720   3.392  15.702 -0.4565 -0.3709  0.5959
  213MPD1    C5 3238   0.803   3.319  15.779 -0.3797  0.0864  0.4045
  213MPD1     H 3239   0.493   3.452  15.952  1.2251  0.4599  0.7279
  213MPD1    H1 3240   0.745   3.387  15.596  0.4097  0.3942  0.7616
  213MPD1    H2 3241   0.865   3.259  15.969  0.1745  0.5536  0.1412
  213MPD1    H3 3242   0.893   3.275  15.737 -0.7085 -0.6615  0.4934
  213MPD1     N 3243   0.503   3.502  15.684  0.2970  0.3179  0.5453
  213MPD1    H5 3244   0.418   3.533  15.730  0.1155  0.6937 -0.0390
  213MPD1    N1 3245   0.655   3.334  16.108  0.6285 -0.1875  0.0851
  213MPD1    H6 3246   0.736   3.320  16.168 -0.5664  1.1690  2.0211
  213MPD1    H7 3247   0.585   3.390  16.155  1.2511  0.8324 -0.2159
  214MPD1     C 3248   4.291   3.292  15.376  0.2096  0.1968 -0.1369
  214MPD1    C1 3249   4.354   3.315  15.252  0.1498  0.3013 -0.7108
  214MPD1    C2 3250   4.481   3.368  15.251  0.7349 -0.5244  0.6044
  214MPD1    C3 3251   4.545   3.390  15.371  0.6358 -0.1819  0.0830
  214MPD1    C4 3252   4.479   3.367  15.492  0.2745  0.5471  0.2422
  214MPD1    C5 3253   4.354   3.326  15.491  0.7475 -0.1168 -0.1354
  214MPD1     H 3254   4.527   3.403  15.160  1.5129 -1.1824  0.7444
  214MPD1    H1 3255   4.522   3.399  15.586  0.2787 -1.7357  1.0254
  214MPD1    H2 3256   4.187   3.264  15.390  0.6772 -1.4895 -0.0365
  214MPD1    H3 3257   4.297   3.318  15.583  3.2475 -0.1834  1.3956
  214MPD1     N 3258   4.671   3.463  15.370 -0.0062 -0.9994  0.4122
  214MPD1    H5 3259   4.701   3.492  15.277 -1.1618  1.8205  0.9100
  214MPD1    N1 3260   4.281   3.295  15.128  0.0930 -0.3463  0.5761
  214MPD1    H6 3261   4.305   3.361  15.054 -0.3728  0.1175  0.8478
  214MPD1    H7 3262   4.181   3.285  15.143 -0.0454 -0.2013 -0.2232
  215MPD1     C 3263   1.190   4.154  10.900 -0.4229  0.1378  0.3732
  215MPD1    C1 3264   1.178   4.158  11.034 -0.0023  0.1069  0.7571
  215MPD1    C2 3265   1.162   4.273  11.098 -0.1283  0.6157  0.1287
  215MPD1    C3 3266   1.165   4.392  11.030 -0.5602 -0.7908 -0.3262
  215MPD1    C4 3267   1.192   4.391  10.890 -0.2611  0.5275  0.0834
  215MPD1    C5 3268   1.197   4.269  10.829  0.3572  0.3817  0.3514
  215MPD1     H 3269   1.157   4.270  11.206  0.9207  0.2383  0.1595
  215MPD1    H1 3270   1.200   4.485  10.837 -0.1841 -0.0868 -0.9857
  215MPD1    H2 3271   1.206   4.057  10.855 -0.3708  0.2715  0.0989
  215MPD1    H3 3272   1.211   4.274  10.721  0.7427  0.3788  0.4030
  215MPD1     N 3273   1.151   4.514  11.100  0.2686 -0.6606  0.4053
  215MPD1    H5 3274   1.161   4.507  11.201  0.1230  0.3298  0.4825
  215MPD1    N1 3275   1.153   4.035  11.097  0.1588  0.3767 -0.2379
  215MPD1    H6 3276   1.194   3.952  11.056 -0.2798 -0.3710  0.8581
  215MPD1    H7 3277   1.173   4.040  11.196 -0.9747  0.0031  0.0168
  216MPD1     C 3278   2.797   2.649  17.185 -0.1340 -0.2114  0.0738
  216MPD1    C1 3279   2.797   2.597  17.316 -0.1544  0.0431  0.2979
  216MPD1    C2 3280   2.832   2.468  17.328 -0.2923  0.0011  0.1001
  216MPD1    C3 3281   2.843   2.382  17.219  0.5834  0.1310  0.2720
  216MPD1    C4 3282   2.837   2.433  17.092 -0.3851  0.1132  0.2101
  216MPD1    C5 3283   2.807   2.563  17.080  0.3994 -0.5722  0.2260
  216MPD1     H 3284   2.852   2.423  17.425 -0.0661 -1.6110 -0.6951
  216MPD1    H1 3285   2.814   2.371  17.006 -0.7464  1.4566 -0.6643
  216MPD1    H2 3286   2.775   2.751  17.159 -0.6447 -0.9864 -2.4653
  216MPD1    H3 3287   2.804   2.607  16.981 -2.4545 -3.8850 -1.1454
  216MPD1     N 3288   2.864   2.249  17.246  0.0879 -0.0414  0.5972
  216MPD1    H5 3289   2.878   2.216  17.341  0.7211 -0.8134  0.2376
  216MPD1    N1 3290   2.781   2.675  17.431 -0.2684  0.3180  0.4078
  216MPD1    H6 3291   2.708   2.746  17.431 -1.0036 -0.4402 -1.4580
  216MPD1    H7 3292   2.788   2.633  17.524  0.3335  1.0107  0.6769
  217MPD1     C 3293   2.659   4.303   8.733 -0.0933 -0.1069  0.0051
  217MPD1    C1 3294   2.777   4.266   8.672  0.6840  0.3011 -0.1756
  217MPD1    C2 3295   2.895   4.286   8.735 -0.0076 -0.2041  0.4209
  217MPD1    C3 3296   2.899   4.341   8.859 -0.2680 -0.0722 -0.5408
  217MPD1    C4 3297   2.780   4.394   8.914  0.1559 -0.2989  0.4821
  217MPD1    C5 3298   2.659   4.386   8.845 -0.5105 -0.4610 -0.1107
  217MPD1     H 3299   2.982   4.264   8.674  0.2957  1.5574  0.2200
  217MPD1    H1 3300   2.780   4.454   9.004 -1.4134  1.8915 -0.9848
  217MPD1    H2 3301   2.559   4.272   8.706 -0.5332 -0.7136  2.3337
  217MPD1    H3 3302   2.562   4.412   8.884 -0.5620 -1.9459  0.7756
  217MPD1     N 3303   3.015   4.370   8.938  0.4170 -0.1720 -0.3497
  217MPD1    H5 3304   2.999   4.431   9.017  1.1338 -0.2836 -0.1160
  217MPD1    N1 3305   2.764   4.173   8.570  0.1523 -0.4894 -0.4941
  217MPD1    H6 3306   2.828   4.193   8.493  1.8912  1.1813  1.3912
  217MPD1    H7 3307   2.668   4.173   8.537 -0.4079 -1.3351  1.1693
  218MPD1     C 3308   4.512   0.456  12.998 -0.5347  0.0670  0.3839
  218MPD1    C1 3309   4.631   0.500  12.948  0.0474 -0.1290  0.6947
  218MPD1    C2 3310   4.717   0.409  12.890  0.1402 -0.0610  0.3050
  218MPD1    C3 3311   4.687   0.279  12.862  0.3272 -0.4561 -0.7011
  218MPD1    C4 3312   4.560   0.245  12.908 -0.4499 -0.0583 -0.5856
  218MPD1    C5 3313   4.474   0.326  12.971  0.1753  0.7077 -0.0670
  218MPD1     H 3314   0.084   0.451  12.846 -0.1819 -1.9036 -2.0847
  218MPD1    H1 3315   4.518   0.148  12.887  0.3029 -0.8389  1.5475
  218MPD1    H2 3316   4.445   0.516  13.057 -1.3504  0.5842 -1.0553
  218MPD1    H3 3317   4.382   0.280  13.008 -0.0616  3.6829  2.9865
  218MPD1     N 3318   0.059   0.197  12.801  0.8176 -0.5892  0.4558
  218MPD1    H5 3319   0.150   0.241  12.784  0.1085  0.8533  0.3828
  218MPD1    N1 3320   4.666   0.636  12.960 -0.4697  1.2471  0.5030
  218MPD1    H6 3321   0.015   0.662  12.892  2.2614 -0.0169  2.8847
  218MPD1    H7 3322   4.587   0.693  12.932 -0.8162  0.5125 -0.0111
  219MPD1     C 3323   0.748   0.123  12.174 -0.0101  0.0577 -0.1128
  219MPD1    C1 3324   0.637   0.193  12.200  0.2271  0.0106 -0.6627
  219MPD1    C2 3325   0.566   0.162  12.322 -0.1470  0.2000  0.2812
  219MPD1    C3 3326   0.618   0.068  12.406 -0.1010 -0.0886  0.1250
  219MPD1    C4 3327   0.734   4.721  12.376 -0.4216  0.2580  0.5104
  219MPD1    C5 3328   0.799   0.035  12.263 -0.0450  0.1826  0.3248
  219MPD1     H 3329   0.465   0.200  12.332  0.3069  0.8073  2.5001
  219MPD1    H1 3330   0.775   4.648  12.444 -3.4984 -1.3216  0.7015
  219MPD1    H2 3331   0.807   0.131  12.083 -0.9057 -0.9860 -0.8046
  219MPD1    H3 3332   0.891   4.708  12.235  1.2651  2.6432  0.2793
  219MPD1     N 3333   0.556   0.025  12.523 -0.4350  0.5473  0.1845
  219MPD1    H5 3334   0.603   4.677  12.578 -2.3888 -0.3037  0.7748
  219MPD1    N1 3335   0.603   0.282  12.097 -0.3422 -0.2512 -0.3666
  219MPD1    H6 3336   0.511   0.325  12.106 -0.9990 -1.8558  0.4763
  219MPD1    H7 3337   0.671   0.358  12.093 -0.6695  0.0215 -0.8000
  220MPD1     C 3338   0.044   0.279   9.736 -0.1356 -0.5602  0.0679
  220MPD1    C1 3339   0.004   0.182   9.830 -0.1600  0.1716  0.0418
  220MPD1    C2 3340   0.082   0.166   9.945 -0.2779  0.4009  0.3531
  220MPD1    C3 3341   0.189   0.252   9.971 -0.3781 -0.4328 -0.0184
  220MPD1    C4 3342   0.220   0.345   9.873  0.3763  0.7295  0.3510
  220MPD1    C5 3343   0.156   0.346   9.748  0.3079  0.1688 -0.7807
  220MPD1     H 3344   0.052   0.088  10.013 -1.6544  1.5337  1.0415
  220MPD1    H1 3345   0.291   0.426   9.890 -0.6173  1.6709  0.0512
  220MPD1    H2 3346   4.713   0.293   9.643  1.8863 -1.0640 -1.1866
  220MPD1    H3 3347   0.195   0.411   9.670  0.5413  1.7382  0.6313
  220MPD1     N 3348   0.268   0.235  10.088 -0.5424  0.3945  0.6567
  220MPD1    H5 3349   0.258   0.147  10.138 -0.7677 -0.4888 -0.9562
  220MPD1    N1 3350   4.638   0.077   9.802 -0.1345  0.4689 -0.3679
  220MPD1    H6 3351   4.577   0.062   9.881 -0.5827 -1.6668 -1.1198
  220MPD1    H7 3352   4.574   0.102   9.727 -2.2467 -0.5855  1.0899
  221MPD1     C 3353   2.750   4.472  16.983  0.2109 -0.2980  0.4675
  221MPD1    C1 3354   2.722   4.336  16.998  0.1755 -0.2224  0.5540
  221MPD1    C2 3355   2.786   4.247  16.919 -0.2408  0.2465 -0.3554
  221MPD1    C3 3356   2.895   4.286  16.845 -0.5862  0.1696  0.1570
  221MPD1    C4 3357   2.930   4.421  16.844 -0.3740  0.2676 -0.2309
  221MPD1    C5 3358   2.863   4.512  16.910 -0.4111  1.0554 -0.4364
  221MPD1     H 3359   2.743   4.147  16.921 -2.8862  1.3917  0.0799
  221MPD1    H1 3360   3.019   4.453  16.790  1.1024 -0.2172  1.8984
  221MPD1    H2 3361   2.693   4.547  17.037 -0.4280 -0.5200  0.1017
  221MPD1    H3 3362   2.888   4.617  16.900 -1.7390  1.2171 -2.0108
  221MPD1     N 3363   2.981   4.194  16.783  0.5341  0.3870 -0.3681
  221MPD1    H5 3364   3.069   4.227  16.744  1.3956  0.8310  1.9460
  221MPD1    N1 3365   2.613   4.289  17.072 -0.3595 -0.4343  0.1081
  221MPD1    H6 3366   2.616   4.190  17.095  0.2210 -0.4087  0.1311
  221MPD1    H7 3367   2.525   4.305  17.023  1.0294 -1.8871 -2.8571
  222MPD1     C 3368   2.835   2.782  16.709 -0.3711  0.6822 -0.0975
  222MPD1    C1 3369   2.921   2.742  16.809 -1.0229 -0.3246  0.6787
  222MPD1    C2 3370   2.950   2.823  16.925 -0.7329  0.0336  0.0061
  222MPD1    C3 3371   2.890   2.947  16.922  0.1854  0.2500  0.4784
  222MPD1    C4 3372   2.792   2.975  16.830  0.2180 -0.2663  0.9024
  222MPD1    C5 3373   2.769   2.901  16.721  0.3651 -0.1397  0.1114
  222MPD1     H 3374   3.020   2.791  17.001  0.5553  1.6384 -0.4940
  222MPD1    H1 3375   2.727   3.062  16.838 -1.0439 -1.1875  0.6737
  222MPD1    H2 3376   2.820   2.713  16.626  1.0562  0.1695  0.0732
  222MPD1    H3 3377   2.702   2.932  16.643  1.2808 -1.6548 -1.2692
  222MPD1     N 3378   2.913   3.038  17.025 -0.3144 -0.2435 -0.1194
  222MPD1    H5 3379   2.875   3.131  17.010 -0.2477 -0.3719 -1.0433
  222MPD1    N1 3380   2.999   2.628  16.794 -1.0176 -0.1525 -0.2122
  222MPD1    H6 3381   2.946   2.553  16.750 -3.4411  1.2162  0.3587
  222MPD1    H7 3382   3.034   2.593  16.883 -0.5029  0.8309 -0.0315
  223MPD1     C 3383   3.361   3.036   0.216 -0.0591 -0.5960  0.4374
  223MPD1    C1 3384   3.415   2.968   0.103 -0.4553 -1.2116 -0.0092
  223MPD1    C2 3385   3.383   3.030  17.671  0.1220 -0.4107  0.1483
  223MPD1    C3 3386   3.287   3.125  17.661 -0.2835 -0.2303 -0.2050
  223MPD1    C4 3387   3.224   3.171   0.082 -0.0380  0.2166 -0.3366
  223MPD1    C5 3388   3.255   3.119   0.204 -0.3903 -0.2514  0.2140
  223MPD1     H 3389   3.426   2.977  17.586 -1.7614  1.5117 -1.9854
  223MPD1    H1 3390   3.144   3.244   0.075 -0.8637 -0.8432 -1.9411
  223MPD1    H2 3391   3.392   3.010   0.316  2.1425  1.3038  0.2371
  223MPD1    H3 3392   3.227   3.161   0.300 -0.4200  0.5857 -0.1591
  223MPD1     N 3393   3.245   3.163  17.531  0.1637 -0.3391 -0.6563
  223MPD1    H5 3394   3.267   3.098  17.457  1.6490  0.4160 -0.8676
  223MPD1    N1 3395   3.514   2.872   0.111  0.0776 -0.0648 -0.7607
  223MPD1    H6 3396   3.517   2.811   0.030  2.6644 -1.4615  0.3754
  223MPD1    H7 3397   3.510   2.819   0.198  2.0197 -1.0173 -1.2625
  224MPD1     C 3398   3.689   0.530   8.960  0.1105  0.2766  0.7825
  224MPD1    C1 3399   3.743   0.406   8.953 -0.2487  0.5427 -0.2771
  224MPD1    C2 3400   3.788   0.338   9.070 -0.1354  0.7099  0.0975
  224MPD1    C3 3401   3.786   0.403   9.196  0.8132  0.3744 -0.6663
  224MPD1    C4 3402   3.733   0.533   9.199 -0.7835 -0.2450  0.1986
  224MPD1    C5 3403   3.687   0.595   9.081  0.2720  0.1034  0.3427
  224MPD1     H 3404   3.833   0.241   9.056  1.5411  1.6284 -0.9439
  224MPD1    H1 3405   3.710   0.590   9.289  1.2743  1.7855 -0.5703
  224MPD1    H2 3406   3.658   0.581   8.870  1.6122  1.4471  0.9214
  224MPD1    H3 3407   3.646   0.695   9.076 -0.4283 -0.0814  2.4747
  224MPD1     N 3408   3.819   0.335   9.314  0.3855  0.2805 -0.3781
  224MPD1    H5 3409   3.818   0.391   9.398  0.2895  0.1047 -0.2627
  224MPD1    N1 3410   3.729   0.345   8.825  0.6414 -0.1163 -0.1724
  224MPD1    H6 3411   3.748   0.408   8.748  2.1201 -1.5199 -0.9688
  224MPD1    H7 3412   3.797   0.269   8.823 -0.6116 -1.1758 -2.1221
  225MPD1     C 3413   0.316   0.976  13.070  0.0382 -0.1159 -0.3911
  225MPD1    C1 3414   0.288   0.843  13.041 -0.1836  0.2415 -0.0283
  225MPD1    C2 3415   0.202   0.817  12.937 -0.2539 -0.0355  0.5081
  225MPD1    C3 3416   0.159   0.922  12.847  0.3212 -0.0035  0.1815
  225MPD1    C4 3417   0.197   1.054  12.877  0.6206  0.7410  0.0879
  225MPD1    C5 3418   0.268   1.077  12.991  0.1094  0.4389  0.0969
  225MPD1     H 3419   0.176   0.713  12.920 -0.1212 -0.2208  1.4215
  225MPD1    H1 3420   0.165   1.137  12.814 -1.7150 -0.6665 -0.5574
  225MPD1    H2 3421   0.379   1.001  13.155  0.8022  1.6746 -1.4761
  225MPD1    H3 3422   0.302   1.179  13.007 -0.2508  0.8746 -2.0363
  225MPD1     N 3423   0.089   0.909  12.722 -0.2036  0.9137  0.9682
  225MPD1    H5 3424   0.069   0.996  12.672  0.8765  0.7674  0.2791
  225MPD1    N1 3425   0.317   0.742  13.134 -0.5739  0.3081  0.2507
  225MPD1    H6 3426   0.402   0.753  13.188 -1.1364 -2.0848  1.6572
  225MPD1    H7 3427   0.316   0.648  13.095  0.4141 -0.0422  1.0672
  226MPD1     C 3428   2.832   4.171   8.199 -0.5929 -0.0503 -0.5765
  226MPD1    C1 3429   2.939   4.092   8.251  0.1201 -0.3237 -0.0823
  226MPD1    C2 3430   3.033   4.153   8.337  0.5384 -0.0382 -0.2651
  226MPD1    C3 3431   3.016   4.282   8.374 -0.2138 -0.6034 -0.4340
  226MPD1    C4 3432   2.906   4.352   8.327 -1.1556 -0.3490 -0.1398
  226MPD1    C5 3433   2.816   4.298   8.241 -0.5117 -0.5644 -0.4165
  226MPD1     H 3434   3.115   4.096   8.381 -0.0038 -0.1173  0.6437
  226MPD1    H1 3435   2.895   4.459   8.340 -1.8330 -0.3419 -0.7915
  226MPD1    H2 3436   2.775   4.132   8.115  0.9333 -2.3726 -0.5441
  226MPD1    H3 3437   2.743   4.360   8.190 -1.0338  0.0023  1.0236
  226MPD1     N 3438   3.105   4.346   8.458 -0.1615  0.4906  0.1795
  226MPD1    H5 3439   3.181   4.289   8.492 -0.2858 -1.1023 -2.2172
  226MPD1    N1 3440   2.955   3.957   8.200 -0.2665  0.0747 -0.6552
  226MPD1    H6 3441   3.012   3.903   8.266  0.3654  1.2992 -0.2020
  226MPD1    H7 3442   2.866   3.908   8.209 -1.0629  1.6587 -0.0053
  227MPD1     C 3443   3.220   0.342   9.274 -0.7262  0.6250  0.4975
  227MPD1    C1 3444   3.348   0.321   9.212  0.6346 -0.6093 -0.1261
  227MPD1    C2 3445   3.357   0.241   9.106 -0.3577 -0.4161  0.6078
  227MPD1    C3 3446   3.258   0.165   9.058 -0.1594  0.6505 -0.2125
  227MPD1    C4 3447   3.134   0.175   9.117 -0.5567  0.3525  0.2999
  227MPD1    C5 3448   3.119   0.267   9.220  0.7469 -0.0926  0.8647
  227MPD1     H 3449   3.451   0.224   9.055 -1.2787  0.1509 -1.2709
  227MPD1    H1 3450   3.055   0.104   9.095  1.6044 -1.2790 -2.1608
  227MPD1    H2 3451   3.193   0.412   9.352  2.6995  1.6428  0.8061
  227MPD1    H3 3452   3.019   0.279   9.261 -0.3316  1.7002 -2.3203
  227MPD1     N 3453   3.276   0.085   8.943 -0.4363  0.3076  0.1505
  227MPD1    H5 3454   3.368   0.091   8.899  0.1848  0.5075  1.4590
  227MPD1    N1 3455   3.454   0.404   9.252 -0.5841  0.3525 -0.2620
  227MPD1    H6 3456   3.544   0.357   9.238 -1.3621 -0.8666 -1.1827
  227MPD1    H7 3457   3.443   0.434   9.348 -1.0679  1.7429 -0.7507
  228MPD1     C 3458   1.970   3.200  12.983 -0.1612  0.5600 -0.2475
  228MPD1    C1 3459   1.873   3.208  12.883  0.5298 -0.5726  0.9154
  228MPD1    C2 3460   1.739   3.192  12.923  0.4449 -0.1607 -0.4591
  228MPD1    C3 3461   1.692   3.179  13.049  0.0784  0.0575  0.5838
  228MPD1    C4 3462   1.793   3.166  13.150  0.3696 -0.1360  0.5309
  228MPD1    C5 3463   1.929   3.171  13.115 -0.2972 -0.5174 -0.4224
  228MPD1     H 3464   1.664   3.206  12.846 -0.3503  2.0888  0.7104
  228MPD1    H1 3465   1.772   3.163  13.256 -0.3929 -1.4128  0.3457
  228MPD1    H2 3466   2.073   3.209  12.951 -0.3928  0.0291 -1.1451
  228MPD1    H3 3467   2.011   3.160  13.185 -0.5013  0.5358 -0.0200
  228MPD1     N 3468   1.555   3.156  13.078  0.3420  0.0127 -0.0031
  228MPD1    H5 3469   1.488   3.154  13.001 -1.1690 -0.2589  1.3232
  228MPD1    N1 3470   1.908   3.255  12.756  0.0586 -0.3646  0.4349
  228MPD1    H6 3471   1.834   3.225  12.692  2.2817 -1.6681 -1.5172
  228MPD1    H7 3472   2.005   3.243  12.729 -0.5830 -1.3645 -1.4932
  229MPD1     C 3473   1.146   1.891  14.873 -0.2534 -0.3379  0.2369
  229MPD1    C1 3474   1.169   1.779  14.812  1.2009  0.1319  0.5161
  229MPD1    C2 3475   1.204   1.670  14.886 -0.2430 -0.2342 -0.0119
  229MPD1    C3 3476   1.199   1.672  15.023  0.0608  0.2762  0.6738
  229MPD1    C4 3477   1.162   1.789  15.083  0.6372 -0.0710  0.4821
  229MPD1    C5 3478   1.143   1.902  15.011 -0.3957  0.7727 -0.6509
  229MPD1     H 3479   1.231   1.578  14.835  0.7254 -0.1901  0.4153
  229MPD1    H1 3480   1.159   1.793  15.192  0.4008  0.4088  0.4577
  229MPD1    H2 3481   1.123   1.980  14.815  3.9532 -1.3121 -2.9687
  229MPD1    H3 3482   1.124   1.991  15.069  1.0803  0.9546 -0.4343
  229MPD1     N 3483   1.220   1.562  15.106 -0.2842  0.2097  0.0061
  229MPD1    H5 3484   1.208   1.582  15.205 -2.6469 -1.5317  0.0748
  229MPD1    N1 3485   1.170   1.770  14.670  0.2163  0.4296  0.3383
  229MPD1    H6 3486   1.155   1.676  14.632 -1.9688  0.8750  0.0669
  229MPD1    H7 3487   1.108   1.828  14.613  0.0656  0.9797  1.0706
  230MPD1     C 3488   1.784   1.548  15.906  0.3486 -0.0379  0.6678
  230MPD1    C1 3489   1.837   1.439  15.842  0.2478 -0.6318 -0.2335
  230MPD1    C2 3490   1.774   1.405  15.723 -0.2540 -0.3882  0.3690
  230MPD1    C3 3491   1.663   1.473  15.671  0.4340 -0.6250 -0.2965
  230MPD1    C4 3492   1.606   1.580  15.738  0.9619  0.1214 -0.4207
  230MPD1    C5 3493   1.676   1.615  15.854 -0.0725  0.4133 -0.5008
  230MPD1     H 3494   1.804   1.316  15.670 -0.4201  0.9726 -2.0407
  230MPD1    H1 3495   1.519   1.634  15.701  1.4323  0.3538 -1.1779
  230MPD1    H2 3496   1.815   1.565  16.009 -0.1088  0.7890  0.6647
  230MPD1    H3 3497   1.638   1.692  15.921  0.2685 -0.2232  0.4240
  230MPD1     N 3498   1.601   1.409  15.564  0.0955  0.4298  0.0142
  230MPD1    H5 3499   1.647   1.323  15.533 -0.7998 -0.1547  0.3093
  230MPD1    N1 3500   1.939   1.362  15.906 -0.2807 -0.0192  0.4596
  230MPD1    H6 3501   2.008   1.428  15.941 -0.0817  0.2151 -0.3907
  230MPD1    H7 3502   1.992   1.304  15.841  1.1194 -0.2431  1.8037
  231MPD1     C 3503   3.921   3.727  15.783 -0.1631 -0.5832  0.0622
  231MPD1    C1 3504   3.923   3.664  15.662 -0.3465  0.3037  0.0315
  231MPD1    C2 3505   4.043   3.652  15.605 -0.4727  0.4756 -0.5100
  231MPD1    C3 3506   4.164   3.699  15.654 -0.5649 -0.4902 -0.2134
  231MPD1    C4 3507   4.158   3.754  15.780  0.2860 -0.0791  0.1249
  231MPD1    C5 3508   4.035   3.770  15.841  0.1992 -0.3367 -0.3142
  231MPD1     H 3509   4.041   3.588  15.518  1.4299 -1.5123  0.9153
  231MPD1    H1 3510   4.245   3.776  15.842  0.0178  1.5460 -0.0816
  231MPD1    H2 3511   3.833   3.757  15.839  0.2575  0.3206  0.2551
  231MPD1    H3 3512   4.040   3.817  15.938  0.0363  1.3961 -1.1451
  231MPD1     N 3513   4.280   3.696  15.571  0.5750 -0.1184  0.1518
  231MPD1    H5 3514   4.254   3.662  15.479  1.9842  0.7673 -0.5590
  231MPD1    N1 3515   3.810   3.610  15.599 -0.2584  0.1378  0.0148
  231MPD1    H6 3516   3.835   3.600  15.501 -4.4902 -0.9107 -0.9461
  231MPD1    H7 3517   3.715   3.640  15.620  0.2303  0.7402  1.3771
  232MPD1     C 3518   1.898   2.809   0.598  0.6649 -0.0934 -0.4813
  232MPD1    C1 3519   1.789   2.738   0.637 -0.4214 -0.4643  0.1964
  232MPD1    C2 3520   1.810   2.609   0.677  0.0521 -0.0610  0.0287
  232MPD1    C3 3521   1.934   2.549   0.671 -0.2200  0.3592  0.7155
  232MPD1    C4 3522   2.043   2.621   0.622 -0.1577  0.5930 -1.0354
  232MPD1    C5 3523   2.025   2.755   0.596  0.6718 -0.6328  0.5564
  232MPD1     H 3524   1.725   2.550   0.709 -0.0450  0.0385 -0.0478
  232MPD1    H1 3525   2.138   2.572   0.603 -0.1492  0.5100 -0.7899
  232MPD1    H2 3526   1.890   2.914   0.574  0.2151  0.4352  2.0564
  232MPD1    H3 3527   2.105   2.819   0.560  0.4605 -0.0384  1.1452
  232MPD1     N 3528   1.941   2.406   0.702 -0.4802 -0.0630 -0.0167
  232MPD1    H5 3529   1.864   2.364   0.752  0.1738 -1.4942 -0.2205
  232MPD1    N1 3530   1.664   2.804   0.676 -0.0834  0.2370 -0.3321
  232MPD1    H6 3531   1.588   2.738   0.689  0.8912 -0.7853  0.2480
  232MPD1    H7 3532   1.638   2.879   0.613 -1.2747 -0.2056 -0.3570
  233MPD1     C 3533   2.595   3.563   2.521 -0.3750 -0.3092 -0.1211
  233MPD1    C1 3534   2.702   3.474   2.518 -0.2379 -0.8027  0.4386
  233MPD1    C2 3535   2.829   3.519   2.502  0.0536  0.0037  0.6557
  233MPD1    C3 3536   2.852   3.648   2.463  0.3235  0.8083  0.3162
  233MPD1    C4 3537   2.742   3.735   2.441  0.2450 -0.3066 -0.7510
  233MPD1    C5 3538   2.616   3.688   2.468 -0.9966 -0.2999 -0.6145
  233MPD1     H 3539   2.909   3.453   2.533 -0.6644  0.0243  2.5424
  233MPD1    H1 3540   2.758   3.835   2.403 -0.5584 -0.2339 -0.9001
  233MPD1    H2 3541   2.498   3.522   2.549 -0.4139  2.1059  3.2050
  233MPD1    H3 3542   2.523   3.744   2.461 -0.7040  0.4596  1.5786
  233MPD1     N 3543   2.975   3.704   2.431 -0.1332  0.5506 -0.0708
  233MPD1    H5 3544   2.995   3.802   2.412  2.4631  0.3148  1.5094
  233MPD1    N1 3545   2.685   3.342   2.566  0.3245  0.0147 -0.2095
  233MPD1    H6 3546   2.596   3.294   2.565  0.8282 -0.9575  0.8059
  233MPD1    H7 3547   2.749   3.272   2.529 -0.2753  0.2523 -1.6627
  234MPD1     C 3548   3.898   3.063   9.798 -0.2344 -0.4209  0.2482
  234MPD1    C1 3549   3.945   3.160   9.888  0.2335 -0.4739  0.5462
  234MPD1    C2 3550   3.983   3.286   9.841  0.7498  0.1851 -0.7508
  234MPD1    C3 3551   3.981   3.324   9.710  0.6128  0.9916 -0.0792
  234MPD1    C4 3552   3.936   3.224   9.619  0.4960 -0.0346  0.0051
  234MPD1    C5 3553   3.897   3.101   9.668  0.0162 -0.0915 -0.4490
  234MPD1     H 3554   4.022   3.359   9.911 -0.0512  0.5870 -0.7217
  234MPD1    H1 3555   3.922   3.239   9.512  0.6865 -0.0928 -0.0291
  234MPD1    H2 3556   3.875   2.963   9.835 -1.2153 -0.7629 -1.3097
  234MPD1    H3 3557   3.870   3.024   9.597 -1.9715  1.5108 -1.4448
  234MPD1     N 3558   4.015   3.457   9.678 -0.0671  0.2932  0.7153
  234MPD1    H5 3559   4.048   3.512   9.757  4.7591  3.4841 -3.5732
  234MPD1    N1 3560   3.964   3.120  10.021 -0.3125 -0.3523  0.1683
  234MPD1    H6 3561   3.948   3.197  10.086 -1.7921 -1.1291  0.7335
  234MPD1    H7 3562   3.886   3.056  10.037 -0.7413 -0.3517 -1.9093
  235MPD1     C 3563   0.833   0.852  10.418 -0.6297  0.7058  0.2628
  235MPD1    C1 3564   0.837   0.934  10.306  0.5154  0.0195  0.9048
  235MPD1    C2 3565   0.890   1.065  10.315  0.0516  0.2482  0.3490
  235MPD1    C3 3566   0.947   1.112  10.440  0.4390 -0.1264  0.9520
  235MPD1    C4 3567   0.942   1.018  10.544 -0.1465  0.1643 -0.3483
  235MPD1    C5 3568   0.884   0.902  10.538  0.0957  0.0844 -0.1659
  235MPD1     H 3569   0.897   1.129  10.227  0.1126  0.5055  0.5395
  235MPD1    H1 3570   0.986   1.033  10.643  0.5607  0.8092 -0.7629
  235MPD1    H2 3571   0.804   0.748  10.420 -1.0991  0.8323  0.2058
  235MPD1    H3 3572   0.870   0.843  10.627 -1.6808  1.0477  0.1950
  235MPD1     N 3573   1.001   1.244  10.451  0.5079 -0.6153 -0.0318
  235MPD1    H5 3574   1.009   1.300  10.367  1.4449  0.6386  0.8868
  235MPD1    N1 3575   0.807   0.874  10.181 -0.0883 -0.6056 -0.3692
  235MPD1    H6 3576   0.745   0.794  10.185 -0.9445 -0.0367 -2.6150
  235MPD1    H7 3577   0.773   0.941  10.113  1.4854 -0.7977 -1.3533
  236MPD1     C 3578   0.479   2.383  10.230  0.4109 -0.6719 -0.4169
  236MPD1    C1 3579   0.370   2.308  10.225  0.2045  0.2219  1.0114
  236MPD1    C2 3580   0.369   2.192  10.303  0.6374  0.3292  0.6678
  236MPD1    C3 3581   0.482   2.148  10.372 -0.3428  0.2291 -0.1411
  236MPD1    C4 3582   0.599   2.227  10.368 -0.4903  0.5584  0.7283
  236MPD1    C5 3583   0.593   2.343  10.294 -0.1464 -0.2907 -0.2436
  236MPD1     H 3584   0.277   2.134  10.301  0.5821  0.4580 -0.2846
  236MPD1    H1 3585   0.692   2.208  10.419 -0.0962  0.7230  0.0693
  236MPD1    H2 3586   0.479   2.483  10.189 -1.6801 -1.1458 -1.5437
  236MPD1    H3 3587   0.677   2.410  10.309  0.1559 -1.1358  1.9663
  236MPD1     N 3588   0.492   2.030  10.436 -0.9898 -0.6452 -0.0868
  236MPD1    H5 3589   0.582   2.008  10.479  0.5584  2.1886 -1.9132
  236MPD1    N1 3590   0.253   2.359  10.166  0.4574 -0.3603 -0.4245
  236MPD1    H6 3591   0.273   2.428  10.093 -0.5124  1.6757  1.2275
  236MPD1    H7 3592   0.187   2.286  10.143 -0.9196  1.0250 -0.9067
  237MPD1     C 3593   0.057   0.898  15.860  0.9522  0.0007  0.1066
  237MPD1    C1 3594   4.715   0.836  15.962 -0.2309 -0.2692 -0.8239
  237MPD1    C2 3595   4.668   0.708  15.939 -0.0293  0.6392 -0.1661
  237MPD1    C3 3596   4.670   0.652  15.805 -0.2519 -0.5120 -1.0173
  237MPD1    C4 3597   4.721   0.719  15.703 -0.0525  0.0017  0.3122
  237MPD1    C5 3598   0.047   0.846  15.732 -0.0604  0.1916 -0.1031
  237MPD1     H 3599   4.643   0.648  16.026  1.8881 -2.0063 -1.4381
  237MPD1    H1 3600   0.016   0.684  15.602  1.3828  0.9908  0.2129
  237MPD1    H2 3601   0.107   0.994  15.868 -0.5861  0.8084  0.1000
  237MPD1    H3 3602   0.092   0.910  15.657 -0.1790 -0.3367 -0.6231
  237MPD1     N 3603   4.621   0.526  15.778 -0.5126 -0.4324  0.0987
  237MPD1    H5 3604   4.617   0.497  15.681 -2.0756  0.0195  0.0309
  237MPD1    N1 3605   4.719   0.890  16.097  0.8016 -0.6613  0.3812
  237MPD1    H6 3606   4.696   0.989  16.092  1.5521 -0.6154 -2.1922
  237MPD1    H7 3607   4.647   0.850  16.157 -0.1660 -0.8531 -0.9198
  238MPD1     C 3608   1.548   3.919  15.445  0.1993  0.1760  0.0454
  238MPD1    C1 3609   1.591   3.999  15.338 -0.0228 -0.2005 -0.0433
  238MPD1    C2 3610   1.510   4.004  15.218  0.0965  0.5059  0.3505
  238MPD1    C3 3611   1.394   3.926  15.220 -1.0588 -0.0200  0.1512
  238MPD1    C4 3612   1.362   3.850  15.327  0.8448  0.3443  0.4980
  238MPD1    C5 3613   1.437   3.838  15.435  0.5096  0.2827  0.1788
  238MPD1     H 3614   1.521   4.072  15.135  1.5916  0.2178  0.3088
  238MPD1    H1 3615   1.271   3.790  15.320  0.9991 -0.0023  1.5483
  238MPD1    H2 3616   1.614   3.916  15.531 -1.0604 -1.7359  0.9513
  238MPD1    H3 3617   1.400   3.784  15.521 -0.2441 -0.9950 -0.9489
  238MPD1     N 3618   1.297   3.932  15.122 -0.4377  0.6637 -0.8666
  238MPD1    H5 3619   1.209   3.884  15.138 -0.1892  1.0478  1.6663
  238MPD1    N1 3620   1.696   4.093  15.360  0.1903 -1.1890 -0.1470
  238MPD1    H6 3621   1.757   4.069  15.437 -0.0614  1.5211  0.8794
  238MPD1    H7 3622   1.750   4.115  15.276 -0.8492  0.3996 -0.3947
  239MPD1     C 3623   2.309   4.209  15.065  0.1422 -0.4518  0.3853
  239MPD1    C1 3624   2.172   4.199  15.087 -0.1312 -0.1424  0.2036
  239MPD1    C2 3625   2.086   4.256  14.999 -0.3298 -0.5546 -0.5355
  239MPD1    C3 3626   2.128   4.310  14.882  0.7502 -0.7693  0.1643
  239MPD1    C4 3627   2.265   4.308  14.857 -0.0399  0.5570 -0.1190
  239MPD1    C5 3628   2.356   4.265  14.951 -0.6834  0.3283  0.2763
  239MPD1     H 3629   1.984   4.264  15.036 -0.0807  1.2723 -0.2076
  239MPD1    H1 3630   2.302   4.358  14.768  0.9070 -0.4914 -0.3309
  239MPD1    H2 3631   2.383   4.176  15.137  0.8526 -1.4591 -0.8238
  239MPD1    H3 3632   2.463   4.279  14.940 -0.9193 -0.6227 -3.2590
  239MPD1     N 3633   2.049   4.381  14.790  0.8349 -0.3355 -0.5752
  239MPD1    H5 3634   2.104   4.408  14.709 -0.3272  0.2524 -1.1724
  239MPD1    N1 3635   2.125   4.144  15.207 -0.2975 -0.3734 -0.2013
  239MPD1    H6 3636   2.039   4.091  15.192  0.4983 -1.1743 -1.8799
  239MPD1    H7 3637   2.193   4.083  15.251  0.0275  0.0687 -0.0890
  240MPD1     C 3638   0.831   4.079  13.438  0.1111  0.0655  0.3993
  240MPD1    C1 3639   0.729   4.071  13.532 -0.1154  0.3219 -0.6273
  240MPD1    C2 3640   0.769   4.085  13.664 -0.4397  0.0894  0.6849
  240MPD1    C3 3641   0.904   4.112  13.692 -0.5316  0.1971 -0.2743
  240MPD1    C4 3642   1.000   4.129  13.597  0.1288 -0.4778 -1.0029
  240MPD1    C5 3643   0.959   4.119  13.464  0.1283 -0.1587 -0.3280
  240MPD1     H 3644   0.692   4.065  13.737 -0.2811  0.3291  0.9156
  240MPD1    H1 3645   1.106   4.147  13.617 -0.4381  1.6700  0.0467
  240MPD1    H2 3646   0.818   4.047  13.335  0.6421  1.2135 -0.0271
  240MPD1    H3 3647   1.034   4.117  13.386 -0.8396  0.3745 -1.2802
  240MPD1     N 3648   0.929   4.114  13.829 -0.3576 -0.0909 -0.1119
  240MPD1    H5 3649   0.844   4.101  13.883  0.1034  0.8743  0.8400
  240MPD1    N1 3650   0.604   4.014  13.506  0.3250  0.1392 -0.6313
  240MPD1    H6 3651   0.573   4.035  13.411  0.3420 -1.3144 -0.9690
  240MPD1    H7 3652   0.534   4.041  13.574 -1.5641 -1.0426 -2.0838
  241MPD1     C 3653   1.489   4.266  14.767  0.0555  0.0797  0.4336
  241MPD1    C1 3654   1.549   4.226  14.656  1.1031 -0.2697 -0.2962
  241MPD1    C2 3655   1.463   4.209  14.549  0.3396 -0.5668  0.0052
  241MPD1    C3 3656   1.321   4.254  14.557 -0.4245 -0.1556 -0.4211
  241MPD1    C4 3657   1.278   4.308  14.676 -0.0516  1.1539  0.3031
  241MPD1    C5 3658   1.365   4.322  14.774  0.6034  0.2434 -0.2125
  241MPD1     H 3659   1.497   4.162  14.457 -1.1565 -0.4973 -0.5787
  241MPD1    H1 3660   1.174   4.329  14.699 -0.6240 -0.3453 -0.8562
  241MPD1    H2 3661   1.543   4.268  14.862  0.1291  1.1566  0.3694
  241MPD1    H3 3662   1.325   4.351  14.870 -3.1746 -0.9518 -1.4409
  241MPD1     N 3663   1.230   4.227  14.450 -0.7369  0.2491  0.1824
  241MPD1    H5 3664   1.131   4.238  14.468 -0.4185  0.9818  1.4132
  241MPD1    N1 3665   1.682   4.174  14.657 -0.5901  0.5189 -0.5145
  241MPD1    H6 3666   1.739   4.229  14.721  0.2279 -1.2206  0.2466
  241MPD1    H7 3667   1.726   4.181  14.565  0.0774 -2.1599 -0.3853
  242MPD1     C 3668   0.497   2.904  15.819  0.3574  0.2399  0.0509
  242MPD1    C1 3669   0.568   2.996  15.739  1.1488  0.0081 -0.6448
  242MPD1    C2 3670   0.666   2.950  15.662  0.0518 -0.3220 -0.4153
  242MPD1    C3 3671   0.682   2.822  15.625  0.1804  0.7928  0.9652
  242MPD1    C4 3672   0.594   2.730  15.686 -0.0867  0.0520  0.5185
  242MPD1    C5 3673   0.506   2.769  15.788  0.4451  0.1113 -0.3036
  242MPD1     H 3674   0.738   3.015  15.614  0.8901 -1.9431 -1.3485
  242MPD1    H1 3675   0.607   2.624  15.669  0.4881 -0.2306  2.7710
  242MPD1    H2 3676   0.427   2.938  15.894  0.2320  2.0948 -0.9012
  242MPD1    H3 3677   0.445   2.692  15.834  0.3774  0.3972  0.0848
  242MPD1     N 3678   0.779   2.771  15.534 -0.0018  0.0316  0.3248
  242MPD1    H5 3679   0.767   2.672  15.519 -0.7809  0.0109  1.0963
  242MPD1    N1 3680   0.564   3.133  15.770 -0.1076  0.1544 -0.4817
  242MPD1    H6 3681   0.477   3.183  15.788 -0.2902  0.1421 -1.3280
  242MPD1    H7 3682   0.619   3.181  15.699 -0.0715  1.4157  0.3946
  243MPD1     C 3683   2.141   1.325   0.435 -0.1143  0.8363  0.2014
  243MPD1    C1 3684   2.276   1.288   0.452  0.3680  0.0862  0.4430
  243MPD1    C2 3685   2.337   1.202   0.354 -0.5987 -0.0098 -0.0122
  243MPD1    C3 3686   2.259   1.139   0.264  0.7260  0.6528  0.0861
  243MPD1    C4 3687   2.124   1.161   0.261 -0.1691 -0.6448 -0.3029
  243MPD1    C5 3688   2.062   1.253   0.342 -0.0433 -0.5053 -0.5507
  243MPD1     H 3689   2.444   1.182   0.350 -0.1620  2.4327 -0.6812
  243MPD1    H1 3690   2.060   1.110   0.189 -0.0113  1.8530 -2.2451
  243MPD1    H2 3691   2.099   1.404   0.496  0.4770  0.1968  1.4401
  243MPD1    H3 3692   1.956   1.274   0.328  0.4714  2.3346 -0.2175
  243MPD1     N 3693   2.320   1.047   0.173  0.2186  0.0993 -0.4782
  243MPD1    H5 3694   2.418   1.021   0.178  0.1075  0.1213  2.0244
  243MPD1    N1 3695   2.355   1.353   0.543  0.3265  0.3978 -0.6027
  243MPD1    H6 3696   2.309   1.393   0.625  0.1044 -0.3964 -0.3491
  243MPD1    H7 3697   2.435   1.297   0.572 -1.2039 -1.3258  0.2564
  244MPD1     C 3698   2.890   0.494   0.440 -0.4121  0.1006  0.3810
  244MPD1    C1 3699   2.822   0.607   0.475 -0.2812 -0.4658 -0.6379
  244MPD1    C2 3700   2.721   0.657   0.395 -0.0451 -0.4227  0.1672
  244MPD1    C3 3701   2.704   0.601   0.270  0.3899  0.0286  0.1151
  244MPD1    C4 3702   2.762   0.478   0.241  0.2238 -0.1009 -0.1910
  244MPD1    C5 3703   2.854   0.425   0.330  0.1069  0.8999  0.1445
  244MPD1     H 3704   2.669   0.749   0.417  1.2161  0.3698 -0.1249
  244MPD1    H1 3705   2.746   0.432   0.144 -1.3664 -0.5025  0.2746
  244MPD1    H2 3706   2.973   0.460   0.500  0.0066  0.0300 -0.2364
  244MPD1    H3 3707   2.915   0.344   0.290 -0.4900  0.0914  0.8599
  244MPD1     N 3708   2.619   0.676   0.180  0.1154 -0.4734 -0.3591
  244MPD1    H5 3709   2.595   0.771   0.205  1.6199 -0.6285  1.6438
  244MPD1    N1 3710   2.872   0.691   0.575 -0.1421 -0.2483 -0.4949
  244MPD1    H6 3711   2.909   0.776   0.533 -0.5909  0.3051  0.2252
  244MPD1    H7 3712   2.948   0.653   0.630  1.6351  2.6430 -0.9377
  245MPD1     C 3713   4.135   1.884  13.311 -0.2102 -0.1545 -0.4660
  245MPD1    C1 3714   4.104   2.020  13.318 -0.1716  0.0377  0.5226
  245MPD1    C2 3715   4.204   2.107  13.324  0.0070 -0.0495 -0.4273
  245MPD1    C3 3716   4.333   2.067  13.352 -0.0558  0.1017  0.0845
  245MPD1    C4 3717   4.363   1.926  13.353  0.1065 -0.0797 -0.2117
  245MPD1    C5 3718   4.262   1.838  13.334 -0.0646 -0.7412  0.2564
  245MPD1     H 3719   4.181   2.213  13.319 -0.4298 -0.1900 -1.3564
  245MPD1    H1 3720   4.463   1.885  13.364 -0.2635 -1.0468 -0.4102
  245MPD1    H2 3721   4.059   1.810  13.287  0.8514 -0.8273 -1.7264
  245MPD1    H3 3722   4.272   1.731  13.325 -0.3625 -1.0068  3.0527
  245MPD1     N 3723   4.423   2.168  13.386  0.5511  0.5471 -0.1151
  245MPD1    H5 3724   4.386   2.261  13.371 -0.9628  0.0111  0.2336
  245MPD1    N1 3725   3.976   2.065  13.278  0.3024 -0.2507  0.1643
  245MPD1    H6 3726   3.953   2.162  13.301  1.2901 -0.1086  0.5565
  245MPD1    H7 3727   3.903   2.006  13.316 -0.4049  0.0527 -0.7083
  246MPD1     C 3728   0.120   4.253   9.537  0.1938 -0.5568  0.4549
  246MPD1    C1 3729   0.195   4.142   9.576 -0.5133 -0.3842  0.3011
  246MPD1    C2 3730   0.168   4.027   9.512 -0.2112 -0.3570  0.5352
  246MPD1    C3 3731   0.088   4.029   9.398  0.0411  0.6688 -0.0741
  246MPD1    C4 3732   0.014   4.142   9.358 -0.1436  0.0282  0.6045
  246MPD1    C5 3733   0.027   4.257   9.438 -0.4161 -0.0098 -0.2736
  246MPD1     H 3734   0.221   3.937   9.541  0.8126  0.3252  0.7703
  246MPD1    H1 3735   4.664   4.147   9.278 -1.6660 -0.6013  1.9527
  246MPD1    H2 3736   0.135   4.349   9.586 -0.3344  0.0881 -0.6609
  246MPD1    H3 3737   4.695   4.349   9.424 -0.2614  0.2987  1.1219
  246MPD1     N 3738   0.077   3.904   9.327  0.0995 -0.2487 -0.2632
  246MPD1    H5 3739   0.118   3.820   9.368  0.5287  0.3117  0.4538
  246MPD1    N1 3740   0.273   4.152   9.696 -0.2515  0.0776 -0.4371
  246MPD1    H6 3741   0.356   4.094   9.694 -0.0330  0.3098  1.9568
  246MPD1    H7 3742   0.285   4.251   9.719  1.2594 -0.1146 -0.4559
  247MPD1     C 3743   2.666   1.951  16.629 -0.3272 -0.0149 -0.4408
  247MPD1    C1 3744   2.720   1.978  16.508  0.6384 -0.2385  0.2291
  247MPD1    C2 3745   2.858   1.972  16.494  0.3728  0.3671 -0.1713
  247MPD1    C3 3746   2.936   1.940  16.601 -0.3343  0.4961  0.0337
  247MPD1    C4 3747   2.874   1.922  16.722 -0.3567  0.5834 -0.0588
  247MPD1    C5 3748   2.742   1.924  16.732  0.2445 -0.2086  0.1431
  247MPD1     H 3749   2.901   1.990  16.396 -4.0512 -2.1253 -2.5870
  247MPD1    H1 3750   2.941   1.895  16.804  0.6702  0.2966 -0.9862
  247MPD1    H2 3751   2.559   1.968  16.641 -0.1619  0.3405  0.5029
  247MPD1    H3 3752   2.697   1.910  16.830  1.4096  1.1801  0.8724
  247MPD1     N 3753   3.075   1.950  16.595 -0.2146 -0.0775 -0.1693
  247MPD1    H5 3754   3.121   1.936  16.685 -0.4659  3.8251  0.5523
  247MPD1    N1 3755   2.628   1.996  16.403 -0.0442 -0.5951 -0.0443
  247MPD1    H6 3756   2.540   2.042  16.427  0.5365  0.8628 -0.6613
  247MPD1    H7 3757   2.651   2.059  16.326 -0.9435  1.3202  1.2574
  248MPD1     C 3758   4.666   4.533   0.626  0.4990 -1.5224  0.3557
  248MPD1    C1 3759   0.071   4.577   0.581 -0.4621 -0.1252 -0.4801
  248MPD1    C2 3760   0.068   4.687   0.495 -0.1020  0.4016 -0.3432
  248MPD1    C3 3761   4.682   0.050   0.487  0.3550 -0.1419  0.2307
  248MPD1    C4 3762   4.562   0.015   0.547  0.1411 -0.3133  0.0335
  248MPD1    C5 3763   4.556   4.613   0.615  0.0689  0.8815 -0.2680
  248MPD1     H 3764   0.164   0.001   0.460  0.3990 -2.4455 -1.9480
  248MPD1    H1 3765   4.474   0.078   0.546  0.5702  0.2930  0.4587
  248MPD1    H2 3766   4.645   4.446   0.686 -0.7093 -0.0896  1.9970
  248MPD1    H3 3767   4.474   4.583   0.680 -0.1170 -0.8567 -1.3097
  248MPD1     N 3768   4.707   0.172   0.419 -0.5718 -0.5441  0.2912
  248MPD1    H5 3769   0.079   0.182   0.385 -0.5460 -1.4100  0.1068
  248MPD1    N1 3770   0.185   4.499   0.581 -0.2728  0.1850 -0.1835
  248MPD1    H6 3771   0.273   4.549   0.596  0.0625 -0.2481 -0.7057
  248MPD1    H7 3772   0.177   4.418   0.642  1.0755 -0.6394 -1.0942
  249MPD1     C 3773   1.053   4.698  10.287  0.4006  0.4008  0.2418
  249MPD1    C1 3774   1.042   4.650  10.155 -0.4700  0.0898  0.8539
  249MPD1    C2 3775   1.079   0.011  10.055 -0.0324 -0.1953  0.2717
  249MPD1    C3 3776   1.122   0.143  10.080 -0.0491 -0.2144 -0.3668
  249MPD1    C4 3777   1.120   0.189  10.209 -0.6214  0.3676 -0.6880
  249MPD1    C5 3778   1.086   0.107  10.314 -0.0038  0.2182  0.0714
  249MPD1     H 3779   1.085   4.699   9.952 -0.6068 -0.0520  0.1857
  249MPD1    H1 3780   1.152   0.290  10.231 -3.9222  1.0901  0.6998
  249MPD1    H2 3781   1.014   4.632  10.363  0.2788  2.3194  1.8572
  249MPD1    H3 3782   1.079   0.155  10.411  1.3014  0.4288  0.0539
  249MPD1     N 3783   1.172   0.219   9.975 -0.3236  0.1104  0.6275
  249MPD1    H5 3784   1.177   0.167   9.887  1.1994  0.6682  0.3811
  249MPD1    N1 3785   1.019   4.513  10.124  0.1014  0.3541 -0.6640
  249MPD1    H6 3786   0.954   4.483  10.195 -0.9789  0.5795 -1.5557
  249MPD1    H7 3787   0.972   4.496  10.035 -0.1564 -1.7089 -0.1184
  250MPD2     C 3788   2.488   0.384  13.721  0.5270 -0.0902 -0.0497
  250MPD2    C1 3789   2.530   0.394  13.586 -0.3847 -0.5322 -0.1864
  250MPD2    C2 3790   2.501   0.284  13.499  0.1785 -1.0416  0.3738
  250MPD2    C3 3791   2.440   0.168  13.554  0.4499  0.1489 -0.2598
  250MPD2    C4 3792   2.412   0.167  13.688  0.4058 -0.1933 -0.3986
  250MPD2    C5 3793   2.439   0.269  13.770 -0.1853  0.3165  0.5480
  250MPD2     H 3794   2.524   0.280  13.393 -0.5965 -0.4301  0.1780
  250MPD2    H1 3795   2.385   0.072  13.731 -3.3835 -0.0039 -2.3634
  250MPD2    H2 3796   2.515   0.464  13.788  0.5197  0.3545 -0.5745
  250MPD2    H3 3797   2.420   0.251  13.875  0.9402 -0.4360  0.6193
  250MPD2     N 3798   2.425   0.047  13.481 -0.0190  0.1099  0.9420
  250MPD2    H5 3799   2.396   4.688  13.533  0.9289 -0.4816  0.5540
  250MPD2    N1 3800   2.590   0.518  13.543  0.3146 -0.6830  0.1780
  250MPD2    H7 3801   2.588   0.596  13.608  0.6370 -0.1478 -0.4690
  251TMC3    C1 3802   2.699   0.657  13.377  0.4718 -0.0089 -0.4579
  251TMC3    C2 3803   2.672   0.764  13.453  0.3988  0.2873  0.0832
  251TMC3    C3 3804   2.707   0.891  13.404  0.4889  0.3383 -0.2114
  251TMC3    C4 3805   2.787   0.659  13.270 -0.2897  0.8373 -0.4681
  251TMC3    C5 3806   2.822   0.782  13.223 -0.0446 -0.1371  0.5746
  251TMC3    C6 3807   2.769   0.898  13.279  0.0659 -0.1987 -0.5652
  251TMC3     C 3808   2.660   0.530  13.421  0.8274  0.1165  0.1010
  251TMC3     O 3809   2.699   0.435  13.359 -0.7130 -0.4031 -0.5497
  251TMC3     H 3810   2.610   0.758  13.542 -0.8194 -1.3337 -0.8892
  251TMC3    H1 3811   2.826   0.569  13.226 -0.6851 -0.2321  1.3571
  251TMC3    H2 3812   2.800   0.994  13.239 -0.0862 -0.6094 -1.6777
  251TMC3    C7 3813   2.942   0.784  13.145  0.3410 -0.2341  0.2912
  251TMC3    C8 3814   2.642   1.003  13.461  0.0378  0.6342 -0.3701
  251TMC3    O1 3815   2.977   0.679  13.102 -0.3588 -0.7363  0.0789
  251TMC3    O2 3816   2.613   0.993  13.580  0.1761 -0.0231  0.7737
  252TMC3    C1 3817   2.982   1.961   9.257  0.2877  0.0604  0.1604
  252TMC3    C2 3818   3.109   2.001   9.284 -0.1598  0.0079 -0.3364
  252TMC3    C3 3819   3.151   2.001   9.414  0.2745 -0.3716 -1.0118
  252TMC3    C4 3820   2.902   1.902   9.346 -0.2672  0.0786  0.0227
  252TMC3    C5 3821   2.948   1.897   9.477  0.3737  0.6790 -0.0014
  252TMC3    C6 3822   3.070   1.951   9.515 -0.2867  0.1470 -0.5952
  252TMC3     C 3823   2.937   1.967   9.119 -1.3550 -0.4036 -0.3827
  252TMC3     O 3824   3.016   1.982   9.030 -0.1905 -0.2321 -0.2615
  252TMC3     H 3825   3.157   2.045   9.198  0.5045 -1.6474 -0.7964
  252TMC3    H1 3826   2.808   1.854   9.319 -0.1678 -1.1071  1.7290
  252TMC3    H2 3827   3.104   1.950   9.618 -3.6909 -0.1489  0.5498
  252TMC3    C7 3828   2.894   1.780   9.558  0.2683  1.0220 -0.0216
  252TMC3    C8 3829   3.255   2.100   9.429  0.1803  0.8290 -0.4692
  252TMC3    O1 3830   2.789   1.728   9.516  0.1071  0.3365  0.1929
  252TMC3    O2 3831   3.291   2.175   9.340  0.0118  0.0566  0.7140
  253MPD2     C 3832   3.696   0.308  15.347 -0.3533  0.2957  0.2005
  253MPD2    C1 3833   3.613   0.275  15.451 -0.2057 -0.1456 -1.1591
  253MPD2    C2 3834   3.615   0.352  15.567  0.0863  0.0374 -0.8679
  253MPD2    C3 3835   3.707   0.455  15.578 -0.4029 -0.8384 -0.4555
  253MPD2    C4 3836   3.790   0.486  15.467  0.0025 -0.2924 -0.1156
  253MPD2    C5 3837   3.783   0.411  15.354 -1.1606  0.6150  0.3724
  253MPD2     H 3838   3.543   0.327  15.644  1.3290  1.5197  0.7899
  253MPD2    H1 3839   3.869   0.560  15.468  0.1798 -0.4673 -1.4437
  253MPD2    H2 3840   3.692   0.251  15.254 -2.4124 -0.2292  0.6043
  253MPD2    H3 3841   3.829   0.439  15.260 -1.1020  1.5223  0.6678
  253MPD2     N 3842   3.709   0.548  15.688  0.5956 -0.2230 -0.4187
  253MPD2    H5 3843   3.772   0.627  15.677 -0.0824  0.2995 -0.5532
  253MPD2    N1 3844   3.498   0.182  15.442 -0.0143  0.0489  0.2970
  253MPD2    H7 3845   3.428   0.170  15.515 -0.8960 -2.5697 -0.9860
  254TMC3    C1 3846   3.712   0.598  15.907 -0.6086 -0.4321 -0.0969
  254TMC3    C2 3847   3.681   0.732  15.885  0.1522 -0.2977 -0.6781
  254TMC3    C3 3848   3.716   0.820  15.978  0.1465 -0.2707 -0.6273
  254TMC3    C4 3849   3.763   0.550  16.024  0.0065  0.4706  0.3740
  254TMC3    C5 3850   3.800   0.646  16.114 -0.2129 -0.2097  0.1686
  254TMC3    C6 3851   3.778   0.779  16.098 -0.0022  1.1724 -0.9064
  254TMC3     C 3852   3.673   0.501  15.810  0.1998  0.6838  0.0603
  254TMC3     O 3853   3.657   0.385  15.842 -0.7322 -0.7552  0.2635
  254TMC3     H 3854   3.636   0.759  15.791  1.5087  0.2633 -1.1661
  254TMC3    H1 3855   3.764   0.446  16.054 -3.6696  0.1525 -0.6156
  254TMC3    H2 3856   3.799   0.852  16.176  3.3793 -0.2980 -0.4340
  254TMC3    C7 3857   3.863   0.605  16.240  0.1459 -0.2233 -0.3008
  254TMC3    C8 3858   3.613   0.917  16.010  0.4727  0.1843 -0.4985
  254TMC3    O1 3859   3.810   0.509  16.293  0.4874 -0.4366 -0.2766
  254TMC3    O2 3860   3.597   0.934  16.134  0.2618  0.3029 -0.7384
  255MPD2     C 3861   1.518   3.417  10.179  0.5946 -0.2361  0.5003
  255MPD2    C1 3862   1.631   3.438  10.105 -0.1742 -0.4579 -0.4723
  255MPD2    C2 3863   1.719   3.328  10.088 -0.0373  0.3469  0.1472
  255MPD2    C3 3864   1.699   3.212  10.157 -0.5964 -0.1968 -0.9257
  255MPD2    C4 3865   1.591   3.201  10.238 -0.3498  0.0157 -0.0371
  255MPD2    C5 3866   1.500   3.302  10.247  0.3307 -0.2188  0.1344
  255MPD2     H 3867   1.815   3.338  10.037 -0.2386  0.9040 -0.1279
  255MPD2    H1 3868   1.570   3.119  10.305 -0.5040 -0.1052 -0.2347
  255MPD2    H2 3869   1.451   3.499  10.206  1.7872  0.4456  1.4271
  255MPD2    H3 3870   1.426   3.289  10.326  2.6622 -2.4619  1.9638
  255MPD2     N 3871   1.802   3.113  10.154 -0.3421  0.2310  0.2168
  255MPD2    H5 3872   1.886   3.130  10.101  1.0011 -0.1560  2.2276
  255MPD2    N1 3873   1.653   3.558  10.038  0.0576 -0.4548  0.2820
  255MPD2    H7 3874   1.600   3.640  10.066 -2.2786 -2.4551  1.6736
  256TMC3    C1 3875   1.775   3.732   9.914 -0.2748 -1.1503  0.2117
  256TMC3    C2 3876   1.860   3.769   9.811 -0.1328  0.1795  0.2581
  256TMC3    C3 3877   1.878   3.908   9.792  0.8042 -0.9545  0.6488
  256TMC3    C4 3878   1.720   3.826  10.001  0.5052  0.1982 -0.7731
  256TMC3    C5 3879   1.737   3.953   9.963  0.3422 -0.4765 -0.2098
  256TMC3    C6 3880   1.818   4.001   9.871 -0.6113  0.0569  0.0064
  256TMC3     C 3881   1.755   3.591   9.947  0.9226 -0.0654  0.1500
  256TMC3     O 3882   1.831   3.521   9.886  0.2916 -0.3954 -0.1339
  256TMC3     H 3883   1.902   3.695   9.744 -1.4050  0.3747 -0.7582
  256TMC3    H1 3884   1.682   3.801  10.099 -0.6523 -1.4260 -1.6316
  256TMC3    H2 3885   1.844   4.106   9.877 -3.5698  0.6682  2.4698
  256TMC3    C7 3886   1.708   4.062  10.060  0.2402 -0.2306 -0.3610
  256TMC3    C8 3887   1.994   3.938   9.714 -0.2296  0.4161 -0.5138
  256TMC3    O1 3888   1.802   4.097  10.128  0.2101 -0.3968  0.4744
  256TMC3    O2 3889   2.059   3.842   9.677 -0.1042 -0.1264 -0.3870
  257MPD2     C 3890   1.753   0.434  13.494  0.4431 -0.1659  0.2492
  257MPD2    C1 3891   1.767   0.333  13.403  0.0987 -0.1439 -0.4542
  257MPD2    C2 3892   1.759   0.205  13.450 -0.8556 -0.0781  0.1088
  257MPD2    C3 3893   1.738   0.173  13.582 -0.1159  0.5570  0.3835
  257MPD2    C4 3894   1.718   0.275  13.674  0.0897  0.3992 -0.3208
  257MPD2    C5 3895   1.740   0.399  13.624 -0.5025  0.4942  0.4758
  257MPD2     H 3896   1.782   0.122  13.385  2.0098  1.3768 -0.7526
  257MPD2    H1 3897   1.687   0.264  13.777  1.4445  1.1519  0.1727
  257MPD2    H2 3898   1.776   0.537  13.469 -0.8945  0.1180  0.2213
  257MPD2    H3 3899   1.743   0.483  13.692 -1.8578 -0.2294  1.4372
  257MPD2     N 3900   1.731   0.037  13.614  0.0142 -0.1079 -0.9443
  257MPD2    H5 3901   1.715   4.700  13.533 -0.4422 -0.0770 -0.8765
  257MPD2    N1 3902   1.802   0.367  13.269 -0.3314  0.0715 -0.1076
  257MPD2    H7 3903   1.821   0.465  13.250 -3.2526  0.6942  0.1701
  258TMC3    C1 3904   1.724   4.562  13.728  0.1850  0.0612  0.3992
  258TMC3    C2 3905   1.630   4.513  13.640 -0.0781 -0.0543 -0.4463
  258TMC3    C3 3906   1.617   4.374  13.646 -0.1199  0.2894 -0.2413
  258TMC3    C4 3907   1.790   4.498  13.829  0.2486 -0.2376 -0.4149
  258TMC3    C5 3908   1.760   4.368  13.835 -0.0023  0.4533  0.4098
  258TMC3    C6 3909   1.681   4.300  13.743  0.1999  0.2912  1.0570
  258TMC3     C 3910   1.736   4.712  13.738  0.3465 -0.2184 -0.3829
  258TMC3     O 3911   1.782   0.046  13.835  0.1668 -0.2246  0.2660
  258TMC3     H 3912   1.570   4.576  13.576  1.4199  1.7132 -0.1094
  258TMC3    H1 3913   1.856   4.548  13.899  2.3226 -2.0421 -1.0755
  258TMC3    H2 3914   1.660   4.194  13.747  0.2541  0.2176 -0.5470
  258TMC3    C7 3915   1.760   4.306  13.970  0.7449 -0.2564  0.1853
  258TMC3    C8 3916   1.534   4.305  13.559 -1.0575  0.3178 -0.0162
  258TMC3    O1 3917   1.679   4.222  13.993 -0.0039  0.2551 -0.2113
  258TMC3    O2 3918   1.498   4.190  13.590 -0.1633 -0.6459 -0.0517
  259MPD2     C 3919   0.299   1.405   0.619  1.2249 -0.4339 -0.2245
  259MPD2    C1 3920   0.339   1.461   0.735 -0.7246 -0.2200  0.2659
  259MPD2    C2 3921   0.462   1.515   0.752 -0.3005 -0.9786 -0.5120
  259MPD2    C3 3922   0.559   1.498   0.653  0.5703 -0.5306  1.1319
  259MPD2    C4 3923   0.514   1.446   0.533 -0.7505  0.0268 -0.3812
  259MPD2    C5 3924   0.385   1.405   0.516 -0.0722  0.3373  0.5998
  259MPD2     H 3925   0.500   1.553   0.846 -2.9616  0.1523  0.1089
  259MPD2    H1 3926   0.574   1.437   0.443  0.2581 -0.6164  0.3583
  259MPD2    H2 3927   0.198   1.365   0.613  1.4400 -0.9686 -0.2787
  259MPD2    H3 3928   0.354   1.363   0.421 -3.3578  2.5166  0.7065
  259MPD2     N 3929   0.689   1.550   0.659 -0.1608 -0.2086  0.3839
  259MPD2    H5 3930   0.705   1.588   0.752  0.0524 -0.9033  0.6359
  259MPD2    N1 3931   0.235   1.458   0.843 -0.3483  0.0486 -0.0309
  259MPD2    H7 3932   0.151   1.401   0.833 -1.5719  2.0774 -1.4015
  260TMC3    C1 3933   0.917   1.599   0.591 -0.1445 -0.7362  0.7152
  260TMC3    C2 3934   0.942   1.680   0.698  0.0800  0.4520  0.4518
  260TMC3    C3 3935   1.067   1.720   0.723 -0.2233  0.1007  0.4222
  260TMC3    C4 3936   1.014   1.563   0.503  0.2372 -0.2837  0.1153
  260TMC3    C5 3937   1.142   1.617   0.525 -0.0078  0.2743 -0.2983
  260TMC3    C6 3938   1.168   1.691   0.631  0.4140 -0.4446  0.7744
  260TMC3     C 3939   0.782   1.551   0.555 -0.0701 -0.1598 -0.6489
  260TMC3     O 3940   0.778   1.497   0.448 -0.5937  0.2991  0.2344
  260TMC3     H 3941   0.867   1.692   0.776 -1.8644 -2.0098 -0.9900
  260TMC3    H1 3942   0.994   1.489   0.427  1.2784 -1.7210  1.2249
  260TMC3    H2 3943   1.269   1.730   0.638  1.2452 -2.3948 -0.1849
  260TMC3    C7 3944   1.252   1.552   0.452 -0.7455 -0.7981 -0.1391
  260TMC3    C8 3945   1.091   1.822   0.828 -0.3903 -0.2412  0.2659
  260TMC3    O1 3946   1.362   1.544   0.500  0.2260  0.1150 -0.1295
  260TMC3    O2 3947   1.009   1.895   0.883 -0.1195 -1.0097  0.7406
  261MPD2     C 3948   2.374   4.366  12.717  0.3553  0.8482 -0.7048
  261MPD2    C1 3949   2.382   4.495  12.758  1.0339 -1.1217  0.3900
  261MPD2    C2 3950   2.403   4.591  12.659  0.2369 -0.3239 -0.5260
  261MPD2    C3 3951   2.403   4.560  12.528  0.1134 -0.3075  0.0135
  261MPD2    C4 3952   2.411   4.430  12.490 -1.0507 -0.5819  0.2912
  261MPD2    C5 3953   2.394   4.335  12.588  0.4344  0.3556 -0.4142
  261MPD2     H 3954   2.395   4.695  12.688 -0.9941 -1.1368  2.0647
  261MPD2    H1 3955   2.425   4.390  12.390  0.3357  0.2873  0.1277
  261MPD2    H2 3956   2.347   4.284  12.783  0.1038  1.4751 -0.0215
  261MPD2    H3 3957   2.401   4.228  12.574 -2.6917  0.1358 -0.4649
  261MPD2     N 3958   2.425   4.667  12.446  0.6811 -0.6195 -0.1211
  261MPD2    H5 3959   2.448   0.032  12.491 -0.9968  0.3291 -1.1245
  261MPD2    N1 3960   2.340   4.531  12.889 -0.6712 -0.1849  0.6716
  261MPD2    H7 3961   2.312   4.627  12.902  0.8189  0.3869 -0.4131
  262TMC3    C1 3962   2.528   0.041  12.266 -0.4182  0.3902  0.1938
  262TMC3    C2 3963   2.476   0.170  12.275 -0.0916  0.6947  0.2520
  262TMC3    C3 3964   2.527   0.259  12.195 -0.1323 -1.1272 -0.5828
  262TMC3    C4 3965   2.621   0.014  12.171  0.0368 -0.6217  0.0093
  262TMC3    C5 3966   2.661   0.105  12.086  0.1348 -0.4257 -0.4191
  262TMC3    C6 3967   2.616   0.234  12.094  0.4003  0.8987  0.1758
  262TMC3     C 3968   2.444   4.655  12.310 -0.3382  0.1850  0.1938
  262TMC3     O 3969   2.423   4.567  12.233 -0.6226  0.0745  0.1794
  262TMC3     H 3970   2.396   0.194  12.344 -0.9949 -2.1491  0.2057
  262TMC3    H1 3971   2.655   4.634  12.157  2.6756  0.2331  0.1606
  262TMC3    H2 3972   2.666   0.310  12.036  0.0111  2.8188  2.3608
  262TMC3    C7 3973   2.734   0.066  11.976 -0.0656  0.2852 -0.6070
  262TMC3    C8 3974   2.465   0.390  12.184 -0.4718  0.6027  0.7354
  262TMC3    O1 3975   2.818   4.701  12.004  0.5615 -0.5250  0.2502
  262TMC3    O2 3976   2.533   0.488  12.155  0.1139  0.3842  0.1781
  263MPD2     C 3977   3.289   3.804  11.622  0.4117 -0.4392  0.1121
  263MPD2    C1 3978   3.330   3.934  11.626 -0.1337  0.7794  0.4774
  263MPD2    C2 3979   3.332   4.002  11.507 -0.8624  0.0568 -0.1370
  263MPD2    C3 3980   3.305   3.943  11.389 -0.2848 -0.3904 -0.5419
  263MPD2    C4 3981   3.264   3.812  11.381 -0.2865 -0.3300  0.2748
  263MPD2    C5 3982   3.256   3.748  11.503  0.6366 -0.4325  0.1373
  263MPD2     H 3983   3.383   4.098  11.509 -0.6342 -0.0784  0.7657
  263MPD2    H1 3984   3.240   3.765  11.286 -3.3025 -0.5815  1.1663
  263MPD2    H2 3985   3.292   3.737  11.707  3.4191 -1.1754 -0.5962
  263MPD2    H3 3986   3.227   3.645  11.488  0.7375 -1.0744  4.5556
  263MPD2     N 3987   3.328   4.024  11.270  0.0309 -0.3079  0.1014
  263MPD2    H5 3988   3.365   4.118  11.283 -0.2892  0.2083 -2.6635
  263MPD2    N1 3989   3.389   3.988  11.745  0.1704 -0.2669 -0.0832
  263MPD2    H7 3990   3.398   3.927  11.826  0.9450 -0.5401 -0.3727
  264TMC3    C1 3991   3.356   4.065  11.038 -0.0600 -0.0426  0.5230
  264TMC3    C2 3992   3.343   4.020  10.902  0.6851  1.0419  0.0242
  264TMC3    C3 3993   3.409   4.098  10.815 -0.5073  0.5556  0.4762
  264TMC3    C4 3994   3.451   4.157  11.079 -0.8120 -0.3953 -0.0325
  264TMC3    C5 3995   3.532   4.208  10.985  0.4737 -0.3142 -0.0838
  264TMC3    C6 3996   3.511   4.181  10.851  0.3327 -0.4389  0.3012
  264TMC3     C 3997   3.291   3.987  11.140 -0.3841  0.5061  0.0751
  264TMC3     O 3998   3.209   3.905  11.100  0.0686 -0.0788 -0.3685
  264TMC3     H 3999   3.278   3.944  10.859  0.2761  1.5218 -0.2236
  264TMC3    H1 4000   3.457   4.194  11.180  0.2538 -0.5534 -0.0406
  264TMC3    H2 4001   3.576   4.228  10.779  1.0319 -0.8937  0.6393
  264TMC3    C7 4002   3.627   4.317  11.003  0.1758 -0.1827 -0.0416
  264TMC3    C8 4003   3.398   4.074  10.672  0.0005 -0.6482  0.3684
  264TMC3    O1 4004   3.732   4.313  10.938 -0.8753  0.5766  0.3136
  264TMC3    O2 4005   3.373   3.962  10.625  0.1533 -0.0022 -0.1009
  265MPD2     C 4006   0.310   4.688  15.657  0.0905  0.3054 -0.0076
  265MPD2    C1 4007   0.347   0.082  15.591 -0.4037 -0.6988 -0.3642
  265MPD2    C2 4008   0.424   0.075  15.478  0.9550 -0.1317  1.3093
  265MPD2    C3 4009   0.466   4.673  15.433  0.2508 -0.6013 -1.0319
  265MPD2    C4 4010   0.424   4.556  15.493  0.1344  0.1158 -0.5823
  265MPD2    C5 4011   0.350   4.567  15.606 -0.2437 -0.1009  0.0129
  265MPD2     H 4012   0.436   0.164  15.417 -2.5461  0.6349  1.7046
  265MPD2    H1 4013   0.448   4.456  15.460  2.6086  0.9833 -1.4223
  265MPD2    H2 4014   0.266   4.677  15.756 -0.5904  0.6198 -0.2748
  265MPD2    H3 4015   0.320   4.475  15.655 -2.7682  0.0700 -1.2229
  265MPD2     N 4016   0.556   4.650  15.329  0.8948 -0.0851 -0.3826
  265MPD2    H5 4017   0.573   4.550  15.330 -1.6312 -0.5455 -2.1782
  265MPD2    N1 4018   0.295   0.212  15.627 -0.0513  0.1140 -0.2500
  265MPD2    H7 4019   0.319   0.291  15.568  0.2441 -1.3155 -2.0340
  266TMC3    C1 4020   0.210   0.380  15.779 -0.3061  0.6011  0.0871
  266TMC3    C2 4021   0.210   0.405  15.914 -0.7756 -0.6870 -0.4610
  266TMC3    C3 4022   0.281   0.517  15.959 -0.2452  0.3772 -0.5264
  266TMC3    C4 4023   0.250   0.475  15.687  0.2690 -0.2887  0.1900
  266TMC3    C5 4024   0.315   0.588  15.737  0.2091 -0.1252 -0.4046
  266TMC3    C6 4025   0.328   0.603  15.872 -0.1392 -0.3180  0.0447
  266TMC3     C 4026   0.221   0.237  15.739  0.1353 -0.4189 -0.1091
  266TMC3     O 4027   0.182   0.155  15.822 -0.0755 -0.1181  0.1403
  266TMC3     H 4028   0.149   0.345  15.980  0.4255  1.3748  2.5585
  266TMC3    H1 4029   0.244   0.465  15.579 -0.0670 -0.1751  0.1971
  266TMC3    H2 4030   0.395   0.680  15.909 -1.4435  0.5959  0.5280
  266TMC3    C7 4031   0.345   0.695  15.646  0.4552  0.0748  0.1625
  266TMC3    C8 4032   0.366   0.489  16.082  0.3815  0.7092 -0.2203
  266TMC3    O1 4033   0.284   0.696  15.540  0.2796 -0.0482 -1.2335
  266TMC3    O2 4034   0.387   0.371  16.102 -0.2623 -0.1428  0.1135
  267MPD2     C 4035   2.980   1.500   0.199  0.2378 -0.5112  0.3444
  267MPD2    C1 4036   2.983   1.640   0.193  0.7428 -0.5068  0.9991
  267MPD2    C2 4037   2.989   1.703   0.070  0.2367  0.0727 -0.3081
  267MPD2    C3 4038   2.966   1.635  17.645 -0.1261  0.5216 -1.2006
  267MPD2    C4 4039   2.953   1.501  17.654 -0.1346 -0.3750  0.0411
  267MPD2    C5 4040   2.967   1.433   0.082  0.1839 -0.0468  0.2974
  267MPD2     H 4041   3.013   1.809   0.070  1.8000 -0.2808 -2.5247
  267MPD2    H1 4042   2.931   1.431  17.574  1.0076  0.9209 -1.4039
  267MPD2    H2 4043   2.996   1.443   0.290  1.7086 -0.2522  0.2452
  267MPD2    H3 4044   2.966   1.325   0.086 -0.5500 -0.0773 -0.9609
  267MPD2     N 4045   2.969   1.693  17.521  0.1541 -0.0088 -0.3220
  267MPD2    H5 4046   2.944   1.629  17.446 -2.7140  0.7469  0.0160
  267MPD2    N1 4047   3.004   1.704   0.314 -0.1052 -0.1908 -0.1300
  267MPD2    H7 4048   3.001   1.643   0.396 -0.7048  1.5707  1.1685
  268TMC3    C1 4049   3.067   1.886   0.455  0.0112  0.0427 -0.3606
  268TMC3    C2 4050   3.096   2.015   0.463  1.1494  0.1938 -0.1142
  268TMC3    C3 4051   3.174   2.060   0.568 -0.2638  0.1861 -0.3456
  268TMC3    C4 4052   3.130   1.793   0.540 -0.3659 -0.4408 -0.6878
  268TMC3    C5 4053   3.191   1.839   0.653  0.4119  0.3198  0.1319
  268TMC3    C6 4054   3.214   1.971   0.664  0.3799  0.3790 -0.6554
  268TMC3     C 4055   3.014   1.841   0.330  0.1522  0.0268  0.2229
  268TMC3     O 4056   2.970   1.932   0.261  0.0148 -0.0296  0.0252
  268TMC3     H 4057   3.033   2.084   0.408  1.6525 -1.1845 -2.4295
  268TMC3    H1 4058   3.111   1.687   0.532 -1.2002 -0.3055 -0.4901
  268TMC3    H2 4059   3.262   2.015   0.751 -1.6781  0.3170  0.5195
  268TMC3    C7 4060   3.230   1.742   0.755 -0.4972  0.1310  0.3160
  268TMC3    C8 4061   3.212   2.195   0.584 -0.0248  0.0505 -0.0390
  268TMC3    O1 4062   3.231   1.627   0.723  0.3812  0.4638 -0.0327
  268TMC3    O2 4063   3.279   2.227   0.682 -0.1493 -0.3261 -0.4786
  269MPD2     C 4064   3.358   0.562  16.215  0.0257  0.0459 -0.5378
  269MPD2    C1 4065   3.226   0.570  16.259  0.6502  0.9338  0.0481
  269MPD2    C2 4066   3.137   0.670  16.209 -0.1303 -0.2369 -0.0169
  269MPD2    C3 4067   3.183   0.750  16.105  0.4215 -0.2425  0.1556
  269MPD2    C4 4068   3.310   0.739  16.058  0.6776  0.4323 -0.6889
  269MPD2    C5 4069   3.401   0.654  16.120 -0.2900  0.0522 -0.1535
  269MPD2     H 4070   3.039   0.685  16.253  0.1711  1.1033  0.1716
  269MPD2    H1 4071   3.345   0.810  15.985 -1.3840 -0.1619 -2.2795
  269MPD2    H2 4072   3.435   0.496  16.253 -0.3042  1.0673  1.8968
  269MPD2    H3 4073   3.504   0.654  16.085  1.1856 -3.1637  4.1768
  269MPD2     N 4074   3.093   0.845  16.061  0.2827 -0.2476  0.0876
  269MPD2    H5 4075   3.013   0.858  16.121  0.1943  2.6263 -0.6683
  269MPD2    N1 4076   3.187   0.470  16.345  0.3300  0.7939  0.3564
  269MPD2    H7 4077   3.252   0.398  16.375  1.4701  1.1554 -1.2426
  270TMC3    C1 4078   3.010   0.317  16.422  0.6714 -0.3485  0.4524
  270TMC3    C2 4079   2.869   0.316  16.417  0.0082 -0.3884  0.1322
  270TMC3    C3 4080   2.806   0.202  16.358 -0.1954 -0.7678 -0.4023
  270TMC3    C4 4081   3.080   0.219  16.355  0.4457  0.3535  0.8119
  270TMC3    C5 4082   3.007   0.116  16.296  0.8505  0.2892 -0.2206
  270TMC3    C6 4083   2.872   0.105  16.292  0.3660  0.4713  0.2567
  270TMC3     C 4084   3.063   0.455  16.406 -0.6836 -0.1804  0.8600
  270TMC3     O 4085   2.977   0.544  16.412 -0.2880  0.7101  0.0117
  270TMC3     H 4086   2.817   0.396  16.469 -3.1242 -1.9413 -0.6340
  270TMC3    H1 4087   3.189   0.216  16.349  0.2883  0.3423 -2.0926
  270TMC3    H2 4088   2.818   0.015  16.266 -0.2731  1.5367 -2.1663
  270TMC3    C7 4089   3.086   0.027  16.209  0.2609  0.0387 -0.3093
  270TMC3    C8 4090   2.671   0.228  16.311 -0.3324 -0.0926  0.3496
  270TMC3    O1 4091   3.206   0.050  16.199 -0.0312  0.0837  0.1157
  270TMC3    O2 4092   2.579   0.242  16.395  0.3144  0.5093 -0.5763
  271MPD2     C 4093   2.152   0.242  14.539  0.4694 -0.6082 -0.0464
  271MPD2    C1 4094   2.050   0.188  14.613  0.5107  0.2526 -0.0177
  271MPD2    C2 4095   1.917   0.213  14.567 -0.1613  0.4953 -0.3775
  271MPD2    C3 4096   1.896   0.288  14.451  0.6142  0.8400 -0.5968
  271MPD2    C4 4097   2.009   0.345  14.387 -0.1561 -0.1910 -0.1022
  271MPD2    C5 4098   2.135   0.314  14.422  0.0917  0.0484  0.2383
  271MPD2     H 4099   1.833   0.182  14.629 -1.0178 -2.4570 -3.0302
  271MPD2    H1 4100   1.997   0.398  14.294 -1.3948 -0.3242 -0.0226
  271MPD2    H2 4101   2.250   0.212  14.572  1.4145  1.9494 -0.5668
  271MPD2    H3 4102   2.220   0.361  14.374  2.3334 -1.6916  2.5169
  271MPD2     N 4103   1.765   0.312  14.404 -0.2815  0.2574  0.1724
  271MPD2    H5 4104   1.694   0.262  14.457 -1.2003  1.2676 -0.1058
  271MPD2    N1 4105   2.087   0.111  14.725 -0.9236  0.5037 -0.0411
  271MPD2    H7 4106   2.184   0.081  14.732 -1.5258 -1.3746  0.2127
  272TMC3    C1 4107   2.060   0.013  14.942 -0.2480 -0.3061 -0.1734
  272TMC3    C2 4108   2.176   4.657  14.937  0.8961 -0.0206 -0.1420
  272TMC3    C3 4109   2.247   4.636  15.054 -0.2892  0.3442 -0.2071
  272TMC3    C4 4110   2.017   0.078  15.058  0.3812 -0.5889  0.7013
  272TMC3    C5 4111   2.093   0.054  15.168 -0.2185  0.8147 -0.2022
  272TMC3    C6 4112   2.211   4.696  15.174 -0.1922 -0.4331 -0.1908
  272TMC3     C 4113   1.999   0.073  14.825 -0.3246  0.4141  0.7034
  272TMC3     O 4114   1.886   0.120  14.844 -0.1744  0.0547  0.3199
  272TMC3     H 4115   2.203   4.614  14.841 -3.1971 -1.1974 -0.7680
  272TMC3    H1 4116   1.931   0.144  15.053  1.2667  0.5134  0.1773
  272TMC3    H2 4117   2.270   4.680  15.264  1.6861  3.8643 -0.6899
  272TMC3    C7 4118   2.047   0.129  15.282 -0.1555  0.0247 -0.0502
  272TMC3    C8 4119   2.382   4.605  15.029 -0.3731 -0.6082  0.6763
  272TMC3    O1 4120   1.927   0.150  15.291 -0.4418  0.3975  0.0252
  272TMC3    O2 4121   2.425   4.633  14.918  0.1126 -0.3333  0.2889
  273MPD2     C 4122   3.549   2.944  11.790  0.1792  0.1392 -0.5842
  273MPD2    C1 4123   3.661   3.002  11.854 -0.1248 -0.0194 -0.6600
  273MPD2    C2 4124   3.730   3.102  11.784  0.3113  0.1461  0.5327
  273MPD2    C3 4125   3.690   3.143  11.656 -0.6079  0.0088  0.2017
  273MPD2    C4 4126   3.587   3.079  11.595 -0.3428  0.0972  0.1509
  273MPD2    C5 4127   3.514   2.988  11.662  0.3226  0.3958  0.5532
  273MPD2     H 4128   3.822   3.145  11.820  1.5675 -3.2411  1.3636
  273MPD2    H1 4129   3.546   3.115  11.501  1.5658  1.5596 -0.1375
  273MPD2    H2 4130   3.489   2.871  11.842  1.9716 -0.6412  0.4146
  273MPD2    H3 4131   3.425   2.945  11.617  1.7102 -3.4479  1.4414
  273MPD2     N 4132   3.751   3.249  11.584  0.6957 -0.2290 -0.4411
  273MPD2    H5 4133   3.704   3.267  11.496  0.6397 -1.0691 -0.5819
  273MPD2    N1 4134   3.699   2.967  11.984 -0.2307  0.0241 -0.2839
  273MPD2    H7 4135   3.633   2.907  12.033 -0.4338  2.1256  2.0458
  274TMC3    C1 4136   3.868   3.441  11.541 -0.3620 -0.1574  0.4999
  274TMC3    C2 4137   3.872   3.421  11.407  0.1183  0.2256 -0.5875
  274TMC3    C3 4138   3.927   3.522  11.330 -0.1187 -0.1071 -0.0278
  274TMC3    C4 4139   3.917   3.556  11.599 -0.1048 -0.0230  0.2344
  274TMC3    C5 4140   3.972   3.651  11.516 -0.0404  0.2795  0.1569
  274TMC3    C6 4141   3.975   3.638  11.381 -0.1273  0.2221 -0.3130
  274TMC3     C 4142   3.832   3.343  11.633 -0.2083  0.1331  0.4497
  274TMC3     O 4143   3.872   3.357  11.747 -0.1000  0.1060  0.4699
  274TMC3     H 4144   3.860   3.324  11.359  1.2949 -0.7104  1.0047
  274TMC3    H1 4145   3.933   3.556  11.706 -1.1858  0.9786  0.3978
  274TMC3    H2 4146   4.024   3.713  11.320  0.6504 -1.5417 -1.8463
  274TMC3    C7 4147   4.000   3.769  11.588 -0.4034  0.5149 -0.3830
  274TMC3    C8 4148   3.888   3.522  11.190 -0.4893 -0.3039  0.8993
  274TMC3    O1 4149   3.990   3.761  11.712 -0.0836 -0.4244 -0.2605
  274TMC3    O2 4150   3.959   3.592  11.120  0.4626 -0.4818 -0.4643
  275MPD2     C 4151   3.704   0.660  14.836  0.3151 -0.1807 -0.0651
  275MPD2    C1 4152   3.630   0.728  14.932 -0.4020  0.1591  0.1182
  275MPD2    C2 4153   3.494   0.740  14.912  0.0067  0.2596  0.6907
  275MPD2    C3 4154   3.429   0.693  14.801  0.1265 -0.5718  0.2190
  275MPD2    C4 4155   3.503   0.623  14.704  0.5489 -0.9361 -0.0269
  275MPD2    C5 4156   3.642   0.608  14.724 -0.1093  0.0348 -0.1444
  275MPD2     H 4157   3.437   0.798  14.984 -2.0940 -1.5358  0.4779
  275MPD2    H1 4158   3.444   0.586  14.621  1.7232  0.3218 -1.4278
  275MPD2    H2 4159   3.809   0.639  14.855  0.7051 -0.6038 -2.6485
  275MPD2    H3 4160   3.701   0.564  14.644 -0.8862  0.8779 -1.1887
  275MPD2     N 4161   3.298   0.730  14.771  0.0714  0.2254  0.0416
  275MPD2    H5 4162   3.259   0.678  14.693  0.1513  0.3001 -0.0472
  275MPD2    N1 4163   3.679   0.781  15.051  0.1341  0.4505 -0.2639
  275MPD2    H7 4164   3.615   0.842  15.101 -0.0237  0.8364 -0.9359
  276TMC3    C1 4165   3.799   0.805  15.251 -0.5005 -0.6472  0.4912
  276TMC3    C2 4166   3.685   0.779  15.313  0.5425  0.0040 -0.3082
  276TMC3    C3 4167   3.668   0.840  15.435 -0.0237  0.4877  0.0052
  276TMC3    C4 4168   3.897   0.884  15.306 -0.0291 -0.4691  0.6520
  276TMC3    C5 4169   3.876   0.939  15.429  0.2288 -0.5157  0.4556
  276TMC3    C6 4170   3.760   0.922  15.497  0.0125 -0.5949 -0.6861
  276TMC3     C 4171   3.804   0.770  15.105  0.3775  0.2315 -0.8260
  276TMC3     O 4172   3.899   0.705  15.060  0.5340 -0.1370 -0.0279
  276TMC3     H 4173   3.622   0.705  15.266  2.6604 -0.8339 -1.8593
  276TMC3    H1 4174   3.987   0.910  15.252 -0.6479 -0.2343 -0.2678
  276TMC3    H2 4175   3.732   0.970  15.590  2.7202  1.0178 -0.6839
  276TMC3    C7 4176   3.950   1.058  15.466  0.0221  0.0338 -0.2616
  276TMC3    C8 4177   3.552   0.813  15.522 -0.3272  0.5162 -0.2768
  276TMC3    O1 4178   3.886   1.161  15.495  0.1421  0.1407  0.2298
  276TMC3    O2 4179   3.528   0.873  15.625  0.0787 -0.1782  0.1347
  277MPD2     C 4180   1.098   4.464  13.437 -0.1858  0.3251 -0.2895
  277MPD2    C1 4181   0.966   4.520  13.427 -0.1791 -0.6452 -0.2536
  277MPD2    C2 4182   0.909   4.562  13.547  0.8042 -0.2052 -0.3643
  277MPD2    C3 4183   0.969   4.532  13.667  0.3405  0.7737  0.3813
  277MPD2    C4 4184   1.099   4.484  13.674  0.0191 -0.2357 -0.8237
  277MPD2    C5 4185   1.159   4.457  13.559 -0.2165 -0.2171  0.3290
  277MPD2     H 4186   0.804   4.585  13.542  0.3051 -2.2157  1.2069
  277MPD2    H1 4187   1.153   4.484  13.768 -1.8735 -0.0188  0.2604
  277MPD2    H2 4188   1.148   4.438  13.345 -0.2403  0.1253 -0.2621
  277MPD2    H3 4189   1.261   4.421  13.573  0.3968  1.7336  0.9471
  277MPD2     N 4190   0.890   4.555  13.777  0.4589  0.0026 -0.2559
  277MPD2    H5 4191   0.801   4.592  13.746 -1.2054 -2.7819  1.2024
  277MPD2    N1 4192   0.910   4.545  13.299  0.6333  0.0699 -0.4793
  277MPD2    H7 4193   0.972   4.538  13.218  1.2664  1.0009 -0.0809
  278TMC3    C1 4194   0.792   4.550  13.985  0.1296  0.8036  0.3083
  278TMC3    C2 4195   0.747   4.430  14.029 -0.4020  0.2415  0.0543
  278TMC3    C3 4196   0.619   4.399  13.998  0.1918 -0.3695  0.4199
  278TMC3    C4 4197   0.709   4.631  13.911  0.2392  0.5426  0.5669
  278TMC3    C5 4198   0.576   4.597  13.897 -0.6810  0.0756 -0.1760
  278TMC3    C6 4199   0.529   4.478  13.935 -0.3895  0.3391  0.0418
  278TMC3     C 4200   0.914   4.520  13.907 -0.4249 -0.0866  0.1506
  278TMC3     O 4201   1.002   4.440  13.943  0.0881 -0.2034 -0.1501
  278TMC3     H 4202   0.814   4.355  14.070  0.1678  0.4069 -0.5862
  278TMC3    H1 4203   0.747   4.721  13.864 -0.4080  1.4390  1.7616
  278TMC3    H2 4204   0.421   4.472  13.930 -0.3047  1.1527 -2.4746
  278TMC3    C7 4205   0.508   4.659  13.783  0.2193 -0.8120  0.9831
  278TMC3    C8 4206   0.582   4.262  14.010  0.0311  0.5734  0.3366
  278TMC3    O1 4207   0.578   4.700  13.689 -0.3718  0.3807 -0.2156
  278TMC3    O2 4208   0.628   4.204  14.105 -0.3125  0.1225 -0.5945
  279MPD2     C 4209   0.024   0.046   0.040  0.1630  0.4254  0.5466
  279MPD2    C1 4210   4.712   0.178   0.029 -0.1680 -0.2181 -0.4829
  279MPD2    C2 4211   0.099   0.264   0.002  0.2068 -0.3697  0.2733
  279MPD2    C3 4212   0.230   0.216  17.680 -0.5285  0.1269 -0.0184
  279MPD2    C4 4213   0.259   0.087   0.020 -0.1704 -0.3323 -0.6203
  279MPD2    C5 4214   0.154   0.001   0.048  0.1420 -0.6040 -0.8116
  279MPD2     H 4215   0.078   0.369  17.678  2.3069  0.0332  0.1354
  279MPD2    H1 4216   0.354   0.037   0.027 -0.2149 -0.6276 -2.1382
  279MPD2    H2 4217   4.669   4.693   0.035 -1.3316  2.0292 -0.3773
  279MPD2    H3 4218   0.180   4.622   0.074  0.7812 -0.2469 -0.0597
  279MPD2     N 4219   0.338   0.308  17.651  0.1182  0.2238 -0.3602
  279MPD2    H5 4220   0.430   0.269  17.672 -0.0807  0.5851  1.1907
  279MPD2    N1 4221   4.575   0.215   0.040  0.0604  0.5047  0.5672
  279MPD2    H7 4222   4.520   0.139   0.078 -0.1108  0.6881  0.6895
  280TMC3    C1 4223   4.382   0.355   0.028  0.0850  0.7864  0.2918
  280TMC3    C2 4224   4.308   0.240   0.032 -0.2287 -1.1263  0.5409
  280TMC3    C3 4225   4.193   0.236   0.113  1.1541 -0.1066 -0.9698
  280TMC3    C4 4226   4.337   0.475   0.085  0.2068 -0.6114 -0.2027
  280TMC3    C5 4227   4.219   0.471   0.152  0.0566  0.7115 -0.7868
  280TMC3    C6 4228   4.149   0.355   0.165 -0.1188 -0.1816  0.0120
  280TMC3     C 4229   4.529   0.345   0.020 -0.6185  0.4771 -0.3101
  280TMC3     O 4230   4.592   0.439  17.666  0.1928  0.5104 -0.7466
  280TMC3     H 4231   4.331   0.148  17.673  1.6359 -0.4182  0.1258
  280TMC3    H1 4232   4.402   0.562   0.089  0.5165 -0.8400 -0.3426
  280TMC3    H2 4233   4.055   0.346   0.219 -0.6188  1.1914 -0.6049
  280TMC3    C7 4234   4.145   0.595   0.170 -0.2834  0.5321 -0.5094
  280TMC3    C8 4235   4.098   0.138   0.077  0.1691  0.1747  0.5385
  280TMC3    O1 4236   4.049   0.591   0.245 -0.2495  0.4387 -0.0097
  280TMC3    O2 4237   4.092   0.100  17.654  0.2501 -0.0065 -0.3482
  281TMC3    C1 4238   3.356   0.547  13.257 -0.3641 -0.7927  0.2368
  281TMC3    C2 4239   3.352   0.628  13.147  0.3962 -0.0477 -0.4359
  281TMC3    C3 4240   3.358   0.573  13.024  0.2085  0.0785 -0.4826
  281TMC3    C4 4241   3.376   0.413  13.246  0.2690  0.3300 -0.3047
  281TMC3    C5 4242   3.376   0.362  13.122  0.2653  0.9919  0.2255
  281TMC3    C6 4243   3.368   0.437  13.011  0.7672  0.2218  0.0155
  281TMC3     C 4244   3.287   0.582  13.377  0.3734  0.0671 -0.8193
  281TMC3     O 4245   3.292   0.494  13.463  0.0459 -0.0467 -0.6961
  281TMC3     H 4246   3.358   0.736  13.154 -0.7822  0.2420 -3.9102
  281TMC3    H1 4247   3.405   0.350  13.329  0.0484  0.7967  0.1285
  281TMC3    H2 4248   3.368   0.390  12.914 -1.7954  1.5056 -0.5949
  281TMC3    C7 4249   3.415   0.224  13.102  0.0648 -0.2470 -0.0092
  281TMC3    C8 4250   3.435   0.638  12.915  0.2198  0.1937 -0.5952
  281TMC3    O1 4251   3.466   0.197  12.991 -0.0944 -0.1840 -0.2529
  281TMC3    O2 4252   3.514   0.564  12.859  0.3704 -0.2681  0.2755
  282MPD2     C 4253   0.424   1.953  15.294 -0.5140  0.7333  0.8573
  282MPD2    C1 4254   0.321   2.043  15.300  0.1542  0.7738  1.4370
  282MPD2    C2 4255   0.259   2.083  15.182 -0.0056 -0.3169 -0.3912
  282MPD2    C3 4256   0.299   2.033  15.062 -0.3758  0.2754 -0.3558
  282MPD2    C4 4257   0.389   1.927  15.061  0.3057  0.2159 -0.2129
  282MPD2    C5 4258   0.450   1.880  15.177  0.1013 -0.6024  0.7535
  282MPD2     H 4259   0.169   2.143  15.186  0.1660 -0.0573 -0.4325
  282MPD2    H1 4260   0.423   1.876  14.971  0.7693 -0.5127  0.3735
  282MPD2    H2 4261   0.465   1.920  15.389  0.3521  0.6382  0.4475
  282MPD2    H3 4262   0.515   1.794  15.183  2.0872  0.7017 -1.5514
  282MPD2     N 4263   0.250   2.087  14.944 -0.1128  0.0069 -0.2746
  282MPD2    H5 4264   0.182   2.163  14.943  0.9156  0.9648  2.4572
  282MPD2    N1 4265   0.262   2.092  15.421  0.8750 -0.0187 -0.0737
  282MPD2    H7 4266   0.186   2.157  15.408  0.5495 -0.6489 -1.3225
  283TMC3    C1 4267   0.208   2.083  15.651 -0.5323  0.3714 -0.4343
  283TMC3    C2 4268   0.179   2.214  15.649 -0.0124 -0.1711 -0.2756
  283TMC3    C3 4269   0.098   2.262  15.748  0.0407 -0.1563  0.3492
  283TMC3    C4 4270   0.179   1.991  15.749  0.1903  0.0333 -0.2668
  283TMC3    C5 4271   0.091   2.035  15.845  0.7007 -0.4761 -0.7878
  283TMC3    C6 4272   0.052   2.170  15.844 -0.1580 -0.1403 -0.1191
  283TMC3     C 4273   0.291   2.029  15.545  0.2386  0.7144  0.0068
  283TMC3     O 4274   0.362   1.933  15.566  0.0837  0.0894 -0.2188
  283TMC3     H 4275   0.205   2.280  15.567 -0.8392 -2.0217 -2.0026
  283TMC3    H1 4276   0.207   1.888  15.729  2.2490  0.0801  2.3757
  283TMC3    H2 4277   4.703   2.204  15.917  0.3577 -0.5036  0.5531
  283TMC3    C7 4278   0.030   1.950  15.953 -0.3603  0.2725  0.9299
  283TMC3    C8 4279   0.077   2.398  15.775 -0.2094 -0.3439  0.1583
  283TMC3    O1 4280   4.702   2.000  16.053 -0.4859 -0.3390  0.4924
  283TMC3    O2 4281   0.006   2.426  15.872 -0.2998  0.8359  0.4088
  284MPD2     C 4282   3.239   0.157  11.541  0.3825  0.1996 -0.4764
  284MPD2    C1 4283   3.302   0.280  11.566  0.2111 -0.1011  0.7665
  284MPD2    C2 4284   3.297   0.335  11.690  0.2995 -0.4640 -0.7839
  284MPD2    C3 4285   3.235   0.276  11.796  0.0849 -0.0429  0.1018
  284MPD2    C4 4286   3.173   0.155  11.769  0.4487 -0.4871  0.5489
  284MPD2    C5 4287   3.174   0.096  11.644  0.4376  0.0523  0.2366
  284MPD2     H 4288   3.353   0.425  11.715  0.9652 -0.7329 -1.2895
  284MPD2    H1 4289   3.119   0.108  11.850  0.2352  1.2522  1.4219
  284MPD2    H2 4290   3.232   0.112  11.442 -0.7591  0.2218 -0.3969
  284MPD2    H3 4291   3.126   4.722  11.636  0.9696 -0.0624 -1.6550
  284MPD2     N 4292   3.233   0.325  11.926  0.5323 -0.0166  0.7024
  284MPD2    H5 4293   3.208   0.265  12.003 -0.1592  0.4055  0.8005
  284MPD2    N1 4294   3.370   0.355  11.467 -0.0090 -0.1652  0.4646
  284MPD2    H7 4295   3.419   0.436  11.502  0.3592 -0.2111  0.0647
  285TMC3    C1 4296   3.463   0.432  11.265  0.4896  0.0140 -0.5151
  285TMC3    C2 4297   3.539   0.403  11.154  0.5963  0.2319  0.7950
  285TMC3    C3 4298   3.611   0.504  11.096  0.4437  0.2789 -0.3096
  285TMC3    C4 4299   3.462   0.559  11.310  0.0452 -0.6129  0.2274
  285TMC3    C5 4300   3.541   0.654  11.252  0.6040  0.4129  0.1170
  285TMC3    C6 4301   3.613   0.630  11.142  0.1084  0.2249  0.1596
  285TMC3     C 4302   3.396   0.322  11.335 -0.6223 -0.3816 -0.5907
  285TMC3     O 4303   3.357   0.222  11.277 -0.2152 -0.8852 -0.6535
  285TMC3     H 4304   3.516   0.308  11.108 -0.8756 -1.2071  4.5479
  285TMC3    H1 4305   3.408   0.590  11.399 -0.9222 -1.2472 -0.1309
  285TMC3    H2 4306   3.643   0.711  11.076  1.3618  0.3137  0.8467
  285TMC3    C7 4307   3.549   0.787  11.316 -0.1304  0.2128 -0.4093
  285TMC3    C8 4308   3.656   0.477  10.959  0.0108 -0.5711 -0.7484
  285TMC3    O1 4309   3.461   0.818  11.394  0.5108 -0.5268 -0.6702
  285TMC3    O2 4310   3.594   0.388  10.903 -0.2961 -0.2434  0.2103
  286MPD2     C 4311   3.642   0.794   2.109 -0.6874 -0.2068 -0.6826
  286MPD2    C1 4312   3.576   0.694   2.038 -0.5022 -0.2288  0.1077
  286MPD2    C2 4313   3.643   0.574   2.019 -0.0183  0.0810 -0.2206
  286MPD2    C3 4314   3.767   0.547   2.074 -0.4194 -0.6777  0.1180
  286MPD2    C4 4315   3.822   0.644   2.156  0.4383 -0.3831 -0.5250
  286MPD2    C5 4316   3.764   0.766   2.170  0.1579 -0.2929 -0.2817
  286MPD2     H 4317   3.592   0.504   1.954 -1.8920  1.6647 -0.4437
  286MPD2    H1 4318   3.917   0.622   2.204 -0.3637  0.7584  1.5960
  286MPD2    H2 4319   3.593   0.890   2.126  2.0043  0.7087  1.7709
  286MPD2    H3 4320   3.820   0.845   2.219 -0.5473 -0.2904  0.5248
  286MPD2     N 4321   3.829   0.418   2.060 -0.8113  0.1458  0.0080
  286MPD2    H5 4322   3.925   0.420   2.091 -1.0051 -0.8607  0.6840
  286MPD2    N1 4323   3.455   0.715   1.971  0.2270 -0.3929 -0.4945
  286MPD2    H7 4324   3.410   0.635   1.928 -0.4725  1.4102 -3.0980
  287TMC3    C1 4325   3.858   0.203   1.972 -0.2401  0.2856 -0.8711
  287TMC3    C2 4326   3.806   0.101   1.899 -0.5794 -0.1576  0.4304
  287TMC3    C3 4327   3.887   0.003   1.855  0.2144 -0.1723  0.1987
  287TMC3    C4 4328   3.990   0.197   2.016 -0.7574  0.4086  0.4287
  287TMC3    C5 4329   4.072   0.110   1.956 -0.2281 -0.4864 -0.0057
  287TMC3    C6 4330   4.023   0.006   1.880 -0.2438  0.1415  0.3724
  287TMC3     C 4331   3.763   0.308   2.013 -0.5497  0.1185  0.5384
  287TMC3     O 4332   3.647   0.288   2.004  0.1710 -0.2382 -0.0789
  287TMC3     H 4333   3.699   0.096   1.887 -0.7690 -1.0736  2.5402
  287TMC3    H1 4334   4.028   0.280   2.075  2.8825 -1.6788  0.9726
  287TMC3    H2 4335   4.096   4.674   1.821 -0.8434 -2.1257  1.7637
  287TMC3    C7 4336   4.210   0.104   2.004 -0.2436 -0.4214  0.7350
  287TMC3    C8 4337   3.843   4.662   1.730  0.6466 -0.2230 -0.9473
  287TMC3    O1 4338   4.270   0.209   2.028  0.0300 -0.4256 -0.0627
  287TMC3    O2 4339   3.936   4.659   1.649 -0.2413 -0.4400  0.5926
  288TMC3    C1 4340   0.391   4.399  14.623  0.6188  0.5229 -0.0583
  288TMC3    C2 4341   0.337   4.405  14.748 -0.2346 -0.2186  0.5287
  288TMC3    C3 4342   0.382   4.511  14.824 -0.8194  0.3117  0.1613
  288TMC3    C4 4343   0.488   4.482  14.572  0.2788  0.4607  0.0874
  288TMC3    C5 4344   0.531   4.580  14.656 -0.1106  0.2497  0.1224
  288TMC3    C6 4345   0.483   4.593  14.783  0.0601 -0.2073  0.2452
  288TMC3     C 4346   0.305   4.323  14.530 -0.1454  0.0620  0.3462
  288TMC3     O 4347   0.233   4.232  14.568  0.4061  0.0060 -0.6646
  288TMC3     H 4348   0.246   4.348  14.762  0.2136 -0.9948  0.2920
  288TMC3    H1 4349   0.524   4.467  14.470  2.0561  0.6485  0.6907
  288TMC3    H2 4350   0.514   4.674  14.848 -1.3138  0.5845 -0.0992
  288TMC3    C7 4351   0.637   4.669  14.614  0.3070  0.1546 -0.4265
  288TMC3    C8 4352   0.344   4.510  14.964  0.0094  0.4135  0.5365
  288TMC3    O1 4353   0.656   0.046  14.684  0.3236  0.0048 -0.0986
  288TMC3    O2 4354   0.387   4.600  15.035  0.5748 -0.1385  0.1609
  289MPD2     C 4355   0.722   3.675  14.144 -0.8448 -0.1031 -0.6656
  289MPD2    C1 4356   0.706   3.785  14.225 -1.1426 -0.7101  0.2716
  289MPD2    C2 4357   0.589   3.797  14.288  0.7537  0.1531 -0.1900
  289MPD2    C3 4358   0.494   3.701  14.294  0.8095  0.1543  1.0541
  289MPD2    C4 4359   0.520   3.585  14.230  0.2860  0.2266 -0.0758
  289MPD2    C5 4360   0.632   3.572  14.147 -0.5753  0.2005  0.0125
  289MPD2     H 4361   0.574   3.890  14.342  0.1080  0.3489 -0.6999
  289MPD2    H1 4362   0.447   3.505  14.228 -0.2738  0.7215  0.6977
  289MPD2    H2 4363   0.801   3.655  14.072  0.7282 -3.3031  1.9159
  289MPD2    H3 4364   0.636   3.488  14.079 -1.2921  1.2258 -1.2874
  289MPD2     N 4365   0.397   3.705  14.395 -0.0382 -0.0135  0.5809
  289MPD2    H5 4366   0.357   3.614  14.414 -1.7420  0.6820  0.3141
  289MPD2    N1 4367   0.804   3.884  14.214  0.4745 -0.3092 -0.0329
  289MPD2    H7 4368   0.872   3.874  14.139 -0.9467 -0.7049 -1.2636
  290TMC3    C1 4369   0.218   3.791  14.515  0.0139  0.1919 -0.6398
  290TMC3    C2 4370   0.132   3.889  14.511  0.5317  0.7728  0.4572
  290TMC3    C3 4371   0.001   3.857  14.556 -0.3174 -0.5294 -0.5870
  290TMC3    C4 4372   0.201   3.674  14.576  0.0636 -0.0065 -0.0284
  290TMC3    C5 4373   0.076   3.642  14.628  0.0014  0.1177 -0.3836
  290TMC3    C6 4374   4.692   3.729  14.606 -0.2082 -0.1708  0.8809
  290TMC3     C 4375   0.339   3.818  14.443 -0.4164  0.2651 -0.1878
  290TMC3     O 4376   0.369   3.935  14.421  0.5210  0.2114 -0.3664
  290TMC3     H 4377   0.152   3.983  14.461 -1.0678  1.7816  1.7167
  290TMC3    H1 4378   0.285   3.607  14.588  0.7641  0.6948 -1.1258
  290TMC3    H2 4379   4.589   3.704  14.626 -0.8836  1.9201 -0.0485
  290TMC3    C7 4380   0.054   3.524  14.713 -0.0912 -0.5754 -0.0996
  290TMC3    C8 4381   4.613   3.939  14.525 -0.7803  1.0862  0.2253
  290TMC3    O1 4382   4.695   3.531  14.802  0.1580  0.4576 -0.4725
  290TMC3    O2 4383   4.511   3.880  14.492  0.5354 -0.3650  0.5336
  291MPD2     C 4384   4.548   3.431   0.733  0.0477  0.0002 -0.5385
  291MPD2    C1 4385   4.561   3.332   0.634 -0.2522  0.5804  0.1075
  291MPD2    C2 4386   4.687   3.283   0.613  0.6889 -0.1269  0.1151
  291MPD2    C3 4387   0.069   3.317   0.686 -0.7056  0.0836 -1.0031
  291MPD2    C4 4388   0.055   3.423   0.780 -0.5998  0.0359  0.6401
  291MPD2    C5 4389   4.652   3.478   0.807 -0.2863  0.0158 -0.3416
  291MPD2     H 4390   4.697   3.218   0.526 -0.2772  0.9280 -0.7798
  291MPD2    H1 4391   0.143   3.466   0.825 -0.9700  0.1447  1.2601
  291MPD2    H2 4392   4.455   3.479   0.762  0.0462 -1.2972  1.5861
  291MPD2    H3 4393   4.645   3.558   0.879  3.0198 -0.8756  0.9645
  291MPD2     N 4394   0.199   3.286   0.646  0.1373  0.0106 -1.2578
  291MPD2    H5 4395   0.264   3.314   0.719 -0.7115  1.4131 -1.0504
  291MPD2    N1 4396   4.455   3.287   0.553 -0.1269  0.8073  0.2730
  291MPD2    H7 4397   4.482   3.225   0.477  0.8742  1.2045  0.3058
  292TMC3    C1 4398   4.223   3.268   0.484 -0.2265  0.0018  0.2390
  292TMC3    C2 4399   4.089   3.303   0.503 -0.8337 -0.0980 -0.3538
  292TMC3    C3 4400   3.989   3.240   0.435 -0.2059 -0.5175  0.7261
  292TMC3    C4 4401   4.256   3.166   0.392 -0.0836 -0.5641 -0.3339
  292TMC3    C5 4402   4.154   3.118   0.310 -0.6193 -0.1579  0.2662
  292TMC3    C6 4403   4.028   3.149   0.342 -0.0395 -0.0935 -0.4672
  292TMC3     C 4404   4.317   3.310   0.587 -0.0087 -0.0903  0.2755
  292TMC3     O 4405   4.266   3.346   0.691  0.1784  0.3558 -0.2329
  292TMC3     H 4406   4.060   3.390   0.561 -0.1486 -0.2879  0.2801
  292TMC3    H1 4407   4.355   3.121   0.390 -0.2824 -0.9477 -1.5398
  292TMC3    H2 4408   3.949   3.132   0.270 -1.4864 -0.2345  1.1600
  292TMC3    C7 4409   4.180   2.998   0.243  0.3421 -0.1868 -0.2643
  292TMC3    C8 4410   3.853   3.237   0.488  0.0020  0.1014  0.6448
  292TMC3    O1 4411   4.287   2.947   0.268  0.3783  0.0649 -0.3260
  292TMC3    O2 4412   3.824   3.317   0.577  0.7311 -0.2832 -0.3723
  293MPD2     C 4413   2.107   0.075  12.750 -0.0670  0.4602 -0.1501
  293MPD2    C1 4414   2.007   0.015  12.818 -0.3283 -0.0205 -0.2378
  293MPD2    C2 4415   2.003   0.036  12.958  0.4744  0.5904  0.0364
  293MPD2    C3 4416   2.105   0.105  13.022  0.0574  0.5514 -0.3510
  293MPD2    C4 4417   2.217   0.154  12.948 -0.3648 -0.1212  0.2297
  293MPD2    C5 4418   2.203   0.149  12.811  0.0366 -0.7518 -0.0570
  293MPD2     H 4419   1.921   0.002  13.020 -1.6491  1.9018 -2.0757
  293MPD2    H1 4420   2.303   0.198  12.997  0.4454 -0.1856 -1.1195
  293MPD2    H2 4421   2.103   0.055  12.644 -0.9480  1.9670 -0.3948
  293MPD2    H3 4422   2.285   0.182  12.748  0.9451 -0.5737  1.2134
  293MPD2     N 4423   2.099   0.119  13.156  0.8796  0.8403  0.3417
  293MPD2    H5 4424   2.036   0.057  13.204  0.3382 -0.0122 -1.4642
  293MPD2    N1 4425   1.897   4.687  12.748 -0.5780  0.3493 -0.3844
  293MPD2    H7 4426   1.898   4.677  12.647  1.5562  0.5834 -0.3959
  294TMC3    C1 4427   1.689   4.582  12.716 -0.5944  0.4261 -0.3435
  294TMC3    C2 4428   1.630   4.462  12.752  0.8069  0.5513  0.3852
  294TMC3    C3 4429   1.562   4.390  12.655 -0.4237  0.0033 -0.3124
  294TMC3    C4 4430   1.673   4.634  12.591  0.1463  0.7876 -0.0495
  294TMC3    C5 4431   1.594   4.570  12.497  0.4971  0.8512 -0.3433
  294TMC3    C6 4432   1.538   4.448  12.532  0.2710  0.1158 -0.2578
  294TMC3     C 4433   1.775   4.649  12.810 -0.6506 -0.1596  0.6625
  294TMC3     O 4434   1.731   4.636  12.926 -0.4989  0.0766 -1.2514
  294TMC3     H 4435   1.650   4.425  12.852 -2.0821  1.0986  1.1693
  294TMC3    H1 4436   1.701   0.015  12.575 -0.4177  0.7508 -1.2312
  294TMC3    H2 4437   1.486   4.403  12.448 -0.9870 -0.8855  1.0521
  294TMC3    C7 4438   1.531   4.655  12.390 -0.3414  0.4668 -1.0567
  294TMC3    C8 4439   1.541   4.248  12.692 -0.0430  0.4557  0.3232
  294TMC3    O1 4440   1.421   4.622  12.350 -0.3811 -0.5536 -0.3018
  294TMC3    O2 4441   1.525   4.231  12.810  0.3691 -0.0192  0.7994
  295MPD2     C 4442   1.634   3.531   0.073  0.1908  0.2658  0.3051
  295MPD2    C1 4443   1.735   3.599   0.141 -0.0552  0.5472  0.1544
  295MPD2    C2 4444   1.724   3.629   0.273 -0.5562  0.0712 -0.3199
  295MPD2    C3 4445   1.612   3.599   0.344 -0.4068  0.3874 -0.0855
  295MPD2    C4 4446   1.504   3.543   0.274  0.0366 -0.5152 -0.0488
  295MPD2    C5 4447   1.517   3.511   0.142  0.5299  0.8355  0.4460
  295MPD2     H 4448   1.805   3.679   0.325  0.1734 -1.6314  0.1829
  295MPD2    H1 4449   1.407   3.532   0.322  0.1352 -1.9279 -0.1789
  295MPD2    H2 4450   1.648   3.516  17.660  0.4543 -0.7726  0.4852
  295MPD2    H3 4451   1.430   3.468   0.094  1.6108  0.1399 -0.8871
  295MPD2     N 4452   1.594   3.636   0.477  0.2263  0.0673 -0.1657
  295MPD2    H5 4453   1.500   3.630   0.515  0.2913 -2.0080 -0.3417
  295MPD2    N1 4454   1.860   3.634   0.081  0.8126 -0.3314 -0.4262
  295MPD2    H7 4455   1.925   3.681   0.144  0.0411  0.9591 -0.5811
  296TMC3    C1 4456   1.669   3.680   0.701 -0.0875  0.1602 -0.1281
  296TMC3    C2 4457   1.772   3.717   0.782  0.3155 -0.2295  0.4996
  296TMC3    C3 4458   1.762   3.679   0.912  0.7613  0.5126  0.1748
  296TMC3    C4 4459   1.548   3.632   0.747  0.1721  0.2301 -0.3672
  296TMC3    C5 4460   1.543   3.594   0.879 -0.6909 -0.1795 -0.1849
  296TMC3    C6 4461   1.650   3.620   0.965 -0.7509  0.2841 -0.6636
  296TMC3     C 4462   1.702   3.648   0.560  0.3313  0.5972 -0.3663
  296TMC3     O 4463   1.825   3.655   0.531  0.7031 -0.2635 -0.5720
  296TMC3     H 4464   1.859   3.762   0.734 -0.8680  0.9830 -0.5291
  296TMC3    H1 4465   1.468   3.598   0.681  0.0767  1.4548 -0.8825
  296TMC3    H2 4466   1.642   3.596   1.071  1.4935  0.7909 -0.3784
  296TMC3    C7 4467   1.410   3.577   0.934  0.0451 -0.1794  0.0550
  296TMC3    C8 4468   1.857   3.732   1.010 -0.5120 -0.4555  0.0061
  296TMC3    O1 4469   1.313   3.621   0.874 -0.1355  0.3268  0.1438
  296TMC3    O2 4470   1.825   3.706   1.125  0.2915  0.2223 -0.7891
  297MPD2     C 4471   4.268   1.002  16.885 -0.2847  0.4774 -0.3457
  297MPD2    C1 4472   4.231   1.097  16.787  0.0246  0.1123  0.8023
  297MPD2    C2 4473   4.312   1.192  16.741  0.1388  0.1956  0.0784
  297MPD2    C3 4474   4.445   1.205  16.792 -0.3067 -0.7087 -0.0900
  297MPD2    C4 4475   4.492   1.109  16.877  0.4352 -0.0865  0.5482
  297MPD2    C5 4476   4.404   1.013  16.916  0.2787  0.4471  0.7340
  297MPD2     H 4477   4.265   1.264  16.677 -0.1127 -0.8532 -0.9236
  297MPD2    H1 4478   4.591   1.113  16.922  1.0947 -0.0854 -0.8880
  297MPD2    H2 4479   4.209   0.920  16.925  1.4600 -0.3809  0.4881
  297MPD2    H3 4480   4.439   0.936  16.984  1.3611  2.5813  2.5990
  297MPD2     N 4481   4.526   1.311  16.742  0.2427  0.7540 -0.1176
  297MPD2    H5 4482   4.479   1.372  16.677 -0.2024 -0.1536 -0.6507
  297MPD2    N1 4483   4.106   1.104  16.731  0.2191  0.3574 -0.4630
  297MPD2    H7 4484   4.095   1.165  16.651  2.5362 -0.2290 -1.2228
  298TMC3    C1 4485   3.882   1.071  16.691  0.2106  0.6354 -0.3561
  298TMC3    C2 4486   3.916   1.065  16.567  0.0118 -0.3249 -0.3343
  298TMC3    C3 4487   3.851   1.136  16.469  0.1965  0.3544 -0.2303
  298TMC3    C4 4488   3.785   1.159  16.735 -0.0371 -0.0334 -0.7829
  298TMC3    C5 4489   3.736   1.244  16.643 -0.2280 -0.2828 -0.6518
  298TMC3    C6 4490   3.773   1.241  16.512  0.0595  0.4557  0.2314
  298TMC3     C 4491   3.997   1.036  16.776 -0.9161  0.5257 -0.3364
  298TMC3     O 4492   3.980   0.964  16.875 -0.1854  0.2045  0.6862
  298TMC3     H 4493   3.988   0.990  16.535 -1.2803 -0.5844 -2.6446
  298TMC3    H1 4494   3.760   1.176  16.839  0.4980  1.4255 -0.8956
  298TMC3    H2 4495   3.746   1.326  16.451 -0.4261 -0.0002 -0.1900
  298TMC3    C7 4496   3.651   1.350  16.689 -0.4385 -0.2895 -0.2494
  298TMC3    C8 4497   3.909   1.147  16.341 -0.0212  0.5192 -0.1154
  298TMC3    O1 4498   3.667   1.388  16.798  0.3405 -0.3541  0.8195
  298TMC3    O2 4499   4.016   1.093  16.340 -0.1926 -0.5835  0.0623
  299MPD2     C 4500   0.464   0.888  10.159 -0.6401 -0.1540 -0.3070
  299MPD2    C1 4501   0.408   0.845  10.275 -0.7776 -0.0613  1.1927
  299MPD2    C2 4502   0.296   0.761  10.273 -0.2872  0.0716  0.2510
  299MPD2    C3 4503   0.256   0.700  10.154  0.2106 -0.7143  0.5316
  299MPD2    C4 4504   0.318   0.744  10.038 -0.0256 -0.0465 -0.1491
  299MPD2    C5 4505   0.422   0.834  10.041 -0.7238 -0.2435 -0.2487
  299MPD2     H 4506   0.246   0.752  10.369 -1.7401 -1.0492 -0.5969
  299MPD2    H1 4507   0.288   0.700   9.943  1.1089  0.0605 -0.5597
  299MPD2    H2 4508   0.556   0.946  10.155 -0.5279 -0.2985  0.2210
  299MPD2    H3 4509   0.462   0.870   9.947  1.0461 -3.6204 -0.7727
  299MPD2     N 4510   0.145   0.615  10.150  0.4449  0.0083 -0.3865
  299MPD2    H5 4511   0.099   0.584  10.065  0.2399 -0.8532  0.0349
  299MPD2    N1 4512   0.466   0.888  10.397  0.3532 -0.1059 -0.2366
  299MPD2    H7 4513   0.537   0.960  10.392  1.9416 -1.7071 -0.7226
  300TMC3    C1 4514   4.704   0.470  10.233  0.1868  0.5943  0.1791
  300TMC3    C2 4515   4.638   0.420  10.348 -0.1939  0.9058  0.3347
  300TMC3    C3 4516   4.528   0.338  10.331 -0.0733  0.1159  0.4137
  300TMC3    C4 4517   4.667   0.439  10.108  0.0538  0.4371 -0.5113
  300TMC3    C5 4518   4.556   0.351  10.092 -0.8159  0.0995 -0.5972
  300TMC3    C6 4519   4.482   0.304  10.199  0.0500  0.6206 -0.3938
  300TMC3     C 4520   0.089   0.563  10.260 -0.2210 -0.0164  0.0565
  300TMC3     O 4521   0.119   0.571  10.378  0.4505 -0.1122  0.2282
  300TMC3     H 4522   4.684   0.428  10.446 -0.3602  0.0046  0.4862
  300TMC3    H1 4523   4.718   0.457  10.014  0.7641 -0.6474 -0.3251
  300TMC3    H2 4524   4.390   0.248  10.199 -0.3271  1.2414  1.0134
  300TMC3    C7 4525   4.481   0.368   9.973  0.5136  0.5165  0.1117
  300TMC3    C8 4526   4.417   0.357  10.427  0.1521 -0.7269  0.0834
  300TMC3    O1 4527   4.487   0.475   9.910 -0.2988  0.2176  0.1783
  300TMC3    O2 4528   4.307   0.314  10.402  0.1489  0.0827  0.4287
  301MPD2     C 4529   1.513   2.278   1.862 -0.6323 -0.4505 -0.2428
  301MPD2    C1 4530   1.433   2.281   1.746  0.1942  0.0533 -0.2972
  301MPD2    C2 4531   1.456   2.181   1.651 -0.2000 -0.5644  0.1632
  301MPD2    C3 4532   1.562   2.096   1.670 -0.3165  1.0853 -0.2862
  301MPD2    C4 4533   1.637   2.094   1.786  0.5816  0.3222 -0.1226
  301MPD2    C5 4534   1.610   2.183   1.887 -0.2784 -0.2029  0.0128
  301MPD2     H 4535   1.380   2.175   1.575 -0.8754 -1.2851  0.8933
  301MPD2    H1 4536   1.726   2.033   1.787  0.2979 -0.1006 -0.9778
  301MPD2    H2 4537   1.515   2.363   1.929 -1.4803 -2.1467  1.9012
  301MPD2    H3 4538   1.674   2.188   1.975  0.6465  2.0247 -0.7858
  301MPD2     N 4539   1.603   2.010   1.567  0.0608  0.3992  0.5659
  301MPD2    H5 4540   1.687   1.954   1.578  0.9360  1.3841 -0.9907
  301MPD2    N1 4541   1.337   2.385   1.712  0.1538 -0.4422 -0.3510
  301MPD2    H7 4542   1.280   2.374   1.629 -1.2339 -0.0653  0.5432
  302TMC3    C1 4543   1.620   1.893   1.364 -0.1807  0.1785 -0.1554
  302TMC3    C2 4544   1.740   1.930   1.307  0.6741 -0.6035  0.1233
  302TMC3    C3 4545   1.765   1.869   1.190  0.0641 -0.1786 -0.4439
  302TMC3    C4 4546   1.529   1.806   1.309 -0.1609 -0.3523 -0.0480
  302TMC3    C5 4547   1.567   1.731   1.205 -0.6226 -0.3901  0.1291
  302TMC3    C6 4548   1.692   1.764   1.145 -0.3898  1.1902  0.1496
  302TMC3     C 4549   1.548   1.995   1.446 -0.0291  0.7271 -0.3090
  302TMC3     O 4550   1.434   2.025   1.401  0.2651  0.2063  0.1090
  302TMC3     H 4551   1.792   2.015   1.351 -1.2402  0.3758  0.5004
  302TMC3    H1 4552   1.439   1.798   1.370 -0.5062  0.9090 -0.3881
  302TMC3    H2 4553   1.722   1.725   1.049 -1.1795  1.6503 -0.2905
  302TMC3    C7 4554   1.479   1.656   1.118 -0.4408  0.4062  0.1196
  302TMC3    C8 4555   1.880   1.913   1.113 -0.3793  0.2427 -0.1396
  302TMC3    O1 4556   1.524   1.619   1.014  0.1956 -0.3282  0.3485
  302TMC3    O2 4557   1.942   1.830   1.050  0.0727  0.1072 -0.1824
  303MPD2     C 4558   2.531   0.415  10.659  0.5792  0.6031  0.5066
  303MPD2    C1 4559   2.408   0.431  10.600 -1.1436  0.6472 -0.1355
  303MPD2    C2 4560   2.387   0.509  10.492 -0.0835 -0.2898 -0.1323
  303MPD2    C3 4561   2.497   0.580  10.438  0.4421  0.4590 -0.3960
  303MPD2    C4 4562   2.619   0.568  10.499  0.3892  0.1984 -0.9092
  303MPD2    C5 4563   2.635   0.492  10.608  1.3661  0.9186  0.2353
  303MPD2     H 4564   2.285   0.523  10.455  0.2089 -1.4874 -1.4208
  303MPD2    H1 4565   2.704   0.618  10.454  2.6071 -2.6414  0.1660
  303MPD2    H2 4566   2.562   0.349  10.740  1.4949 -0.7680 -0.9571
  303MPD2    H3 4567   2.732   0.504  10.655  1.1355  0.4940  0.8241
  303MPD2     N 4568   2.479   0.655  10.320 -0.0258  0.2845 -0.4639
  303MPD2    H5 4569   2.567   0.676  10.275 -0.4186  1.0192 -0.9011
  303MPD2    N1 4570   2.307   0.360  10.663  0.1763 -0.2206  0.2047
  303MPD2    H7 4571   2.324   0.303  10.745  0.7850  2.0630  1.6722
  304TMC3    C1 4572   2.102   0.294  10.733 -0.8093 -0.8933 -0.4349
  304TMC3    C2 4573   1.973   0.334  10.743  0.9367 -0.6264  0.2438
  304TMC3    C3 4574   1.882   0.250  10.801 -0.1092  0.0421  0.7101
  304TMC3    C4 4575   2.132   0.160  10.742 -0.2877  0.7495  0.6726
  304TMC3    C5 4576   2.039   0.073  10.795  0.1754  0.1250 -0.0257
  304TMC3    C6 4577   1.912   0.118  10.824  0.8665  0.7207  0.1808
  304TMC3     C 4578   2.175   0.364  10.636 -0.5327 -0.4635 -0.0440
  304TMC3     O 4579   2.109   0.406  10.542 -0.3826 -0.1630 -0.3548
  304TMC3     H 4580   1.951   0.437  10.717  0.5909 -0.6449  0.4604
  304TMC3    H1 4581   2.229   0.118  10.722 -1.5326 -0.8878 -1.9627
  304TMC3    H2 4582   1.833   0.061  10.872  2.2095 -0.9218  0.4514
  304TMC3    C7 4583   2.044   4.685  10.714 -0.3841  0.4762 -0.9762
  304TMC3    C8 4584   1.761   0.251  10.731 -0.4922 -0.4909  0.5082
  304TMC3    O1 4585   2.145   4.616  10.711 -0.4638 -0.4836  0.0129
  304TMC3    O2 4586   1.735   0.142  10.687  0.0836  0.3092 -0.2931
  305MPD2     C 4587   0.828   2.107  14.046  0.4544  0.3853 -0.8113
  305MPD2    C1 4588   0.725   2.019  14.065  0.2878  0.1862 -0.1281
  305MPD2    C2 4589   0.672   1.935  13.960 -0.5482 -0.6254 -0.0568
  305MPD2    C3 4590   0.712   1.970  13.832 -0.5957  0.3403  0.2270
  305MPD2    C4 4591   0.810   2.067  13.820  0.0239 -0.5142 -0.2453
  305MPD2    C5 4592   0.868   2.132  13.924 -0.4127 -0.3947 -1.6494
  305MPD2     H 4593   0.594   1.865  13.987 -0.8612 -0.5198 -0.6853
  305MPD2    H1 4594   0.852   2.089  13.722  2.5205 -1.1252  0.6916
  305MPD2    H2 4595   0.880   2.160  14.125 -1.5733 -2.4567  2.4642
  305MPD2    H3 4596   0.961   2.187  13.915 -2.2259  2.8136 -0.8841
  305MPD2     N 4597   0.660   1.919  13.711 -0.4863 -0.4787 -0.4892
  305MPD2    H5 4598   0.689   1.961  13.623 -0.7623  1.6012  0.4161
  305MPD2    N1 4599   0.685   2.003  14.203 -0.4629  0.2113  0.4628
  305MPD2    H7 4600   0.714   2.068  14.275 -0.4875 -0.2047  0.8452
  306TMC3    C1 4601   0.549   1.940  14.386  0.1954 -0.2064  0.0645
  306TMC3    C2 4602   0.607   1.843  14.466 -0.5701  0.2336 -0.0478
  306TMC3    C3 4603   0.663   1.881  14.586 -0.0762  0.2625  0.4582
  306TMC3    C4 4604   0.549   2.074  14.426  0.4425 -0.2390  0.1167
  306TMC3    C5 4605   0.592   2.107  14.546  0.0024 -0.1006 -0.7057
  306TMC3    C6 4606   0.649   2.009  14.628  0.2421 -0.0050 -0.0559
  306TMC3     C 4607   0.592   1.915  14.248  0.0921  0.1531 -0.5024
  306TMC3     O 4608   0.574   1.799  14.214  0.6532  0.2122 -0.5171
  306TMC3     H 4609   0.633   1.750  14.419  0.1674 -0.4304  1.6699
  306TMC3    H1 4610   0.539   2.149  14.348  2.1325  0.6328  0.7317
  306TMC3    H2 4611   0.685   2.036  14.727 -1.9249  0.4306  0.6237
  306TMC3    C7 4612   0.591   2.245  14.588 -0.4483 -0.1793  0.3129
  306TMC3    C8 4613   0.725   1.777  14.662  0.0612  0.7171  0.1094
  306TMC3    O1 4614   0.519   2.323  14.520 -0.0892 -0.9114 -0.8558
  306TMC3    O2 4615   0.725   1.669  14.608 -0.0757 -0.4853  0.4578
  307MPD2     C 4616   3.156   0.273  17.570 -0.6266  0.2953 -0.0451
  307MPD2    C1 4617   3.182   0.342  17.684  0.1503 -0.7604  0.2191
  307MPD2    C2 4618   3.186   0.273   0.109 -0.3140 -0.1744 -0.1306
  307MPD2    C3 4619   3.176   0.133   0.110  0.1939  0.4113 -0.7758
  307MPD2    C4 4620   3.160   0.066  17.686  0.6877 -0.3107 -0.4613
  307MPD2    C5 4621   3.144   0.141  17.573 -0.2173  0.0066  0.2676
  307MPD2     H 4622   3.202   0.331   0.199 -0.6239 -2.3333  1.3065
  307MPD2    H1 4623   3.146   4.682  17.676 -2.0058  0.0309 -0.1426
  307MPD2    H2 4624   3.151   0.314  17.470  0.8368 -1.7654 -0.9664
  307MPD2    H3 4625   3.129   0.086  17.481 -1.0614 -0.8144  0.9048
  307MPD2     N 4626   3.190   0.064   0.230  0.7800 -0.2778 -0.9740
  307MPD2    H5 4627   3.212   0.113   0.316 -1.1391  2.1100 -1.8446
  307MPD2    N1 4628   3.209   0.482  17.684 -0.0709 -0.2004  0.2311
  307MPD2    H7 4629   3.217   0.521   0.085  0.8096 -0.7109  0.3709
  308TMC3    C1 4630   3.065   4.491   0.532 -0.2441 -0.2443  0.2839
  308TMC3    C2 4631   3.103   4.578   0.627  0.5451 -0.0548  0.0827
  308TMC3    C3 4632   3.204   4.663   0.595 -0.0590  0.0435 -0.2762
  308TMC3    C4 4633   3.107   4.499   0.408  0.2968 -0.5496 -0.8055
  308TMC3    C5 4634   3.201   4.590   0.372 -0.2227 -0.1212  0.4904
  308TMC3    C6 4635   3.251   4.676   0.465 -0.6105  0.1803 -0.0441
  308TMC3     C 4636   2.929   4.445   0.531  0.4251 -1.0710  0.4948
  308TMC3     O 4637   2.903   4.341   0.479 -0.1153 -0.1505  0.1832
  308TMC3     H 4638   3.062   4.583   0.728 -1.5338 -2.5702 -0.6315
  308TMC3    H1 4639   3.061   4.439   0.330 -1.6364 -0.5446  0.3155
  308TMC3    H2 4640   3.318   0.039   0.463  0.0312 -0.3214  0.1232
  308TMC3    C7 4641   3.163   4.651   0.245 -0.0566  0.0744  0.4498
  308TMC3    C8 4642   3.274   0.013   0.702  0.5954 -0.3434  0.1204
  308TMC3    O1 4643   3.108   4.572   0.170 -0.3972 -0.4993 -0.4741
  308TMC3    O2 4644   3.395   4.716   0.701  0.4493  0.1789  0.4053
  309MPD2     C 4645   2.424   0.441  17.411 -0.1072 -0.1039 -0.1091
  309MPD2    C1 4646   2.361   0.527  17.325 -0.4063  0.0892  0.6264
  309MPD2    C2 4647   2.249   0.596  17.365  0.5604  0.2143  0.5469
  309MPD2    C3 4648   2.195   0.579  17.492  0.5664 -0.2104  0.1102
  309MPD2    C4 4649   2.251   0.484  17.573 -0.2433 -0.1115 -0.6936
  309MPD2    C5 4650   2.364   0.416  17.536 -0.1069  0.5168  0.2745
  309MPD2     H 4651   2.208   0.668  17.295  1.2840  0.9522  0.8783
  309MPD2    H1 4652   2.217   0.474  17.675 -0.1484  2.4538 -0.4216
  309MPD2    H2 4653   2.506   0.376  17.381  0.4026  0.4893  0.0237
  309MPD2    H3 4654   2.418   0.348  17.601  2.2585  1.3665 -0.7738
  309MPD2     N 4655   2.097   0.668  17.547  0.5676 -0.0066 -0.8574
  309MPD2    H5 4656   2.060   0.637  17.637  0.2533  2.7252 -0.0645
  309MPD2    N1 4657   2.408   0.553  17.195 -0.3157 -0.3980 -0.1611
  309MPD2    H7 4658   2.350   0.620  17.146  1.0896  0.9661  0.0382
  310TMC3    C1 4659   2.554   0.573  17.017 -0.1810  0.2358  0.3053
  310TMC3    C2 4660   2.456   0.640  16.951  0.3302 -0.1181  0.0811
  310TMC3    C3 4661   2.489   0.718  16.849 -0.1493  0.7883  0.5738
  310TMC3    C4 4662   2.685   0.574  16.977  0.3868  0.0777  0.0649
  310TMC3    C5 4663   2.714   0.655  16.868 -0.3872  0.0811  0.0120
  310TMC3    C6 4664   2.624   0.741  16.816 -0.5709  0.5593  0.0776
  310TMC3     C 4665   2.524   0.505  17.141  0.1462 -0.0659 -0.4752
  310TMC3     O 4666   2.606   0.433  17.187 -0.2290 -0.1717 -0.3059
  310TMC3     H 4667   2.353   0.616  16.973 -0.0898  2.0843  0.4446
  310TMC3    H1 4668   2.768   0.537  17.036  2.1107  3.2008 -0.3927
  310TMC3    H2 4669   2.656   0.808  16.737 -0.8773  0.0824 -0.4534
  310TMC3    C7 4670   2.855   0.658  16.822  0.8107 -0.2391 -0.1831
  310TMC3    C8 4671   2.382   0.742  16.755  0.0626 -0.6433  0.1230
  310TMC3    O1 4672   2.885   0.761  16.765  0.2850 -0.0247 -0.2611
  310TMC3    O2 4673   2.271   0.688  16.765 -0.2328  0.2509  0.6581
  311MPD2     C 4674   4.160   1.457  13.091 -0.0761  0.0035  0.0468
  311MPD2    C1 4675   4.163   1.588  13.058  0.1902 -0.5816 -0.2911
  311MPD2    C2 4676   4.048   1.659  13.072 -0.3943 -0.1338 -0.2553
  311MPD2    C3 4677   3.930   1.600  13.118 -0.7305  0.4004 -0.1930
  311MPD2    C4 4678   3.935   1.471  13.167 -0.5479  0.0379 -0.2880
  311MPD2    C5 4679   4.053   1.401  13.153 -0.0449  0.2991 -0.7817
  311MPD2     H 4680   4.058   1.766  13.057 -3.3025  0.1368 -0.2046
  311MPD2    H1 4681   3.848   1.419  13.206 -0.2897 -0.2476 -0.0925
  311MPD2    H2 4682   4.248   1.394  13.082  0.7325  1.1358  0.0425
  311MPD2    H3 4683   4.060   1.293  13.158 -0.4284  0.4149  2.3913
  311MPD2     N 4684   3.814   1.678  13.119  0.4647 -0.4461 -0.9585
  311MPD2    H5 4685   3.836   1.771  13.086 -1.4995  0.4652  0.3275
  311MPD2    N1 4686   4.280   1.655  13.006  0.9841 -0.1741 -0.3357
  311MPD2    H7 4687   4.263   1.748  12.969  3.3243 -0.3377 -1.8942
  312TMC3    C1 4688   3.591   1.745  13.109  0.4964 -0.1877 -0.1737
  312TMC3    C2 4689   3.481   1.713  13.042 -0.3225 -0.2504 -0.4183
  312TMC3    C3 4690   3.390   1.808  13.007  0.7891 -0.4319  0.1428
  312TMC3    C4 4691   3.607   1.875  13.157 -0.3991 -0.6569 -0.1602
  312TMC3    C5 4692   3.508   1.960  13.124  0.3595 -0.3647 -0.5143
  312TMC3    C6 4693   3.400   1.937  13.047 -0.2619  0.1586 -0.6215
  312TMC3     C 4694   3.684   1.639  13.131 -1.1906  0.3444 -0.4813
  312TMC3     O 4695   3.641   1.527  13.155 -0.1962  0.2146  0.2556
  312TMC3     H 4696   3.467   1.609  13.012  1.3103 -0.5524 -0.1223
  312TMC3    H1 4697   3.700   1.889  13.212  0.4993 -0.5555 -1.7081
  312TMC3    H2 4698   3.325   2.014  13.036  0.4953  0.6945 -2.0497
  312TMC3    C7 4699   3.551   2.101  13.134  0.2156 -0.9488  0.0722
  312TMC3    C8 4700   3.267   1.757  12.948 -0.5727 -0.2521 -0.1362
  312TMC3    O1 4701   3.564   2.166  13.035 -0.0050 -0.2241 -0.1171
  312TMC3    O2 4702   3.246   1.641  12.982 -0.0970 -1.0560 -0.0810
  313MPD2     C 4703   3.282   1.359  11.271 -0.1629 -0.9332  0.0472
  313MPD2    C1 4704   3.386   1.447  11.245 -0.0744  0.1823  0.1861
  313MPD2    C2 4705   3.507   1.395  11.197  0.4573  0.1764  0.5469
  313MPD2    C3 4706   3.500   1.267  11.137 -0.2331 -0.4856  0.5458
  313MPD2    C4 4707   3.405   1.175  11.176  0.6622  0.4093  0.8912
  313MPD2    C5 4708   3.298   1.222  11.244 -0.0161  0.0071 -0.3352
  313MPD2     H 4709   3.597   1.450  11.174  1.8254 -0.6134  4.0163
  313MPD2    H1 4710   3.425   1.069  11.165 -1.6973  0.2259 -1.7064
  313MPD2    H2 4711   3.187   1.395  11.309  0.1452 -1.0679  0.9597
  313MPD2    H3 4712   3.223   1.156  11.286  0.5856 -1.4564 -1.5657
  313MPD2     N 4713   3.597   1.216  11.048  0.8335 -0.4384  0.5452
  313MPD2    H5 4714   3.573   1.122  11.019 -0.5884  0.3406 -0.7952
  313MPD2    N1 4715   3.379   1.581  11.265  0.5889  0.5973 -0.7860
  313MPD2    H7 4716   3.458   1.639  11.237  0.6920  1.5882  1.5656
  314TMC3    C1 4717   3.302   1.788  11.307 -0.1115 -0.7962  0.1024
  314TMC3    C2 4718   3.429   1.835  11.324  0.0681 -0.2495  0.1989
  314TMC3    C3 4719   3.469   1.955  11.263  0.3689 -0.3247  0.0287
  314TMC3    C4 4720   3.217   1.865  11.230 -0.2092  0.0200  0.0199
  314TMC3    C5 4721   3.255   1.990  11.185  0.3143 -0.4624  0.2747
  314TMC3    C6 4722   3.379   2.044  11.208 -0.2462  0.0858  0.3319
  314TMC3     C 4723   3.266   1.651  11.307  0.0906 -0.1456  0.1567
  314TMC3     O 4724   3.150   1.614  11.318  0.1664  0.2492  0.0398
  314TMC3     H 4725   3.504   1.767  11.363  0.1983 -0.6418 -0.7413
  314TMC3    H1 4726   3.135   1.813  11.183  0.2811 -0.1746 -0.6143
  314TMC3    H2 4727   3.399   2.144  11.171 -0.1978  0.4827  1.4591
  314TMC3    C7 4728   3.171   2.029  11.070 -0.4219 -0.2496 -0.7222
  314TMC3    C8 4729   3.600   2.008  11.285  0.8615  0.4094  0.3950
  314TMC3    O1 4730   3.056   1.995  11.068 -0.2427 -0.0051  0.5341
  314TMC3    O2 4731   3.623   2.102  11.213  0.1218  0.3305 -0.4662
  315MPD2     C 4732   3.548   0.647   0.799  0.0743 -0.4595  0.0473
  315MPD2    C1 4733   3.558   0.623   0.663  0.3322  0.3271 -0.4815
  315MPD2    C2 4734   3.543   0.724   0.575  0.3548  0.0792 -0.6067
  315MPD2    C3 4735   3.548   0.856   0.624 -0.5090  0.3426  0.3146
  315MPD2    C4 4736   3.532   0.878   0.760  0.0394  0.6528 -0.0808
  315MPD2    C5 4737   3.528   0.774   0.849 -0.0710 -0.3585  0.7222
  315MPD2     H 4738   3.542   0.698   0.470 -2.9450 -1.9213 -0.1031
  315MPD2    H1 4739   3.525   0.974   0.809 -0.5012 -0.7889  2.6384
  315MPD2    H2 4740   3.563   0.569   0.873  0.1731 -1.9475 -1.5291
  315MPD2    H3 4741   3.517   0.798   0.954 -2.2783  0.6501  0.2855
  315MPD2     N 4742   3.561   0.959   0.527 -0.5255 -0.3758  0.1914
  315MPD2    H5 4743   3.610   0.916   0.449 -0.7454  0.5415 -0.4584
  315MPD2    N1 4744   3.569   0.490   0.613  0.5170  1.3304  0.1896
  315MPD2    H7 4745   3.565   0.477   0.513  1.4308 -1.4823  0.4982
  316TMC3    C1 4746   3.588   1.175   0.440 -0.2240 -0.1950 -0.7443
  316TMC3    C2 4747   3.668   1.117   0.342  0.0854  0.5521 -0.3926
  316TMC3    C3 4748   3.670   1.176   0.216 -0.0516  0.4679  0.2545
  316TMC3    C4 4749   3.514   1.288   0.418 -0.2747  0.8150  0.3998
  316TMC3    C5 4750   3.525   1.346   0.290 -0.3285 -0.6814 -0.1468
  316TMC3    C6 4751   3.596   1.288   0.189 -0.3387  0.0044 -0.0878
  316TMC3     C 4752   3.540   1.089   0.546 -0.1161 -0.5463  0.0530
  316TMC3     O 4753   3.475   1.143   0.633 -0.6606 -0.6246  0.1923
  316TMC3     H 4754   3.747   1.053   0.379 -0.1511  0.2733 -0.3745
  316TMC3    H1 4755   3.453   1.323   0.500 -1.1700 -0.4880  0.2849
  316TMC3    H2 4756   3.602   1.342   0.095 -0.3148  0.4563  0.1723
  316TMC3    C7 4757   3.447   1.472   0.272 -0.8462  0.0457 -0.3365
  316TMC3    C8 4758   3.760   1.126   0.110  0.2253 -0.0534 -0.8880
  316TMC3    O1 4759   3.403   1.511   0.377 -0.5029  0.8441  0.3810
  316TMC3    O2 4760   3.766   1.205   0.017  0.0837 -0.4198 -0.2579
  317MPD2     C 4761   0.393   3.668  12.992 -0.4386  0.2154  0.5901
  317MPD2    C1 4762   0.423   3.533  12.972  0.3654 -0.3893  0.3340
  317MPD2    C2 4763   0.506   3.472  13.063 -0.6236  0.4900  0.5542
  317MPD2    C3 4764   0.566   3.537  13.169  0.0380 -0.5859 -0.4122
  317MPD2    C4 4765   0.533   3.675  13.188 -0.2112  0.0484  0.2938
  317MPD2    C5 4766   0.446   3.733  13.099 -0.7748  0.1309 -0.1284
  317MPD2     H 4767   0.513   3.364  13.065 -0.2432  0.5450  1.9940
  317MPD2    H1 4768   0.571   3.739  13.266 -0.0737  0.0763  0.2035
  317MPD2    H2 4769   0.310   3.716  12.940  0.1989  1.1227  0.4068
  317MPD2    H3 4770   0.421   3.837  13.111 -1.4555 -0.4356  3.2602
  317MPD2     N 4771   0.669   3.467  13.244 -0.2535 -0.2552  0.6871
  317MPD2    H5 4772   0.681   3.370  13.217 -3.2315 -0.1302 -1.0877
  317MPD2    N1 4773   0.372   3.438  12.881 -0.7775  0.0212 -0.5290
  317MPD2    H7 4774   0.390   3.340  12.899  0.3710 -0.2540 -3.1858
  318TMC3    C1 4775   0.796   3.426  13.429 -0.4716  0.2968  0.0704
  318TMC3    C2 4776   0.722   3.328  13.481 -0.3300  0.2044  0.8366
  318TMC3    C3 4777   0.791   3.240  13.564 -0.3169 -0.3618  0.1499
  318TMC3    C4 4778   0.928   3.441  13.450 -0.4522 -0.4518 -0.7437
  318TMC3    C5 4779   0.991   3.358  13.545 -0.1760 -0.3922  0.2461
  318TMC3    C6 4780   0.920   3.258  13.600 -0.0868  1.1500  0.3127
  318TMC3     C 4781   0.745   3.525  13.341  0.4277  0.5795 -0.1918
  318TMC3     O 4782   0.765   3.642  13.368  0.0146  0.5770 -0.0086
  318TMC3     H 4783   0.616   3.336  13.463 -0.2643 -3.0893 -1.0909
  318TMC3    H1 4784   0.970   3.532  13.407 -1.0908  0.5185  0.6866
  318TMC3    H2 4785   0.968   3.182  13.661  1.7209  0.6760 -1.6926
  318TMC3    C7 4786   1.137   3.377  13.537 -0.0750 -0.9058  0.4788
  318TMC3    C8 4787   0.721   3.126  13.615  0.7790 -0.1310 -0.2368
  318TMC3    O1 4788   1.174   3.450  13.448 -0.0937 -0.4751 -0.4063
  318TMC3    O2 4789   0.769   3.066  13.711  0.2087 -0.1183  0.2437
  319MPD2     C 4790   1.781   4.684  16.190 -0.3201 -0.0345  0.8363
  319MPD2    C1 4791   1.696   4.678  16.296  0.3852 -0.0569  0.0412
  319MPD2    C2 4792   1.558   4.638  16.272 -0.4132  0.4231 -0.5143
  319MPD2    C3 4793   1.520   4.622  16.138 -0.7482  0.4022  0.1480
  319MPD2    C4 4794   1.608   4.623  16.037 -0.0375 -0.5377  0.2240
  319MPD2    C5 4795   1.733   4.661  16.063  0.2620  0.5368 -1.4241
  319MPD2     H 4796   1.491   4.640  16.357 -1.1193 -0.1324 -1.0629
  319MPD2    H1 4797   1.581   4.603  15.935 -0.3681  1.2441 -0.0500
  319MPD2    H2 4798   1.888   4.694  16.202  0.3214 -1.9581 -3.2451
  319MPD2    H3 4799   1.805   4.676  15.983  0.7034 -0.4209 -1.2111
  319MPD2     N 4800   1.385   4.605  16.102  0.1070 -0.5542 -0.1593
  319MPD2    H5 4801   1.357   4.621  16.006 -0.5780  0.9558  0.2802
  319MPD2    N1 4802   1.727   4.712  16.428 -0.3689 -0.0414  0.3158
  319MPD2    H7 4803   1.646   4.715  16.489 -0.3441  1.3162  0.2864
  320TMC3    C1 4804   1.168   4.553  16.107 -0.3442  0.2624  0.1745
  320TMC3    C2 4805   1.139   4.669  16.041 -0.2276 -0.3612  0.0581
  320TMC3    C3 4806   1.012   4.684  15.986  0.6302  0.2543 -0.5020
  320TMC3    C4 4807   1.074   4.458  16.132 -0.5472 -0.3379  0.0163
  320TMC3    C5 4808   0.951   4.477  16.082  0.1922 -0.1961  0.2525
  320TMC3    C6 4809   0.921   4.577  15.998  0.7798  0.0996  0.7643
  320TMC3     C 4810   1.290   4.550  16.182 -0.8511 -0.6066  0.2052
  320TMC3     O 4811   1.288   4.492  16.286 -0.1519 -0.2266  0.0126
  320TMC3     H 4812   1.216   0.022  16.041 -1.6346  1.0740 -0.2655
  320TMC3    H1 4813   1.107   4.365  16.177 -1.9872  0.5764  2.9757
  320TMC3    H2 4814   0.824   4.582  15.949  0.6381  1.1974  1.1649
  320TMC3    C7 4815   0.847   4.378  16.096 -0.3182  0.2435 -0.4120
  320TMC3    C8 4816   0.970   0.103  15.987  0.6111  0.4547  0.8964
  320TMC3    O1 4817   0.768   4.353  16.001 -0.7785  0.0418 -0.2429
  320TMC3    O2 4818   1.054   0.194  15.998 -0.2126  0.0646  0.4902
  321TMC3    C1 4819   1.808   0.134  16.592 -0.4925 -0.3992 -0.7825
  321TMC3    C2 4820   1.694   0.115  16.662  0.0217  0.2342  0.9784
  321TMC3    C3 4821   1.635   0.217  16.730  0.0695 -0.4153 -0.2252
  321TMC3    C4 4822   1.889   0.244  16.621  0.8690 -0.4165  0.7058
  321TMC3    C5 4823   1.834   0.342  16.696 -0.3081 -0.1978 -0.2434
  321TMC3    C6 4824   1.704   0.333  16.746  0.7772  0.0232  0.4096
  321TMC3     C 4825   1.847   0.046  16.478  0.2047  1.2061 -0.7620
  321TMC3     O 4826   1.955   0.062  16.419  0.3104 -0.2018 -0.2563
  321TMC3     H 4827   1.637   0.024  16.649  1.9957 -0.4383 -3.1373
  321TMC3    H1 4828   1.981   0.266  16.569 -0.9180  0.6606 -1.9682
  321TMC3    H2 4829   1.658   0.418  16.796 -2.2950  0.6839 -3.5871
  321TMC3    C7 4830   1.916   0.391  16.802 -0.1486  0.5508 -0.3322
  321TMC3    C8 4831   1.545   0.190  16.838 -0.1250 -0.2271 -0.1729
  321TMC3    O1 4832   1.999   0.315  16.848 -0.8823  0.4780  0.2738
  321TMC3    O2 4833   1.527   0.273  16.927  0.1293  0.1044 -0.1648
  322MPD2     C 4834   0.643   0.934  13.217 -0.0911 -0.2525  0.0746
  322MPD2    C1 4835   0.592   0.867  13.325  0.7845  0.1417  0.1343
  322MPD2    C2 4836   0.605   0.729  13.335 -0.5822 -0.3555  0.2481
  322MPD2    C3 4837   0.662   0.653  13.233 -0.4185  0.7373  0.1363
  322MPD2    C4 4838   0.709   0.718  13.124  0.3766 -0.6741 -0.5704
  322MPD2    C5 4839   0.702   0.857  13.115 -0.3306 -0.0134 -0.8349
  322MPD2     H 4840   0.566   0.682  13.424 -1.9582 -2.2225 -1.3613
  322MPD2    H1 4841   0.761   0.665  13.046  0.4225  0.1707 -1.1224
  322MPD2    H2 4842   0.631   1.042  13.207 -0.0314 -0.3369 -0.9311
  322MPD2    H3 4843   0.735   0.911  13.027  2.5833  0.0425  0.3144
  322MPD2     N 4844   0.670   0.515  13.258  0.5504  0.0616  0.0354
  322MPD2    H5 4845   0.615   0.476  13.333  0.0470 -0.8269 -0.8021
  322MPD2    N1 4846   0.547   0.959  13.421  0.4525 -0.1717  0.3387
  322MPD2    H7 4847   0.570   1.055  13.398 -0.7003  0.0407  0.0685
  323TMC3    C1 4848   0.466   1.041  13.635 -0.5832  0.3220  0.0405
  323TMC3    C2 4849   0.506   1.169  13.601 -0.1083  0.5293 -0.3036
  323TMC3    C3 4850   0.503   1.269  13.695  0.4235  0.1983  0.4268
  323TMC3    C4 4851   0.415   1.012  13.755 -0.0236 -0.0819 -0.5631
  323TMC3    C5 4852   0.409   1.115  13.849 -0.2550 -0.4122 -0.3720
  323TMC3    C6 4853   0.448   1.243  13.821  0.6058  0.3773  0.0083
  323TMC3     C 4854   0.492   0.932  13.543 -0.3797 -0.4571 -0.0977
  323TMC3     O 4855   0.435   0.825  13.574  0.2012  0.1225 -0.2780
  323TMC3     H 4856   0.570   1.181  13.514  3.0681  1.4863  2.1427
  323TMC3    H1 4857   0.366   0.921  13.787  0.0666 -0.1967 -0.7550
  323TMC3    H2 4858   0.409   1.324  13.882  1.2644  0.0152  0.9080
  323TMC3    C7 4859   0.446   1.068  13.980 -0.4822  0.1261  0.4383
  323TMC3    C8 4860   0.619   1.352  13.721 -0.0707  0.1058  0.3335
  323TMC3    O1 4861   0.438   0.953  14.006 -0.3585  0.0537  0.1708
  323TMC3    O2 4862   0.653   1.368  13.838  0.7061 -0.7360 -0.0905
  324MPD2     C 4863   1.946   2.228  14.264 -0.1983 -0.5373 -0.0580
  324MPD2    C1 4864   1.968   2.361  14.304 -0.5280 -0.2587 -0.2860
  324MPD2    C2 4865   1.866   2.451  14.330  0.7813 -0.4364  1.0437
  324MPD2    C3 4866   1.741   2.410  14.310  0.6670  0.5225 -0.2451
  324MPD2    C4 4867   1.718   2.282  14.261  0.2281  0.5673 -0.3127
  324MPD2    C5 4868   1.815   2.197  14.232 -0.8421 -0.0345 -0.5184
  324MPD2     H 4869   1.885   2.552  14.366  2.4763 -0.8500  1.3334
  324MPD2    H1 4870   1.620   2.240  14.241  1.3694 -1.3100 -1.9847
  324MPD2    H2 4871   2.024   2.153  14.264  2.3079  2.0780  0.5231
  324MPD2    H3 4872   1.772   2.100  14.210  0.9968 -0.9818  0.0372
  324MPD2     N 4873   1.633   2.501  14.320 -0.2380  0.6187  0.1753
  324MPD2    H5 4874   1.541   2.471  14.289  0.6867  0.6627 -2.6040
  324MPD2    N1 4875   2.097   2.416  14.315  0.7379 -0.2930 -0.4144
  324MPD2    H7 4876   2.108   2.511  14.348  0.0235 -0.6850  0.9809
  325TMC3    C1 4877   1.504   2.683  14.352  0.1981 -0.1973  0.3191
  325TMC3    C2 4878   1.387   2.606  14.360  0.1297  0.1607 -0.4893
  325TMC3    C3 4879   1.266   2.674  14.333  0.3799 -0.2025  0.5435
  325TMC3    C4 4880   1.498   2.816  14.331 -0.1091 -0.0537  0.1180
  325TMC3    C5 4881   1.376   2.874  14.300 -0.2646 -0.1818 -0.1798
  325TMC3    C6 4882   1.253   2.806  14.310 -0.7166 -0.7039  0.6666
  325TMC3     C 4883   1.640   2.634  14.358 -0.5166  0.5361 -0.7180
  325TMC3     O 4884   1.719   2.710  14.410  0.0585  0.2098  0.0866
  325TMC3     H 4885   1.369   2.503  14.389 -2.2352  0.7109  0.0204
  325TMC3    H1 4886   1.587   2.876  14.314 -0.6746  0.9454  0.6420
  325TMC3    H2 4887   1.166   2.850  14.263  1.2284  1.1230 -1.2280
  325TMC3    C7 4888   1.381   3.001  14.233 -0.1265 -0.6027  0.0528
  325TMC3    C8 4889   1.201   2.602  14.227  0.0358 -0.5980  0.1886
  325TMC3    O1 4890   1.452   3.005  14.137 -0.0883 -0.1647  0.4651
  325TMC3    O2 4891   1.273   2.516  14.173 -0.4184  0.3093 -0.4640
  326MPD2     C 4892   3.316   3.369  11.351 -0.0929 -0.4258  0.0243
  326MPD2    C1 4893   3.305   3.411  11.221  0.3631  0.0060  0.4827
  326MPD2    C2 4894   3.381   3.515  11.176 -0.8785 -0.8486  0.5321
  326MPD2    C3 4895   3.470   3.583  11.260  0.0510  0.0853  0.9059
  326MPD2    C4 4896   3.484   3.538  11.392  0.3087 -0.1249 -0.3946
  326MPD2    C5 4897   3.413   3.425  11.431 -0.3545 -0.4695  0.3775
  326MPD2     H 4898   3.359   3.547  11.075 -2.5061 -2.3938  0.3779
  326MPD2    H1 4899   3.561   3.579  11.457 -1.8471  0.4566  1.8144
  326MPD2    H2 4900   3.260   3.283  11.387 -0.6222  0.3580  1.0621
  326MPD2    H3 4901   3.428   3.372  11.524  0.1352  0.1078  0.6327
  326MPD2     N 4902   3.556   3.689  11.221 -0.5431 -0.0863 -0.0535
  326MPD2    H5 4903   3.619   3.720  11.296  0.4690  0.1415 -0.9969
  326MPD2    N1 4904   3.220   3.335  11.133  0.5281 -0.5377 -0.1584
  326MPD2    H7 4905   3.218   3.377  11.041  0.9289 -2.3178 -0.9695
  327TMC3    C1 4906   3.138   3.158  11.013  0.2426  0.3181 -0.2390
  327TMC3    C2 4907   3.040   3.236  10.958 -0.0291  0.0155  0.3031
  327TMC3    C3 4908   3.050   3.264  10.823 -0.2701  0.1223  0.0491
  327TMC3    C4 4909   3.249   3.115  10.938  0.5692 -0.0643  0.9101
  327TMC3    C5 4910   3.252   3.147  10.804  0.6798  0.1968  0.8556
  327TMC3    C6 4911   3.147   3.210  10.742 -0.4801 -0.3283  1.1311
  327TMC3     C 4912   3.179   3.203  11.143  0.0774 -0.2875  0.1880
  327TMC3     O 4913   3.196   3.122  11.234 -0.3038 -0.5138  0.1028
  327TMC3     H 4914   2.953   3.261  11.017 -0.8769  0.0027 -0.9544
  327TMC3    H1 4915   3.330   3.070  10.994  1.7912 -0.1396 -0.9280
  327TMC3    H2 4916   3.164   3.264  10.649 -0.3725 -0.9976  0.7670
  327TMC3    C7 4917   3.377   3.208  10.768  0.1298 -0.2855  0.3291
  327TMC3    C8 4918   2.984   3.385  10.763 -0.1066  0.3390  0.2525
  327TMC3    O1 4919   3.385   3.251  10.654  0.5105 -0.7571  0.7405
  327TMC3    O2 4920   2.959   3.481  10.834 -0.4634  0.0637  0.5392
  328MPD2     C 4921   1.137   3.571  17.317 -0.7559  0.7015  0.3399
  328MPD2    C1 4922   1.054   3.507  17.230  0.3877  0.8634  0.0316
  328MPD2    C2 4923   0.970   3.591  17.151 -0.4784 -0.0381 -0.4347
  328MPD2    C3 4924   0.967   3.726  17.174 -0.1783 -0.5668 -0.1552
  328MPD2    C4 4925   1.070   3.784  17.244 -0.3088  0.0451 -0.2438
  328MPD2    C5 4926   1.150   3.706  17.318  0.3656  0.1282  0.0143
  328MPD2     H 4927   0.909   3.555  17.069 -0.1264 -0.9059 -0.3123
  328MPD2    H1 4928   1.080   3.890  17.263 -1.1205  0.2748 -1.0502
  328MPD2    H2 4929   1.203   3.514  17.381 -1.1371 -0.2887 -0.1454
  328MPD2    H3 4930   1.229   3.744  17.381  1.4430 -2.7281  0.4000
  328MPD2     N 4931   0.863   3.809  17.119  0.1377 -0.3241 -0.2704
  328MPD2    H5 4932   0.873   3.909  17.132 -0.0781  0.0697 -3.2982
  328MPD2    N1 4933   1.053   3.369  17.233 -0.0696  0.0676 -0.2143
  328MPD2    H7 4934   1.102   3.331  17.312 -0.0317 -1.5283 -1.0078
  329TMC3    C1 4935   0.999   3.151  17.164 -0.0454  0.0896 -0.0057
  329TMC3    C2 4936   1.013   3.105  17.295  0.8000  0.4163 -0.0704
  329TMC3    C3 4937   1.067   2.983  17.318 -0.0547 -0.6549 -0.0503
  329TMC3    C4 4938   1.039   3.076  17.058 -0.2041  0.5282  0.3573
  329TMC3    C5 4939   1.090   2.951  17.085  0.0620 -0.1074  0.3278
  329TMC3    C6 4940   1.104   2.907  17.216  0.5713 -0.4081 -0.1821
  329TMC3     C 4941   1.002   3.289  17.136 -0.2233  0.8492  0.3626
  329TMC3     O 4942   0.959   3.329  17.031 -0.4161 -0.6418 -0.8418
  329TMC3     H 4943   0.971   3.174  17.368 -1.0325 -1.3891  0.5999
  329TMC3    H1 4944   1.028   3.114  16.958 -0.8184  0.5801  0.4470
  329TMC3    H2 4945   1.146   2.808  17.232  0.4466  0.4370  5.1802
  329TMC3    C7 4946   1.193   2.903  16.993  0.1923 -0.0671  0.4438
  329TMC3    C8 4947   1.075   2.922  17.453 -0.4962  0.3051  0.1007
  329TMC3    O1 4948   1.286   2.847  17.048 -0.3184  0.6628 -0.0826
  329TMC3    O2 4949   1.123   2.808  17.459  0.4246 -0.6746  0.0534
  330TMC3    C1 4950   3.638   3.853   9.496  0.3509  0.2540  0.6157
  330TMC3    C2 4951   3.632   3.743   9.413 -0.7973 -0.0717  0.3864
  330TMC3    C3 4952   3.645   3.617   9.472  0.0343  0.1744 -0.1614
  330TMC3    C4 4953   3.687   3.846   9.618 -0.3638 -0.5701 -0.1117
  330TMC3    C5 4954   3.703   3.716   9.670  0.1165  0.0386  0.0724
  330TMC3    C6 4955   3.687   3.599   9.604  0.2451  0.6976 -0.5192
  330TMC3     C 4956   3.568   3.979   9.465  0.2477 -0.2803  0.0730
  330TMC3     O 4957   3.601   4.074   9.538  0.0498 -0.0056  0.3492
  330TMC3     H 4958   3.593   3.752   9.312 -0.4739  0.5313  0.3098
  330TMC3    H1 4959   3.694   3.933   9.682 -0.9863 -0.1390 -0.6331
  330TMC3    H2 4960   3.703   3.505   9.656  1.0583  0.5930 -0.9578
  330TMC3    C7 4961   3.795   3.714   9.787  0.6073 -0.1884  0.0802
  330TMC3    C8 4962   3.669   3.513   9.376  0.6198 -0.1886 -0.0692
  330TMC3    O1 4963   3.857   3.816   9.813  0.1271 -0.0691 -0.8026
  330TMC3    O2 4964   3.698   3.546   9.259  0.0635  0.6696 -0.0894
  331MPD2     C 4965   1.275   1.939  12.681  0.2767 -0.9993 -0.6675
  331MPD2    C1 4966   1.367   1.930  12.577 -0.6269  0.6304 -0.2041
  331MPD2    C2 4967   1.423   1.808  12.544  0.2837  0.1224  0.1793
  331MPD2    C3 4968   1.386   1.699  12.616  0.2708  0.8339 -0.3881
  331MPD2    C4 4969   1.287   1.703  12.713  0.4209 -0.5151 -0.0332
  331MPD2    C5 4970   1.232   1.827  12.744 -0.6105 -0.1855 -0.0036
  331MPD2     H 4971   1.497   1.803  12.465  1.3892 -0.6452  1.2569
  331MPD2    H1 4972   1.259   1.616  12.770 -0.1309 -1.0340 -1.0853
  331MPD2    H2 4973   1.242   2.037  12.714 -0.6622 -1.9182  1.1052
  331MPD2    H3 4974   1.162   1.826  12.826 -2.2466 -0.7691 -1.4168
  331MPD2     N 4975   1.452   1.585  12.570 -0.2105  0.2466  0.5748
  331MPD2    H5 4976   1.535   1.605  12.514 -1.1525  1.1526 -0.5036
  331MPD2    N1 4977   1.412   2.043  12.509  0.5110 -0.6960  0.1620
  331MPD2    H7 4978   1.490   2.028  12.445  0.2149  1.1047 -0.6228
  332TMC3    C1 4979   1.516   1.373  12.530  0.1888 -0.8233  0.9354
  332TMC3    C2 4980   1.567   1.421  12.410 -0.1367 -0.2076 -0.3138
  332TMC3    C3 4981   1.650   1.337  12.341  0.2842 -0.0325  0.2794
  332TMC3    C4 4982   1.550   1.249  12.577  0.1681  0.0296  0.1083
  332TMC3    C5 4983   1.644   1.176  12.515  0.2559  0.0458 -0.7910
  332TMC3    C6 4984   1.696   1.219  12.396  0.1815 -0.1687  0.0866
  332TMC3     C 4985   1.428   1.455  12.608  0.3847 -0.3250  0.1626
  332TMC3     O 4986   1.357   1.413  12.698 -0.1988 -0.2899  0.0557
  332TMC3     H 4987   1.532   1.507  12.355 -1.7176 -0.1943  0.7288
  332TMC3    H1 4988   1.504   1.203  12.664  1.5257 -2.4569 -0.4777
  332TMC3    H2 4989   1.774   1.166  12.342  1.3575  2.5487 -0.9205
  332TMC3    C7 4990   1.721   1.080  12.591  0.7293 -0.0798  0.1997
  332TMC3    C8 4991   1.715   1.397  12.229 -0.6864 -0.3595  0.1466
  332TMC3    O1 4992   1.664   0.995  12.660 -0.3962  0.1742  0.0033
  332TMC3    O2 4993   1.718   1.519  12.227  0.6091  0.2768  0.4351
  333MPD2     C 4994   2.182   2.058  11.659 -0.6054  0.2224 -0.8081
  333MPD2    C1 4995   2.166   1.984  11.546 -0.4128  0.3332 -0.1717
  333MPD2    C2 4996   2.094   1.865  11.559 -0.3760  0.3414  0.7878
  333MPD2    C3 4997   2.008   1.842  11.663 -0.9359 -0.2547 -0.6439
  333MPD2    C4 4998   2.011   1.923  11.774 -0.1816 -0.6364 -0.0099
  333MPD2    C5 4999   2.101   2.027  11.770 -0.3694 -0.1027 -0.8290
  333MPD2     H 5000   2.093   1.801  11.472 -2.2584 -0.6057  1.4960
  333MPD2    H1 5001   1.932   1.920  11.849  2.0637  0.7583  2.3844
  333MPD2    H2 5002   2.241   2.149  11.664  0.4908 -0.6085  1.2330
  333MPD2    H3 5003   2.099   2.092  11.856 -0.4437 -1.1627 -0.0358
  333MPD2     N 5004   1.920   1.726  11.650  0.3698  0.0940  0.9105
  333MPD2    H5 5005   1.927   1.665  11.570  0.8290 -0.3835  1.3150
  333MPD2    N1 5006   2.220   2.038  11.422  0.4296 -0.0572 -0.2967
  333MPD2    H7 5007   2.292   2.109  11.426  1.8024 -1.3689 -2.2257
  334TMC3    C1 5008   2.272   2.042  11.182  0.2144 -0.0967  0.1708
  334TMC3    C2 5009   2.404   2.015  11.191 -0.2790 -0.4679  0.8004
  334TMC3    C3 5010   2.466   1.996  11.067 -0.4088  0.0696 -0.6594
  334TMC3    C4 5011   2.210   2.050  11.062  0.1112  0.1415 -0.6038
  334TMC3    C5 5012   2.272   2.028  10.938  0.2215  0.4799 -0.0322
  334TMC3    C6 5013   2.406   2.001  10.945  0.4522  0.3766 -0.0778
  334TMC3     C 5014   2.181   2.001  11.293  0.1509  0.9952 -0.2560
  334TMC3     O 5015   2.082   1.934  11.262 -0.5577 -0.3415 -0.4042
  334TMC3     H 5016   2.451   2.009  11.289  0.1147 -0.3594  0.6191
  334TMC3    H1 5017   2.109   2.085  11.050  0.1799  0.3550 -0.5509
  334TMC3    H2 5018   2.464   2.016  10.855  1.1501  1.5336  0.5694
  334TMC3    C7 5019   2.231   2.111  10.835 -0.5513 -0.5863  0.3473
  334TMC3    C8 5020   2.588   2.069  11.050  0.3778 -0.1828 -0.0379
  334TMC3    O1 5021   2.242   2.229  10.866  0.0781  0.4854 -0.1925
  334TMC3    O2 5022   2.604   2.141  10.955 -0.4680  0.3591  0.2886
  335TMC3    C1 5023   1.639   3.872  17.599  0.0924  0.5066 -0.6326
  335TMC3    C2 5024   1.567   3.768  17.536 -0.4164  0.6257  0.3996
  335TMC3    C3 5025   1.586   3.752  17.399  0.9121  0.1263 -0.8366
  335TMC3    C4 5026   1.737   3.941  17.529  0.4809 -0.1529 -0.2866
  335TMC3    C5 5027   1.752   3.916  17.392  0.0471 -0.4732  0.7226
  335TMC3    C6 5028   1.676   3.824  17.330  0.5609  1.1021  0.2099
  335TMC3     C 5029   1.594   3.910   0.034 -0.0012  0.5840 -0.1650
  335TMC3     O 5030   1.509   3.841   0.094 -0.7331 -0.3679  0.0179
  335TMC3     H 5031   1.481   3.723  17.584 -0.9390 -1.4187 -2.4553
  335TMC3    H1 5032   1.804   4.011  17.579  1.5187 -2.0538  0.9505
  335TMC3    H2 5033   1.702   3.802  17.227 -2.4184 -1.1893 -0.0853
  335TMC3    C7 5034   1.875   3.955  17.321  0.8517  0.3657 -0.3221
  335TMC3    C8 5035   1.529   3.639  17.333 -0.3709  0.0030  0.2573
  335TMC3    O1 5036   1.911   3.871  17.241  0.2026 -0.0255  0.7762
  335TMC3    O2 5037   1.557   3.622  17.212 -0.0253  0.0802 -0.3936
  336MPD2     C 5038   1.441   1.098  16.399 -0.2135 -0.5245  0.0414
  336MPD2    C1 5039   1.403   1.058  16.265  0.0889  0.0629 -0.0557
  336MPD2    C2 5040   1.378   0.920  16.245 -0.2229  0.1267  0.0313
  336MPD2    C3 5041   1.417   0.829  16.342  0.1234 -0.0675 -0.2240
  336MPD2    C4 5042   1.476   0.869  16.458  0.2289 -0.2564  0.1846
  336MPD2    C5 5043   1.479   1.006  16.484 -1.1666  0.5008  0.4286
  336MPD2     H 5044   1.345   0.878  16.151  0.1133 -0.1428  0.0310
  336MPD2    H1 5045   1.507   0.800  16.537  0.2560  1.3249  1.5524
  336MPD2    H2 5046   1.446   1.200  16.433  1.7263 -1.0520  1.3406
  336MPD2    H3 5047   1.532   1.017  16.577 -1.6642  0.5003  0.7111
  336MPD2     N 5048   1.416   0.691  16.314  0.4252 -0.2825  0.5817
  336MPD2    H5 5049   1.440   0.622  16.385 -1.8326  0.1698  1.7774
  336MPD2    N1 5050   1.366   1.148  16.166  0.5109 -0.0398  0.2849
  336MPD2    H7 5051   1.304   1.115  16.093  0.7966  0.4207 -0.1679
  337TMC3    C1 5052   1.310   1.363  16.084  0.3011 -0.0732 -0.4704
  337TMC3    C2 5053   1.190   1.308  16.034  0.1966 -0.2674 -0.0736
  337TMC3    C3 5054   1.109   1.383  15.952  0.1544  0.1396  0.3410
  337TMC3    C4 5055   1.342   1.495  16.064  0.2504  0.2121  0.4016
  337TMC3    C5 5056   1.266   1.564  15.978  0.2808 -0.4416 -0.6161
  337TMC3    C6 5057   1.154   1.512  15.922  0.0813 -0.6893  0.4363
  337TMC3     C 5058   1.386   1.282  16.180 -0.3875  0.3183  0.6973
  337TMC3     O 5059   1.479   1.330  16.241  0.4277 -0.4874 -0.1259
  337TMC3     H 5060   1.153   1.208  16.052  3.6720 -1.7402 -1.0756
  337TMC3    H1 5061   1.438   1.537  16.092  0.6950 -0.3077 -0.3393
  337TMC3    H2 5062   1.090   1.570  15.857  1.6850 -0.0671 -0.6019
  337TMC3    C7 5063   1.309   1.696  15.938 -0.0855 -0.4604 -0.1208
  337TMC3    C8 5064   0.963   1.373  15.978 -0.0545  0.1609  0.4087
  337TMC3    O1 5065   1.261   1.733  15.830  0.0062  0.6112 -0.4406
  337TMC3    O2 5066   0.926   1.309  16.076  0.0713  0.2985  0.4416
  338MPD2     C 5067   2.508   0.701   1.136 -0.1138 -0.0498  0.4440
  338MPD2    C1 5068   2.385   0.697   1.075 -0.5177 -0.9236 -0.2573
  338MPD2    C2 5069   2.293   0.789   1.118  0.1227  0.1917 -1.0487
  338MPD2    C3 5070   2.321   0.866   1.223  1.0761  0.0780  0.1875
  338MPD2    C4 5071   2.447   0.870   1.279 -0.8307  0.1981 -0.1278
  338MPD2    C5 5072   2.545   0.789   1.234  0.3134 -0.0989 -0.6620
  338MPD2     H 5073   2.195   0.788   1.070  0.4186 -2.2712 -1.5913
  338MPD2    H1 5074   2.479   0.942   1.354 -0.7394 -0.7025  0.6968
  338MPD2    H2 5075   2.579   0.628   1.100 -1.7979 -1.0172 -0.9139
  338MPD2    H3 5076   2.644   0.801   1.278  1.8484 -3.6954 -3.0920
  338MPD2     N 5077   2.218   0.951   1.261 -0.2866  0.2176 -0.3486
  338MPD2    H5 5078   2.131   0.953   1.208 -1.4117  0.0319  1.4576
  338MPD2    N1 5079   2.333   0.604   0.979 -0.0744  0.1788  0.3172
  338MPD2    H7 5080   2.239   0.619   0.945 -0.6443 -0.2736  1.7169
  339TMC3    C1 5081   2.113   1.125   1.363  0.2769 -0.0735  0.9344
  339TMC3    C2 5082   1.995   1.120   1.427 -0.0020  0.5106  0.4820
  339TMC3    C3 5083   1.891   1.193   1.376  0.3791  0.0546 -0.1546
  339TMC3    C4 5084   2.133   1.196   1.247 -0.5485 -0.0196  0.2929
  339TMC3    C5 5085   2.024   1.262   1.191 -0.4159  0.6569  0.6494
  339TMC3    C6 5086   1.911   1.271   1.262  0.7832 -0.1478  0.1685
  339TMC3     C 5087   2.212   1.023   1.378  0.0404  0.2107  0.2125
  339TMC3     O 5088   2.296   1.050   1.465  0.1608  0.3917 -0.1188
  339TMC3     H 5089   1.994   1.067   1.522 -0.8907  0.0101  0.1955
  339TMC3    H1 5090   2.230   1.182   1.202  0.6103  0.8172  2.5565
  339TMC3    H2 5091   1.819   1.316   1.228  1.0674  0.0175 -0.3870
  339TMC3    C7 5092   2.047   1.369   1.099 -0.0266 -0.0275 -0.2465
  339TMC3    C8 5093   1.768   1.195   1.439 -0.7360  0.3154  0.2308
  339TMC3    O1 5094   1.962   1.456   1.080 -0.2905 -0.1455 -0.6626
  339TMC3    O2 5095   1.708   1.299   1.441 -0.2249 -0.1259 -0.3628
  340MPD2     C 5096   1.292   4.082   9.758  0.1631  0.5564 -0.2767
  340MPD2    C1 5097   1.339   3.972   9.824  0.0804  0.3858 -0.2473
  340MPD2    C2 5098   1.448   3.995   9.912  0.5094  0.5738  0.1130
  340MPD2    C3 5099   1.504   4.123   9.934  0.0046 -0.0821 -0.0318
  340MPD2    C4 5100   1.439   4.230   9.872  0.4624  0.2004 -0.5257
  340MPD2    C5 5101   1.337   4.207   9.790 -0.0156  0.9565 -0.3924
  340MPD2     H 5102   1.485   3.912   9.970 -2.5836 -0.3444  0.7822
  340MPD2    H1 5103   1.469   4.333   9.890 -0.6273  0.7246 -1.7234
  340MPD2    H2 5104   1.219   4.077   9.678 -0.9332  2.1618  0.6347
  340MPD2    H3 5105   1.294   4.289   9.735 -2.4019 -0.9924 -1.4753
  340MPD2     N 5106   1.621   4.155  10.014  0.1577  0.0153 -0.3694
  340MPD2    H5 5107   1.626   4.253  10.040 -3.6704 -0.0591  0.5848
  340MPD2    N1 5108   1.293   3.840   9.786  0.1272 -0.1385 -0.3822
  340MPD2    H7 5109   1.218   3.843   9.718  1.1112 -0.4322 -1.4736
  341TMC3    C1 5110   1.347   3.619   9.723  0.7680  0.4595 -0.4783
  341TMC3    C2 5111   1.363   3.500   9.781  0.5789  0.5588  0.6374
  341TMC3    C3 5112   1.437   3.403   9.712  0.0194  0.5677  0.2927
  341TMC3    C4 5113   1.390   3.646   9.597  0.3727  0.7888 -0.1268
  341TMC3    C5 5114   1.453   3.543   9.530  0.7307  0.4243  0.5210
  341TMC3    C6 5115   1.483   3.419   9.588 -0.3887 -0.0083  0.1941
  341TMC3     C 5116   1.357   3.725   9.820 -0.3983  0.1056 -0.0246
  341TMC3     O 5117   1.436   3.710   9.911 -0.4835  0.3020  0.5760
  341TMC3     H 5118   1.337   3.500   9.886 -1.4897  1.9103  0.1322
  341TMC3    H1 5119   1.391   3.745   9.553 -0.1879 -0.3375 -2.6631
  341TMC3    H2 5120   1.547   3.352   9.532 -0.6610  1.0816 -1.4301
  341TMC3    C7 5121   1.559   3.584   9.434  0.2416  0.2140 -0.0589
  341TMC3    C8 5122   1.461   3.276   9.783  1.1065  0.1088 -0.1443
  341TMC3    O1 5123   1.597   3.495   9.358 -0.0174 -0.2643  0.2806
  341TMC3    O2 5124   1.375   3.244   9.865  0.2200 -0.1265  0.1968
  342MPD2     C 5125   4.546   1.805  17.039 -0.1780  0.0634 -0.0517
  342MPD2    C1 5126   4.528   1.735  17.159  0.0237 -0.0865 -0.6286
  342MPD2    C2 5127   4.466   1.802  17.264  0.2836  0.0168 -0.0828
  342MPD2    C3 5128   4.430   1.937  17.255 -0.0756  0.0499 -0.3245
  342MPD2    C4 5129   4.461   2.007  17.149  0.3049  0.0432  0.3388
  342MPD2    C5 5130   4.523   1.944  17.043  0.4524 -0.1425 -0.1634
  342MPD2     H 5131   4.441   1.744  17.352 -1.0357 -0.3620 -0.7071
  342MPD2    H1 5132   4.439   2.112  17.132 -0.0920  0.0059  0.6278
  342MPD2    H2 5133   4.584   1.760  16.949  1.4917  0.1211  0.6221
  342MPD2    H3 5134   4.557   2.005  16.960 -0.2155  1.1629  0.5124
  342MPD2     N 5135   4.383   2.015  17.362 -0.3603  0.2455 -0.4324
  342MPD2    H5 5136   4.368   2.113  17.340  0.9749  0.1644 -1.7398
  342MPD2    N1 5137   4.568   1.598  17.173 -0.4417  0.4984 -0.2711
  342MPD2    H7 5138   4.545   1.560  17.264 -0.7457 -0.7902 -0.8980
  343TMC3    C1 5139   4.656   1.389  17.120  0.1070  0.8968  0.5374
  343TMC3    C2 5140   0.051   1.343  17.072 -0.5283 -0.1739  0.1587
  343TMC3    C3 5141   0.070   1.208  17.089  0.2540 -0.4816 -0.2070
  343TMC3    C4 5142   4.555   1.306  17.174 -0.0434  0.6007  0.1719
  343TMC3    C5 5143   4.582   1.174  17.200  0.0473 -0.8235 -0.4212
  343TMC3    C6 5144   4.706   1.125  17.158 -0.4602  0.6271  0.1045
  343TMC3     C 5145   4.624   1.520  17.074 -0.2084 -0.0176  0.1048
  343TMC3     O 5146   4.677   1.552  16.968 -1.1411 -0.4547 -0.5391
  343TMC3     H 5147   0.122   1.411  17.024 -1.4655 -0.1812 -1.2310
  343TMC3    H1 5148   4.452   1.334  17.194 -0.3399 -0.6947  0.4454
  343TMC3    H2 5149   0.006   1.019  17.154  1.4885  1.0268  0.5761
  343TMC3    C7 5150   4.480   1.090  17.261 -0.0919 -0.1764 -0.8913
  343TMC3    C8 5151   0.213   1.169  17.097  0.4303 -0.1965 -0.2799
  343TMC3    O1 5152   4.367   1.132  17.239  0.1013  0.6745  1.0397
  343TMC3    O2 5153   0.287   1.267  17.110 -0.4670  0.3342  0.3239
  344MPD2     C 5154   0.819   1.479  10.661  0.2696  0.7774  0.2994
  344MPD2    C1 5155   0.737   1.425  10.567 -0.7203 -0.1818 -1.0225
  344MPD2    C2 5156   0.717   1.497  10.449 -0.2276 -0.0669 -0.1267
  344MPD2    C3 5157   0.763   1.628  10.440  0.7222 -0.2754 -0.1126
  344MPD2    C4 5158   0.838   1.681  10.542  0.7891  0.2441 -0.5383
  344MPD2    C5 5159   0.877   1.605  10.648 -0.3581 -0.6557  0.0704
  344MPD2     H 5160   0.655   1.459  10.368  0.5111  0.7857 -1.0882
  344MPD2    H1 5161   0.862   1.786  10.549 -0.1424  0.2478  2.7778
  344MPD2    H2 5162   0.851   1.427  10.750 -1.4157  0.8932  0.9746
  344MPD2    H3 5163   0.928   1.659  10.727  0.7815  1.0447 -1.8179
  344MPD2     N 5164   0.741   1.713  10.330 -0.4528  0.5704 -0.7175
  344MPD2    H5 5165   0.794   1.799  10.337 -1.0907  0.9790 -0.9807
  344MPD2    N1 5166   0.671   1.298  10.591 -0.0018 -0.0600 -0.2197
  344MPD2    H7 5167   0.620   1.257  10.513  0.9755 -2.7993  0.5971
  345TMC3    C1 5168   0.654   1.804  10.135 -0.6156  0.5411 -0.1977
  345TMC3    C2 5169   0.765   1.881  10.130  0.4118  0.1992  0.1505
  345TMC3    C3 5170   0.751   2.009  10.098  0.0286  0.6452  0.9678
  345TMC3    C4 5171   0.532   1.858  10.108 -0.8052  0.2316 -0.3233
  345TMC3    C5 5172   0.521   1.989  10.062  0.6661  0.4774 -0.4936
  345TMC3    C6 5173   0.637   2.063  10.044 -0.0352  0.4501 -0.7558
  345TMC3     C 5174   0.654   1.695  10.226 -0.2365  0.0899 -1.2609
  345TMC3     O 5175   0.578   1.602  10.206  0.0183  0.5885 -0.0673
  345TMC3     H 5176   0.857   1.837  10.166 -0.5824  0.3455  2.9173
  345TMC3    H1 5177   0.442   1.803  10.132 -0.1719 -1.1576 -1.1570
  345TMC3    H2 5178   0.636   2.167  10.012 -1.5852 -0.1846 -2.7360
  345TMC3    C7 5179   0.403   2.042  10.009 -0.4573  0.3813 -0.5423
  345TMC3    C8 5180   0.843   2.090  10.164  0.0691  0.8068 -0.2584
  345TMC3    O1 5181   0.414   2.142   9.937  1.1931 -0.2516  0.0023
  345TMC3    O2 5182   0.891   2.057  10.272 -0.2290  0.1259 -0.0596
  346MPD2     C 5183   0.543   3.071  14.716 -0.3732 -0.2888 -0.7463
  346MPD2    C1 5184   0.639   3.093  14.617  0.3972 -0.2179 -0.2372
  346MPD2    C2 5185   0.748   3.162  14.657 -0.6471  0.2095  0.0469
  346MPD2    C3 5186   0.757   3.210  14.785  0.0450  0.1007 -0.9448
  346MPD2    C4 5187   0.659   3.186  14.884  0.3722 -0.3175 -0.0424
  346MPD2    C5 5188   0.554   3.107  14.852 -0.0649  0.5761 -0.1757
  346MPD2     H 5189   0.820   3.200  14.585 -0.1594 -1.0555 -0.1354
  346MPD2    H1 5190   0.660   3.236  14.980 -0.8622  0.8705 -0.6563
  346MPD2    H2 5191   0.456   3.013  14.687 -1.8889  2.4058 -1.4889
  346MPD2    H3 5192   0.477   3.076  14.922  1.2800 -2.6625 -0.1324
  346MPD2     N 5193   0.868   3.292  14.806  0.3137  0.0736 -0.6759
  346MPD2    H5 5194   0.919   3.317  14.723 -1.2484  3.5426 -0.5916
  346MPD2    N1 5195   0.628   3.052  14.480  0.0353  0.2235 -0.3058
  346MPD2    H7 5196   0.706   3.074  14.419 -2.0362  3.2084 -1.8618
  347TMC3    C1 5197   0.985   3.489  14.904  0.1149  0.8746 -0.5740
  347TMC3    C2 5198   0.987   3.526  14.773  0.0966  0.2757 -0.4175
  347TMC3    C3 5199   1.109   3.552  14.719  0.3674 -0.2173 -0.2414
  347TMC3    C4 5200   1.089   3.504  14.987  0.1953 -0.1108 -0.5081
  347TMC3    C5 5201   1.207   3.556  14.930  0.3595  0.3190 -0.9413
  347TMC3    C6 5202   1.224   3.578  14.791 -0.7563 -0.2615 -0.1883
  347TMC3     C 5203   0.896   3.369  14.923 -0.0695  0.4223  0.0485
  347TMC3     O 5204   0.859   3.342  15.039  0.7471  0.6018  0.1464
  347TMC3     H 5205   0.894   3.519  14.718  1.6478 -0.3758 -2.9767
  347TMC3    H1 5206   1.076   3.465  15.088  0.7762 -0.7687 -0.6895
  347TMC3    H2 5207   1.311   3.612  14.735 -0.7151  0.9894  0.6361
  347TMC3    C7 5208   1.321   3.550  15.014  0.2568 -0.2591 -0.1516
  347TMC3    C8 5209   1.122   3.476  14.595 -1.0729 -0.1846 -0.3401
  347TMC3    O1 5210   1.305   3.493  15.122 -0.4064  0.0643  0.3420
  347TMC3    O2 5211   1.049   3.379  14.592 -0.3017  0.0392 -0.7218
  348MPD2     C 5212   4.093   2.416  12.255 -0.5432 -0.8024  0.8389
  348MPD2    C1 5213   4.057   2.360  12.138 -0.6621 -0.3415  0.3378
  348MPD2    C2 5214   4.019   2.438  12.027  0.6086  0.0293 -0.4421
  348MPD2    C3 5215   4.016   2.573  12.035  0.2804  0.5217 -0.0157
  348MPD2    C4 5216   4.056   2.631  12.155 -0.0298  0.0681  0.4353
  348MPD2    C5 5217   4.093   2.547  12.259 -0.1403  0.1666 -0.6967
  348MPD2     H 5218   3.990   2.388  11.935  1.7247 -0.2309 -0.6603
  348MPD2    H1 5219   4.056   2.739  12.164  0.2820  0.3264 -2.5550
  348MPD2    H2 5220   4.117   2.358  12.344 -1.3528 -1.3509  0.6963
  348MPD2    H3 5221   4.117   2.596  12.353  2.2134 -2.4294  0.0564
  348MPD2     N 5222   3.989   2.642  11.915 -0.5138  0.0274 -0.6710
  348MPD2    H5 5223   3.961   2.587  11.835 -3.4617 -2.9411  2.3584
  348MPD2    N1 5224   4.061   2.221  12.114  0.2584  0.5495  0.1104
  348MPD2    H7 5225   4.019   2.173  12.035  1.6485 -0.1911 -0.1726
  349TMC3    C1 5226   4.113   1.995  12.170  0.1297 -0.2936  0.0471
  349TMC3    C2 5227   4.173   1.907  12.261 -0.8893 -0.2053 -0.2222
  349TMC3    C3 5228   4.127   1.780  12.254 -0.4825 -0.7557  0.1906
  349TMC3    C4 5229   4.010   1.958  12.091  0.4389 -0.0520  0.1192
  349TMC3    C5 5230   3.961   1.830  12.093  0.7540  0.6667  0.6446
  349TMC3    C6 5231   4.017   1.741  12.180  0.2728 -0.0549  0.2240
  349TMC3     C 5232   4.135   2.136  12.190  0.1463  0.2590 -0.4123
  349TMC3     O 5233   4.219   2.164  12.275  0.0621 -0.0029  0.4237
  349TMC3     H 5234   4.236   1.942  12.343  0.2344 -0.8676 -0.8045
  349TMC3    H1 5235   3.969   2.026  12.018  1.6802  0.1418 -0.3969
  349TMC3    H2 5236   3.987   1.637  12.191 -0.0699  0.0600  0.3804
  349TMC3    C7 5237   3.858   1.792  12.000 -0.5137  1.0540 -0.7583
  349TMC3    C8 5238   4.199   1.673  12.322 -0.3956  0.0526  0.1155
  349TMC3    O1 5239   3.839   1.670  11.996 -0.2564  0.4110  0.0731
  349TMC3    O2 5240   4.141   1.585  12.383  0.2322 -0.3555  0.1004
  350MPD2     C 5241   3.291   1.129  10.290 -0.2320  0.1664 -0.2003
  350MPD2    C1 5242   3.356   1.012  10.319  0.6006 -0.1492 -0.7185
  350MPD2    C2 5243   3.483   1.027  10.378 -0.0690 -0.1438 -0.7723
  350MPD2    C3 5244   3.539   1.147  10.407 -0.7265  0.0230  0.4802
  350MPD2    C4 5245   3.469   1.263  10.381  0.4653 -0.3820 -0.2589
  350MPD2    C5 5246   3.341   1.255  10.327 -0.3088  0.3773  0.3292
  350MPD2     H 5247   3.533   0.934  10.401 -0.5997  0.1616  1.6411
  350MPD2    H1 5248   3.501   1.361  10.414 -0.4457  0.3284 -1.4386
  350MPD2    H2 5249   3.192   1.137  10.247  0.9298  2.2302 -2.4560
  350MPD2    H3 5250   3.283   1.346  10.322  1.4508  1.4631 -0.2680
  350MPD2     N 5251   3.648   1.135  10.485 -0.5117 -0.2855  0.0314
  350MPD2    H5 5252   3.669   1.043  10.522  0.4789 -0.5013 -1.0795
  350MPD2    N1 5253   3.313   0.886  10.291  0.3831 -0.7551 -0.4249
  350MPD2    H7 5254   3.377   0.813  10.318  1.0489  0.6024  1.6505
  351TMC3    C1 5255   3.156   0.712  10.241 -0.0494  0.1837  0.7490
  351TMC3    C2 5256   3.252   0.626  10.195 -0.4755 -0.5893  0.6027
  351TMC3    C3 5257   3.214   0.505  10.143 -0.1728  0.3548  0.0434
  351TMC3    C4 5258   3.026   0.677  10.234 -0.2573 -0.1710  0.1594
  351TMC3    C5 5259   2.995   0.558  10.177 -0.1155 -0.1933  0.3288
  351TMC3    C6 5260   3.083   0.470  10.128 -0.4343  0.0242 -0.0325
  351TMC3     C 5261   3.180   0.856  10.270 -0.8335 -0.0202  0.0888
  351TMC3     O 5262   3.089   0.939  10.284  0.0453 -0.1509  0.2833
  351TMC3     H 5263   3.357   0.650  10.206 -1.3223  2.8356  1.2123
  351TMC3    H1 5264   2.950   0.747  10.265 -0.3245 -1.0305  1.9538
  351TMC3    H2 5265   3.058   0.382  10.069  1.2870  0.2016 -1.0260
  351TMC3    C7 5266   2.849   0.530  10.163  0.2712  0.1704 -0.1475
  351TMC3    C8 5267   3.316   0.405  10.126  0.0566  0.1189 -0.7157
  351TMC3    O1 5268   2.767   0.596  10.225 -0.0545  0.1891  0.1459
  351TMC3    O2 5269   3.434   0.433  10.122  0.0283  0.7542  0.3055
  352MPD2     C 5270   1.521   2.983   1.111  0.0024 -1.0462  0.2140
  352MPD2    C1 5271   1.384   2.990   1.109  0.5607  0.6492  0.0430
  352MPD2    C2 5272   1.313   2.919   1.205  0.2286  0.1909 -1.0012
  352MPD2    C3 5273   1.378   2.829   1.289  0.1290 -0.0834 -0.1093
  352MPD2    C4 5274   1.514   2.825   1.292 -0.0284  0.3005 -0.2987
  352MPD2    C5 5275   1.583   2.903   1.201  0.2277  0.4185 -0.6443
  352MPD2     H 5276   1.205   2.918   1.204  0.2437 -0.7550 -1.6025
  352MPD2    H1 5277   1.563   2.756   1.360  1.3583  0.7085 -0.8844
  352MPD2    H2 5278   1.582   3.027   1.034  0.5861 -1.7912  0.2477
  352MPD2    H3 5279   1.691   2.889   1.202  0.1367 -0.3134 -0.2369
  352MPD2     N 5280   1.319   2.741   1.383 -0.1314 -0.1178  0.3432
  352MPD2    H5 5281   1.381   2.672   1.421  1.9593  0.9134 -1.1842
  352MPD2    N1 5282   1.328   3.078   1.013 -0.4119  0.1582 -0.2373
  352MPD2    H7 5283   1.390   3.133   0.955  1.3845 -1.4298  0.1636
  353TMC3    C1 5284   1.159   2.636   1.512 -0.5090 -0.1008 -0.1578
  353TMC3    C2 5285   1.227   2.645   1.625 -0.5185 -0.5705  0.2696
  353TMC3    C3 5286   1.186   2.563   1.730  0.3446  0.2579  0.1100
  353TMC3    C4 5287   1.041   2.565   1.503 -0.0251 -0.0641 -0.2083
  353TMC3    C5 5288   1.010   2.477   1.602 -0.2092  0.2257 -0.4434
  353TMC3    C6 5289   1.091   2.473   1.715 -0.1135 -0.3878  0.4023
  353TMC3     C 5290   1.186   2.732   1.404  0.1389 -0.0846 -0.0672
  353TMC3     O 5291   1.083   2.780   1.361  0.0048 -0.2110  0.1342
  353TMC3     H 5292   1.321   2.698   1.641 -1.3773  1.3221 -0.9522
  353TMC3    H1 5293   1.000   2.563   1.403 -0.5684  2.1939 -0.0506
  353TMC3    H2 5294   1.080   2.407   1.801 -2.0770 -0.1359  0.3576
  353TMC3    C7 5295   0.903   2.374   1.581 -0.2258 -0.6715  0.4961
  353TMC3    C8 5296   1.295   2.487   1.793  0.4102 -0.0643  0.2236
  353TMC3    O1 5297   0.862   2.366   1.465 -0.2657 -0.0248 -0.2789
  353TMC3    O2 5298   1.320   2.515   1.909  0.0002  0.1135  0.4946
  354TMC3    C1 5299   3.359   3.625  13.810 -0.1927  0.1277 -0.5572
  354TMC3    C2 5300   3.439   3.732  13.815 -0.4173 -0.2883  0.5412
  354TMC3    C3 5301   3.555   3.738  13.743  0.2818  0.3298  0.3267
  354TMC3    C4 5302   3.372   3.539  13.711 -0.3201  0.0120  0.2533
  354TMC3    C5 5303   3.497   3.528  13.645  0.0632 -0.5989 -0.2167
  354TMC3    C6 5304   3.590   3.627  13.668 -0.8120 -0.8727 -0.0938
  354TMC3     C 5305   3.270   3.601  13.918 -0.8899 -0.1817 -1.0319
  354TMC3     O 5306   3.181   3.518  13.914 -0.2179  0.0369 -0.3660
  354TMC3     H 5307   3.422   3.823  13.873  1.0798  0.7353 -0.6105
  354TMC3    H1 5308   3.301   3.458  13.702  0.7072 -0.9881  1.1224
  354TMC3    H2 5309   3.683   3.612  13.613 -0.0843 -0.3237  0.9763
  354TMC3    C7 5310   3.466   3.529  13.503  0.5002  0.6044 -0.2238
  354TMC3    C8 5311   3.566   3.861  13.671 -0.3177 -0.4285  0.0242
  354TMC3    O1 5312   3.349   3.558  13.478  0.0966 -0.2833  0.0958
  354TMC3    O2 5313   3.467   3.931  13.664 -0.0659  0.4075 -0.2485
  355MPD2     C 5314   3.414   4.476  11.993  0.8231  0.5981 -0.8519
  355MPD2    C1 5315   3.468   4.506  11.869  0.3361 -0.0244 -0.1925
  355MPD2    C2 5316   3.603   4.515  11.858  0.1796  0.1774  0.7684
  355MPD2    C3 5317   3.681   4.506  11.971 -0.3664 -0.2695 -0.2523
  355MPD2    C4 5318   3.626   4.476  12.090  0.3075  0.0092 -0.9513
  355MPD2    C5 5319   3.494   4.449  12.098 -0.2576 -0.3776 -0.1886
  355MPD2     H 5320   3.650   4.523  11.761 -0.9193  0.2623  0.2447
  355MPD2    H1 5321   3.684   4.464  12.180  0.6129  0.2021 -1.1242
  355MPD2    H2 5322   3.307   4.464  12.005  0.6699  0.4140 -2.3406
  355MPD2    H3 5323   3.458   4.432  12.199 -0.1281 -1.9866 -0.4138
  355MPD2     N 5324   3.824   4.525  11.978 -0.2544  0.3826 -0.3529
  355MPD2    H5 5325   3.877   4.503  12.062 -0.6250  1.5428  0.1865
  355MPD2    N1 5326   3.370   4.526  11.765  0.1467  0.0372 -0.4584
  355MPD2    H7 5327   3.281   4.479  11.777  0.5514 -1.1191 -2.0889
  356TMC3    C1 5328   4.036   4.629  11.904 -0.0291 -0.5542 -1.3908
  356TMC3    C2 5329   4.102   4.693  11.799  0.3263  0.6479  0.0163
  356TMC3    C3 5330   4.203   0.063  11.817  0.4093 -0.6330  0.0613
  356TMC3    C4 5331   4.069   4.670  12.031  0.0579 -0.2316  0.3981
  356TMC3    C5 5332   4.165   0.041  12.049 -0.2090  0.6710 -0.3676
  356TMC3    C6 5333   4.239   0.095  11.948 -0.0036 -0.1143 -0.2769
  356TMC3     C 5334   3.905   4.563  11.873  0.7230  0.3261  0.7666
  356TMC3     O 5335   3.879   4.550  11.754  0.3935 -0.1901 -0.2175
  356TMC3     H 5336   4.082   4.668  11.696  0.4658 -0.8391  0.3492
  356TMC3    H1 5337   4.016   4.629  12.117  0.7064 -0.1017  0.8589
  356TMC3    H2 5338   4.327   0.156  11.961  0.0306 -0.6316  1.9679
  356TMC3    C7 5339   4.209   0.072  12.183 -0.2145  0.6362 -0.1286
  356TMC3    C8 5340   4.257   0.125  11.694  0.3603  0.3453  0.2526
  356TMC3    O1 5341   4.189   4.710  12.265  0.1058 -0.6661  0.2077
  356TMC3    O2 5342   4.243   0.076  11.582  0.5260 -0.0197  0.2388
  357MPD2     C 5343   3.152   4.052   1.668 -0.1508  0.3433 -0.9469
  357MPD2    C1 5344   3.280   4.037   1.717 -0.7652  0.4612 -0.8503
  357MPD2    C2 5345   3.292   3.988   1.844 -0.1782  1.0320 -0.2904
  357MPD2    C3 5346   3.185   3.958   1.926  0.7473  0.4601  0.2268
  357MPD2    C4 5347   3.061   3.956   1.872  0.7772  0.1491 -0.4675
  357MPD2    C5 5348   3.047   4.002   1.743 -0.5063  0.9650  0.1563
  357MPD2     H 5349   3.395   3.976   1.876  0.0339  0.3676 -1.2214
  357MPD2    H1 5350   2.979   3.922   1.935  2.0900  1.3095  1.8751
  357MPD2    H2 5351   3.125   4.102   1.576 -0.1429 -0.4859 -1.3954
  357MPD2    H3 5352   2.950   4.023   1.699 -0.5904 -0.0769 -0.1527
  357MPD2     N 5353   3.202   3.922   2.056  0.6035  0.2052  0.1043
  357MPD2    H5 5354   3.123   3.880   2.106  0.9665  2.5261  2.5841
  357MPD2    N1 5355   3.402   4.068   1.645 -0.4024 -0.6243 -0.7173
  357MPD2    H7 5356   3.485   4.040   1.695  0.1848 -0.5987 -1.6775
  358TMC3    C1 5357   3.542   4.090   1.459  0.3450  0.3606  0.0273
  358TMC3    C2 5358   3.563   4.065   1.328  0.4721  0.5407 -0.0487
  358TMC3    C3 5359   3.692   4.039   1.280  0.1047 -0.4866 -0.0848
  358TMC3    C4 5360   3.652   4.115   1.536 -0.0574 -0.1666 -0.2941
  358TMC3    C5 5361   3.781   4.093   1.484  0.0325 -0.6109 -0.0764
  358TMC3    C6 5362   3.799   4.041   1.362  0.5802 -0.2593  0.3387
  358TMC3     C 5363   3.407   4.090   1.509 -0.4788 -0.3414 -0.5545
  358TMC3     O 5364   3.311   4.119   1.436  0.0476 -0.4434 -0.0680
  358TMC3     H 5365   3.477   4.062   1.262 -0.1221  0.3381  0.7364
  358TMC3    H1 5366   3.641   4.154   1.636 -0.2237 -0.1154 -0.3337
  358TMC3    H2 5367   3.893   4.042   1.308  0.1406  2.8340 -0.3746
  358TMC3    C7 5368   3.884   4.098   1.585 -0.1722  0.1488 -0.2445
  358TMC3    C8 5369   3.709   4.029   1.142 -0.0128 -0.4482 -0.3388
  358TMC3    O1 5370   3.841   4.067   1.694 -0.0206  0.5814  0.1258
  358TMC3    O2 5371   3.620   4.076   1.076  0.3143 -0.4295 -0.1885
  359MPD2     C 5372   3.493   2.459  12.407 -0.5313 -0.3349  0.4184
  359MPD2    C1 5373   3.463   2.589  12.389 -0.1875 -0.2718 -0.1278
  359MPD2    C2 5374   3.331   2.627  12.380 -0.4452  0.7304 -1.5135
  359MPD2    C3 5375   3.228   2.538  12.400  0.2393 -0.8638  0.3547
  359MPD2    C4 5376   3.262   2.403  12.404 -0.0056  0.8644 -0.1156
  359MPD2    C5 5377   3.395   2.365  12.413 -0.7255 -0.6236 -0.0801
  359MPD2     H 5378   3.320   2.734  12.370  2.1415  0.8694 -3.0431
  359MPD2    H1 5379   3.181   2.332  12.411  1.7375 -1.0998  0.2028
  359MPD2    H2 5380   3.594   2.420  12.411 -0.2585  0.4571  1.2394
  359MPD2    H3 5381   3.417   2.260  12.433  2.6637  0.4424  1.8861
  359MPD2     N 5382   3.095   2.582  12.415  0.1044 -0.1530  0.3748
  359MPD2    H5 5383   3.024   2.510  12.410  1.1317 -1.1264 -0.4060
  359MPD2    N1 5384   3.556   2.690  12.371  0.5223 -0.0536 -0.5043
  359MPD2    H7 5385   3.518   2.783  12.355 -3.1080 -1.6390 -1.0218
  360TMC3    C1 5386   3.773   2.789  12.346 -1.1551 -0.4953 -0.0130
  360TMC3    C2 5387   3.883   2.817  12.421 -0.8552  0.7143  0.4325
  360TMC3    C3 5388   3.956   2.923  12.371  0.1022 -0.1162 -0.2603
  360TMC3    C4 5389   3.738   2.852  12.228  0.1562  0.1093 -0.3886
  360TMC3    C5 5390   3.822   2.953  12.186 -0.3757  0.3334 -0.6171
  360TMC3    C6 5391   3.923   2.995  12.260  0.0941  0.4042 -0.8674
  360TMC3     C 5392   3.695   2.674  12.381  0.2808 -0.7286  0.8498
  360TMC3     O 5393   3.760   2.571  12.419  0.2083  0.0907 -0.1629
  360TMC3     H 5394   3.895   2.767  12.516  1.4549 -0.1217 -0.2934
  360TMC3    H1 5395   3.664   2.798  12.170 -0.6943  0.9222 -0.0516
  360TMC3    H2 5396   3.982   3.078  12.223  1.0774 -0.0378 -0.2904
  360TMC3    C7 5397   3.797   3.024  12.061  0.3622  0.1470 -0.1921
  360TMC3    C8 5398   4.068   2.972  12.445 -0.2906 -0.2395  0.4756
  360TMC3    O1 5399   3.876   3.111  12.027 -0.3804 -0.0953 -0.6046
  360TMC3    O2 5400   4.070   2.943  12.562 -0.5249  0.0436 -0.4611
  361MPD2     C 5401   0.837   2.306  17.028  0.4031 -0.6770 -0.1018
  361MPD2    C1 5402   0.794   2.290  17.153 -1.3593 -0.0312  0.3315
  361MPD2    C2 5403   0.858   2.204  17.237  0.8093 -0.7710  0.1345
  361MPD2    C3 5404   0.964   2.122  17.191 -0.4317  0.2756  0.5160
  361MPD2    C4 5405   1.003   2.136  17.064 -0.1725 -0.4873  0.5652
  361MPD2    C5 5406   0.948   2.233  16.977 -0.3638  0.6839  0.4230
  361MPD2     H 5407   0.807   2.183  17.330  0.3691 -0.3502 -0.0103
  361MPD2    H1 5408   1.093   2.083  17.032  0.1813 -0.3678  1.3617
  361MPD2    H2 5409   0.784   2.372  16.960  1.3656  1.7755  1.4914
  361MPD2    H3 5410   0.990   2.230  16.877  1.2357 -2.2950  1.1632
  361MPD2     N 5411   1.034   2.038  17.271  0.1749  0.4679 -0.3949
  361MPD2    H5 5412   1.104   1.984  17.222 -1.3962 -1.5207 -0.4150
  361MPD2    N1 5413   0.688   2.376  17.183  0.9138 -0.1339  0.1993
  361MPD2    H7 5414   0.650   2.431  17.106  0.7860 -0.6023 -0.0710
  362TMC3    C1 5415   0.535   2.504  17.306 -0.6570  0.4734 -0.0561
  362TMC3    C2 5416   0.435   2.509  17.398  0.4268  0.2416  0.0833
  362TMC3    C3 5417   0.348   2.604  17.393  0.4505  0.1756  0.2328
  362TMC3    C4 5418   0.536   2.594  17.205 -0.3791 -0.0892  0.0499
  362TMC3    C5 5419   0.440   2.698  17.213  0.0141  0.8305  0.6139
  362TMC3    C6 5420   0.342   2.708  17.307 -0.1027 -0.3606  0.2232
  362TMC3     C 5421   0.635   2.400  17.307 -0.8520  0.1378  0.2870
  362TMC3     O 5422   0.646   2.338  17.412 -0.0485  0.1884 -0.7018
  362TMC3     H 5423   0.417   2.423  17.460 -2.4857  0.5990 -0.2822
  362TMC3    H1 5424   0.620   2.611  17.139  1.0479  0.8590  2.1128
  362TMC3    H2 5425   0.249   2.763  17.293  0.4908  0.1684 -1.5928
  362TMC3    C7 5426   0.410   2.775  17.091  0.1260  0.5412  0.2919
  362TMC3    C8 5427   0.217   2.562  17.437  0.0009 -0.1405  0.1980
  362TMC3    O1 5428   0.325   2.857  17.102 -0.3535  0.3860 -0.7104
  362TMC3    O2 5429   0.182   2.451  17.402 -0.3483 -0.3281  0.2894
  363TMC3    C1 5430   4.151   0.380   9.061 -0.2771  0.3719  0.3118
  363TMC3    C2 5431   4.196   0.353   9.182  1.0010 -0.8748 -0.0816
  363TMC3    C3 5432   4.215   0.221   9.208 -0.5317  0.1935  0.4198
  363TMC3    C4 5433   4.131   0.289   8.956 -0.5091 -0.0839 -0.1447
  363TMC3    C5 5434   4.154   0.157   8.991 -0.3244  0.7251 -0.1083
  363TMC3    C6 5435   4.188   0.123   9.120 -0.4061  0.5549 -0.8762
  363TMC3     C 5436   4.113   0.520   9.052 -0.6039 -0.3049  0.0119
  363TMC3     O 5437   4.105   0.587   9.155 -0.1520  0.6797 -0.1472
  363TMC3     H 5438   4.218   0.429   9.256 -0.2831 -0.2665 -0.3261
  363TMC3    H1 5439   4.083   0.305   8.860 -0.7114 -0.3321 -0.0843
  363TMC3    H2 5440   4.175   0.021   9.157  2.6737  0.6837  0.6033
  363TMC3    C7 5441   4.046   0.069   8.928  0.2281 -0.2865 -0.5625
  363TMC3    C8 5442   4.221   0.187   9.347 -0.2034 -0.5412  1.2871
  363TMC3    O1 5443   3.965   0.122   8.849 -0.2679 -0.8689  0.2999
  363TMC3    O2 5444   4.191   0.277   9.425 -0.5382  0.1162  0.0103
  364MPD2     C 5445   2.867   3.657  10.343 -0.2777  0.1430 -0.4306
  364MPD2    C1 5446   2.931   3.690  10.461 -0.0008  0.2862 -0.1020
  364MPD2    C2 5447   2.955   3.596  10.557 -0.2562 -0.0589  0.6530
  364MPD2    C3 5448   2.924   3.465  10.530 -0.3592 -0.4640  0.1528
  364MPD2    C4 5449   2.852   3.428  10.423  0.4523 -0.5673 -0.1306
  364MPD2    C5 5450   2.825   3.526  10.328 -0.2372  0.5573  0.6580
  364MPD2     H 5451   2.999   3.626  10.652 -1.9021 -0.1869  1.4459
  364MPD2    H1 5452   2.820   3.329  10.392 -0.1935 -0.1513 -0.8174
  364MPD2    H2 5453   2.863   3.731  10.265  1.9620 -0.3436 -1.0271
  364MPD2    H3 5454   2.776   3.507  10.233  1.6420  1.6163 -0.5180
  364MPD2     N 5455   2.958   3.360  10.627 -0.5895 -0.4241 -0.4264
  364MPD2    H5 5456   2.957   3.262  10.603  1.8175  0.0311 -2.3172
  364MPD2    N1 5457   2.975   3.827  10.475  0.1959  0.5236  0.0111
  364MPD2    H7 5458   2.958   3.884  10.393  1.0097  3.1164  1.6372
  365TMC3    C1 5459   3.041   4.038  10.565  0.0608 -0.6893 -0.7350
  365TMC3    C2 5460   3.039   4.094  10.439 -0.3957  0.4631 -0.3858
  365TMC3    C3 5461   3.062   4.230  10.419  0.1761 -0.2419  0.7095
  365TMC3    C4 5462   3.073   4.114  10.677  0.5045 -0.1826  0.4067
  365TMC3    C5 5463   3.083   4.251  10.647 -0.1119  0.0083 -0.4045
  365TMC3    C6 5464   3.068   4.312  10.526  0.0370  0.6723 -0.3154
  365TMC3     C 5465   3.038   3.893  10.581  0.2295  0.2597  0.8542
  365TMC3     O 5466   3.049   3.851  10.695  0.5192 -0.6182  0.3053
  365TMC3     H 5467   3.065   4.031  10.354  0.0235  1.4459 -0.9920
  365TMC3    H1 5468   3.091   4.069  10.774  1.9520 -0.5636 -0.0513
  365TMC3    H2 5469   3.056   4.420  10.517 -1.4454  0.5161 -0.2503
  365TMC3    C7 5470   3.079   4.339  10.768  0.1314  0.7307 -0.1548
  365TMC3    C8 5471   3.093   4.285  10.284  0.2514  0.1403  0.1747
  365TMC3    O1 5472   3.086   4.459  10.743  0.2041  0.4460  0.2394
  365TMC3    O2 5473   3.153   4.391  10.285 -0.4139 -0.0874 -0.2724
  366MPD2     C 5474   0.795   0.281  15.504  0.2315  0.4640 -0.5527
  366MPD2    C1 5475   0.897   0.357  15.460 -0.3771 -0.3001  0.7705
  366MPD2    C2 5476   0.998   0.295  15.389 -0.5266 -0.2789 -0.6434
  366MPD2    C3 5477   0.996   0.162  15.364 -0.2634 -0.7583 -0.8025
  366MPD2    C4 5478   0.894   0.084  15.415  0.4946  0.3761 -0.5277
  366MPD2    C5 5479   0.792   0.140  15.484  0.6503  0.0561  0.2508
  366MPD2     H 5480   1.077   0.362  15.358  1.3683 -1.0129  2.5573
  366MPD2    H1 5481   0.883   4.702  15.388 -2.2626  1.1590 -2.4434
  366MPD2    H2 5482   0.716   0.330  15.560 -0.7846 -0.1428 -1.4358
  366MPD2    H3 5483   0.713   0.079  15.526 -0.5503  0.5784 -1.2363
  366MPD2     N 5484   1.098   0.104  15.277 -0.1894  0.1247  0.4198
  366MPD2    H5 5485   1.168   0.168  15.241  0.1663  0.2809  1.3890
  366MPD2    N1 5486   0.904   0.494  15.499 -0.3513 -0.2238  0.3804
  366MPD2    H7 5487   0.992   0.542  15.487 -0.9794  0.9703  0.5322
  367TMC3    C1 5488   0.843   0.697  15.582  0.2216  0.4418 -0.1326
  367TMC3    C2 5489   0.968   0.707  15.641  0.0988 -0.2748 -0.2796
  367TMC3    C3 5490   1.022   0.834  15.648 -1.0076 -0.7078 -0.0710
  367TMC3    C4 5491   0.761   0.799  15.553 -0.2338 -0.5332 -0.5901
  367TMC3    C5 5492   0.820   0.922  15.564 -0.0260  0.5238  0.4673
  367TMC3    C6 5493   0.948   0.947  15.618  0.3221 -0.5657  0.2239
  367TMC3     C 5494   0.793   0.566  15.547  0.3188 -0.6967 -0.5647
  367TMC3     O 5495   0.673   0.544  15.526  0.0777 -0.2830  0.3169
  367TMC3     H 5496   1.023   0.623  15.681 -0.1045  0.3454  1.3073
  367TMC3    H1 5497   0.667   0.779  15.503 -0.5556  1.1223 -0.6261
  367TMC3    H2 5498   0.979   1.051  15.629  0.1785 -0.6544  1.4928
  367TMC3    C7 5499   0.776   1.027  15.473 -0.6233 -0.9419  0.6840
  367TMC3    C8 5500   1.144   0.847  15.722 -0.7441 -0.4198  0.2361
  367TMC3    O1 5501   0.809   1.141  15.509 -0.2397 -0.1108 -0.6824
  367TMC3    O2 5502   1.192   0.747  15.777 -0.0602  0.6524  0.0814
  368MPD2     C 5503   1.957   2.530  13.549  0.2677  0.3062  0.0438
  368MPD2    C1 5504   1.997   2.644  13.477  0.5998  0.1834 -0.1387
  368MPD2    C2 5505   2.124   2.682  13.478  0.1918  0.0890 -0.1348
  368MPD2    C3 5506   2.216   2.609  13.550 -0.4671  0.0643  0.2963
  368MPD2    C4 5507   2.174   2.501  13.620  0.4103 -0.1332 -0.2076
  368MPD2    C5 5508   2.045   2.452  13.615  0.2927  0.7210  0.0324
  368MPD2     H 5509   2.155   2.770  13.422 -0.9428  2.1147  2.4421
  368MPD2    H1 5510   2.243   2.439  13.675  1.7891  0.9203 -0.7766
  368MPD2    H2 5511   1.854   2.496  13.542 -0.1280  0.7767  3.9004
  368MPD2    H3 5512   2.015   2.363  13.668  3.2211  0.6139  1.4981
  368MPD2     N 5513   2.354   2.643  13.548 -0.0664  0.2134 -0.0043
  368MPD2    H5 5514   2.412   2.563  13.574  0.6068 -0.0745 -2.4044
  368MPD2    N1 5515   1.903   2.704  13.393 -0.0163 -0.3048 -0.1631
  368MPD2    H7 5516   1.823   2.647  13.367  0.1399 -0.3353 -0.5717
  369TMC3    C1 5517   1.820   2.815  13.206 -0.2192  0.4943  0.1209
  369TMC3    C2 5518   1.861   2.855  13.084  0.2613 -0.1803 -0.4454
  369TMC3    C3 5519   1.781   2.820  12.982 -0.3276  0.1482  0.1342
  369TMC3    C4 5520   1.693   2.765  13.227 -0.1275 -0.3317 -0.0706
  369TMC3    C5 5521   1.613   2.744  13.120 -0.4791  0.2694  0.0449
  369TMC3    C6 5522   1.660   2.768  12.987 -0.0599  0.1209  0.4360
  369TMC3     C 5523   1.919   2.812  13.307  0.8821  0.4039  0.3869
  369TMC3     O 5524   2.011   2.892  13.300 -0.2443  0.2480 -0.1132
  369TMC3     H 5525   1.955   2.905  13.067  0.2015  0.4621  1.0701
  369TMC3    H1 5526   1.665   2.733  13.327  0.9843 -0.5229  0.1729
  369TMC3    H2 5527   1.586   2.770  12.908  0.8061  0.0195 -0.3679
  369TMC3    C7 5528   1.493   2.663  13.141  0.6302  0.3669  0.3748
  369TMC3    C8 5529   1.815   2.867  12.851 -0.8209  0.1912 -0.2533
  369TMC3    O1 5530   1.445   2.659  13.252 -0.0787 -0.1163 -0.1602
  369TMC3    O2 5531   1.726   2.886  12.771 -0.0878 -1.0589 -1.1442
  370TMC3    C1 5532   1.758   3.040  16.574  0.6069 -0.5292 -0.2960
  370TMC3    C2 5533   1.726   2.998  16.695  0.0049  1.0055 -0.3275
  370TMC3    C3 5534   1.718   2.863  16.712 -0.2593 -0.2803  0.7174
  370TMC3    C4 5535   1.791   2.959  16.464 -0.3942 -0.0132  0.2814
  370TMC3    C5 5536   1.779   2.827  16.491  0.9019  0.7805  0.1859
  370TMC3    C6 5537   1.740   2.770  16.610  0.3633  0.0750 -0.7406
  370TMC3     C 5538   1.733   3.182  16.543 -0.4164 -0.1862 -0.0753
  370TMC3     O 5539   1.658   3.245  16.614  0.9129  0.8400 -0.1193
  370TMC3     H 5540   1.716   3.072  16.774 -0.5322 -0.6967  1.1791
  370TMC3    H1 5541   1.823   2.987  16.364  0.7275 -1.7004  0.1633
  370TMC3    H2 5542   1.746   2.664  16.629  0.5105  0.2019 -0.0800
  370TMC3    C7 5543   1.771   2.746  16.372  0.3757  0.2526  0.6087
  370TMC3    C8 5544   1.710   2.815  16.850  0.1935 -0.2502  0.0213
  370TMC3    O1 5545   1.747   2.801  16.264  0.5121  0.4688 -0.3280
  370TMC3    O2 5546   1.701   2.693  16.867 -0.0868  0.5921  0.1144
  371TMC3    C1 5547   3.008   1.039  15.936 -0.0795 -0.3052  0.1146
  371TMC3    C2 5548   2.891   1.032  16.004  0.3518  0.5216 -0.0796
  371TMC3    C3 5549   2.804   1.137  16.011  0.7274  0.0471 -0.4682
  371TMC3    C4 5550   3.041   1.149  15.859 -0.4170  0.3455  0.0270
  371TMC3    C5 5551   2.957   1.254  15.863 -0.9683  0.3160  0.1053
  371TMC3    C6 5552   2.837   1.249  15.937  0.1143 -0.8145 -0.3103
  371TMC3     C 5553   3.110   0.935  15.954  0.0182  0.3535 -0.1531
  371TMC3     O 5554   3.196   0.928  15.868 -0.4133  0.8228  0.4413
  371TMC3     H 5555   2.863   0.937  16.048  0.3642 -1.0257 -3.4355
  371TMC3    H1 5556   3.143   1.153  15.822 -0.6026 -1.6022 -0.7163
  371TMC3    H2 5557   2.761   1.324  15.916  1.4201  0.5062 -0.3855
  371TMC3    C7 5558   2.971   1.363  15.763  0.2497 -0.3910  0.8946
  371TMC3    C8 5559   2.660   1.123  16.039 -0.3536 -0.4313 -0.0836
  371TMC3    O1 5560   2.884   1.453  15.756 -0.2452  0.4684  0.6215
  371TMC3    O2 5561   2.605   1.014  16.024  0.2201 -0.4877  0.1943
  372MPD2     C 5562   2.651   2.644  13.802 -0.1762  0.4621 -0.0958
  372MPD2    C1 5563   2.709   2.518  13.793  0.1987  0.0709 -0.0440
  372MPD2    C2 5564   2.624   2.409  13.818 -0.6532 -0.3964 -0.2049
  372MPD2    C3 5565   2.493   2.428  13.861 -0.0271 -0.0171 -0.0828
  372MPD2    C4 5566   2.446   2.559  13.867 -0.2069  0.3429  0.0460
  372MPD2    C5 5567   2.522   2.665  13.835 -0.1444 -0.4715 -0.1722
  372MPD2     H 5568   2.667   2.309  13.818 -1.3802 -0.7141 -0.3302
  372MPD2    H1 5569   2.345   2.582  13.899 -0.0744 -0.7144  1.2261
  372MPD2    H2 5570   2.705   2.737  13.787 -0.7966  1.0613  1.3778
  372MPD2    H3 5571   2.473   2.761  13.850 -0.9678 -0.5944 -1.9973
  372MPD2     N 5572   2.415   2.312  13.897  0.4301  0.3768  0.0509
  372MPD2    H5 5573   2.476   2.232  13.888 -0.1696 -0.0721 -0.0677
  372MPD2    N1 5574   2.841   2.478  13.759 -0.0637  0.0405 -0.0324
  372MPD2    H7 5575   2.860   2.378  13.760 -0.1106  0.0106 -1.4077
  373TMC3    C1 5576   2.253   2.153  13.928 -0.6581 -0.2630  0.4686
  373TMC3    C2 5577   2.140   2.106  13.994  0.3512 -0.7034 -0.8641
  373TMC3    C3 5578   2.089   1.979  13.969 -0.7455 -0.0819  0.1023
  373TMC3    C4 5579   2.324   2.074  13.843 -0.0132 -0.1993 -0.1134
  373TMC3    C5 5580   2.272   1.944  13.826  0.2613  0.1621 -0.0511
  373TMC3    C6 5581   2.162   1.896  13.887 -0.0021 -0.6919 -0.0095
  373TMC3     C 5582   2.280   2.292  13.911  0.3202  0.6943 -0.5251
  373TMC3     O 5583   2.192   2.371  13.917 -0.2090 -0.0265 -0.1011
  373TMC3     H 5584   2.089   2.178  14.056  0.2344  0.6166 -2.4972
  373TMC3    H1 5585   2.416   2.100  13.793 -0.0452  1.6303  0.8193
  373TMC3    H2 5586   2.119   1.799  13.865  0.3612 -0.5660 -1.2636
  373TMC3    C7 5587   2.375   1.840  13.805 -0.5332 -0.3370 -0.4938
  373TMC3    C8 5588   2.057   1.903  14.091  0.3945 -0.4952  0.1960
  373TMC3    O1 5589   2.450   1.858  13.708 -0.0166 -0.8990  0.0637
  373TMC3    O2 5590   2.004   1.793  14.072 -0.2137 -0.3645  0.6580
  374TMC3    C1 5591   2.889   2.464   9.924 -0.2781 -0.2391  0.4521
  374TMC3    C2 5592   2.965   2.565   9.962  0.1059  0.0809  0.4795
  374TMC3    C3 5593   2.976   2.670   9.877  0.2168 -0.1199  0.4859
  374TMC3    C4 5594   2.820   2.457   9.809 -0.0224  0.1898  0.4599
  374TMC3    C5 5595   2.833   2.560   9.723  0.0716 -0.1482  0.1509
  374TMC3    C6 5596   2.911   2.666   9.756  0.2765  0.3355  0.4028
  374TMC3     C 5597   2.836   2.384  10.035 -0.0579 -0.0973  0.7832
  374TMC3     O 5598   2.723   2.402  10.067  0.0313  0.1028  0.4976
  374TMC3     H 5599   3.015   2.570  10.059 -0.4547  1.3293  0.6998
  374TMC3    H1 5600   2.759   2.371   9.783  0.9923 -0.2895 -0.3388
  374TMC3    H2 5601   2.923   2.753   9.693  1.4538 -1.0875 -1.3260
  374TMC3    C7 5602   2.739   2.548   9.608 -0.6827 -0.7889 -0.0062
  374TMC3    C8 5603   3.076   2.775   9.888  0.0958 -0.0533  0.0572
  374TMC3    O1 5604   2.634   2.492   9.630 -0.4256  0.3655 -0.5346
  374TMC3    O2 5605   3.092   2.846   9.789 -1.0768  0.5222 -0.0545
  375MPD2     C 5606   3.201   3.667  17.221  0.7228  0.4602 -0.1583
  375MPD2    C1 5607   3.130   3.595  17.127 -0.2824  0.5996 -0.3082
  375MPD2    C2 5608   3.183   3.481  17.067 -1.0952  0.0098  0.1189
  375MPD2    C3 5609   3.302   3.428  17.109  0.1135  0.0018  0.3322
  375MPD2    C4 5610   3.374   3.499  17.202  0.2561 -0.3388 -0.0252
  375MPD2    C5 5611   3.325   3.617  17.255  0.1585  0.0796  0.6273
  375MPD2     H 5612   3.128   3.433  16.987  1.1345 -2.7467  0.2413
  375MPD2    H1 5613   3.466   3.455  17.240 -0.4645 -2.1400 -0.3398
  375MPD2    H2 5614   3.166   3.754  17.275 -0.4349  0.5378 -1.0453
  375MPD2    H3 5615   3.380   3.667  17.334 -1.3271  1.3847  0.8184
  375MPD2     N 5616   3.363   3.308  17.062 -0.4837  0.0742  0.0775
  375MPD2    H5 5617   3.452   3.278  17.101 -0.0815 -0.0678 -0.9483
  375MPD2    N1 5618   2.994   3.625  17.094  0.1019 -0.3039  0.2411
  375MPD2    H7 5619   2.937   3.558  17.043  1.5996 -0.9123 -0.6071
  376TMC3    C1 5620   3.368   3.089  16.961  0.5485 -1.1484  0.4129
  376TMC3    C2 5621   3.488   3.070  17.019 -0.7806  0.3435  1.4376
  376TMC3    C3 5622   3.574   2.980  16.955 -0.3882  0.4459 -0.5725
  376TMC3    C4 5623   3.319   3.005  16.863  0.4786  0.5896 -0.0672
  376TMC3    C5 5624   3.414   2.925  16.800 -0.4999  0.4953  0.9099
  376TMC3    C6 5625   3.545   2.920  16.840  0.2187 -0.4029  0.3167
  376TMC3     C 5626   3.294   3.215  16.989  0.7121 -0.3838  0.3352
  376TMC3     O 5627   3.179   3.227  16.946 -0.2678 -0.5448 -0.5527
  376TMC3     H 5628   3.528   3.127  17.102  1.7849 -0.6145  0.8339
  376TMC3    H1 5629   3.223   3.033  16.820  2.1580  0.7859 -3.7295
  376TMC3    H2 5630   3.617   2.851  16.796  0.9366  0.0519  0.7875
  376TMC3    C7 5631   3.388   2.904  16.657  0.0132  0.2238 -0.8116
  376TMC3    C8 5632   3.712   3.023  16.935  0.2496 -0.2314  0.6006
  376TMC3    O1 5633   3.277   2.920  16.613 -0.4503 -0.4974 -0.3281
  376TMC3    O2 5634   3.739   3.052  16.820  0.0425 -0.2089  0.2179
  377MPD2     C 5635   1.096   2.908  12.420  0.5142  0.8676 -0.0632
  377MPD2    C1 5636   1.169   2.856  12.524 -1.1426 -0.1652 -0.1019
  377MPD2    C2 5637   1.116   2.829  12.648  0.6698  0.2274  0.3407
  377MPD2    C3 5638   0.981   2.864  12.676 -0.0440  0.0056 -1.2603
  377MPD2    C4 5639   0.913   2.912  12.563  0.7681 -0.4468 -0.3784
  377MPD2    C5 5640   0.963   2.924  12.440  0.1680  0.3065 -0.6473
  377MPD2     H 5641   1.167   2.765  12.719  1.2578  1.5857  1.1454
  377MPD2    H1 5642   0.810   2.940  12.584  1.4258  1.5311  0.1736
  377MPD2    H2 5643   1.133   2.912  12.319  0.0800  0.1147 -0.2573
  377MPD2    H3 5644   0.901   2.942  12.353 -1.2290 -0.1255  0.2651
  377MPD2     N 5645   0.919   2.840  12.799  0.0805  0.0772  0.4852
  377MPD2    H5 5646   0.817   2.842  12.797  0.1091 -2.1948 -3.4036
  377MPD2    N1 5647   1.307   2.834  12.496 -0.6326  0.0963 -0.7148
  377MPD2    H7 5648   1.325   2.848  12.397  1.9157 -1.9365 -0.5134
  378TMC3    C1 5649   1.695   2.838  12.361 -0.1091  0.1455  0.3818
  378TMC3    C2 5650   1.570   2.860  12.416 -0.1243 -0.0041 -0.1345
  378TMC3    C3 5651   1.535   2.765  12.504  0.0289 -1.0286  0.2591
  378TMC3    C4 5652   1.791   2.748  12.403 -0.1268 -0.1423 -0.1709
  378TMC3    C5 5653   1.741   2.674  12.509  0.5411 -0.1480 -0.1980
  378TMC3    C6 5654   1.620   2.678  12.559 -0.3471 -0.1735 -0.0817
  378TMC3     C 5655   1.698   2.891  12.223  0.1075  0.2428 -0.4944
  378TMC3     O 5656   1.605   2.967  12.198  0.1945  0.6281  0.1345
  378TMC3     H 5657   1.510   2.948  12.394 -1.3402 -1.5521 -3.0890
  378TMC3    H1 5658   1.894   2.749  12.367 -0.5829  2.1646 -1.4101
  378TMC3    H2 5659   1.591   2.621  12.647 -2.2091 -0.0101 -0.5793
  378TMC3    C7 5660   1.835   2.592  12.588  0.4515 -0.3383  0.0970
  378TMC3    C8 5661   1.409   2.779  12.567  0.4520 -0.0409  0.3567
  378TMC3    O1 5662   1.789   2.537  12.686 -0.0024  0.3374 -0.0469
  378TMC3    O2 5663   1.405   2.738  12.682  0.2905 -0.0189 -0.2506
  379MPD2     C 5664   2.227   0.994  16.327  0.1275 -0.5580  0.2801
  379MPD2    C1 5665   2.166   0.895  16.400 -0.3331  0.3577  0.1660
  379MPD2    C2 5666   2.230   0.836  16.507 -0.3191  0.1258  0.3442
  379MPD2    C3 5667   2.358   0.872  16.545  0.2549  0.7679 -0.4880
  379MPD2    C4 5668   2.422   0.963  16.461 -0.2711  0.5129  0.4215
  379MPD2    C5 5669   2.358   1.020  16.353 -0.3642  0.1093  0.0256
  379MPD2     H 5670   2.175   0.766  16.568 -0.1571 -1.6320 -1.5379
  379MPD2    H1 5671   2.527   0.984  16.476  0.1910 -1.3058 -0.2812
  379MPD2    H2 5672   2.168   1.055  16.259 -0.1379 -0.6428  0.4314
  379MPD2    H3 5673   2.419   1.093  16.301 -0.1601 -0.0596  0.0237
  379MPD2     N 5674   2.426   0.836  16.658 -0.4541  0.6127  0.1384
  379MPD2    H5 5675   2.515   0.882  16.674  1.0635 -2.0418 -0.6594
  379MPD2    N1 5676   2.036   0.865  16.357 -0.3728 -0.2256  0.4201
  379MPD2    H7 5677   1.998   0.925  16.284 -1.8970 -0.8313  0.7212
  380TMC3    C1 5678   1.855   0.727  16.310 -0.1802 -0.1971  0.2369
  380TMC3    C2 5679   1.879   0.607  16.247 -0.2630  0.0241 -0.1059
  380TMC3    C3 5680   1.862   0.597  16.111  0.5814 -0.0472 -0.0739
  380TMC3    C4 5681   1.812   0.829  16.235  1.4424  0.2592 -0.0475
  380TMC3    C5 5682   1.751   0.800  16.120 -0.2798  0.0383 -0.3610
  380TMC3    C6 5683   1.775   0.687  16.049  0.1602  0.0094  0.2230
  380TMC3     C 5684   1.959   0.760  16.412  0.2768  0.1541 -0.5566
  380TMC3     O 5685   1.980   0.673  16.495  0.1130  0.3843 -0.5346
  380TMC3     H 5686   1.915   0.518  16.297 -1.0728 -0.1167  0.2277
  380TMC3    H1 5687   1.813   0.929  16.276 -2.2861  1.3384 -2.5363
  380TMC3    H2 5688   1.731   0.679  15.951  0.4130 -0.4375  0.1492
  380TMC3    C7 5689   1.710   0.913  16.038  0.0606  0.8584 -0.5084
  380TMC3    C8 5690   1.983   0.563  16.035 -0.3725 -0.2175  1.0785
  380TMC3    O1 5691   1.779   1.013  16.050 -0.3975  0.5010  0.6571
  380TMC3    O2 5692   1.986   0.578  15.912  0.5964  0.5793 -0.2307
  381TMC3    C1 5693   1.598   2.152  16.787  0.8190 -0.4949 -0.1674
  381TMC3    C2 5694   1.657   2.271  16.742 -0.3251  0.1718  0.3958
  381TMC3    C3 5695   1.738   2.346  16.821  0.1624  0.1706 -0.6235
  381TMC3    C4 5696   1.637   2.106  16.914 -0.1684 -0.0137  0.3163
  381TMC3    C5 5697   1.708   2.191  16.997  0.6012 -0.8619 -0.0161
  381TMC3    C6 5698   1.760   2.313  16.955 -0.9621  0.3450  0.6314
  381TMC3     C 5699   1.553   2.057  16.686  0.2933  0.0907  0.3312
  381TMC3     O 5700   1.534   2.097  16.570  0.0152  0.6459  0.0373
  381TMC3     H 5701   1.622   2.293  16.642  1.9870  3.8370  0.4124
  381TMC3    H1 5702   1.583   2.023  16.957 -1.6427  1.4248  1.2266
  381TMC3    H2 5703   1.829   2.369  17.018 -1.1071 -0.8569  1.8576
  381TMC3    C7 5704   1.719   2.150  17.137 -1.5124 -0.1673  0.0818
  381TMC3    C8 5705   1.823   2.440  16.752  0.2693  0.0025  0.6194
  381TMC3    O1 5706   1.692   2.037  17.178 -0.2417  0.3020  0.9044
  381TMC3    O2 5707   1.822   2.425  16.625 -0.7296  0.3245 -0.3956
  382MPD2     C 5708   1.264   0.100   0.189 -0.0487 -0.6337  0.0879
  382MPD2    C1 5709   1.272   0.035   0.068  0.2733 -0.2330  0.4449
  382MPD2    C2 5710   1.206   4.639   0.054  0.4419  0.3271 -0.0355
  382MPD2    C3 5711   1.142   4.584   0.159 -0.2380  0.5390  0.6077
  382MPD2    C4 5712   1.138   4.651   0.274 -0.3711  0.8684  0.2348
  382MPD2    C5 5713   1.212   0.041   0.296  0.2240 -0.7536 -0.7931
  382MPD2     H 5714   1.210   4.585  17.653 -0.7592 -0.2643  0.2409
  382MPD2    H1 5715   1.082   4.609   0.357  0.8302 -2.2965 -0.5319
  382MPD2    H2 5716   1.310   0.196   0.210  0.1508 -0.3043 -1.8808
  382MPD2    H3 5717   1.217   0.095   0.390  0.3876 -1.2977 -0.4925
  382MPD2     N 5718   1.069   4.463   0.150 -0.0505  0.4685 -0.1510
  382MPD2    H5 5719   1.016   4.436   0.232 -2.4413  1.7007 -1.2852
  382MPD2    N1 5720   1.341   0.081  17.651 -0.3113 -0.1827  0.0575
  382MPD2    H7 5721   1.344   0.018  17.572  0.1629  0.6035 -0.5484
  383TMC3    C1 5722   0.976   4.269   0.078 -0.2032  0.0362  0.3745
  383TMC3    C2 5723   0.922   4.200  17.670  0.4844 -0.1308 -0.2563
  383TMC3    C3 5724   0.886   4.077  17.675 -0.3997 -0.0677  0.0768
  383TMC3    C4 5725   0.988   4.210   0.197 -0.9038  0.3088 -0.5393
  383TMC3    C5 5726   0.956   4.072   0.205  0.3765 -0.9623 -0.4599
  383TMC3    C6 5727   0.917   4.001   0.095  0.4103 -0.3021  0.3998
  383TMC3     C 5728   1.047   4.385   0.036 -0.8061  0.5345 -0.0962
  383TMC3     O 5729   1.099   4.387  17.619 -0.6074 -0.0532  0.2837
  383TMC3     H 5730   0.904   4.256  17.579 -1.4186 -1.3689 -0.6566
  383TMC3    H1 5731   1.033   4.260   0.282  0.0921 -1.8093  0.1807
  383TMC3    H2 5732   0.873   3.903   0.110  0.8415 -0.1622  2.6582
  383TMC3    C7 5733   0.939   4.000   0.334 -0.4550 -0.7558  0.3375
  383TMC3    C8 5734   0.813   4.025  17.558 -0.2310 -0.5781  0.2060
  383TMC3    O1 5735   0.933   3.875   0.322  0.1430 -0.7170  0.1871
  383TMC3    O2 5736   0.732   4.101  17.508 -0.1011 -0.6171 -0.0179
  384MPD2     C 5737   2.894   0.510  12.167  0.1634 -0.4695  0.4469
  384MPD2    C1 5738   2.927   0.484  12.301 -0.5554  0.5871 -0.6466
  384MPD2    C2 5739   2.967   0.356  12.334 -0.0427  0.2251  0.4852
  384MPD2    C3 5740   2.979   0.250  12.243  0.1284 -1.1240  0.3133
  384MPD2    C4 5741   2.948   0.286  12.111  0.4488 -0.1501  0.2536
  384MPD2    C5 5742   2.911   0.413  12.076  0.1642 -0.1127  0.9676
  384MPD2     H 5743   3.017   0.350  12.430 -0.3308 -0.2516  0.6071
  384MPD2    H1 5744   2.957   0.217  12.028 -0.0980 -0.5995  0.5663
  384MPD2    H2 5745   2.873   0.610  12.130  2.9543 -0.7780 -1.9643
  384MPD2    H3 5746   2.900   0.423  11.968 -3.7238 -1.4913  1.2040
  384MPD2     N 5747   3.027   0.118  12.273 -0.4361 -0.3934 -0.0115
  384MPD2    H5 5748   3.049   0.051  12.200 -1.2904 -1.5112  0.7718
  384MPD2    N1 5749   2.914   0.576  12.406  0.7020  0.2890  0.4017
  384MPD2    H7 5750   2.951   0.542  12.495  0.7191 -1.8384 -0.4218
  385TMC3    C1 5751   3.149   4.679  12.413  0.3703  0.3360 -1.0845
  385TMC3    C2 5752   3.096   4.558  12.384  1.1353  0.2162  0.1332
  385TMC3    C3 5753   3.110   4.467  12.486  0.2698 -0.3432  0.1848
  385TMC3    C4 5754   3.227   4.703  12.523 -0.5854 -0.3080 -0.2139
  385TMC3    C5 5755   3.237   4.614  12.629 -0.1259 -0.2112  0.6743
  385TMC3    C6 5756   3.168   4.497  12.606 -0.4149 -1.4407  0.0201
  385TMC3     C 5757   3.071   0.081  12.395 -0.0678 -0.0836 -0.3544
  385TMC3     O 5758   3.055   0.139  12.501  0.7336 -0.2868 -0.5327
  385TMC3     H 5759   3.039   4.538  12.294 -0.3780  2.5531  0.5911
  385TMC3    H1 5760   3.290   0.068  12.533 -2.4482  0.9362  0.7380
  385TMC3    H2 5761   3.177   4.419  12.681  0.8876  0.7639  2.1780
  385TMC3    C7 5762   3.217   4.665  12.763  0.7468  0.2954 -0.7145
  385TMC3    C8 5763   3.063   4.326  12.463 -0.0819 -0.7317  0.6428
  385TMC3    O1 5764   3.257   4.598  12.859 -0.2565 -0.0469 -0.7226
  385TMC3    O2 5765   3.032   4.260  12.562 -0.5776  0.9050  0.0356
  386TMC3    C1 5766   2.749   2.531  11.636  0.1373 -0.3149  0.2515
  386TMC3    C2 5767   2.764   2.492  11.507  0.3544  0.2246 -0.0551
  386TMC3    C3 5768   2.677   2.544  11.416 -0.0423 -0.5288 -0.5516
  386TMC3    C4 5769   2.664   2.630  11.666 -0.3397 -0.6591 -0.3917
  386TMC3    C5 5770   2.573   2.675  11.576  0.0375 -0.1651 -0.7003
  386TMC3    C6 5771   2.577   2.631  11.448 -0.2838  0.3807 -0.2878
  386TMC3     C 5772   2.868   2.526  11.722  0.6797  0.2882 -0.0521
  386TMC3     O 5773   2.875   2.630  11.789  0.5401 -0.1638 -0.1085
  386TMC3     H 5774   2.836   2.421  11.470  0.4036  0.2292  0.0315
  386TMC3    H1 5775   2.663   2.667  11.768  2.1315 -2.0236  0.1302
  386TMC3    H2 5776   2.523   2.682  11.370 -0.1029 -0.9868 -1.3032
  386TMC3    C7 5777   2.484   2.783  11.628 -0.1999 -0.4502 -0.4794
  386TMC3    C8 5778   2.712   2.536  11.277  0.3894 -0.2651  0.0794
  386TMC3    O1 5779   2.464   2.773  11.744 -0.1213  0.2840  0.2140
  386TMC3    O2 5780   2.618   2.509  11.198  0.8239  0.0378  0.0473
  387MPD2     C 5781   0.067   3.418   9.974  0.0952 -0.1791 -0.2951
  387MPD2    C1 5782   0.141   3.350  10.067  0.4635 -0.0992 -0.3926
  387MPD2    C2 5783   0.108   3.224  10.092  0.1967  0.2234 -0.0671
  387MPD2    C3 5784   0.019   3.157  10.018  0.2757 -0.1371  0.4069
  387MPD2    C4 5785   4.651   3.225   9.932  0.2826 -0.3167 -0.3482
  387MPD2    C5 5786   4.677   3.362   9.924 -0.0187 -0.2010 -0.5293
  387MPD2     H 5787   0.175   3.168  10.157 -0.8303 -0.7616  0.1351
  387MPD2    H1 5788   4.580   3.179   9.864 -0.7886  0.5410  0.1944
  387MPD2    H2 5789   0.086   3.522   9.950 -0.0915  0.2693  1.4792
  387MPD2    H3 5790   4.629   3.423   9.848  0.3454 -0.5961 -1.0861
  387MPD2     N 5791   0.013   3.016  10.043 -0.3915 -0.0813  0.1467
  387MPD2    H5 5792   0.081   2.972  10.104  0.3502 -0.0871 -0.6904
  387MPD2    N1 5793   0.257   3.410  10.121 -0.6586  0.2036  0.2563
  387MPD2    H7 5794   0.302   3.344  10.184  1.1637 -0.1010 -1.3594
  388TMC3    C1 5795   0.458   3.526  10.122  0.3885 -0.0237  0.3999
  388TMC3    C2 5796   0.530   3.643  10.134  0.3472  0.0832  0.0009
  388TMC3    C3 5797   0.658   3.634  10.174 -0.0568  0.0631 -0.2916
  388TMC3    C4 5798   0.521   3.406  10.147  0.1311 -1.0024 -0.4416
  388TMC3    C5 5799   0.652   3.400  10.174  0.3462 -0.3195  0.3441
  388TMC3    C6 5800   0.727   3.516  10.193  0.4079  0.0747 -0.4652
  388TMC3     C 5801   0.321   3.526  10.076  0.3263 -0.2035  0.3711
  388TMC3     O 5802   0.293   3.620  10.004  0.2156  0.0645 -0.3397
  388TMC3     H 5803   0.492   3.739  10.103  0.5252 -0.4298 -1.8047
  388TMC3    H1 5804   0.465   3.317  10.121 -0.5888 -0.8249  0.5062
  388TMC3    H2 5805   0.829   3.504  10.230  0.0895  0.3739  0.5054
  388TMC3    C7 5806   0.716   3.275  10.169 -0.1320 -0.1976  0.4299
  388TMC3    C8 5807   0.727   3.757  10.212 -0.0062 -0.0393 -0.5091
  388TMC3    O1 5808   0.835   3.266  10.145 -0.6385  0.0747 -0.0860
  388TMC3    O2 5809   0.701   3.856  10.151 -0.5872 -0.3835  0.2288
  389MPD2     C 5810   0.055   1.142  11.648 -0.0356 -0.2916 -0.2158
  389MPD2    C1 5811   4.680   1.062  11.601 -0.6584  0.3960  0.1910
  389MPD2    C2 5812   4.590   1.003  11.684 -0.2231  0.7084 -0.0480
  389MPD2    C3 5813   4.601   1.019  11.817 -0.3317  0.1067  0.2444
  389MPD2    C4 5814   4.697   1.104  11.869  0.0979  0.2351  0.0261
  389MPD2    C5 5815   0.067   1.160  11.787 -0.2713 -0.8066  0.7582
  389MPD2     H 5816   4.508   0.946  11.643 -0.7925  1.8258 -0.4475
  389MPD2    H1 5817   4.703   1.129  11.975 -0.2306 -0.5341  0.2316
  389MPD2    H2 5818   0.127   1.192  11.584 -0.8368  1.0029 -0.0821
  389MPD2    H3 5819   0.136   1.234  11.827  1.3568 -0.4628 -2.6433
  389MPD2     N 5820   4.517   0.950  11.911  0.5116  0.6375  0.8203
  389MPD2    H5 5821   4.524   0.984  12.006 -1.5858  1.4481  0.6905
  389MPD2    N1 5822   4.675   1.052  11.461 -0.2394  0.7027  0.1999
  389MPD2    H7 5823   4.716   1.122  11.400 -0.3220  0.1042 -0.5365
  390TMC3    C1 5824   4.371   0.795  12.007 -0.3780 -0.6194  0.3486
  390TMC3    C2 5825   4.333   0.663  12.005 -0.6415 -0.4523  0.5776
  390TMC3    C3 5826   4.235   0.623  12.091 -0.3212 -0.3370 -0.3987
  390TMC3    C4 5827   4.305   0.887  12.072  0.0806 -0.3777 -0.3389
  390TMC3    C5 5828   4.191   0.850  12.147 -0.3475 -0.2395  0.1966
  390TMC3    C6 5829   4.156   0.716  12.161  0.1901 -0.3140  0.3762
  390TMC3     C 5830   4.440   0.840  11.889  0.5189  0.0567  0.9066
  390TMC3     O 5831   4.422   0.769  11.790  0.1155 -0.4041  0.5805
  390TMC3     H 5832   4.383   0.594  11.939 -1.9821  0.7368 -1.7263
  390TMC3    H1 5833   4.333   0.992  12.064  1.3677 -0.7441 -0.5108
  390TMC3    H2 5834   4.072   0.680  12.220  1.0622  0.0532  1.8393
  390TMC3    C7 5835   4.085   0.950  12.145 -0.0277 -0.6028  0.8186
  390TMC3    C8 5836   4.183   0.489  12.069 -0.4550 -0.4668  0.3322
  390TMC3    O1 5837   4.107   1.048  12.073 -0.4832  0.1098  0.1048
  390TMC3    O2 5838   4.215   0.436  11.964  0.1501 -0.3529  0.2196
  391MPD2     C 5839   3.442   2.692  11.409 -0.0101  0.0666 -0.5914
  391MPD2    C1 5840   3.579   2.694  11.379  0.2722  0.3523  0.2274
  391MPD2    C2 5841   3.609   2.731  11.249  0.2273  0.3043 -0.2560
  391MPD2    C3 5842   3.506   2.748  11.156 -0.0428  0.2285  0.4405
  391MPD2    C4 5843   3.377   2.729  11.194  0.2210  0.5191 -0.6526
  391MPD2    C5 5844   3.341   2.702  11.321 -0.2704  0.2573  0.1230
  391MPD2     H 5845   3.710   2.753  11.214  0.4343 -0.2832 -0.0359
  391MPD2    H1 5846   3.290   2.734  11.129  0.0730  0.1733 -0.4816
  391MPD2    H2 5847   3.408   2.667  11.508  0.2878  1.5240 -0.1291
  391MPD2    H3 5848   3.239   2.686  11.355 -0.3896  1.1022  0.1610
  391MPD2     N 5849   3.540   2.794  11.029 -0.4763  0.1645 -0.3415
  391MPD2    H5 5850   3.640   2.793  11.009 -0.4522  1.2517 -0.2880
  391MPD2    N1 5851   3.680   2.674  11.487  0.0248  0.3501  0.1031
  391MPD2    H7 5852   3.644   2.691  11.580 -3.0197 -0.6778 -0.9105
  392TMC3    C1 5853   3.508   2.884  10.812 -0.4421 -0.3421 -0.1803
  392TMC3    C2 5854   3.424   2.860  10.701 -0.2891 -0.1976 -0.1798
  392TMC3    C3 5855   3.468   2.921  10.590 -0.0219  0.2802 -0.0320
  392TMC3    C4 5856   3.623   2.958  10.823 -0.0711 -0.3705  0.3836
  392TMC3    C5 5857   3.656   3.012  10.703 -0.0804 -0.1759  0.5633
  392TMC3    C6 5858   3.590   2.983  10.586 -0.3180 -0.5315  0.4437
  392TMC3     C 5859   3.454   2.819  10.931  0.3600  0.4716  0.1253
  392TMC3     O 5860   3.334   2.800  10.919 -0.1465  0.2726  0.0563
  392TMC3     H 5861   3.335   2.798  10.703  0.9379 -1.9811 -1.0647
  392TMC3    H1 5862   3.694   2.964  10.904  0.0826  0.5928  0.1712
  392TMC3    H2 5863   3.614   3.033  10.492 -1.8615  1.0723  0.8918
  392TMC3    C7 5864   3.798   3.053  10.704  0.4670  1.0614 -0.1248
  392TMC3    C8 5865   3.403   2.879  10.464 -0.3664  0.5096  0.2524
  392TMC3    O1 5866   3.836   3.099  10.812 -0.5108  0.3654 -0.1795
  392TMC3    O2 5867   3.341   2.776  10.475 -0.2448  0.2136  0.1912
  393TMC3    C1 5868   2.898   1.122  10.543  0.2119  0.9103 -0.0428
  393TMC3    C2 5869   2.764   1.099  10.542  0.1662 -0.2931 -0.7605
  393TMC3    C3 5870   2.723   0.976  10.571  0.2606  0.3439  0.7045
  393TMC3    C4 5871   2.992   1.035  10.588  0.9547  0.7766  0.8371
  393TMC3    C5 5872   2.945   0.907  10.610  0.2311 -0.0182  0.0392
  393TMC3    C6 5873   2.808   0.873  10.600  0.3717 -0.5627 -0.6966
  393TMC3     C 5874   2.930   1.260  10.498 -0.1160  0.2850 -0.4475
  393TMC3     O 5875   2.839   1.325  10.449  0.5334  0.5784  0.0040
  393TMC3     H 5876   2.693   1.177  10.518  1.7268  2.0872  2.3325
  393TMC3    H1 5877   3.099   1.055  10.589  1.1957 -0.4932  0.5771
  393TMC3    H2 5878   2.774   0.770  10.604  1.3017 -0.8689 -0.8068
  393TMC3    C7 5879   3.038   0.797  10.594 -0.4156  0.3265  0.2280
  393TMC3    C8 5880   2.579   0.939  10.576 -0.0901  0.3862 -0.5580
  393TMC3    O1 5881   2.992   0.699  10.539  0.2385 -0.3503  0.3577
  393TMC3    O2 5882   2.507   1.021  10.522  0.0177  0.3678 -0.3620
  394TMC3    C1 5883   4.582   0.956  11.262 -0.1994 -0.2487  0.2435
  394TMC3    C2 5884   4.491   0.866  11.211 -0.1019 -0.3772  0.0914
  394TMC3    C3 5885   4.491   0.852  11.076 -0.3141  0.6752 -0.0771
  394TMC3    C4 5886   4.653   1.041  11.179  0.1717 -0.7774  0.0640
  394TMC3    C5 5887   4.634   1.031  11.042  0.0105 -0.3173  0.3821
  394TMC3    C6 5888   4.555   0.936  10.985  0.6489  0.0694 -0.0850
  394TMC3     C 5889   4.599   0.950  11.405  0.0147 -0.4448 -0.1375
  394TMC3     O 5890   4.544   0.854  11.454 -0.0812 -0.0705  0.6568
  394TMC3     H 5891   4.449   0.786  11.271 -1.9459  1.0483  0.7176
  394TMC3    H1 5892   4.719   1.120  11.214 -0.1532 -1.0166  1.2021
  394TMC3    H2 5893   4.527   0.941  10.880  0.1313  0.8166  0.0945
  394TMC3    C7 5894   0.006   1.100  10.956 -0.5607 -0.1962 -0.8332
  394TMC3    C8 5895   4.401   0.748  11.033 -0.3627  0.5485  0.1379
  394TMC3    O1 5896   0.061   1.197  11.002  0.3236  1.0309  0.0580
  394TMC3    O2 5897   4.310   0.713  11.108 -0.1703 -0.0852 -0.0846
  395TMC3    C1 5898   3.742   3.365  14.505 -0.5245 -0.5178 -0.3720
  395TMC3    C2 5899   3.622   3.340  14.559  0.1817 -0.2133 -0.0330
  395TMC3    C3 5900   3.594   3.371  14.690  0.0313  0.0893  0.3345
  395TMC3    C4 5901   3.840   3.431  14.573 -0.4223  0.4047 -0.0680
  395TMC3    C5 5902   3.802   3.485  14.687 -0.0340  0.6264  0.4953
  395TMC3    C6 5903   3.680   3.469  14.742  0.5365 -0.1440  0.2532
  395TMC3     C 5904   3.783   3.259  14.411 -0.1925  0.3038  0.4385
  395TMC3     O 5905   3.734   3.258  14.298  0.8481  0.5244  0.3933
  395TMC3     H 5906   3.554   3.285  14.494 -0.5648 -0.0052  0.5616
  395TMC3    H1 5907   3.932   3.439  14.516 -0.2465 -2.2285 -0.1659
  395TMC3    H2 5908   3.665   3.509  14.842  1.3114 -0.1575  0.3748
  395TMC3    C7 5909   3.911   3.524  14.782 -0.2115 -0.6234  0.4243
  395TMC3    C8 5910   3.550   3.272  14.787  1.0871 -0.0888  0.1315
  395TMC3    O1 5911   3.890   3.604  14.873  0.8022 -0.2192  1.0979
  395TMC3    O2 5912   3.544   3.308  14.904  0.0449 -0.1208  0.5871
  396MPD2     C 5913   3.596   4.344  17.231 -0.4166  0.8893  0.3074
  396MPD2    C1 5914   3.706   4.383  17.298 -0.4787 -0.5154 -0.0169
  396MPD2    C2 5915   3.774   4.499  17.265  0.2459  0.3798  0.2499
  396MPD2    C3 5916   3.732   4.581  17.160  0.0310 -0.6285  0.3408
  396MPD2    C4 5917   3.623   4.541  17.099  1.5447 -0.4664  0.3920
  396MPD2    C5 5918   3.553   4.429  17.133 -0.1330 -0.1981  0.2478
  396MPD2     H 5919   3.860   4.529  17.324  1.2574  0.5993 -1.3403
  396MPD2    H1 5920   3.579   4.597  17.018  2.6096  0.5039  0.4826
  396MPD2    H2 5921   3.543   4.253  17.255  1.3232  0.3301  2.0005
  396MPD2    H3 5922   3.458   4.411  17.085  0.4585 -1.5502 -0.3977
  396MPD2     N 5923   3.802   4.705  17.138  0.4260  0.6632 -0.0982
  396MPD2    H5 5924   3.901   4.701  17.163  0.0387  1.2187  1.4864
  396MPD2    N1 5925   3.748   4.296  17.397 -0.0816 -0.1247 -0.1971
  396MPD2    H7 5926   3.708   4.203  17.397 -0.9316  0.2441 -0.2004
  397TMC3    C1 5927   3.878   4.180  17.544  0.0417  0.2787 -0.7390
  397TMC3    C2 5928   3.932   4.098  17.453 -0.3343  0.1326  0.6102
  397TMC3    C3 5929   4.064   4.070  17.475  0.3632  0.4923  0.3907
  397TMC3    C4 5930   3.936   4.198  17.669  0.5371 -0.3411  0.4726
  397TMC3    C5 5931   4.062   4.145  17.690  0.1351 -0.0449 -0.6670
  397TMC3    C6 5932   4.133   4.097  17.589  0.2493  0.5698 -0.0939
  397TMC3     C 5933   3.855   4.307  17.481  0.6179 -0.2861 -0.0415
  397TMC3     O 5934   3.941   4.395  17.506  0.3665 -0.5101  0.3434
  397TMC3     H 5935   3.899   4.108  17.350  0.5412  2.3777  0.5512
  397TMC3    H1 5936   3.892   4.262   0.052 -1.2837 -0.5773 -0.3907
  397TMC3    H2 5937   4.236   4.063  17.589 -0.0873 -0.4591 -0.7262
  397TMC3    C7 5938   4.138   4.211   0.102 -0.8544  0.2329 -0.2347
  397TMC3    C8 5939   4.136   4.065  17.347  0.3566 -0.5922  0.3885
  397TMC3    O1 5940   4.256   4.216   0.073 -0.1865  0.0616  0.3200
  397TMC3    O2 5941   4.083   4.006  17.255 -0.0722 -0.4296  0.3700
  398MPD2     C 5942   2.302   0.736   0.469  0.0422 -0.6375  0.0429
  398MPD2    C1 5943   2.397   0.637   0.476  1.1049  0.4153 -0.2793
  398MPD2    C2 5944   2.485   0.645   0.579 -0.1932  0.3348  0.0376
  398MPD2    C3 5945   2.486   0.752   0.670 -0.3941  0.2917 -0.3004
  398MPD2    C4 5946   2.384   0.849   0.661 -0.4168  1.0177 -0.4250
  398MPD2    C5 5947   2.293   0.836   0.564 -1.9639 -0.7783 -0.1726
  398MPD2     H 5948   2.567   0.574   0.586 -0.4874  0.0584  0.6978
  398MPD2    H1 5949   2.385   0.935   0.728 -1.6468  1.2970 -0.7804
  398MPD2    H2 5950   2.231   0.741   0.387 -2.4868 -0.1780  2.2498
  398MPD2    H3 5951   2.203   0.896   0.558 -1.3401  0.3308  1.8013
  398MPD2     N 5952   2.590   0.766   0.758 -0.2009  0.0515  0.5632
  398MPD2    H5 5953   2.660   0.695   0.739 -0.5405 -0.1071 -0.1117
  398MPD2    N1 5954   2.396   0.525   0.387 -0.0215  0.4672  0.0580
  398MPD2    H7 5955   2.443   0.443   0.424  1.8406  2.3605  1.9092
  399TMC3    C1 5956   2.315   0.371   0.226  0.1997  0.0197  0.7339
  399TMC3    C2 5957   2.430   0.298   0.252  0.2599 -0.1565 -0.0899
  399TMC3    C3 5958   2.413   0.168   0.281  0.5093  0.3278 -0.5012
  399TMC3    C4 5959   2.185   0.322   0.231 -0.3586  0.1316 -0.3837
  399TMC3    C5 5960   2.171   0.192   0.268  0.2193  0.4937 -1.1160
  399TMC3    C6 5961   2.284   0.116   0.286  0.4265  0.1049  0.4727
  399TMC3     C 5962   2.321   0.510   0.273  0.5051  0.1580  0.0335
  399TMC3     O 5963   2.254   0.591   0.209  0.7453  0.0163 -0.1850
  399TMC3     H 5964   2.526   0.348   0.250  1.1784 -1.9082 -0.0487
  399TMC3    H1 5965   2.101   0.379   0.194 -1.6188  0.2068  2.6386
  399TMC3    H2 5966   2.283   0.013   0.320 -0.0937 -0.3127 -0.7980
  399TMC3    C7 5967   2.045   0.134   0.282 -0.1229  0.1318  0.3812
  399TMC3    C8 5968   2.530   0.085   0.267 -0.2048 -0.7594  0.1559
  399TMC3    O1 5969   2.042   0.012   0.290  0.8061 -0.1790  0.3006
  399TMC3    O2 5970   2.635   0.143   0.268 -0.2561  0.1145 -0.5370
  400TMC3    C1 5971   0.670   3.876  16.995 -0.5050 -0.8390 -0.9006
  400TMC3    C2 5972   0.561   3.838  16.911  0.8533 -0.5917 -0.1342
  400TMC3    C3 5973   0.504   3.934  16.839 -0.2099  0.9754  0.3432
  400TMC3    C4 5974   0.701   4.006  17.016  0.4429 -0.4622 -0.0735
  400TMC3    C5 5975   0.639   4.104  16.941  0.2442 -0.2491 -0.4940
  400TMC3    C6 5976   0.552   4.061  16.840 -0.4759  0.0790  0.1171
  400TMC3     C 5977   0.744   3.773  17.055  0.0292 -0.7944 -0.0216
  400TMC3     O 5978   0.700   3.663  17.024 -0.5254  0.1747 -0.3377
  400TMC3     H 5979   0.534   3.735  16.894  0.0127 -0.1858 -1.2311
  400TMC3    H1 5980   0.782   4.033  17.082  2.2879  0.2314 -2.6005
  400TMC3    H2 5981   0.494   4.137  16.790  3.1930  2.3700 -0.6758
  400TMC3    C7 5982   0.718   4.216  16.905 -0.2488  0.0863 -0.0360
  400TMC3    C8 5983   0.396   3.911  16.734 -0.1417  0.3548  0.1885
  400TMC3    O1 5984   0.732   4.236  16.783  0.4652  0.4955 -0.3382
  400TMC3    O2 5985   0.376   4.004  16.661  0.2902 -0.2772 -0.4630
  401MPD2     C 5986   3.630   1.999   0.083 -0.2731  0.0342 -0.4178
  401MPD2    C1 5987   3.668   1.983   0.214  0.1926  0.1830 -0.5241
  401MPD2    C2 5988   3.711   1.861   0.254  0.7182  0.2724 -0.0874
  401MPD2    C3 5989   3.740   1.762   0.164 -0.5771 -0.4269  0.0421
  401MPD2    C4 5990   3.711   1.783   0.035  0.4050  0.6485 -0.0380
  401MPD2    C5 5991   3.654   1.899  17.684  0.1195  0.9418 -0.9705
  401MPD2     H 5992   3.747   1.856   0.356  2.4220 -1.8956 -0.7950
  401MPD2    H1 5993   3.721   1.716  17.644  2.8128 -0.1685  0.8800
  401MPD2    H2 5994   3.591   2.091   0.043 -0.5050 -0.3843 -1.1430
  401MPD2    H3 5995   3.623   1.905  17.580  2.2733 -0.7295 -1.7016
  401MPD2     N 5996   3.801   1.640   0.210 -0.3745 -0.2305  0.3050
  401MPD2    H5 5997   3.832   1.642   0.306 -1.5531 -2.0728  0.7189
  401MPD2    N1 5998   3.664   2.091   0.304 -0.2564 -0.5667 -0.2732
  401MPD2    H7 5999   3.679   2.067   0.401 -1.5920 -0.1475  0.0370
  402TMC3    C1 6000   3.928   1.448   0.200 -0.3621 -0.3483  0.2674
  402TMC3    C2 6001   3.893   1.405   0.325 -0.3707 -0.8178 -0.0131
  402TMC3    C3 6002   3.990   1.335   0.394  0.4450  0.2331  0.1508
  402TMC3    C4 6003   4.040   1.398   0.137 -0.2696  0.4285  0.0659
  402TMC3    C5 6004   4.127   1.320   0.203  0.0836 -0.0542  0.0035
  402TMC3    C6 6005   4.100   1.287   0.332  0.7267 -0.0489  0.6388
  402TMC3     C 6006   3.846   1.538   0.127 -0.2003 -0.2158  0.0256
  402TMC3     O 6007   3.824   1.517   0.008 -0.0647  0.3858 -0.4090
  402TMC3     H 6008   3.801   1.435   0.374 -0.3747 -2.5616  1.0467
  402TMC3    H1 6009   4.077   1.446   0.047  0.6163 -0.6197 -0.1373
  402TMC3    H2 6010   4.171   1.248   0.404  0.7361  0.0226  0.6685
  402TMC3    C7 6011   4.254   1.294   0.141  0.4942  0.6925  0.1411
  402TMC3    C8 6012   3.953   1.262   0.518 -0.1062 -0.4120  0.3709
  402TMC3    O1 6013   4.286   1.374   0.051 -0.6925 -0.6243 -0.0977
  402TMC3    O2 6014   4.017   1.164   0.539 -0.6901  0.0007  0.1317
  403MPD2     C 6015   2.149   0.843  13.478  0.2040  0.2144  0.0914
  403MPD2    C1 6016   2.173   0.735  13.555 -0.1073  0.3400 -0.5276
  403MPD2    C2 6017   2.254   0.754  13.666 -0.0575 -0.4306  0.1866
  403MPD2    C3 6018   2.315   0.875  13.692  0.4390 -0.0843  0.2765
  403MPD2    C4 6019   2.285   0.983  13.611 -0.2714  0.0797 -0.3264
  403MPD2    C5 6020   2.203   0.968  13.509  0.6473  0.0354 -0.5086
  403MPD2     H 6021   2.274   0.666  13.725 -1.6092 -0.2841  0.9415
  403MPD2    H1 6022   2.329   1.080  13.632 -0.2750  0.1854 -0.8181
  403MPD2    H2 6023   2.075   0.839  13.399  0.2990 -0.7751  0.0636
  403MPD2    H3 6024   2.192   1.052  13.441 -1.8876  0.1666  0.0819
  403MPD2     N 6025   2.390   0.895  13.812  0.1337  0.1013 -0.0723
  403MPD2    H5 6026   2.397   0.813  13.872  1.5309  1.8954  2.1966
  403MPD2    N1 6027   2.118   0.609  13.523  1.0805 -0.1879 -0.2144
  403MPD2    H7 6028   2.082   0.594  13.430 -2.2518 -2.1926  1.3894
  404TMC3    C1 6029   2.099   0.368  13.554 -0.4156  0.3470  0.2069
  404TMC3    C2 6030   2.078   0.258  13.637  0.5413 -0.3725  0.4413
  404TMC3    C3 6031   2.067   0.133  13.582 -0.2497  0.6182 -0.5781
  404TMC3    C4 6032   2.113   0.352  13.421  0.1588  0.5398 -0.0984
  404TMC3    C5 6033   2.110   0.224  13.367  0.1867 -0.2170  0.0178
  404TMC3    C6 6034   2.096   0.109  13.451 -0.4481  0.5237  1.0566
  404TMC3     C 6035   2.110   0.503  13.609 -0.2073 -1.1007 -0.2233
  404TMC3     O 6036   2.119   0.504  13.730  0.2034 -0.1556  0.0676
  404TMC3     H 6037   2.042   0.280  13.737 -1.6710 -0.4651 -0.3387
  404TMC3    H1 6038   2.137   0.440  13.363 -1.0844  0.9066 -0.0467
  404TMC3    H2 6039   2.099   0.008  13.411 -1.4127  1.1893 -0.6805
  404TMC3    C7 6040   2.163   0.214  13.233  0.4130  0.0420  0.1028
  404TMC3    C8 6041   2.114   0.025  13.667 -0.1159  0.1758  0.9919
  404TMC3    O1 6042   2.212   0.316  13.183 -0.1243 -0.1358 -0.4029
  404TMC3    O2 6043   2.198   4.679  13.613  0.1639  0.1614  0.1960
  405MPD2     C 6044   2.480   1.086  15.172  0.2710  0.9218  0.3432
  405MPD2    C1 6045   2.425   0.998  15.088 -0.0553  0.5677  1.4624
  405MPD2    C2 6046   2.367   1.043  14.970  0.1031 -0.0913 -0.0371
  405MPD2    C3 6047   2.363   1.175  14.927 -0.2540  0.7597 -0.1302
  405MPD2    C4 6048   2.427   1.263  15.009 -0.0374  0.0177  0.3607
  405MPD2    C5 6049   2.479   1.213  15.123  0.1963  0.3050  0.4524
  405MPD2     H 6050   2.310   0.970  14.914 -0.7919  1.9892 -1.8529
  405MPD2    H1 6051   2.431   1.371  14.997  0.9176 -0.0020  0.4985
  405MPD2    H2 6052   2.527   1.068  15.268 -0.1743  0.8704  0.5540
  405MPD2    H3 6053   2.521   1.290  15.186  0.1477 -0.3894  1.3286
  405MPD2     N 6054   2.282   1.212  14.818  0.0046 -0.2001 -0.2162
  405MPD2    H5 6055   2.245   1.132  14.769  1.3385 -0.9978  0.0736
  405MPD2    N1 6056   2.423   0.857  15.122 -0.4796 -0.4434  0.0420
  405MPD2    H7 6057   2.384   0.795  15.053  0.4015 -1.5657  0.5525
  406TMC3    C1 6058   1.980   1.381  14.561 -0.2860  0.8701 -0.3562
  406TMC3    C2 6059   1.970   1.262  14.491 -0.4561  0.5456 -0.3967
  406TMC3    C3 6060   2.065   1.172  14.505  0.4301  0.6131 -0.4840
  406TMC3    C4 6061   2.091   1.419  14.629 -0.4837  0.1333  0.4723
  406TMC3    C5 6062   2.192   1.326  14.642 -0.0056  0.4074  0.4643
  406TMC3    C6 6063   2.178   1.200  14.579  0.0705  0.0076  0.1113
  406TMC3     C 6064   1.866   1.474  14.556  0.4068  0.4200 -0.2324
  406TMC3     O 6065   1.882   1.596  14.537 -0.8232 -0.7111 -0.2798
  406TMC3     H 6066   1.877   1.234  14.442 -0.3072  0.8682 -0.8607
  406TMC3    H1 6067   2.100   1.518  14.671  0.3982  0.3995 -0.3560
  406TMC3    H2 6068   2.260   1.129  14.568 -0.6019 -1.2754  3.4068
  406TMC3    C7 6069   2.270   1.334  14.763  1.1770 -0.7213 -0.4532
  406TMC3    C8 6070   2.029   1.034  14.482  0.6723 -0.3309  0.1826
  406TMC3    O1 6071   2.293   1.441  14.812 -0.4027 -0.6491  0.2651
  406TMC3    O2 6072   1.937   1.009  14.402  0.1909  0.4403 -0.0170
  407MPD2     C 6073   4.302   2.854  10.396  0.0903 -0.5975  0.1947
  407MPD2    C1 6074   4.358   2.927  10.300 -0.6195  0.2174 -0.2786
  407MPD2    C2 6075   4.448   3.024  10.323  0.2192  0.1166 -0.2703
  407MPD2    C3 6076   4.489   3.052  10.454  0.5079  1.1907  0.1690
  407MPD2    C4 6077   4.437   2.972  10.550  0.6663 -0.3549 -0.3787
  407MPD2    C5 6078   4.344   2.872  10.526  0.3519  0.5107 -0.0428
  407MPD2     H 6079   4.488   3.081  10.240  1.7498 -0.5777 -0.0213
  407MPD2    H1 6080   4.464   2.988  10.653 -1.9685 -0.1840  0.2790
  407MPD2    H2 6081   4.222   2.787  10.367 -0.3341 -0.3342  0.7495
  407MPD2    H3 6082   4.307   2.817  10.612 -1.0619  2.1397  0.3929
  407MPD2     N 6083   4.581   3.158  10.491 -0.0280 -0.6231 -1.0743
  407MPD2    H5 6084   4.597   3.173  10.590 -1.8234 -2.4260 -0.5129
  407MPD2    N1 6085   4.314   2.919  10.164  0.6688 -0.5096  0.2003
  407MPD2    H7 6086   4.356   2.982  10.097 -1.1369 -0.9910 -1.3764
  408TMC3    C1 6087   4.265   2.826   9.955  1.0075 -0.9068  0.8710
  408TMC3    C2 6088   4.307   2.716   9.883 -0.0276 -0.2284 -0.0676
  408TMC3    C3 6089   4.332   2.721   9.748 -0.3330 -0.7209 -0.1447
  408TMC3    C4 6090   4.269   2.947   9.888  0.0429 -0.7721 -0.0810
  408TMC3    C5 6091   4.312   2.953   9.756  0.2447 -1.1146  0.0402
  408TMC3    C6 6092   4.333   2.837   9.683  0.3826  0.0523  0.1903
  408TMC3     C 6093   4.248   2.814  10.103  0.1530 -0.3636 -0.4022
  408TMC3     O 6094   4.217   2.708  10.155 -0.5395  0.3645  0.1399
  408TMC3     H 6095   4.310   2.623   9.938 -1.0791  0.2847  0.8651
  408TMC3    H1 6096   4.224   3.037   9.928 -0.8513 -1.8721  1.3843
  408TMC3    H2 6097   4.357   2.838   9.578 -0.5836 -0.6476 -0.0340
  408TMC3    C7 6098   4.334   3.082   9.691 -0.0610  1.2310 -0.9246
  408TMC3    C8 6099   4.436   2.637   9.701 -0.2650  0.7331 -0.2301
  408TMC3    O1 6100   4.345   3.086   9.568 -0.2916  0.3067 -0.0242
  408TMC3    O2 6101   4.431   2.525   9.752 -0.0741 -0.1721  0.0040
  409MPD2     C 6102   4.245   3.581  17.210  0.0061 -0.1549  0.8656
  409MPD2    C1 6103   4.355   3.578  17.295  0.0597  0.4025 -0.5545
  409MPD2    C2 6104   4.455   3.669  17.279 -0.1140  0.0188  1.0390
  409MPD2    C3 6105   4.454   3.765  17.178  0.6409 -0.1145  0.1579
  409MPD2    C4 6106   4.351   3.756  17.084  0.3382 -0.1129  0.1964
  409MPD2    C5 6107   4.250   3.668  17.104  0.1468  0.0199  0.3022
  409MPD2     H 6108   4.533   3.671  17.354  0.5124 -0.7791  0.4068
  409MPD2    H1 6109   4.361   3.821  16.998  0.3125 -0.3118  0.0424
  409MPD2    H2 6110   4.162   3.512  17.220  0.4396 -0.3960  2.8195
  409MPD2    H3 6111   4.174   3.671  17.027 -1.0294  1.2622  1.5122
  409MPD2     N 6112   4.570   3.838  17.146  0.0973 -0.3608 -0.4655
  409MPD2    H5 6113   4.567   3.897  17.063 -1.0138  0.9083  0.4768
  409MPD2    N1 6114   4.368   3.490  17.401 -0.1446  0.0158 -0.3862
  409MPD2    H7 6115   4.453   3.491  17.457  0.2653 -1.8679 -0.9945
  410TMC3    C1 6116   0.068   3.893  17.138 -0.3244  0.5814 -0.4418
  410TMC3    C2 6117   0.187   3.871  17.199  0.3002  0.4933 -0.3440
  410TMC3    C3 6118   0.285   3.965  17.164  0.0199  0.5221  0.0691
  410TMC3    C4 6119   0.052   3.984  17.030 -0.0834 -0.3912  0.2835
  410TMC3    C5 6120   0.153   4.068  17.000 -0.2390 -1.1024 -0.1324
  410TMC3    C6 6121   0.270   4.068  17.071 -0.1543  0.2257  0.4350
  410TMC3     C 6122   4.684   3.850  17.223 -0.6369  0.2509 -0.0567
  410TMC3     O 6123   4.710   3.805  17.333  0.4615 -0.1700  0.0231
  410TMC3     H 6124   0.205   3.812  17.287 -1.1519 -1.6712 -1.5056
  410TMC3    H1 6125   4.683   3.974  16.973  0.4011  1.0836 -0.7562
  410TMC3    H2 6126   0.353   4.134  17.048 -0.7489  0.3436 -1.3854
  410TMC3    C7 6127   0.142   4.138  16.873 -0.6134  0.8899  0.0668
  410TMC3    C8 6128   0.412   3.944  17.230  0.2439 -0.2417 -0.0278
  410TMC3    O1 6129   0.068   4.093  16.787 -0.6635 -0.3562  0.0505
  410TMC3    O2 6130   0.476   4.046  17.243 -0.1569  0.2516 -0.0822
  411MPD2     C 6131   4.572   4.198  14.922  0.5004  0.1086  0.6013
  411MPD2    C1 6132   4.449   4.246  14.864 -0.5506 -0.1051 -0.1364
  411MPD2    C2 6133   4.369   4.150  14.801  0.5367 -0.3608 -0.1012
  411MPD2    C3 6134   4.400   4.018  14.804 -0.6991 -0.5638  0.1483
  411MPD2    C4 6135   4.524   3.974  14.854 -0.1225 -0.8140  0.4800
  411MPD2    C5 6136   4.611   4.067  14.905 -0.9234 -0.2405 -0.5510
  411MPD2     H 6137   4.292   4.197  14.742  1.8040  0.7145 -0.8932
  411MPD2    H1 6138   4.549   3.869  14.844  1.2717 -0.6849  2.6346
  411MPD2    H2 6139   4.640   4.259  14.981 -1.3715 -0.7638  3.5902
  411MPD2    H3 6140   4.708   4.034  14.939 -2.0013 -3.5670 -0.6351
  411MPD2     N 6141   4.321   3.920  14.736 -0.2926  0.3831 -0.4935
  411MPD2    H5 6142   4.364   3.829  14.719 -1.6072 -0.5636  1.2738
  411MPD2    N1 6143   4.427   4.387  14.867 -0.2530 -0.1135 -0.1017
  411MPD2    H7 6144   4.506   4.442  14.898 -1.2106  1.4797 -0.4949
  412TMC3    C1 6145   4.160   3.846  14.588  0.7600  0.2379  1.1022
  412TMC3    C2 6146   4.097   3.906  14.477 -0.0956  0.5450  0.1960
  412TMC3    C3 6147   4.080   3.832  14.365  0.1373  0.0677 -0.9466
  412TMC3    C4 6148   4.221   3.720  14.583 -0.2193  0.1467 -0.5254
  412TMC3    C5 6149   4.204   3.649  14.466 -0.4167 -0.0237  0.5047
  412TMC3    C6 6150   4.139   3.704  14.357 -0.3769 -0.2814  0.4616
  412TMC3     C 6151   4.203   3.952  14.675 -0.8064  0.6001 -0.7446
  412TMC3     O 6152   4.135   4.053  14.681 -0.4858  0.4057  0.1596
  412TMC3     H 6153   4.077   4.013  14.467 -1.2655  0.3826  0.7709
  412TMC3    H1 6154   4.290   3.687  14.660  0.2755 -1.2111 -1.5548
  412TMC3    H2 6155   4.143   3.667  14.255 -1.4276  3.2286 -0.8634
  412TMC3    C7 6156   4.329   3.588  14.417  0.2271 -0.2226  0.1432
  412TMC3    C8 6157   4.134   3.916  14.259  0.0186  0.1955  0.6237
  412TMC3    O1 6158   4.367   3.613  14.306  0.7473  0.3201  0.3456
  412TMC3    O2 6159   4.060   3.988  14.192  0.9905  0.5859  0.6098
  413MPD2     C 6160   1.560   2.621  15.355 -0.1762 -0.2031  0.4556
  413MPD2    C1 6161   1.459   2.528  15.331  0.6043 -0.1185 -0.0591
  413MPD2    C2 6162   1.490   2.395  15.344  0.4898 -0.3845 -0.2539
  413MPD2    C3 6163   1.616   2.347  15.390 -0.0855  0.5177  0.1042
  413MPD2    C4 6164   1.718   2.443  15.405 -0.0917  0.2606 -1.1821
  413MPD2    C5 6165   1.690   2.576  15.390  0.0091  0.2123 -0.0338
  413MPD2     H 6166   1.415   2.323  15.313  0.5047 -0.8650  0.8289
  413MPD2    H1 6167   1.820   2.418  15.434 -0.5592 -1.4395 -1.0079
  413MPD2    H2 6168   1.557   2.729  15.341  1.1181 -0.0706  1.1535
  413MPD2    H3 6169   1.766   2.650  15.406 -0.7084  1.0516 -0.5156
  413MPD2     N 6170   1.637   2.205  15.384  0.8208  0.1064 -0.5813
  413MPD2    H5 6171   1.554   2.149  15.368 -0.0336  0.5682  2.3476
  413MPD2    N1 6172   1.326   2.563  15.291  0.2887 -0.3520 -0.0091
  413MPD2    H7 6173   1.264   2.485  15.271 -0.2417 -0.0458  0.4331
  414TMC3    C1 6174   1.737   1.997  15.428  0.0135 -0.0043 -0.6593
  414TMC3    C2 6175   1.827   1.919  15.501 -0.0551 -0.1081 -0.8825
  414TMC3    C3 6176   1.817   1.783  15.490 -0.1421 -0.6631 -0.0170
  414TMC3    C4 6177   1.657   1.948  15.324 -0.7188 -0.1648 -0.3344
  414TMC3    C5 6178   1.664   1.814  15.300 -0.6165  0.4760 -0.2952
  414TMC3    C6 6179   1.739   1.736  15.384  0.2662 -1.1737 -0.1848
  414TMC3     C 6180   1.744   2.142  15.440  0.1158  0.5906  0.1174
  414TMC3     O 6181   1.847   2.192  15.487 -0.2735 -0.2142  0.2466
  414TMC3     H 6182   1.871   1.962  15.590  1.7385 -0.1384 -1.7495
  414TMC3    H1 6183   1.596   2.005  15.254 -0.6544 -0.0017 -0.2564
  414TMC3    H2 6184   1.733   1.628  15.380 -0.2605 -1.2776  3.4947
  414TMC3    C7 6185   1.559   1.760  15.216  0.6437 -0.0448  0.1728
  414TMC3    C8 6186   1.920   1.699  15.534 -0.1684 -0.2428 -0.3679
  414TMC3    O1 6187   1.449   1.816  15.222 -0.1623  0.5217  0.9306
  414TMC3    O2 6188   1.941   1.594  15.477 -0.7954  0.6664 -0.0838
  415TMC3    C1 6189   2.376   0.689  10.098  0.3066  0.0422 -0.0193
  415TMC3    C2 6190   2.503   0.705  10.045  0.3502  0.3486  0.9913
  415TMC3    C3 6191   2.508   0.711   9.909 -0.2375  0.0061  0.0366
  415TMC3    C4 6192   2.263   0.668  10.022  0.0170  0.0520  0.6129
  415TMC3    C5 6193   2.274   0.681   9.884 -0.6143 -0.3282 -0.3068
  415TMC3    C6 6194   2.397   0.701   9.823 -0.1585 -0.1585 -0.6754
  415TMC3     C 6195   2.357   0.667  10.243 -0.0308 -0.0598  0.3908
  415TMC3     O 6196   2.238   0.641  10.274 -0.0270 -0.0558  0.1766
  415TMC3     H 6197   2.596   0.709  10.101 -1.8528 -2.1656  4.8377
  415TMC3    H1 6198   2.168   0.663  10.072  0.0009 -1.3767  0.4341
  415TMC3    H2 6199   2.403   0.708   9.715  0.0771 -0.7158 -0.6990
  415TMC3    C7 6200   2.162   0.638   9.798 -0.2299 -0.4757  0.0154
  415TMC3    C8 6201   2.632   0.690   9.839  0.6493 -0.7447 -0.5683
  415TMC3    O1 6202   2.156   0.694   9.687  0.2711 -0.5218 -0.1662
  415TMC3    O2 6203   2.632   0.626   9.733 -0.3388  0.2429  0.7688
  416MPD2     C 6204   4.025   4.274  11.627  0.1067  0.4464 -0.5564
  416MPD2    C1 6205   3.972   4.175  11.711  0.7493 -0.1364  0.0907
  416MPD2    C2 6206   3.985   4.043  11.674  0.4533  1.2319  0.4335
  416MPD2    C3 6207   4.049   3.999  11.561  0.1630 -0.2055  0.2458
  416MPD2    C4 6208   4.108   4.098  11.486 -0.1714 -0.0539  0.2971
  416MPD2    C5 6209   4.093   4.230  11.517 -0.3221 -0.6566 -0.7822
  416MPD2     H 6210   3.930   3.981  11.744  2.6645 -0.7697  0.3855
  416MPD2    H1 6211   4.141   4.078  11.384 -0.6326 -0.3665  0.2057
  416MPD2    H2 6212   4.014   4.381  11.641  0.2984  0.2424  1.1863
  416MPD2    H3 6213   4.126   4.300  11.441  1.6659 -1.6941 -0.8800
  416MPD2     N 6214   4.049   3.869  11.513  0.3748  0.2011 -0.0510
  416MPD2    H5 6215   4.071   3.851  11.416 -0.2984  0.5620 -0.2691
  416MPD2    N1 6216   3.886   4.215  11.812 -0.6147  0.1021  0.0409
  416MPD2    H7 6217   3.835   4.303  11.806  0.1993  0.4865 -1.1127
  417TMC3    C1 6218   3.712   4.148  11.958  0.0573 -1.2535 -0.1637
  417TMC3    C2 6219   3.676   4.099  12.081  0.5358 -0.3478 -0.4376
  417TMC3    C3 6220   3.554   4.044  12.095  0.5457  0.6059 -0.1525
  417TMC3    C4 6221   3.629   4.178  11.858  0.4536 -0.7231  0.1964
  417TMC3    C5 6222   3.495   4.143  11.887  0.5267  0.5851 -0.2036
  417TMC3    C6 6223   3.454   4.078  12.001 -0.1091 -0.1945 -0.5890
  417TMC3     C 6224   3.848   4.139  11.921  0.5361 -0.8457  0.6807
  417TMC3     O 6225   3.916   4.056  11.975 -0.7013 -0.1493 -0.3612
  417TMC3     H 6226   3.750   4.083  12.158  0.4710  2.6598  0.2602
  417TMC3    H1 6227   3.653   4.201  11.755 -0.5756 -0.4624  0.0100
  417TMC3    H2 6228   3.349   4.062  12.019 -0.6353 -0.0710 -3.4890
  417TMC3    C7 6229   3.426   4.123  11.763  0.0832  0.4301  1.1759
  417TMC3    C8 6230   3.500   4.022  12.228 -0.4666 -0.5128  0.3630
  417TMC3    O1 6231   3.422   4.216  11.683  0.0448  0.1118  0.3951
  417TMC3    O2 6232   3.384   4.049  12.243 -0.6974 -0.4093 -0.0578
  418TMC3    C1 6233   2.983   0.925   0.885 -0.6647  0.2325  0.8136
  418TMC3    C2 6234   2.851   0.948   0.877  0.2425  0.1633 -0.2929
  418TMC3    C3 6235   2.760   0.846   0.890 -0.2743 -0.3398  1.1223
  418TMC3    C4 6236   3.033   0.805   0.894 -0.4888 -0.3102 -1.0581
  418TMC3    C5 6237   2.939   0.701   0.908 -0.8946 -0.3000  0.1446
  418TMC3    C6 6238   2.806   0.715   0.903  0.1413 -0.0467 -0.0917
  418TMC3     C 6239   3.062   1.021   0.806  0.0864  0.2965  0.1470
  418TMC3     O 6240   3.034   1.131   0.843  0.0847 -0.0648  0.2999
  418TMC3     H 6241   2.816   1.050   0.868 -1.9028 -0.6095 -0.7425
  418TMC3    H1 6242   3.137   0.787   0.871 -0.0244  0.4814  0.4124
  418TMC3    H2 6243   2.745   0.626   0.913  0.1978 -0.0520  0.1880
  418TMC3    C7 6244   2.983   0.569   0.878  0.2270  0.7437  0.1518
  418TMC3    C8 6245   2.633   0.874   0.826 -0.0605 -0.0253 -0.8687
  418TMC3    O1 6246   2.899   0.492   0.836 -0.1473  0.4078  0.0585
  418TMC3    O2 6247   2.596   0.990   0.821 -0.0226  0.0860  0.1540
  419MPD2     C 6248   0.944   3.467  12.039  0.5201  0.3325 -0.5676
  419MPD2    C1 6249   1.018   3.523  12.139 -0.5417 -0.6225 -0.0469
  419MPD2    C2 6250   0.958   3.543  12.259  0.0042  0.5078 -0.7395
  419MPD2    C3 6251   0.817   3.517  12.281  0.3082 -0.4313  0.2091
  419MPD2    C4 6252   0.746   3.453  12.179 -0.1369  0.3767  0.5685
  419MPD2    C5 6253   0.810   3.437  12.066 -0.0991 -0.0537  0.6501
  419MPD2     H 6254   1.013   3.596  12.336 -0.9385 -1.1154  1.0560
  419MPD2    H1 6255   0.643   3.424  12.199  0.1462 -0.5299  0.7188
  419MPD2    H2 6256   0.981   3.438  11.942  0.0177 -0.8846 -0.3901
  419MPD2    H3 6257   0.749   3.412  11.980 -0.4359  1.1908  0.5221
  419MPD2     N 6258   0.768   3.560  12.406  0.1784  0.3904  0.4401
  419MPD2    H5 6259   0.845   3.567  12.471  0.6665  0.4938 -0.1440
  419MPD2    N1 6260   1.154   3.559  12.110  0.3811  0.4930  0.0920
  419MPD2    H7 6261   1.206   3.588  12.192  0.6444  1.1021 -0.2900
  420TMC3    C1 6262   0.642   3.592  12.591  0.2331 -0.3628  0.7233
  420TMC3    C2 6263   0.537   3.669  12.632 -0.3875  0.3667 -0.1912
  420TMC3    C3 6264   0.563   3.773  12.714 -0.1844  0.8022  0.6780
  420TMC3    C4 6265   0.763   3.592  12.657  0.2870  0.5918 -0.1703
  420TMC3    C5 6266   0.772   3.683  12.756  0.0684  0.0892  0.9585
  420TMC3    C6 6267   0.676   3.775  12.794  0.7730  0.5004  0.3258
  420TMC3     C 6268   0.642   3.559  12.458 -0.6693  0.1986 -0.2599
  420TMC3     O 6269   0.538   3.550  12.394  0.0222  0.4312  0.1364
  420TMC3     H 6270   0.451   3.679  12.568  0.4207 -1.0995 -1.5127
  420TMC3    H1 6271   0.842   3.520  12.639  0.8351  0.6723  1.8812
  420TMC3    H2 6272   0.708   3.866  12.844  2.8174  0.5148 -0.9845
  420TMC3    C7 6273   0.904   3.688  12.829  0.6383 -0.3822  0.3873
  420TMC3    C8 6274   0.477   3.891  12.713  0.7600 -0.0698  0.4798
  420TMC3    O1 6275   1.004   3.649  12.769 -0.1962  0.8905  0.1335
  420TMC3    O2 6276   0.541   3.998  12.726  0.3073 -0.3335  0.2000
  421TMC3    C1 6277   2.531   0.978  13.973  0.0929 -0.3605  0.2659
  421TMC3    C2 6278   2.582   1.087  14.045  0.6011 -0.2974  0.8585
  421TMC3    C3 6279   2.646   1.070  14.167  0.2881  0.0454 -0.2658
  421TMC3    C4 6280   2.530   0.855  14.030 -0.2930 -0.4496 -0.0052
  421TMC3    C5 6281   2.596   0.841  14.147 -0.7572  0.6998  0.2628
  421TMC3    C6 6282   2.655   0.941  14.215 -0.5662  0.8911 -0.1404
  421TMC3     C 6283   2.447   1.010  13.856 -0.5994 -0.3403 -0.4908
  421TMC3     O 6284   2.434   1.127  13.831  0.0432  0.4030 -0.1752
  421TMC3     H 6285   2.582   1.181  13.992  0.6911 -0.1301  1.1569
  421TMC3    H1 6286   2.518   0.767  13.968 -1.5078  0.6928 -1.3798
  421TMC3    H2 6287   2.722   0.919  14.298 -1.5654  0.6537  0.6017
  421TMC3    C7 6288   2.601   0.714  14.220  1.5279 -0.0002 -0.3891
  421TMC3    C8 6289   2.756   1.154  14.203 -0.1714  0.0640 -0.1151
  421TMC3    O1 6290   2.666   0.718  14.324 -0.0794  0.5117  0.2605
  421TMC3    O2 6291   2.819   1.205  14.113 -0.3160  0.1396 -0.5590
  422TMC3    C1 6292   4.690   1.756  12.855 -0.0855 -0.1140 -0.3199
  422TMC3    C2 6293   4.680   1.889  12.883  0.4730  0.0033 -0.2599
  422TMC3    C3 6294   4.572   1.931  12.958 -0.1151 -0.9534  0.1781
  422TMC3    C4 6295   4.603   1.666  12.901 -0.1582 -0.1474  0.4262
  422TMC3    C5 6296   4.501   1.714  12.973  0.4239 -0.4102 -0.6342
  422TMC3    C6 6297   4.479   1.847  13.002 -0.0223 -0.2475 -0.7576
  422TMC3     C 6298   0.077   1.727  12.760  1.0766 -0.1214 -0.0016
  422TMC3     O 6299   0.117   1.826  12.699  0.1231  0.3787 -0.3714
  422TMC3     H 6300   0.012   1.967  12.831 -1.1044  0.4858 -1.2054
  422TMC3    H1 6301   4.606   1.559  12.887  0.3124 -0.2172  1.0682
  422TMC3    H2 6302   4.415   1.884  13.081 -0.3924  0.2600 -1.2873
  422TMC3    C7 6303   4.409   1.607  13.000  0.0087  0.1004 -0.6380
  422TMC3    C8 6304   4.546   2.070  12.961 -0.0940  0.2631  0.3879
  422TMC3    O1 6305   4.446   1.488  13.014 -0.1115  0.7208  0.5572
  422TMC3    O2 6306   4.644   2.142  12.946 -0.4537 -0.3577 -0.1315
  423MPD2     C 6307   1.569   3.276   0.432 -0.2864  0.0611  0.1396
  423MPD2    C1 6308   1.494   3.166   0.457  0.2290 -0.0574  0.6333
  423MPD2    C2 6309   1.539   3.038   0.425 -0.5216  0.0620 -0.1387
  423MPD2    C3 6310   1.654   3.024   0.344  0.0399  0.2290  0.0170
  423MPD2    C4 6311   1.725   3.134   0.308 -0.4938 -0.4580  0.0156
  423MPD2    C5 6312   1.685   3.253   0.353  0.3100 -0.0308  0.0558
  423MPD2     H 6313   1.476   2.957   0.458 -1.9884  0.9506 -0.7785
  423MPD2    H1 6314   1.818   3.126   0.252 -0.7898  0.3822 -0.5960
  423MPD2    H2 6315   1.563   3.377   0.473 -2.2448  0.6721 -1.6278
  423MPD2    H3 6316   1.748   3.340   0.337  3.2093 -2.0489  0.4338
  423MPD2     N 6317   1.698   2.899   0.303  0.7844 -0.0199 -0.7009
  423MPD2    H5 6318   1.776   2.896   0.238  0.3299  0.2078 -1.2502
  423MPD2    N1 6319   1.375   3.172   0.533  0.4565 -0.1533  0.1314
  423MPD2    H7 6320   1.346   3.090   0.585 -1.0890 -0.2136 -0.8491
  424TMC3    C1 6321   1.227   3.278   0.682  0.0610  0.3989  0.4125
  424TMC3    C2 6322   1.258   3.192   0.783 -0.2128 -0.3550  0.0326
  424TMC3    C3 6323   1.168   3.171   0.882  0.5718  0.6083  0.1727
  424TMC3    C4 6324   1.104   3.335   0.669 -0.4331  0.2276  0.4451
  424TMC3    C5 6325   1.013   3.298   0.771  0.0278  1.1483  0.4503
  424TMC3    C6 6326   1.045   3.227   0.881  0.4001  0.2064 -0.8370
  424TMC3     C 6327   1.321   3.295   0.569  0.2633 -0.2775  0.2848
  424TMC3     O 6328   1.328   3.402   0.518  0.3030 -0.5556 -0.4473
  424TMC3     H 6329   1.351   3.135   0.781 -0.3817 -0.6408  0.3199
  424TMC3    H1 6330   1.089   3.412   0.595  1.2976 -0.6658 -0.8272
  424TMC3    H2 6331   0.981   3.217   0.967  0.8733 -3.5386 -0.9235
  424TMC3    C7 6332   0.888   3.376   0.771 -0.6524 -0.3571  0.3357
  424TMC3    C8 6333   1.195   3.107   1.004  0.6574  0.0034 -0.3632
  424TMC3    O1 6334   0.881   3.464   0.686 -0.9026  0.1379 -0.0176
  424TMC3    O2 6335   1.102   3.083   1.079  0.0338 -0.3449  0.0453
  425MPD2     C 6336   0.435   2.270  17.683 -0.1603  0.0021  0.0151
  425MPD2    C1 6337   0.372   2.192  17.587 -0.1035 -0.0432 -0.5013
  425MPD2    C2 6338   0.239   2.190  17.579 -0.5482 -0.2440 -0.0657
  425MPD2    C3 6339   0.163   2.252  17.676 -0.4823  0.7325  0.2684
  425MPD2    C4 6340   0.216   2.334   0.080  0.3231  0.1384  0.2894
  425MPD2    C5 6341   0.358   2.344   0.075 -0.5527 -0.3019  0.2812
  425MPD2     H 6342   0.192   2.129  17.502  1.3505 -0.6596 -0.9046
  425MPD2    H1 6343   0.162   2.396   0.150 -0.5830 -0.0568 -0.2309
  425MPD2    H2 6344   0.543   2.271  17.676  0.0036  0.1162  2.4273
  425MPD2    H3 6345   0.407   2.397   0.155  0.2680 -0.3673 -0.1785
  425MPD2     N 6346   0.021   2.225  17.674 -0.1842  0.2455 -0.3983
  425MPD2    H5 6347   4.711   2.165  17.599  0.4825 -0.2878 -0.2637
  425MPD2    N1 6348   0.460   2.118  17.497 -0.2663  0.4777 -0.0933
  425MPD2    H7 6349   0.556   2.115  17.531 -0.6909 -2.3082  0.8816
  426TMC3    C1 6350   0.528   1.966  17.338 -0.7661  0.5625 -0.4946
  426TMC3    C2 6351   0.555   1.949  17.202 -0.2762 -0.5269  0.2079
  426TMC3    C3 6352   0.666   1.874  17.170  0.3463  0.1194 -0.3361
  426TMC3    C4 6353   0.602   1.905  17.434  0.0843  0.1779  0.2136
  426TMC3    C5 6354   0.701   1.819  17.397 -0.0515 -0.7088  0.1178
  426TMC3    C6 6355   0.740   1.804  17.261 -1.0210 -0.2461 -0.2974
  426TMC3     C 6356   0.418   2.050  17.385  0.7331 -0.7000 -0.0780
  426TMC3     O 6357   0.336   2.089  17.301 -0.5499 -0.0847  0.2110
  426TMC3     H 6358   0.475   1.987  17.139  0.4961  1.9127  0.7124
  426TMC3    H1 6359   0.582   1.910  17.541  0.4822 -1.3986  0.3528
  426TMC3    H2 6360   0.815   1.730  17.233  0.1211  0.7685  0.0702
  426TMC3    C7 6361   0.716   1.701  17.478  0.2188 -0.7933 -0.3014
  426TMC3    C8 6362   0.668   1.803  17.042  0.0869 -0.6195  0.1229
  426TMC3    O1 6363   0.825   1.650  17.485 -0.5039 -0.4525  0.5825
  426TMC3    O2 6364   0.766   1.739  17.013  0.9585 -0.5605 -0.4330
  427MPD2     C 6365   3.505   3.954  15.016 -0.4642 -0.0068 -0.1695
  427MPD2    C1 6366   3.476   3.837  15.087  0.8087  0.2814 -0.1456
  427MPD2    C2 6367   3.352   3.817  15.143  0.1243 -0.6965  0.2216
  427MPD2    C3 6368   3.245   3.908  15.129 -0.0588 -0.0980 -0.1549
  427MPD2    C4 6369   3.279   4.023  15.054  0.6994  0.5030 -0.6445
  427MPD2    C5 6370   3.403   4.045  15.008 -0.6445  0.4711  0.4455
  427MPD2     H 6371   3.328   3.720  15.184  0.9971 -1.0038  0.0039
  427MPD2    H1 6372   3.200   4.091  15.026  0.9978  0.4544 -1.5821
  427MPD2    H2 6373   3.605   3.981  14.983 -0.2183  2.1560  2.3744
  427MPD2    H3 6374   3.413   4.129  14.941 -1.1485  0.0901 -0.1056
  427MPD2     N 6375   3.109   3.896  15.179  1.0298  0.1549 -0.3431
  427MPD2    H5 6376   3.048   3.971  15.151  0.3715 -0.5376 -0.7603
  427MPD2    N1 6377   3.587   3.754  15.105  0.0529 -0.6458  0.9375
  427MPD2    H7 6378   3.681   3.786  15.086  1.2782 -2.8144  3.4266
  428TMC3    C1 6379   3.711   3.579  15.195 -0.3517 -0.6546  0.0283
  428TMC3    C2 6380   3.723   3.445  15.191 -0.2492 -0.1814  0.3340
  428TMC3    C3 6381   3.855   3.399  15.199  0.6843  0.7805  0.4118
  428TMC3    C4 6382   3.812   3.661  15.230 -0.3802 -0.0662 -0.2902
  428TMC3    C5 6383   3.937   3.609  15.226  0.0334 -0.1922  0.0066
  428TMC3    C6 6384   3.962   3.477  15.214  0.0636  0.2071  0.5209
  428TMC3     C 6385   3.583   3.635  15.172 -0.7083  0.0535  1.0392
  428TMC3     O 6386   3.488   3.560  15.188 -0.4707 -0.2131 -0.0597
  428TMC3     H 6387   3.646   3.383  15.148  0.6878 -1.5504  0.6325
  428TMC3    H1 6388   3.798   3.767  15.245 -0.8769 -0.0319 -1.0098
  428TMC3    H2 6389   4.061   3.434  15.202  0.1409  0.4875  0.1506
  428TMC3    C7 6390   4.047   3.706  15.256 -0.2743 -0.1913 -1.0113
  428TMC3    C8 6391   3.881   3.260  15.184 -0.0650  0.0054  0.3584
  428TMC3    O1 6392   4.154   3.667  15.299  0.3272 -0.5452 -0.2783
  428TMC3    O2 6393   3.984   3.229  15.130  0.4828  0.1866 -0.1577
  429MPD2     C 6394   0.554   4.515   0.336  0.1643  0.0442 -0.5348
  429MPD2    C1 6395   0.566   4.458   0.211  0.3026  0.4645 -0.0345
  429MPD2    C2 6396   0.661   4.504   0.122 -0.1398  0.3147 -0.5830
  429MPD2    C3 6397   0.741   4.618   0.160 -0.0989  0.1380 -0.1724
  429MPD2    C4 6398   0.743   4.657   0.292  0.3521 -0.2103 -1.4368
  429MPD2    C5 6399   0.642   4.609   0.377 -0.1944  0.2089  0.0056
  429MPD2     H 6400   0.674   4.470   0.020 -0.4284  0.8270 -0.7909
  429MPD2    H1 6401   0.812   0.003   0.339 -1.0057  0.1748 -0.0171
  429MPD2    H2 6402   0.480   4.475   0.404  1.1742  2.8118  2.2323
  429MPD2    H3 6403   0.639   4.651   0.477 -2.9003 -0.2347  0.1104
  429MPD2     N 6404   0.825   4.675   0.063 -0.5450  0.5670 -0.2974
  429MPD2    H5 6405   0.822   4.647  17.659  1.0321  1.7159 -0.6713
  429MPD2    N1 6406   0.470   4.362   0.162 -0.2894 -0.8031  1.0157
  429MPD2    H7 6407   0.484   4.348   0.063 -1.4592 -0.2000  0.7738
  430TMC3    C1 6408   0.933   0.123  17.638  0.5485  0.6297 -0.1356
  430TMC3    C2 6409   0.907   0.255  17.595  0.3303  0.2727  0.8527
  430TMC3    C3 6410   0.905   0.273  17.460  0.3382  0.8108  0.6154
  430TMC3    C4 6411   0.966   0.022  17.557 -0.9207  0.3513 -0.1627
  430TMC3    C5 6412   0.964   0.049  17.423  0.4355 -0.0194 -0.7629
  430TMC3    C6 6413   0.942   0.175  17.369 -0.3204 -0.6929  0.0482
  430TMC3     C 6414   0.885   0.078   0.076  1.4652  0.4489  0.1068
  430TMC3     O 6415   0.880   0.158   0.165 -0.5138 -0.0836 -0.3656
  430TMC3     H 6416   0.871   0.332  17.662 -0.7584  0.1074  0.4588
  430TMC3    H1 6417   0.981   4.641  17.586  1.0139  0.2196 -1.6245
  430TMC3    H2 6418   0.943   0.196  17.262 -0.4482 -0.9528 -0.0034
  430TMC3    C7 6419   0.938   4.660  17.327 -0.0015 -0.1603 -0.0344
  430TMC3    C8 6420   0.838   0.395  17.428  0.2293  1.2276  0.0065
  430TMC3    O1 6421   0.886   4.566  17.388 -0.2522  0.1310  0.2054
  430TMC3    O2 6422   0.863   0.498  17.486 -0.5919 -0.0759 -0.1796
  431MPD2     C 6423   1.452   3.963  12.707  0.3834 -0.2868 -0.2139
  431MPD2    C1 6424   1.506   4.025  12.593 -0.5853 -0.6987  0.2175
  431MPD2    C2 6425   1.511   3.956  12.476  0.3381 -0.0206  0.6519
  431MPD2    C3 6426   1.482   3.817  12.475  0.4245 -0.0321  0.0224
  431MPD2    C4 6427   1.426   3.758  12.589 -0.2589  0.1805  0.0911
  431MPD2    C5 6428   1.403   3.829  12.706  0.1760 -0.1950 -0.2399
  431MPD2     H 6429   1.551   3.996  12.384 -1.6988  1.4867  0.4318
  431MPD2    H1 6430   1.403   3.653  12.601  1.5988 -0.2936 -0.5266
  431MPD2    H2 6431   1.438   4.018  12.800  0.2991 -0.5637 -0.0616
  431MPD2    H3 6432   1.353   3.777  12.787  0.9685 -0.9852 -0.2625
  431MPD2     N 6433   1.506   3.733  12.362 -0.4007  0.0978 -0.2412
  431MPD2    H5 6434   1.471   3.638  12.365  1.1381 -0.4575  0.1525
  431MPD2    N1 6435   1.536   4.162  12.586 -0.6692 -0.2319 -0.1721
  431MPD2    H7 6436   1.573   4.203  12.501  0.1883 -0.6794 -0.0098
  432TMC3    C1 6437   1.537   3.679  12.133  0.4152 -0.1809 -0.4472
  432TMC3    C2 6438   1.601   3.712  12.016  0.2712 -0.0424 -0.1883
  432TMC3    C3 6439   1.547   3.682  11.895  0.9014 -0.2776 -0.0583
  432TMC3    C4 6440   1.409   3.621  12.134  0.0182  0.2016 -0.3013
  432TMC3    C5 6441   1.357   3.607  12.000 -0.1064 -0.1988  0.3917
  432TMC3    C6 6442   1.421   3.633  11.885 -0.5070 -0.7523  0.1531
  432TMC3     C 6443   1.574   3.768  12.247 -0.6385  0.6114 -0.3198
  432TMC3     O 6444   1.652   3.861  12.225  0.1978  0.7856  0.3291
  432TMC3     H 6445   1.695   3.763  12.030  0.1712 -0.4059  1.8506
  432TMC3    H1 6446   1.353   3.607  12.226 -0.2460 -1.9311 -0.7753
  432TMC3    H2 6447   1.385   3.604  11.786  1.0959  3.5484 -1.6836
  432TMC3    C7 6448   1.219   3.564  11.993 -0.1132 -0.5099 -0.2492
  432TMC3    C8 6449   1.615   3.736  11.782 -0.2249  0.5137 -0.1536
  432TMC3    O1 6450   1.167   3.541  11.883  0.9865  0.2775  0.1048
  432TMC3    O2 6451   1.548   3.750  11.681 -0.5344  0.1938 -0.5285
  433MPD2     C 6452   4.641   3.322  11.195  0.2932 -0.1993  0.0744
  433MPD2    C1 6453   4.670   3.198  11.245 -0.0532 -0.0003 -0.0442
  433MPD2    C2 6454   4.690   3.189  11.384  0.0052  0.0627  0.3598
  433MPD2    C3 6455   4.676   3.301  11.469  0.7538 -0.0632  0.2987
  433MPD2    C4 6456   4.641   3.419  11.419  0.4941  0.5757  0.0336
  433MPD2    C5 6457   4.625   3.421  11.286  0.0827  0.4732 -0.0604
  433MPD2     H 6458   4.716   3.097  11.436  1.3633  1.3566  2.0048
  433MPD2    H1 6459   4.628   3.510  11.476 -1.5853  0.0634  0.3748
  433MPD2    H2 6460   4.617   3.338  11.091  2.2688 -0.8519 -0.4833
  433MPD2    H3 6461   4.604   3.522  11.251  1.7078  0.6153 -0.6403
  433MPD2     N 6462   4.694   3.273  11.609 -0.3128 -0.3220  0.5647
  433MPD2    H5 6463   4.693   3.175  11.634 -1.4964 -0.5228 -0.2671
  433MPD2    N1 6464   4.675   3.089  11.155  0.0125  0.1156  0.5805
  433MPD2    H7 6465   4.644   3.099  11.059  1.3619 -0.0711  0.1323
  434TMC3    C1 6466   0.015   2.885  11.061 -0.4281  0.4480 -0.1913
  434TMC3    C2 6467   0.086   2.769  11.093  0.1818  0.6623  0.2361
  434TMC3    C3 6468   0.195   2.736  11.024  0.9071 -0.2924  0.7079
  434TMC3    C4 6469   0.047   2.955  10.944  0.2549 -0.4850 -0.0326
  434TMC3    C5 6470   0.153   2.914  10.873 -0.3387  0.0401 -0.3959
  434TMC3    C6 6471   0.234   2.815  10.920  0.8191 -0.4382 -0.1421
  434TMC3     C 6472   4.718   2.963  11.183 -0.8343  0.5244  0.0085
  434TMC3     O 6473   0.006   2.914  11.297  0.1222  0.4286 -0.6727
  434TMC3     H 6474   0.057   2.709  11.178  0.2973 -1.3726 -1.1603
  434TMC3    H1 6475   4.698   3.032  10.916  0.9409  0.3671  0.5481
  434TMC3    H2 6476   0.330   2.795  10.875  2.1248  2.2409  1.4463
  434TMC3    C7 6477   0.133   2.912  10.737 -0.2053  0.0884 -0.0912
  434TMC3    C8 6478   0.293   2.674  11.109  0.6648  0.7121  0.2639
  434TMC3    O1 6479   0.086   3.012  10.687  0.0041 -0.0771 -0.6930
  434TMC3    O2 6480   0.262   2.652  11.223 -0.3494  0.4288  0.1537
  435MPD2     C 6481   1.757   2.763  15.759  0.0626  0.2851  0.7154
  435MPD2    C1 6482   1.764   2.776  15.895 -0.6701  0.4509  0.7640
  435MPD2    C2 6483   1.880   2.739  15.961  0.1176 -0.1790 -0.3988
  435MPD2    C3 6484   1.975   2.669  15.892 -0.0844 -0.3074  0.2095
  435MPD2    C4 6485   1.960   2.639  15.758 -0.0353  0.2561  0.0534
  435MPD2    C5 6486   1.857   2.693  15.691  0.1278 -0.3583  0.3486
  435MPD2     H 6487   1.884   2.752  16.069 -2.8376 -1.8449 -0.0969
  435MPD2    H1 6488   2.036   2.589  15.699 -1.0779 -0.9799 -0.2512
  435MPD2    H2 6489   1.673   2.801  15.702 -0.3326 -1.1745  0.3051
  435MPD2    H3 6490   1.858   2.687  15.583  1.0801 -2.3239  0.4540
  435MPD2     N 6491   2.080   2.620  15.970 -0.0603 -0.4932  0.3332
  435MPD2    H5 6492   2.085   2.647  16.068  0.7133  0.6759 -0.0364
  435MPD2    N1 6493   1.655   2.818  15.974 -0.1970 -0.4026  0.5565
  435MPD2    H7 6494   1.676   2.833  16.073 -2.1767  1.6890  0.6602
  436TMC3    C1 6495   1.364   2.939  16.253  0.1515  0.0856  0.0956
  436TMC3    C2 6496   1.468   2.919  16.156  0.5287 -0.1320 -0.0907
  436TMC3    C3 6497   1.431   2.862  16.035 -0.0895 -0.2958  0.9372
  436TMC3    C4 6498   1.239   2.893  16.236 -0.5782  0.0211  0.2607
  436TMC3    C5 6499   1.208   2.839  16.116 -0.1211 -0.8062  0.1724
  436TMC3    C6 6500   1.300   2.832  16.012 -0.0068 -0.2013  0.0330
  436TMC3     C 6501   1.390   3.006  16.376  0.3624  0.6508 -0.1858
  436TMC3     O 6502   1.494   2.968  16.425  0.4360 -0.0075  0.1135
  436TMC3     H 6503   1.568   2.954  16.177 -0.2272  0.3889  2.7384
  436TMC3    H1 6504   1.166   2.880  16.315 -0.2539  0.5701  0.6514
  436TMC3    H2 6505   1.270   2.788  15.918  0.7015  1.5479 -1.0078
  436TMC3    C7 6506   1.082   2.764  16.102 -0.2721  0.1014  0.5703
  436TMC3    C8 6507   1.524   2.832  15.933  0.6147 -0.2473  0.3906
  436TMC3    O1 6508   0.987   2.812  16.159  0.4361  0.0785 -0.2669
  436TMC3    O2 6509   1.476   2.813  15.825 -0.3042 -0.2104  0.1978
  437TMC3    C1 6510   1.032   0.112  12.501  0.4460  0.2469  1.2279
  437TMC3    C2 6511   0.918   0.196  12.515  0.4837  0.0171  0.3859
  437TMC3    C3 6512   0.914   0.308  12.438 -0.3425 -0.8243  0.5011
  437TMC3    C4 6513   1.137   0.145  12.417  0.1983 -0.7389  0.0764
  437TMC3    C5 6514   1.130   0.260  12.352 -0.2704  0.1065  0.1882
  437TMC3    C6 6515   1.026   0.346  12.369 -0.0875 -1.1357  0.1623
  437TMC3     C 6516   1.029   4.707  12.577 -0.6792 -0.0058  0.7223
  437TMC3     O 6517   0.945   4.701  12.668 -0.2769 -0.4811  0.2479
  437TMC3     H 6518   0.829   0.151  12.558  0.3041 -0.6956 -0.7323
  437TMC3    H1 6519   1.226   0.084  12.407  0.3256 -0.3136 -1.4518
  437TMC3    H2 6520   1.034   0.431  12.302  1.1824 -1.7099 -0.4202
  437TMC3    C7 6521   1.250   0.330  12.304 -0.1732  0.0685  0.2650
  437TMC3    C8 6522   0.812   0.400  12.475 -0.0042  0.1554 -0.1019
  437TMC3    O1 6523   1.241   0.391  12.199  0.2208 -0.0089 -0.1303
  437TMC3    O2 6524   0.771   0.479  12.394  0.0309  0.1515 -0.3750
  438MPD2     C 6525   2.751   1.258  16.880  0.1246 -0.6649  0.4019
  438MPD2    C1 6526   2.857   1.181  16.868 -0.5074 -0.0579  0.0302
  438MPD2    C2 6527   2.885   1.094  16.970 -0.0774 -0.1739  0.4350
  438MPD2    C3 6528   2.802   1.085  17.074 -0.0027  0.0012  0.4038
  438MPD2    C4 6529   2.696   1.177  17.098 -0.7712 -0.2646 -0.1292
  438MPD2    C5 6530   2.678   1.266  16.996  0.1317 -0.0067 -0.2152
  438MPD2     H 6531   2.975   1.034  16.965 -0.2154 -0.3206 -0.2592
  438MPD2    H1 6532   2.632   1.177  17.186 -1.1605  0.1735 -0.4115
  438MPD2    H2 6533   2.715   1.326  16.803  2.6195  0.6414  0.4086
  438MPD2    H3 6534   2.596   1.335  17.012 -0.1763 -0.4197 -0.0066
  438MPD2     N 6535   2.822   0.994  17.182 -0.0293  0.1057 -0.2032
  438MPD2    H5 6536   2.751   0.974  17.252  0.2735 -1.5992 -0.3818
  438MPD2    N1 6537   2.945   1.177  16.759  0.0300 -0.9510 -0.1194
  438MPD2    H7 6538   3.003   1.095  16.770  2.6219  0.7456 -1.2128
  439TMC3    C1 6539   3.078   1.253  16.583  0.1239  0.0491  0.2197
  439TMC3    C2 6540   3.089   1.239  16.452 -0.1017  0.8257  0.3134
  439TMC3    C3 6541   3.207   1.193  16.397  0.3053  0.2077 -0.8056
  439TMC3    C4 6542   3.187   1.225  16.672  0.0978  0.7182  0.4233
  439TMC3    C5 6543   3.295   1.169  16.610  0.1517  0.1352 -0.0087
  439TMC3    C6 6544   3.303   1.146  16.481 -1.1975  0.3472 -0.3613
  439TMC3     C 6545   2.946   1.259  16.651 -0.2821  0.1126  0.1548
  439TMC3     O 6546   2.850   1.323  16.602  0.4169 -0.0465  0.0211
  439TMC3     H 6547   3.001   1.250  16.388 -0.4008 -0.5930  0.4821
  439TMC3    H1 6548   3.192   1.238  16.779 -0.6304  1.5162  0.3601
  439TMC3    H2 6549   3.392   1.103  16.435 -0.2080  0.5945  1.3444
  439TMC3    C7 6550   3.385   1.112  16.705  0.1757 -0.7505 -0.4395
  439TMC3    C8 6551   3.213   1.136  16.265  0.0093  0.7349 -0.0333
  439TMC3    O1 6552   3.387   1.154  16.820 -0.3316  0.5162 -0.4702
  439TMC3    O2 6553   3.235   1.017  16.268  0.2434  0.0373  0.0064
  440MPD2     C 6554   1.837   0.944  15.086 -0.1441  0.3621  0.1266
  440MPD2    C1 6555   1.837   1.047  15.183  0.5361 -0.3883 -0.3337
  440MPD2    C2 6556   1.948   1.061  15.271  0.2768  0.2655  0.6090
  440MPD2    C3 6557   2.057   0.972  15.252  0.3554 -0.1308 -0.8627
  440MPD2    C4 6558   2.053   0.870  15.158  0.2567 -0.4520  0.5924
  440MPD2    C5 6559   1.948   0.862  15.072  0.0805 -0.0536 -0.1428
  440MPD2     H 6560   1.947   1.142  15.343  0.3449  0.4580  0.3956
  440MPD2    H1 6561   2.132   0.795  15.153 -1.5880 -2.4494  1.4280
  440MPD2    H2 6562   1.750   0.923  15.025 -0.2056 -0.2825  0.4369
  440MPD2    H3 6563   1.944   0.780  15.000 -0.5181 -0.3272  0.2029
  440MPD2     N 6564   2.174   0.978  15.331 -0.3095  0.0229  0.3314
  440MPD2    H5 6565   2.241   0.902  15.329 -0.4211 -0.0988  1.3967
  440MPD2    N1 6566   1.725   1.130  15.200  0.2829  0.0161  0.5900
  440MPD2    H7 6567   1.740   1.217  15.252 -0.4168  1.9192 -2.3819
  441TMC3    C1 6568   2.334   1.067  15.486  0.0721 -0.4784  0.1754
  441TMC3    C2 6569   2.382   1.183  15.534  0.5528 -0.5297  0.0134
  441TMC3    C3 6570   2.433   1.193  15.662 -0.0110 -1.0546 -0.5023
  441TMC3    C4 6571   2.336   0.962  15.566 -0.6035 -0.3496 -0.6283
  441TMC3    C5 6572   2.398   0.961  15.686 -0.1454  0.1144 -0.6777
  441TMC3    C6 6573   2.452   1.077  15.736  0.3917  0.4365  0.0053
  441TMC3     C 6574   2.211   1.080  15.411  0.6313 -0.0469  0.6767
  441TMC3     O 6575   2.158   1.192  15.413  0.6543 -0.0756 -0.7954
  441TMC3     H 6576   2.369   1.275  15.477 -2.0410 -0.3626  0.8891
  441TMC3    H1 6577   2.273   0.878  15.543  1.5861 -2.1783  0.0808
  441TMC3    H2 6578   2.497   1.088  15.834 -2.8066 -1.5034  1.6554
  441TMC3    C7 6579   2.365   0.844  15.772  0.6534  0.1453  0.3616
  441TMC3    C8 6580   2.426   1.327  15.727  0.2048  0.0795  0.2738
  441TMC3    O1 6581   2.311   0.753  15.711 -0.1826  0.1983  0.5276
  441TMC3    O2 6582   2.517   1.370  15.792 -0.2469  0.0381  0.0787
  442MPD2     C 6583   0.124   2.254  16.635  0.3646  0.1504  0.0988
  442MPD2    C1 6584   0.006   2.195  16.662 -0.3249  0.0801 -0.0105
  442MPD2    C2 6585   4.720   2.059  16.672 -0.1154 -0.2446 -0.3217
  442MPD2    C3 6586   0.112   1.984  16.638  0.2872 -0.4001  0.0516
  442MPD2    C4 6587   0.235   2.046  16.624 -0.9694 -0.6273 -0.0277
  442MPD2    C5 6588   0.235   2.181  16.623 -0.5847 -0.2446 -0.0463
  442MPD2     H 6589   4.626   2.017  16.706 -0.2087 -0.0745 -0.3671
  442MPD2    H1 6590   0.324   1.994  16.593 -0.5899 -0.0879  0.1639
  442MPD2    H2 6591   0.131   2.361  16.647 -1.0819  0.0434  1.9119
  442MPD2    H3 6592   0.334   2.222  16.606 -0.4331 -0.6844 -0.2228
  442MPD2     N 6593   0.112   1.841  16.625 -0.0796 -0.1199 -0.5798
  442MPD2    H5 6594   0.196   1.791  16.595 -2.2712 -3.0848 -1.7925
  442MPD2    N1 6595   4.613   2.272  16.692 -0.4065 -0.3567 -0.0907
  442MPD2    H7 6596   4.525   2.223  16.711 -0.1461 -0.9792 -0.4675
  443TMC3    C1 6597   4.471   2.456  16.708 -0.0577  0.1066 -0.5147
  443TMC3    C2 6598   4.389   2.503  16.617  0.1633  0.1767 -0.0370
  443TMC3    C3 6599   4.268   2.556  16.653 -0.9263  0.1118 -0.2023
  443TMC3    C4 6600   4.429   2.453  16.840 -0.3330 -0.4550  0.3021
  443TMC3    C5 6601   4.311   2.512  16.877  0.0919 -0.1931 -0.4626
  443TMC3    C6 6602   4.228   2.571  16.784 -0.1452  0.5994  0.0290
  443TMC3     C 6603   4.596   2.401  16.658 -0.1676 -1.0287  0.3736
  443TMC3     O 6604   4.640   2.466  16.565  0.5004 -0.4616 -0.3054
  443TMC3     H 6605   4.423   2.506  16.514 -0.5021  0.3026 -0.2533
  443TMC3    H1 6606   4.492   2.396  16.907  0.8538 -0.5204 -0.8442
  443TMC3    H2 6607   4.124   2.591  16.808 -0.1324 -0.5034  0.9638
  443TMC3    C7 6608   4.264   2.479  17.011 -0.3639  0.5398  0.4070
  443TMC3    C8 6609   4.161   2.490  16.580  0.4901 -0.0895 -0.1815
  443TMC3    O1 6610   4.297   2.368  17.049  0.9260 -0.2654  0.1007
  443TMC3    O2 6611   4.062   2.447  16.641 -0.2736  0.3894 -0.0365
  444MPD2     C 6612   0.467   1.046  17.056  1.1364  0.0212 -0.2241
  444MPD2    C1 6613   0.353   0.987  17.011 -0.2289  0.1134  0.2541
  444MPD2    C2 6614   0.362   0.863  16.948 -0.2300 -0.1796  0.2661
  444MPD2    C3 6615   0.485   0.809  16.920 -0.4440  0.2714  0.4003
  444MPD2    C4 6616   0.600   0.867  16.970  0.0415  0.4673 -0.1788
  444MPD2    C5 6617   0.589   0.983  17.035  0.4305 -0.2414  0.1555
  444MPD2     H 6618   0.276   0.809  16.911  0.8390 -1.2891 -0.6268
  444MPD2    H1 6619   0.700   0.826  16.977 -1.1443 -2.3925  0.2738
  444MPD2    H2 6620   0.465   1.142  17.107  1.3769 -0.4976  0.7617
  444MPD2    H3 6621   0.679   1.013  17.086 -0.5375  0.3677  1.5133
  444MPD2     N 6622   0.480   0.681  16.859  0.8896  0.0182 -0.6818
  444MPD2    H5 6623   0.384   0.651  16.850  1.0004 -0.3053 -0.7732
  444MPD2    N1 6624   0.228   1.042  17.043 -0.5913  0.5255  0.9249
  444MPD2    H7 6625   0.148   1.009  16.990  0.5195 -1.0893  0.2652
  445TMC3    C1 6626   0.550   0.489  16.736 -0.7985 -0.1333 -0.0351
  445TMC3    C2 6627   0.428   0.494  16.665 -0.5927 -0.5192  0.1434
  445TMC3    C3 6628   0.419   0.404  16.564 -0.2278  0.5050 -0.0493
  445TMC3    C4 6629   0.647   0.398  16.711 -0.3772  0.1229  0.2304
  445TMC3    C5 6630   0.627   0.303  16.614  0.0066 -0.4141 -0.2256
  445TMC3    C6 6631   0.512   0.306  16.542  0.0083  0.6029  0.2338
  445TMC3     C 6632   0.585   0.600  16.818  0.2609 -0.4395 -0.0799
  445TMC3     O 6633   0.705   0.628  16.822 -0.3277 -0.3345  0.0778
  445TMC3     H 6634   0.362   0.578  16.686 -0.6568 -0.5986  0.2635
  445TMC3    H1 6635   0.735   0.406  16.774 -1.2409  0.8174  1.3438
  445TMC3    H2 6636   0.501   0.240  16.456 -0.0477  1.7085 -0.6147
  445TMC3    C7 6637   0.744   0.238  16.558 -0.4964 -0.2383  1.4458
  445TMC3    C8 6638   0.286   0.384  16.514 -0.9291  0.7211  0.1130
  445TMC3    O1 6639   0.750   0.221  16.435 -0.5179  0.1457  0.0413
  445TMC3    O2 6640   0.203   0.454  16.566 -0.0332 -0.1804 -0.0220
  446MPD2     C 6641   4.578   2.495  11.610  0.3767 -0.2737  0.0503
  446MPD2    C1 6642   4.580   2.537  11.476  0.2068 -0.7324 -0.5562
  446MPD2    C2 6643   4.681   2.623  11.438 -0.1017 -0.1674 -0.1973
  446MPD2    C3 6644   0.058   2.665  11.530  0.6885  0.5599 -0.3599
  446MPD2    C4 6645   0.056   2.618  11.661 -0.2824  0.0205 -0.2283
  446MPD2    C5 6646   4.680   2.533  11.698 -0.1187 -0.4498  0.4131
  446MPD2     H 6647   4.683   2.661  11.337 -0.2559  1.3765  0.3749
  446MPD2    H1 6648   0.115   2.659  11.741 -1.1935  1.7015 -0.4125
  446MPD2    H2 6649   4.497   2.430  11.640  0.5559 -0.5497 -0.0638
  446MPD2    H3 6650   4.676   2.510  11.803 -0.2171  0.4638  0.6102
  446MPD2     N 6651   0.162   2.754  11.481  0.4441 -0.5291  0.1914
  446MPD2    H5 6652   0.153   2.794  11.388 -0.5740 -0.3853  0.3482
  446MPD2    N1 6653   4.485   2.488  11.385  0.1913  0.5672 -0.3378
  446MPD2    H7 6654   4.413   2.428  11.426  0.3248  0.2433 -0.5753
  447TMC3    C1 6655   0.378   2.837  11.470 -0.3710  0.1427 -0.3873
  447TMC3    C2 6656   0.343   2.915  11.361 -0.2904  0.2094 -0.0269
  447TMC3    C3 6657   0.445   2.965  11.283  0.8694 -0.2312 -0.0437
  447TMC3    C4 6658   0.509   2.819  11.492  0.3394 -0.0192  0.0157
  447TMC3    C5 6659   0.606   2.880  11.423  0.9788  0.2670  0.0173
  447TMC3    C6 6660   0.573   2.953  11.311  0.0408 -0.6958  0.4139
  447TMC3     C 6661   0.278   2.771  11.550  0.6439  0.2750  0.3949
  447TMC3     O 6662   0.327   2.700  11.642  0.6340  0.2981  0.4469
  447TMC3     H 6663   0.240   2.944  11.343 -0.0742  0.8447 -0.2303
  447TMC3    H1 6664   0.537   2.747  11.569  2.0335 -0.6902 -1.2516
  447TMC3    H2 6665   0.658   2.990  11.255 -1.5554  0.7385 -1.0659
  447TMC3    C7 6666   0.748   2.851  11.441  0.2146  0.8933 -0.8504
  447TMC3    C8 6667   0.403   3.041  11.164  0.6389 -0.1821 -0.4659
  447TMC3    O1 6668   0.821   2.872  11.346  0.0303 -0.7930  0.2692
  447TMC3    O2 6669   0.291   3.094  11.162 -0.1121 -0.3772 -0.1901
  448TMC3    C1 6670   2.970   2.928  17.595  0.1683  0.5644 -0.0988
  448TMC3    C2 6671   3.027   2.863  17.498 -0.4998 -0.6125 -0.0091
  448TMC3    C3 6672   3.125   2.773  17.532 -0.1048 -0.1355  0.1555
  448TMC3    C4 6673   3.013   2.922   0.031  0.4108 -0.4874 -0.6778
  448TMC3    C5 6674   3.117   2.835   0.059  0.1200 -0.0190 -0.0561
  448TMC3    C6 6675   3.171   2.750  17.656  0.0604  0.2233  0.7214
  448TMC3     C 6676   2.847   3.009  17.576 -0.6550  1.0960 -0.5492
  448TMC3     O 6677   2.799   3.057  17.676  0.4120 -0.6531  0.3742
  448TMC3     H 6678   2.966   2.853  17.409  0.0654  2.5935 -0.7558
  448TMC3    H1 6679   2.949   2.960   0.110  2.5080 -0.5328  1.0411
  448TMC3    H2 6680   3.252   2.681  17.677  0.4271  0.2542 -0.6448
  448TMC3    C7 6681   3.121   2.799   0.200  0.0761  0.2824  0.3505
  448TMC3    C8 6682   3.157   2.668  17.440  0.1712 -0.0445  0.6662
  448TMC3    O1 6683   3.079   2.881   0.277  0.1693  0.1903 -0.3887
  448TMC3    O2 6684   3.163   2.551  17.481 -0.4957  0.0234  0.6003
  449MPD2     C 6685   0.110   0.302  13.965 -0.2682 -0.1348  0.4795
  449MPD2    C1 6686   4.716   0.347  13.909 -0.1746  0.2676 -0.6095
  449MPD2    C2 6687   4.608   0.358  13.994  0.5914  0.3931 -0.0169
  449MPD2    C3 6688   4.609   0.335  14.126  0.4106 -0.2313  0.6711
  449MPD2    C4 6689   0.008   0.290  14.183 -0.4447  0.6132  0.1227
  449MPD2    C5 6690   0.117   0.262  14.097  0.3462 -0.2131  0.1326
  449MPD2     H 6691   4.514   0.385  13.948  0.1362 -0.1147  0.6136
  449MPD2    H1 6692   0.021   0.287  14.290 -0.7909  1.6877  0.1976
  449MPD2    H2 6693   0.198   0.279  13.906 -0.7125 -0.8946  0.1153
  449MPD2    H3 6694   0.215   0.246  14.140  0.5367  2.2808  0.6564
  449MPD2     N 6695   4.501   0.364  14.211  0.0143  0.4695  0.4149
  449MPD2    H5 6696   4.417   0.409  14.177 -0.9015  0.2370  2.3243
  449MPD2    N1 6697   4.698   0.379  13.776 -0.3176 -0.1217 -0.0759
  449MPD2    H7 6698   4.610   0.419  13.745 -0.2464 -0.0265 -0.1553
  450TMC3    C1 6699   0.002   0.411  13.551 -0.1199 -0.0133 -0.4816
  450TMC3    C2 6700   0.002   0.318  13.449  0.9618 -0.3624 -1.1657
  450TMC3    C3 6701   4.605   0.306  13.382  0.5952 -0.0523 -0.0307
  450TMC3    C4 6702   4.619   0.495  13.564  0.3642  0.8568 -0.0062
  450TMC3    C5 6703   4.502   0.476  13.499 -0.2974 -0.0636  0.6362
  450TMC3    C6 6704   4.489   0.380  13.406  0.3082 -0.2671  0.8946
  450TMC3     C 6705   0.062   0.359  13.673 -0.7550 -0.3617  0.8210
  450TMC3     O 6706   0.164   0.298  13.667 -1.0182 -0.5250  0.0524
  450TMC3     H 6707   0.068   0.232  13.450  0.8978 -0.4497 -3.1892
  450TMC3    H1 6708   4.633   0.579  13.631 -1.7363 -1.8392  3.8323
  450TMC3    H2 6709   4.396   0.372  13.351  0.9997  1.0723 -0.4815
  450TMC3    C7 6710   4.400   0.479  13.606 -0.1441 -0.6820  0.0718
  450TMC3    C8 6711   4.598   0.198  13.284 -0.3438 -0.0375 -0.1201
  450TMC3    O1 6712   4.437   0.464  13.719  0.2804 -0.0208  0.0570
  450TMC3    O2 6713   4.493   0.138  13.266  0.2580 -0.3691  0.1482
  451MPD2     C 6714   0.622   4.433   1.525  0.0145 -0.6220 -0.1809
  451MPD2    C1 6715   0.721   4.465   1.439 -0.0935  0.3430  0.2365
  451MPD2    C2 6716   0.784   4.365   1.369  0.2249  0.2769  0.1992
  451MPD2    C3 6717   0.769   4.228   1.402  0.1847  0.3661  0.3273
  451MPD2    C4 6718   0.681   4.199   1.503  0.0784  0.2944 -0.2967
  451MPD2    C5 6719   0.609   4.300   1.560 -0.0640  0.5971 -0.2598
  451MPD2     H 6720   0.862   4.388   1.297 -0.4109 -0.2201 -0.6507
  451MPD2    H1 6721   0.670   4.095   1.534 -1.4787  0.0940 -1.5433
  451MPD2    H2 6722   0.555   4.506   1.569 -1.1580 -1.3717 -0.7221
  451MPD2    H3 6723   0.540   4.273   1.639  0.1804 -0.7327 -0.5030
  451MPD2     N 6724   0.820   4.119   1.319  0.6383  0.4972 -0.5105
  451MPD2    H5 6725   0.799   4.024   1.347 -1.0639  1.2687  0.8710
  451MPD2    N1 6726   0.745   4.595   1.408 -0.2070 -0.1527 -0.1316
  451MPD2    H7 6727   0.678   4.666   1.435  1.2110  0.2923  2.2391
  452TMC3    C1 6728   0.946   4.016   1.148 -0.1350  0.1263  0.1548
  452TMC3    C2 6729   0.991   3.911   1.226  0.4708 -0.2099  0.7033
  452TMC3    C3 6730   1.094   3.833   1.192 -0.4251 -0.7824 -0.4980
  452TMC3    C4 6731   1.009   4.035   1.025 -0.0810 -1.0444 -0.2062
  452TMC3    C5 6732   1.106   3.945   0.990 -0.1597 -0.2155 -1.1373
  452TMC3    C6 6733   1.152   3.847   1.070  0.6491  0.6127  0.6671
  452TMC3     C 6734   0.897   4.141   1.206 -0.2781 -0.1984 -0.1370
  452TMC3     O 6735   0.919   4.239   1.140  0.4616  0.9150 -0.0796
  452TMC3     H 6736   0.952   3.899   1.326 -0.2012  0.0973  0.4794
  452TMC3    H1 6737   0.976   4.114   0.959 -1.4165 -0.5305  1.0835
  452TMC3    H2 6738   1.240   3.789   1.042  0.4194  0.4894  0.1957
  452TMC3    C7 6739   1.184   3.973   0.876 -0.2637  0.1515 -0.1297
  452TMC3    C8 6740   1.169   3.774   1.303 -0.4125  0.7191  0.6448
  452TMC3    O1 6741   1.232   4.086   0.851  0.2696 -0.5297 -0.3269
  452TMC3    O2 6742   1.107   3.753   1.411  0.4969  0.5604  0.2006
  453TMC3    C1 6743   2.432   1.173  11.976 -0.0897  0.4991  0.7715
  453TMC3    C2 6744   2.345   1.069  12.005  0.0239 -0.1834 -0.5498
  453TMC3    C3 6745   2.251   1.040  11.905 -0.4415 -0.1010  0.0618
  453TMC3    C4 6746   2.414   1.252  11.866 -0.5253 -0.0623  0.0685
  453TMC3    C5 6747   2.341   1.208  11.764  0.3534 -1.0084  0.7050
  453TMC3    C6 6748   2.255   1.097  11.781 -0.1311  0.7755 -0.1452
  453TMC3     C 6749   2.553   1.203  12.054 -0.1786 -0.3214  0.2846
  453TMC3     O 6750   2.625   1.294  12.013  0.2965 -0.4158 -0.4927
  453TMC3     H 6751   2.354   1.016  12.100 -0.6911  2.1244  0.7971
  453TMC3    H1 6752   2.469   1.344  11.851 -0.0396 -0.5834 -1.3362
  453TMC3    H2 6753   2.200   1.049  11.701  0.3993  0.8947 -0.5798
  453TMC3    C7 6754   2.333   1.291  11.641  0.2012 -0.4255 -0.3128
  453TMC3    C8 6755   2.167   0.922  11.926  0.7833 -0.0920  0.1765
  453TMC3    O1 6756   2.231   1.284  11.578 -0.2387 -0.1206 -0.4342
  453TMC3    O2 6757   2.052   0.938  11.896 -0.4770 -0.0205 -0.1858
  454MPD2     C 6758   1.093   0.631  16.485 -0.7924 -0.1298  0.2574
  454MPD2    C1 6759   1.086   0.773  16.481  0.1917 -0.3025  0.0154
  454MPD2    C2 6760   1.068   0.847  16.601  0.1335  0.5423 -0.7023
  454MPD2    C3 6761   1.052   0.788  16.721 -0.1287  0.1384 -0.6201
  454MPD2    C4 6762   1.072   0.653  16.727 -0.1848 -0.7226 -0.2100
  454MPD2    C5 6763   1.086   0.578  16.616  0.4537  0.1234 -0.3782
  454MPD2     H 6764   1.045   0.953  16.592 -0.9251  0.2475 -1.6180
  454MPD2    H1 6765   1.064   0.602  16.823  1.7785 -3.0032 -1.2429
  454MPD2    H2 6766   1.114   0.571  16.398  2.0153  1.4743 -0.1743
  454MPD2    H3 6767   1.097   0.471  16.634 -0.3915 -0.0845 -1.0813
  454MPD2     N 6768   1.038   0.855  16.845  0.1548  0.0621 -0.4088
  454MPD2    H5 6769   1.092   0.810  16.918  0.2155  0.4744 -0.2018
  454MPD2    N1 6770   1.070   0.848  16.361 -0.0372  0.4194 -0.5206
  454MPD2    H7 6771   1.052   0.947  16.371 -0.9577  0.3164 -1.1698
  455TMC3    C1 6772   0.876   1.016  16.784  0.3243 -0.1745  0.6131
  455TMC3    C2 6773   0.840   1.147  16.794 -0.1593 -0.1176 -0.6686
  455TMC3    C3 6774   0.721   1.184  16.746  0.0315 -0.0801  0.9032
  455TMC3    C4 6775   0.796   0.925  16.718 -0.0475  0.1492 -0.0424
  455TMC3    C5 6776   0.676   0.972  16.663 -0.0786  0.1515  0.6807
  455TMC3    C6 6777   0.632   1.103  16.683 -0.2502  0.2723 -0.3624
  455TMC3     C 6778   0.985   0.975  16.870  0.2508  0.1707 -0.1854
  455TMC3     O 6779   1.010   1.052  16.961 -0.1209  0.6186 -0.2211
  455TMC3     H 6780   0.898   1.215  16.856 -0.9191  0.1324 -0.2380
  455TMC3    H1 6781   0.817   0.818  16.723  0.5593  0.2746  0.1935
  455TMC3    H2 6782   0.537   1.141  16.647 -0.9748 -0.2501  0.9650
  455TMC3    C7 6783   0.605   0.887  16.566 -1.1280 -0.2451 -0.1570
  455TMC3    C8 6784   0.687   1.317  16.777 -0.4531 -0.0506 -0.7629
  455TMC3    O1 6785   0.495   0.930  16.528 -0.1662  0.1908  0.0638
  455TMC3    O2 6786   0.776   1.399  16.784  0.0581 -0.2342  0.1016
  456MPD2     C 6787   3.351   1.491  16.524 -0.1437  0.0900  0.4112
  456MPD2    C1 6788   3.455   1.487  16.614  0.0882  0.0558  0.1949
  456MPD2    C2 6789   3.442   1.556  16.729  0.3287  0.0772  0.4757
  456MPD2    C3 6790   3.331   1.636  16.757  0.0860 -0.0709 -0.8263
  456MPD2    C4 6791   3.232   1.645  16.662 -0.3828  0.2289  0.4105
  456MPD2    C5 6792   3.247   1.577  16.545  0.0725 -0.2550  0.2946
  456MPD2     H 6793   3.518   1.546  16.806  2.5955 -1.3471 -1.9486
  456MPD2    H1 6794   3.156   1.721  16.672  0.6554  1.1010  1.6172
  456MPD2    H2 6795   3.355   1.435  16.431 -0.3730 -1.2594  1.2139
  456MPD2    H3 6796   3.169   1.588  16.471  0.9613  1.6615 -0.3455
  456MPD2     N 6797   3.329   1.714  16.879 -0.2850  0.2766  0.6319
  456MPD2    H5 6798   3.398   1.686  16.948  1.3959 -1.6216 -1.8076
  456MPD2    N1 6799   3.556   1.388  16.595 -0.0460  0.1999 -0.1443
  456MPD2    H7 6800   3.554   1.331  16.511  1.2720  2.5031 -1.7500
  457TMC3    C1 6801   3.251   1.860  17.046  0.2522 -1.0812  0.5422
  457TMC3    C2 6802   3.218   1.992  17.052  0.3673  0.2257  0.0639
  457TMC3    C3 6803   3.228   2.048  17.173 -0.1221 -0.0779  0.6186
  457TMC3    C4 6804   3.285   1.778  17.148  0.0957 -0.4337  0.1250
  457TMC3    C5 6805   3.295   1.838  17.269  0.7384  0.6883 -0.2730
  457TMC3    C6 6806   3.287   1.973  17.276  0.1074  0.0577  0.1818
  457TMC3     C 6807   3.240   1.809  16.908  0.2091 -0.1858 -0.1587
  457TMC3     O 6808   3.154   1.858  16.841 -0.4203  0.1450 -0.1872
  457TMC3     H 6809   3.170   2.038  16.966 -1.4735  1.1117  1.5532
  457TMC3    H1 6810   3.271   1.672  17.135  1.8871 -0.3636 -2.4134
  457TMC3    H2 6811   3.306   2.026  17.369 -0.5726 -0.3436  0.5493
  457TMC3    C7 6812   3.324   1.764  17.386 -0.0923  0.2119  0.3937
  457TMC3    C8 6813   3.210   2.194  17.203  0.1714 -0.0901 -0.7879
  457TMC3    O1 6814   3.340   1.645  17.371  0.1464 -0.5239  0.1921
  457TMC3    O2 6815   3.190   2.216  17.324  0.6488 -0.1515 -0.1379
  458MPD2     C 6816   1.743   0.451  12.350  0.4723  0.3920 -0.0587
  458MPD2    C1 6817   1.703   0.374  12.464  0.7248  0.0425  0.1058
  458MPD2    C2 6818   1.571   0.335  12.467 -0.0135 -0.3673  0.0542
  458MPD2    C3 6819   1.483   0.359  12.370  0.5212  0.5746  0.1185
  458MPD2    C4 6820   1.523   0.426  12.253  0.1779  0.9648  0.2585
  458MPD2    C5 6821   1.649   0.476  12.258 -0.1764 -0.6479 -0.2434
  458MPD2     H 6822   1.534   0.285  12.556 -2.1905  0.9857 -0.1010
  458MPD2    H1 6823   1.462   0.436  12.165  1.0802 -0.4033 -0.5225
  458MPD2    H2 6824   1.847   0.484  12.344  0.5787  0.1236  0.3432
  458MPD2    H3 6825   1.682   0.525  12.167  0.2750  1.8900  1.2887
  458MPD2     N 6826   1.353   0.308  12.386  0.2772  1.2006  0.4516
  458MPD2    H5 6827   1.336   0.252  12.470 -1.3522  1.0332 -0.0070
  458MPD2    N1 6828   1.798   0.345  12.565  0.3602 -0.7007 -0.0943
  458MPD2    H7 6829   1.894   0.376  12.550  1.1621 -2.0029  2.2987
  459TMC3    C1 6830   1.842   0.300  12.803  0.0174 -0.0472 -0.2536
  459TMC3    C2 6831   1.933   0.396  12.805 -0.2195  0.1947  0.7292
  459TMC3    C3 6832   1.984   0.455  12.915  0.0060  0.0906 -0.0537
  459TMC3    C4 6833   1.789   0.265  12.927  0.3099 -0.4637 -0.0925
  459TMC3    C5 6834   1.833   0.331  13.040  0.6200 -1.1769  0.6928
  459TMC3    C6 6835   1.929   0.424  13.038  0.3526 -0.0265  0.1892
  459TMC3     C 6836   1.767   0.272  12.680  0.3849 -0.3862 -0.5443
  459TMC3     O 6837   1.668   0.207  12.709 -0.5470 -0.2480  0.2122
  459TMC3     H 6838   1.984   0.424  12.713  0.1927 -1.6267  0.4086
  459TMC3    H1 6839   1.709   0.194  12.945 -1.2662  1.0932 -0.9205
  459TMC3    H2 6840   1.977   0.457  13.130  0.2517 -1.3225  0.7027
  459TMC3    C7 6841   1.778   0.281  13.164  0.3585  0.7968  0.0824
  459TMC3    C8 6842   2.111   0.531  12.908  0.0158  0.4882  0.0508
  459TMC3    O1 6843   1.717   0.174  13.159  0.0447 -0.2746  0.0628
  459TMC3    O2 6844   2.179   0.526  12.804 -0.2508 -0.4932  0.5471
  460MPD2     C 6845   0.614   3.086  10.873  0.1950 -0.0048 -0.0348
  460MPD2    C1 6846   0.495   3.097  10.937 -0.3590  0.7575 -0.6000
  460MPD2    C2 6847   0.387   3.156  10.880 -0.5798  0.1508 -0.5840
  460MPD2    C3 6848   0.402   3.228  10.760  0.2887 -0.5202 -0.2033
  460MPD2    C4 6849   0.526   3.242  10.711  0.4240 -0.1057  0.1362
  460MPD2    C5 6850   0.633   3.166  10.760  0.3354  0.5333  0.0609
  460MPD2     H 6851   0.292   3.159  10.932 -1.5107  0.8926 -2.3429
  460MPD2    H1 6852   0.543   3.294  10.617  0.9055  0.6043  0.6216
  460MPD2    H2 6853   0.703   3.036  10.908 -1.1451 -2.8346 -0.6929
  460MPD2    H3 6854   0.731   3.183  10.718  0.9185  0.4201  1.4006
  460MPD2     N 6855   0.289   3.292  10.707 -0.2824  0.2556 -0.4015
  460MPD2    H5 6856   0.200   3.271  10.751 -0.0554 -1.6226 -0.8072
  460MPD2    N1 6857   0.497   3.030  11.062 -0.1837 -0.4816 -0.1912
  460MPD2    H7 6858   0.578   2.971  11.079  1.3949  1.2816 -1.6487
  461TMC3    C1 6859   0.158   3.416  10.567  0.1991  0.2379 -0.0465
  461TMC3    C2 6860   0.056   3.322  10.553  0.7400 -0.4520 -0.0874
  461TMC3    C3 6861   4.687   3.357  10.463 -0.2417  0.4764  0.1590
  461TMC3    C4 6862   0.161   3.533  10.491 -0.7686  0.7131 -0.7579
  461TMC3    C5 6863   0.064   3.560  10.404 -0.4805  0.1157  0.6821
  461TMC3    C6 6864   4.689   3.471  10.387 -0.2291 -0.1406 -0.9417
  461TMC3     C 6865   0.284   3.371  10.594  0.6660  0.0414  0.3224
  461TMC3     O 6866   0.367   3.413  10.514 -0.1225  0.1630  0.2965
  461TMC3     H 6867   0.051   3.228  10.606 -0.5574 -1.5737 -2.2299
  461TMC3    H1 6868   0.244   3.601  10.508 -1.4004  0.4221  3.3722
  461TMC3    H2 6869   4.607   3.501  10.322 -0.8924  0.3270  0.0993
  461TMC3    C7 6870   0.053   3.683  10.333  0.3492  0.0347 -0.1027
  461TMC3    C8 6871   4.614   3.254  10.402 -0.1571 -0.1013  0.6851
  461TMC3    O1 6872   4.670   3.710  10.269 -0.5802  0.2751  0.8179
  461TMC3    O2 6873   4.585   3.275  10.285 -0.3223  0.4190  0.1169
  462TMC3    C1 6874   0.527   3.347   0.448  1.4227 -0.8041 -0.0505
  462TMC3    C2 6875   0.586   3.256   0.357  1.4138  0.0586 -0.1994
  462TMC3    C3 6876   0.521   3.144   0.343 -0.2765  0.0974  0.4300
  462TMC3    C4 6877   0.427   3.331   0.537 -0.4004 -0.9553  0.4895
  462TMC3    C5 6878   0.373   3.205   0.523 -0.3164 -0.2049 -0.9843
  462TMC3    C6 6879   0.420   3.109   0.433 -0.1466  0.0272 -0.0698
  462TMC3     C 6880   0.562   3.493   0.421 -0.5162  0.3664  0.3508
  462TMC3     O 6881   0.539   3.581   0.503 -0.2932  0.0180  0.1792
  462TMC3     H 6882   0.673   3.291   0.302  1.7630  1.3155  1.1377
  462TMC3    H1 6883   0.386   3.419   0.585 -1.3895 -0.9876 -0.2853
  462TMC3    H2 6884   0.367   3.015   0.423 -0.2327 -0.0518  1.0338
  462TMC3    C7 6885   0.235   3.202   0.547  0.3105  0.3548  0.0420
  462TMC3    C8 6886   0.581   3.030   0.279  0.0117 -0.4425  0.1155
  462TMC3    O1 6887   0.169   3.143   0.465 -0.2991 -0.3930  0.2939
  462TMC3    O2 6888   0.545   2.925   0.327 -0.0441  0.5221 -0.0992
  463MPD2     C 6889   0.813   2.527   2.131 -0.8572  0.4790  0.3128
  463MPD2    C1 6890   0.772   2.568   2.007 -0.0050  0.0410  0.1640
  463MPD2    C2 6891   0.856   2.652   1.940 -0.0635  0.0706  0.7866
  463MPD2    C3 6892   0.972   2.705   1.993  0.0825 -0.4713 -0.1104
  463MPD2    C4 6893   1.009   2.664   2.120  0.3943  0.5824  0.5170
  463MPD2    C5 6894   0.928   2.577   2.190 -0.4875  0.3030 -0.0707
  463MPD2     H 6895   0.813   2.691   1.848  2.5399 -2.1185 -1.3594
  463MPD2    H1 6896   1.099   2.712   2.156  0.0277  2.8803 -1.7130
  463MPD2    H2 6897   0.753   2.463   2.194 -0.2580 -1.2484 -0.8861
  463MPD2    H3 6898   0.958   2.536   2.286 -0.9422 -0.5913 -0.3068
  463MPD2     N 6899   1.051   2.809   1.930  0.0927 -0.8227 -0.1025
  463MPD2    H5 6900   1.122   2.863   1.978 -1.0946 -0.9528  1.8147
  463MPD2    N1 6901   0.665   2.516   1.937  0.3216  0.3470 -0.2054
  463MPD2    H7 6902   0.659   2.543   1.840 -1.1356  0.2090 -0.1482
  464TMC3    C1 6903   0.473   2.372   1.883 -0.1354  0.2906 -0.7638
  464TMC3    C2 6904   0.427   2.459   1.787 -0.0285 -0.5777  0.2774
  464TMC3    C3 6905   0.335   2.408   1.699 -1.1103  0.6185  0.4921
  464TMC3    C4 6906   0.418   2.251   1.909  0.5441  0.0333  0.3989
  464TMC3    C5 6907   0.333   2.203   1.815  0.0322  0.4071 -0.3063
  464TMC3    C6 6908   0.286   2.278   1.709 -0.1223 -0.2727  0.0097
  464TMC3     C 6909   0.568   2.425   1.982 -0.4443  0.1284  0.1890
  464TMC3     O 6910   0.571   2.363   2.085  0.1327  0.2213  0.0357
  464TMC3     H 6911   0.455   2.564   1.788  0.6377 -0.7530  0.5432
  464TMC3    H1 6912   0.469   2.180   1.973 -0.4266 -0.5811  0.4913
  464TMC3    H2 6913   0.205   2.247   1.644 -1.2370  2.1492  0.2349
  464TMC3    C7 6914   0.281   2.071   1.834  0.1182  0.7282 -0.3565
  464TMC3    C8 6915   0.238   2.508   1.638  0.7897 -0.7661 -0.1668
  464TMC3    O1 6916   0.303   2.028   1.948  0.1090 -0.0036 -0.0116
  464TMC3    O2 6917   0.282   2.603   1.570 -0.6292 -0.2873 -0.4909
  465MPD2     C 6918   2.442   0.981  17.061  0.1731 -0.5141 -0.9175
  465MPD2    C1 6919   2.338   0.983  17.156  0.4276  0.0585  0.6309
  465MPD2    C2 6920   2.219   1.052  17.125 -0.0620  0.1625  0.3038
  465MPD2    C3 6921   2.191   1.118  17.009 -0.1435  1.1742 -0.5105
  465MPD2    C4 6922   2.299   1.112  16.920 -0.0612  0.0085  0.1239
  465MPD2    C5 6923   2.421   1.056  16.951  0.0419 -0.0092 -0.4396
  465MPD2     H 6924   2.143   1.060  17.202  0.9899  0.7585  1.2793
  465MPD2    H1 6925   2.290   1.160  16.823  0.4569  1.3030  0.7116
  465MPD2    H2 6926   2.542   0.943  17.078 -0.5159 -1.3663  1.2670
  465MPD2    H3 6927   2.498   1.061  16.874 -0.1590  2.3727 -0.4967
  465MPD2     N 6928   2.076   1.197  16.997  0.2825 -0.2194  0.7052
  465MPD2    H5 6929   2.011   1.200  17.076  1.4054 -1.3353  1.6695
  465MPD2    N1 6930   2.354   0.925  17.283 -0.2765  1.1806  0.1247
  465MPD2    H7 6931   2.272   0.923  17.343 -1.6168  0.9765 -1.7020
  466TMC3    C1 6932   1.791   1.487  17.050  0.4244 -0.3876 -0.2267
  466TMC3    C2 6933   1.788   1.595  16.967 -0.6587 -0.4350  0.7214
  466TMC3    C3 6934   1.862   1.584  16.845 -0.6462  0.2219 -0.0497
  466TMC3    C4 6935   1.871   1.377  17.023 -0.9181 -0.1115 -0.3793
  466TMC3    C5 6936   1.947   1.370  16.909  0.0696  0.1193 -0.7048
  466TMC3    C6 6937   1.944   1.478  16.821 -0.0238 -0.5330  0.6473
  466TMC3     C 6938   1.750   1.492  17.191  0.5754  0.2104  0.1381
  466TMC3     O 6939   1.811   1.415  17.263 -0.1778  0.1616  0.2560
  466TMC3     H 6940   1.733   1.684  16.998 -0.4491  0.4370 -1.4476
  466TMC3    H1 6941   1.848   1.283  17.073  1.3217 -0.6776 -0.4023
  466TMC3    H2 6942   1.994   1.462  16.726 -0.9058  0.5179 -0.0030
  466TMC3    C7 6943   2.048   1.271  16.883 -0.2690 -0.1134 -0.2255
  466TMC3    C8 6944   1.893   1.704  16.775  0.5554 -0.1966  0.4830
  466TMC3    O1 6945   2.105   1.282  16.774 -0.0950  0.0411  0.1025
  466TMC3    O2 6946   1.923   1.701  16.654  0.5041  0.1483  0.3396
  467TMC3    C1 6947   3.446   4.524  13.901 -0.1670 -0.5318 -0.3700
  467TMC3    C2 6948   3.429   4.475  13.778 -0.0541 -0.7584 -0.0537
  467TMC3    C3 6949   3.300   4.470  13.733  0.3292 -0.0083  0.1669
  467TMC3    C4 6950   3.342   4.550  13.991  0.8147 -0.2737  0.3553
  467TMC3    C5 6951   3.213   4.525  13.940 -0.4940 -0.1926 -0.1429
  467TMC3    C6 6952   3.189   4.491  13.811 -0.4891  0.0173  0.4031
  467TMC3     C 6953   3.583   4.550  13.931 -0.3345 -0.1449  0.2393
  467TMC3     O 6954   3.658   4.563  13.833  0.3013 -0.0868  0.2669
  467TMC3     H 6955   3.514   4.445  13.718  1.4464 -0.1840  1.7656
  467TMC3    H1 6956   3.361   4.597  14.086  0.4939 -0.5886  0.5756
  467TMC3    H2 6957   3.088   4.480  13.774 -0.1356 -1.5343 -0.1077
  467TMC3    C7 6958   3.099   4.569  14.017  0.8602 -0.0465 -0.0733
  467TMC3    C8 6959   3.281   4.534  13.598  0.0951  0.3909 -0.7249
  467TMC3    O1 6960   3.116   4.674  14.076  0.3251 -0.6201  0.1456
  467TMC3    O2 6961   3.197   4.619  13.580  0.2284  0.1144 -0.1583
  468MPD2     C 6962   2.391   2.234  10.371  0.4545 -0.4878  0.2413
  468MPD2    C1 6963   2.412   2.300  10.487 -0.3490 -0.0669  0.3137
  468MPD2    C2 6964   2.363   2.247  10.606  0.6023  0.0274 -0.1793
  468MPD2    C3 6965   2.299   2.123  10.600  0.0774  0.0829 -0.0759
  468MPD2    C4 6966   2.279   2.059  10.477  0.2490 -0.0802  0.3572
  468MPD2    C5 6967   2.317   2.118  10.365  0.2099  0.4585  0.0462
  468MPD2     H 6968   2.387   2.289  10.703  0.9533  3.6150 -1.8078
  468MPD2    H1 6969   2.225   1.966  10.479  1.4388 -0.8485 -2.8747
  468MPD2    H2 6970   2.417   2.271  10.272  1.9256  1.1591  1.2579
  468MPD2    H3 6971   2.294   2.070  10.271 -1.8713 -0.5397  1.0835
  468MPD2     N 6972   2.254   2.050  10.718  0.0300  0.0679 -0.3418
  468MPD2    H5 6973   2.224   1.953  10.714 -0.2665  0.2014 -1.3467
  468MPD2    N1 6974   2.472   2.433  10.493 -0.2863 -0.3398  0.0639
  468MPD2    H7 6975   2.469   2.476  10.585 -0.1372  0.3950 -0.2811
  469TMC3    C1 6976   2.563   2.638  10.424 -0.6487  0.2413 -0.2326
  469TMC3    C2 6977   2.632   2.650  10.537  0.3469  0.3330  0.0866
  469TMC3    C3 6978   2.662   2.779  10.574 -0.3566 -0.5097 -0.5138
  469TMC3    C4 6979   2.529   2.744  10.341  0.7916 -0.0017  0.5377
  469TMC3    C5 6980   2.561   2.868  10.383 -0.0446 -0.6754 -0.5834
  469TMC3    C6 6981   2.627   2.891  10.502  0.0566  0.4931 -0.4533
  469TMC3     C 6982   2.506   2.507  10.377  0.1445 -0.1986 -0.1122
  469TMC3     O 6983   2.502   2.479  10.259  0.0816  0.0698 -0.3130
  469TMC3     H 6984   2.669   2.561  10.587 -0.3465  0.5091  0.9061
  469TMC3    H1 6985   2.475   2.723  10.249 -3.9837  2.7290  2.7420
  469TMC3    H2 6986   2.651   2.993  10.530 -0.3254  1.1529 -2.4498
  469TMC3    C7 6987   2.541   2.967  10.280  0.3031  0.2014  0.0447
  469TMC3    C8 6988   2.741   2.803  10.688 -0.6252 -0.7639  0.5133
  469TMC3    O1 6989   2.515   2.929  10.168 -0.0811  0.6596 -0.0505
  469TMC3    O2 6990   2.803   2.910  10.686 -0.2815 -0.2419 -0.2107
  470TMC3    C1 6991   0.489   4.380   1.145 -0.3985  0.0421 -0.1040
  470TMC3    C2 6992   0.405   4.408   1.253  0.3032 -0.9099 -0.3348
  470TMC3    C3 6993   0.329   4.298   1.297  0.0643  0.6167 -0.1717
  470TMC3    C4 6994   0.514   4.258   1.096  0.1538  0.1005  0.5852
  470TMC3    C5 6995   0.442   4.155   1.151  0.1809 -0.4349  0.5505
  470TMC3    C6 6996   0.345   4.171   1.252 -1.0679  0.3328 -0.0531
  470TMC3     C 6997   0.561   4.485   1.076  0.0203 -0.1715  0.2400
  470TMC3     O 6998   0.632   4.463   0.980  0.1905 -0.4880  0.3554
  470TMC3     H 6999   0.391   4.502   1.306  0.9472  0.8403 -3.2430
  470TMC3    H1 7000   0.589   4.236   1.022 -0.4471  0.1895 -0.0500
  470TMC3    H2 7001   0.287   4.090   1.295 -2.0508  2.2988  2.2950
  470TMC3    C7 7002   0.505   4.029   1.130 -0.1688 -0.3348 -0.3281
  470TMC3    C8 7003   0.220   4.331   1.389  0.2742 -0.0784 -0.1720
  470TMC3    O1 7004   0.565   4.008   1.025  0.2349 -0.4048  0.2148
  470TMC3    O2 7005   0.246   4.416   1.475  0.3117  0.0365  0.1686
  471MPD2     C 7006   0.433   0.602  17.184  0.0563 -0.1121  0.4031
  471MPD2    C1 7007   0.442   0.469  17.159  0.0826 -0.2678 -0.2419
  471MPD2    C2 7008   0.538   0.402  17.219 -0.2395  0.0086 -0.8146
  471MPD2    C3 7009   0.629   0.453  17.304 -0.0670 -0.6568  0.1479
  471MPD2    C4 7010   0.618   0.590  17.330 -0.7020  0.2070  0.5140
  471MPD2    C5 7011   0.515   0.664  17.275  0.1038 -0.0327  0.6083
  471MPD2     H 7012   0.533   0.300  17.183  0.0998 -0.8592  1.5757
  471MPD2    H1 7013   0.688   0.641  17.396  0.2518 -0.6467  0.1663
  471MPD2    H2 7014   0.361   0.669  17.139 -0.2318 -0.8216 -0.1870
  471MPD2    H3 7015   0.504   0.772  17.283  0.6206  0.2632 -2.5742
  471MPD2     N 7016   0.739   0.367  17.344 -0.2578 -0.6876 -0.4067
  471MPD2    H5 7017   0.727   0.269  17.321  1.4233 -1.2756  1.2333
  471MPD2    N1 7018   0.349   0.405  17.081 -0.4377  0.1776  0.2789
  471MPD2    H7 7019   0.360   0.304  17.077  0.7423  0.2919  0.6142
  472TMC3    C1 7020   0.169   0.366  16.944  0.4598  0.4845  1.1089
  472TMC3    C2 7021   0.058   0.414  16.884  0.0512 -0.4941 -0.1185
  472TMC3    C3 7022   0.012   0.331  16.788 -0.0407 -0.4224 -0.5631
  472TMC3    C4 7023   0.231   0.250  16.909 -0.0062 -0.0040 -0.5314
  472TMC3    C5 7024   0.181   0.172  16.808  0.0197 -0.0525  0.1847
  472TMC3    C6 7025   0.067   0.211  16.742  0.3180  0.0324  0.0064
  472TMC3     C 7026   0.239   0.463  17.019  0.5136  0.1075 -0.7984
  472TMC3     O 7027   0.203   0.580  17.012 -0.4788  0.1171 -0.6035
  472TMC3     H 7028   0.018   0.512  16.911  0.6214  0.0321 -1.1940
  472TMC3    H1 7029   0.321   0.209  16.953  0.3453  2.2710  0.8552
  472TMC3    H2 7030   0.018   0.156  16.663  1.6915 -1.4970  0.2324
  472TMC3    C7 7031   0.232   0.041  16.812  0.2612  1.0840 -0.0983
  472TMC3    C8 7032   4.594   0.345  16.744  0.1494  0.1384 -0.0950
  472TMC3    O1 7033   0.240   4.719  16.926 -0.2266 -0.7211 -0.0801
  472TMC3    O2 7034   4.553   0.458  16.756  0.3488 -0.3296  0.1824
  473MPD2     C 7035   0.438   2.320  13.863 -0.6296 -0.2164 -1.0262
  473MPD2    C1 7036   0.326   2.397  13.889  0.6961  0.1136  0.5010
  473MPD2    C2 7037   0.325   2.460  14.013  0.2691  0.7921  0.4753
  473MPD2    C3 7038   0.427   2.446  14.107  0.0914 -0.1322 -0.2339
  473MPD2    C4 7039   0.532   2.352  14.078  0.8795  0.1461 -0.1973
  473MPD2    C5 7040   0.532   2.290  13.960  0.5052  0.1464 -0.0751
  473MPD2     H 7041   0.231   2.511  14.031 -0.0335  1.1835 -2.1137
  473MPD2    H1 7042   0.615   2.340  14.146 -0.4609 -0.0943  1.3969
  473MPD2    H2 7043   0.445   2.271  13.766 -0.5637 -1.3388 -0.4596
  473MPD2    H3 7044   0.610   2.223  13.926 -1.2766 -1.5514 -0.8269
  473MPD2     N 7045   0.426   2.496  14.233  0.4714  0.2670 -0.0218
  473MPD2    H5 7046   0.500   2.468  14.297 -1.4648 -0.1044  2.0564
  473MPD2    N1 7047   0.215   2.413  13.798  0.0801  0.1277  0.6972
  473MPD2    H7 7048   0.149   2.484  13.827  1.3268  1.9712 -0.9989
  474TMC3    C1 7049   0.367   2.629  14.416  0.2839  0.2744 -0.2433
  474TMC3    C2 7050   0.257   2.679  14.483  0.5193 -0.4276  0.5567
  474TMC3    C3 7051   0.273   2.724  14.610  0.5279  0.2376  0.9047
  474TMC3    C4 7052   0.493   2.626  14.475 -0.7237  1.2164 -0.0203
  474TMC3    C5 7053   0.503   2.675  14.599 -0.1716  0.3303 -0.6796
  474TMC3    C6 7054   0.394   2.722  14.672  0.1728  0.3444  0.2046
  474TMC3     C 7055   0.343   2.595  14.283 -0.5430 -0.2085 -0.1510
  474TMC3     O 7056   0.244   2.644  14.233  0.1058  0.2533 -0.0909
  474TMC3     H 7057   0.156   2.682  14.444  0.9427 -0.6722 -0.5416
  474TMC3    H1 7058   0.577   2.597  14.412  0.0923  1.1461  1.0913
  474TMC3    H2 7059   0.400   2.778  14.766 -2.3294  0.8987  0.0567
  474TMC3    C7 7060   0.643   2.703  14.638  0.0747  0.4009  0.5419
  474TMC3    C8 7061   0.174   2.807  14.672 -0.0097 -0.7030  0.7116
  474TMC3    O1 7062   0.734   2.688  14.560  0.8475 -0.4140 -0.6079
  474TMC3    O2 7063   0.143   2.761  14.776  0.2547 -0.8385  0.4509
  475MPD2     C 7064   3.524   0.682  10.540  0.1551  0.1892 -0.1020
  475MPD2    C1 7065   3.519   0.785  10.623  0.3597 -0.3634  0.0092
  475MPD2    C2 7066   3.396   0.821  10.672 -0.5865  0.3294  0.1583
  475MPD2    C3 7067   3.284   0.763  10.617 -0.2950  0.8006 -0.3359
  475MPD2    C4 7068   3.292   0.652  10.538  0.3914  0.7586 -0.4502
  475MPD2    C5 7069   3.415   0.608  10.502  0.3105 -0.4997 -0.0190
  475MPD2     H 7070   3.383   0.912  10.730  1.8969  0.2739  0.7856
  475MPD2    H1 7071   3.205   0.601  10.497  0.0840  0.9066  0.0199
  475MPD2    H2 7072   3.621   0.639  10.516 -1.4385 -2.2018 -2.3229
  475MPD2    H3 7073   3.428   0.520  10.440 -1.2561 -0.6479 -0.1483
  475MPD2     N 7074   3.161   0.832  10.638  0.4523  1.1828 -0.3038
  475MPD2    H5 7075   3.173   0.916  10.694 -0.2954 -0.5465  2.4405
  475MPD2    N1 7076   3.642   0.845  10.654 -0.0362  0.0340  0.1192
  475MPD2    H7 7077   3.717   0.822  10.590  1.2075 -1.3984  2.0635
  476TMC3    C1 7078   3.779   0.998  10.780 -0.0694  0.2522 -0.2301
  476TMC3    C2 7079   3.806   1.060  10.666  0.0503  0.1469  0.6378
  476TMC3    C3 7080   3.785   1.195  10.658 -0.0615 -0.9440 -0.3962
  476TMC3    C4 7081   3.765   1.074  10.894  0.1137 -0.0863 -0.4434
  476TMC3    C5 7082   3.762   1.210  10.885 -0.2034 -0.5833  0.4143
  476TMC3    C6 7083   3.763   1.273  10.772 -0.0767 -0.9227 -0.0215
  476TMC3     C 7084   3.655   0.921  10.766  0.7283  0.0862  0.4965
  476TMC3     O 7085   3.576   0.947  10.851 -0.0654 -0.6010 -0.0484
  476TMC3     H 7086   3.835   1.010  10.575 -0.5009 -0.5028  0.8177
  476TMC3    H1 7087   3.745   1.021  10.987 -2.0134  0.7047 -0.4351
  476TMC3    H2 7088   3.734   1.377  10.762 -2.6232 -1.6357  0.0266
  476TMC3    C7 7089   3.692   1.287  10.984  0.6446  0.1010  0.1835
  476TMC3    C8 7090   3.726   1.235  10.536 -0.3950 -0.0520 -0.3073
  476TMC3    O1 7091   3.731   1.405  10.993  0.1635 -0.0535 -0.0964
  476TMC3    O2 7092   3.725   1.358  10.523 -0.0896  0.9080  0.0311
  477MPD2     C 7093   1.259   2.173  11.917 -0.4348 -0.9673  0.6033
  477MPD2    C1 7094   1.132   2.177  11.966  0.0363 -0.1505  0.4288
  477MPD2    C2 7095   1.103   2.097  12.077  0.2475  0.5336  0.6112
  477MPD2    C3 7096   1.202   2.019  12.131 -0.3068  0.9203 -0.2095
  477MPD2    C4 7097   1.332   2.024  12.081  0.5328  0.3279 -0.6413
  477MPD2    C5 7098   1.361   2.102  11.978 -0.1464  0.3912  0.1974
  477MPD2     H 7099   1.003   2.080  12.116 -0.5984 -0.2723 -1.8936
  477MPD2    H1 7100   1.414   1.971  12.128 -2.0670 -1.5707  1.7645
  477MPD2    H2 7101   1.288   2.235  11.834 -2.3818 -0.0230  0.6329
  477MPD2    H3 7102   1.466   2.099  11.953 -0.6135 -1.2811 -1.6134
  477MPD2     N 7103   1.175   1.941  12.244 -0.0851 -0.1544  0.5506
  477MPD2    H5 7104   1.255   1.896  12.288 -0.3721 -2.9019 -1.7151
  477MPD2    N1 7105   1.039   2.259  11.902  0.3880 -0.1690  0.5242
  477MPD2    H7 7106   1.054   2.286  11.805 -1.3445  1.3638  0.6874
  478TMC3    C1 7107   0.835   2.377  11.870 -0.0978 -0.0778 -0.2797
  478TMC3    C2 7108   0.714   2.409  11.931 -0.0118 -0.7156  1.0161
  478TMC3    C3 7109   0.609   2.453  11.847 -0.0227 -0.1106  0.5266
  478TMC3    C4 7110   0.852   2.386  11.736  0.1396 -0.3712 -0.4302
  478TMC3    C5 7111   0.740   2.432  11.663  0.6870  0.4794 -0.4684
  478TMC3    C6 7112   0.619   2.472  11.713 -0.2935 -0.3535 -0.2811
  478TMC3     C 7113   0.924   2.300  11.956 -0.5868 -0.5071  0.1971
  478TMC3     O 7114   0.879   2.280  12.072  0.1465  0.3977  0.2109
  478TMC3     H 7115   0.698   2.387  12.036 -2.5539 -2.5305  0.2264
  478TMC3    H1 7116   0.947   2.376  11.685  0.6219 -2.0963  0.7880
  478TMC3    H2 7117   0.530   2.508  11.662 -0.1538  1.1575  0.5398
  478TMC3    C7 7118   0.753   2.427  11.515  0.0722 -0.6424 -0.0933
  478TMC3    C8 7119   0.480   2.443  11.898 -0.0359  0.1743  0.0531
  478TMC3    O1 7120   0.859   2.379  11.478 -0.1450 -0.5758 -0.6905
  478TMC3    O2 7121   0.457   2.345  11.966  0.3349 -0.0872 -0.0895
  479MPD2     C 7122   4.141   4.031  15.098 -0.4875 -0.4233 -0.0850
  479MPD2    C1 7123   4.133   3.934  15.198  0.2769 -0.0335 -0.0507
  479MPD2    C2 7124   4.197   3.953  15.316  0.2045  0.3906 -0.2175
  479MPD2    C3 7125   4.286   4.060  15.325 -0.0679 -0.0173  0.2256
  479MPD2    C4 7126   4.307   4.142  15.222 -0.0417  0.4728  0.9384
  479MPD2    C5 7127   4.232   4.132  15.109 -0.3246 -0.2304  0.6002
  479MPD2     H 7128   4.169   3.890  15.400 -0.0322  2.2082  1.0618
  479MPD2    H1 7129   4.381   4.221  15.222 -0.8445  1.2161  1.9860
  479MPD2    H2 7130   4.073   4.025  15.014  0.5356  0.0797 -0.9356
  479MPD2    H3 7131   4.239   4.203  15.028 -0.0195  0.0221  0.8453
  479MPD2     N 7132   4.355   4.087  15.447 -0.2100  0.3640 -0.3761
  479MPD2    H5 7133   4.436   4.147  15.438  0.7059 -0.8463 -0.2059
  479MPD2    N1 7134   4.044   3.816  15.174 -0.2493  0.0193 -0.1769
  479MPD2    H7 7135   3.964   3.835  15.115  0.2816 -0.4629 -1.0370
  480TMC3    C1 7136   4.409   4.179  15.901 -0.1930  0.1504  0.5355
  480TMC3    C2 7137   4.485   4.293  15.874  0.0056  1.4256  0.4630
  480TMC3    C3 7138   4.485   4.330  15.746 -0.5137  0.3082  0.1245
  480TMC3    C4 7139   4.350   4.103  15.802  0.2416 -0.0436  0.1583
  480TMC3    C5 7140   4.372   4.143  15.675  0.4725  0.1434 -0.7494
  480TMC3    C6 7141   4.435   4.256  15.642 -0.1233  1.3722  0.0750
  480TMC3     C 7142   4.391   4.126  16.033  0.0789 -0.2810 -0.0648
  480TMC3     O 7143   4.308   4.037  16.042 -0.0107 -0.0918  0.0380
  480TMC3     H 7144   4.533   4.348  15.954 -0.7511  1.4092  0.9361
  480TMC3    H1 7145   4.290   4.014  15.812  0.6209 -0.4685 -1.4115
  480TMC3    H2 7146   4.448   4.285  15.538 -1.7990 -1.5245 -0.9355
  480TMC3    C7 7147   4.295   4.070  15.570  0.3739  0.1842 -0.0217
  480TMC3    C8 7148   4.515   4.470  15.719 -0.5759  0.3484  0.6686
  480TMC3    O1 7149   4.192   4.018  15.599  0.0055  0.1997  0.0869
  480TMC3    O2 7150   4.604   4.517  15.786 -0.1075 -0.3405 -0.1830
  481MPD2     C 7151   1.500   3.834  14.163  0.3386 -0.2800 -0.3314
  481MPD2    C1 7152   1.369   3.827  14.164  0.1431 -0.4659 -0.3327
  481MPD2    C2 7153   1.307   3.852  14.288  0.4141 -0.1028 -0.2273
  481MPD2    C3 7154   1.373   3.870  14.404  0.1095  0.2410 -0.2056
  481MPD2    C4 7155   1.510   3.871  14.389  0.1984 -0.9389 -0.0897
  481MPD2    C5 7156   1.576   3.857  14.274 -0.9669  0.0007  0.0668
  481MPD2     H 7157   1.199   3.848  14.287  0.3381  1.0706  1.6728
  481MPD2    H1 7158   1.559   3.871  14.485 -0.3303 -1.4680  0.1817
  481MPD2    H2 7159   1.556   3.828  14.071  1.2885  0.2110  0.2173
  481MPD2    H3 7160   1.684   3.853  14.268 -0.9440 -0.6671  1.0485
  481MPD2     N 7161   1.315   3.869  14.528 -0.0823 -0.2212  0.6717
  481MPD2    H5 7162   1.375   3.888  14.607  0.6564  3.6854 -0.8447
  481MPD2    N1 7163   1.297   3.809  14.042  0.1309  0.4560  0.3975
  481MPD2    H7 7164   1.354   3.779  13.963 -0.4265  0.0581  0.1377
  482TMC3    C1 7165   1.127   3.759  13.886  0.1266  0.0837  0.5072
  482TMC3    C2 7166   1.034   3.663  13.905 -0.0521 -1.6122 -0.1091
  482TMC3    C3 7167   0.950   3.649  13.801  0.3150 -0.0849  0.2847
  482TMC3    C4 7168   1.143   3.841  13.771  0.4118 -0.6925  0.3959
  482TMC3    C5 7169   1.065   3.810  13.666  0.3098  0.2537 -0.4266
  482TMC3    C6 7170   0.960   3.719  13.683 -0.3989 -0.5267  0.2028
  482TMC3     C 7171   1.160   3.809  14.021  0.2468 -0.0339  0.2171
  482TMC3     O 7172   1.063   3.816  14.098  0.2177 -0.1239  0.3382
  482TMC3     H 7173   1.030   3.602  13.994 -0.5861  0.9243  1.6153
  482TMC3    H1 7174   1.217   3.920  13.771 -2.1435  1.6936 -0.2711
  482TMC3    H2 7175   0.898   3.689  13.599 -0.1293 -0.9092  0.1404
  482TMC3    C7 7176   1.122   3.811  13.532  0.7228 -0.5407  0.7456
  482TMC3    C8 7177   0.860   3.531  13.822 -0.1499 -0.5783  0.7196
  482TMC3    O1 7178   1.244   3.818  13.540  0.0885  0.5101  0.5515
  482TMC3    O2 7179   0.898   3.448  13.905 -0.1703  0.4743  0.0002
  483TMC3    C1 7180   3.613   2.300   0.397  0.5089  0.3433 -0.2831
  483TMC3    C2 7181   3.595   2.431   0.365  0.4321  0.1032  0.4558
  483TMC3    C3 7182   3.562   2.518   0.466  0.3703  0.8054  0.2605
  483TMC3    C4 7183   3.612   2.249   0.523  0.2810  1.0283  0.0271
  483TMC3    C5 7184   3.579   2.337   0.625  0.1411  0.6457 -0.6124
  483TMC3    C6 7185   3.560   2.475   0.596 -0.1432 -0.0417 -0.1268
  483TMC3     C 7186   3.629   2.220   0.280  0.3653 -0.0764  0.4514
  483TMC3     O 7187   3.610   2.277   0.175 -0.3774  0.2489 -0.9015
  483TMC3     H 7188   3.582   2.471   0.265  2.2706  1.8214  0.9131
  483TMC3    H1 7189   3.643   2.146   0.542 -0.9136  0.7478  0.4513
  483TMC3    H2 7190   3.550   2.548   0.676 -2.4785 -1.2553  0.6842
  483TMC3    C7 7191   3.572   2.300   0.764  0.2958 -0.4134 -0.3525
  483TMC3    C8 7192   3.563   2.658   0.435 -0.7211 -0.3605  0.3858
  483TMC3    O1 7193   3.527   2.393   0.836 -0.3197  0.0964 -0.1880
  483TMC3    O2 7194   3.613   2.685   0.325 -0.1292 -0.3225 -0.3973
  484MPD2     C 7195   2.257   0.738  13.157  0.3126  0.1135 -0.2521
  484MPD2    C1 7196   2.258   0.670  13.039  0.1909 -0.2080  0.3157
  484MPD2    C2 7197   2.364   0.684  12.952  1.0210 -0.0796  0.3229
  484MPD2    C3 7198   2.466   0.773  12.990 -0.2862  0.9978  0.2438
  484MPD2    C4 7199   2.466   0.840  13.109 -0.8438  0.0096 -0.4641
  484MPD2    C5 7200   2.359   0.820  13.198 -0.0634 -0.0171  0.2420
  484MPD2     H 7201   2.367   0.620  12.865  2.0466 -0.4854  0.6652
  484MPD2    H1 7202   2.547   0.911  13.120 -0.5482 -0.4567  0.4074
  484MPD2    H2 7203   2.165   0.741  13.213 -1.0269  1.4700 -2.5186
  484MPD2    H3 7204   2.358   0.873  13.292  2.8621 -0.2303  0.3791
  484MPD2     N 7205   2.579   0.796  12.904  0.6613  0.5561  0.3046
  484MPD2    H5 7206   2.660   0.848  12.936  3.2014 -3.0757 -0.2239
  484MPD2    N1 7207   2.145   0.592  13.025  0.4593  1.2352 -0.0900
  484MPD2    H7 7208   2.071   0.601  13.094  0.5240  2.7808 -0.2183
  485TMC3    C1 7209   2.720   0.757  12.728 -0.3344 -0.3724  0.2982
  485TMC3    C2 7210   2.825   0.719  12.811 -0.1249 -1.3464 -0.5044
  485TMC3    C3 7211   2.946   0.695  12.750  0.0494 -0.7062  0.2190
  485TMC3    C4 7212   2.731   0.781  12.596  0.2624 -0.0029 -0.8257
  485TMC3    C5 7213   2.853   0.754  12.538 -0.0579 -0.1540  0.0611
  485TMC3    C6 7214   2.965   0.724  12.613 -0.5366  0.3593  0.1922
  485TMC3     C 7215   2.588   0.756  12.777  0.0136 -0.1325  0.6315
  485TMC3     O 7216   2.496   0.739  12.697  0.3143  0.0194  0.4888
  485TMC3     H 7217   2.806   0.698  12.916  1.4929 -0.6204 -0.0591
  485TMC3    H1 7218   2.648   0.773  12.527  0.1283  1.4628 -0.8258
  485TMC3    H2 7219   3.060   0.703  12.566 -1.2344  1.4517 -1.7214
  485TMC3    C7 7220   2.848   0.695  12.400  0.4483 -0.0025  0.3015
  485TMC3    C8 7221   2.997   0.561  12.756  1.4303  0.3635 -0.3221
  485TMC3    O1 7222   2.757   0.727  12.323  0.4509 -0.0500  0.2028
  485TMC3    O2 7223   3.033   0.505  12.655  0.4736 -0.6250 -1.3030
  486MPD2     C 7224   4.138   4.238  13.432  0.4788 -0.0951 -0.2128
  486MPD2    C1 7225   4.139   4.231  13.290 -0.7374 -0.9545 -0.9594
  486MPD2    C2 7226   4.062   4.335  13.226 -0.7775  0.0286  0.6379
  486MPD2    C3 7227   3.985   4.427  13.298  0.1922 -0.4960  0.3870
  486MPD2    C4 7228   3.980   4.423  13.434 -0.9740  0.0789 -0.4815
  486MPD2    C5 7229   4.057   4.330  13.502 -0.0600  0.3125  0.3489
  486MPD2     H 7230   4.075   4.353  13.119  1.8017 -0.5516  0.8663
  486MPD2    H1 7231   3.933   4.498  13.497  1.9365 -0.7267  2.7102
  486MPD2    H2 7232   4.197   4.169  13.492  0.4459  0.0416 -0.0250
  486MPD2    H3 7233   4.051   4.326  13.611  0.1045 -0.0544  0.3442
  486MPD2     N 7234   3.913   4.525  13.224 -0.1667  0.2109 -0.1502
  486MPD2    H5 7235   3.929   4.520  13.124  0.5220 -0.3719 -0.0050
  486MPD2    N1 7236   4.202   4.121  13.224  0.4730  0.0814  0.0515
  486MPD2    H7 7237   4.235   4.049  13.287  0.2255  0.0231  0.1161
  487TMC3    C1 7238   4.217   3.948  13.073  0.3372  0.3631  0.3801
  487TMC3    C2 7239   4.101   3.869  13.051  0.4323 -0.3783  0.0905
  487TMC3    C3 7240   4.114   3.737  13.086  0.1662 -0.5558 -0.3372
  487TMC3    C4 7241   4.335   3.904  13.126  0.3241 -0.6482  0.4225
  487TMC3    C5 7242   4.342   3.768  13.165  0.0735 -0.2124  0.0005
  487TMC3    C6 7243   4.228   3.688  13.152  0.7603  0.2845  0.1293
  487TMC3     C 7244   4.186   4.090  13.095 -0.3275  0.3009 -0.2705
  487TMC3     O 7245   4.121   4.150  13.006  0.2707  0.6407 -0.1005
  487TMC3     H 7246   4.011   3.924  13.024  1.2165  1.1256  0.5563
  487TMC3    H1 7247   4.414   3.974  13.152 -1.3659  0.9325  1.3214
  487TMC3    H2 7248   4.235   3.582  13.172  1.8764  0.3196 -0.0970
  487TMC3    C7 7249   4.437   3.721  13.264 -0.5325  0.0731 -0.3894
  487TMC3    C8 7250   3.988   3.667  13.131  0.3390  0.2361 -0.4688
  487TMC3    O1 7251   4.494   3.810  13.326  0.4037  0.4238  0.1693
  487TMC3    O2 7252   3.999   3.569  13.202  0.2443  0.0574 -0.6941
  488MPD2     C 7253   4.262   1.504  16.990 -0.0030 -0.1430 -0.4512
  488MPD2    C1 7254   4.248   1.637  16.971  1.4971 -0.3292 -0.6192
  488MPD2    C2 7255   4.205   1.721  17.067 -0.4477 -0.2865  0.2374
  488MPD2    C3 7256   4.172   1.672  17.194 -0.6367  0.4257  0.1054
  488MPD2    C4 7257   4.182   1.541  17.213 -0.5191  0.2220 -0.3553
  488MPD2    C5 7258   4.227   1.462  17.114 -0.0472 -0.1317 -0.3617
  488MPD2     H 7259   4.199   1.828  17.050  0.5654 -0.4380 -1.1150
  488MPD2    H1 7260   4.156   1.497  17.309 -0.6544  2.7802  0.7880
  488MPD2    H2 7261   4.289   1.426  16.920  0.2689 -0.7279  0.3069
  488MPD2    H3 7262   4.244   1.356  17.128 -1.0374 -0.4447 -1.5531
  488MPD2     N 7263   4.113   1.763  17.287 -0.4672 -0.2980 -0.5214
  488MPD2    H5 7264   4.104   1.860  17.257 -1.2170 -0.9340 -2.3663
  488MPD2    N1 7265   4.261   1.690  16.843 -0.1909 -0.3199  0.1308
  488MPD2    H7 7266   4.246   1.790  16.834 -1.4519 -0.3301  2.2167
  489TMC3    C1 7267   4.002   1.849  17.470 -0.3835  0.2425  0.4506
  489TMC3    C2 7268   3.953   1.942  17.390 -1.0346  0.4720  0.0598
  489TMC3    C3 7269   3.925   2.063  17.444  0.1310 -0.3031  0.2249
  489TMC3    C4 7270   4.028   1.871  17.602  0.0227 -0.5040 -0.3973
  489TMC3    C5 7271   4.003   1.996  17.653 -0.6667  0.2237  0.0476
  489TMC3    C6 7272   3.949   2.094  17.572  0.9079  0.3393  0.5764
  489TMC3     C 7273   4.070   1.738  17.412 -0.1044 -0.2340 -0.4105
  489TMC3     O 7274   4.079   1.636  17.477 -0.2291 -0.0029 -0.0001
  489TMC3     H 7275   3.952   1.929  17.283  1.7944 -0.5529  0.1567
  489TMC3    H1 7276   4.076   1.794  17.660 -0.0608 -0.1008  0.2037
  489TMC3    H2 7277   3.923   2.194  17.603 -0.8111  1.0054 -3.0416
  489TMC3    C7 7278   4.026   2.021   0.100 -0.0095  0.3762 -0.1890
  489TMC3    C8 7279   3.936   2.168  17.347 -0.2641 -0.1654  0.1703
  489TMC3    O1 7280   4.069   1.933   0.173  0.1980  0.2574  0.0329
  489TMC3    O2 7281   4.009   2.144  17.252  0.2275  0.1913  0.5727
  490MPD2     C 7282   0.216   1.141  17.453  0.0805  0.3318  0.4193
  490MPD2    C1 7283   0.303   1.040  17.469 -0.1589  0.4010  0.0602
  490MPD2    C2 7284   0.430   1.077  17.459 -0.1753 -0.1630 -0.0037
  490MPD2    C3 7285   0.476   1.200  17.427  0.7788 -0.5512  0.2893
  490MPD2    C4 7286   0.386   1.300  17.411 -0.6187  0.1037  1.2840
  490MPD2    C5 7287   0.254   1.269  17.422 -0.4660  0.1923  0.4885
  490MPD2     H 7288   0.508   1.003  17.473  0.8152  0.3490 -2.8622
  490MPD2    H1 7289   0.415   1.401  17.384 -0.7702  0.1689  1.3673
  490MPD2    H2 7290   0.110   1.127  17.466  0.0530 -1.3019 -1.5796
  490MPD2    H3 7291   0.190   1.351  17.393 -1.5538 -0.6782  0.4095
  490MPD2     N 7292   0.612   1.228  17.399  0.2256 -0.3226 -0.2012
  490MPD2    H5 7293   0.638   1.325  17.384  1.5196 -0.6374 -0.0437
  490MPD2    N1 7294   0.270   0.906  17.490  0.9094  0.0027  0.4259
  490MPD2    H7 7295   0.338   0.845  17.532  1.9990 -0.7442 -2.4042
  491TMC3    C1 7296   0.148   0.706  17.454 -0.1595 -1.2096 -0.2235
  491TMC3    C2 7297   0.226   0.641  17.541  0.3968  0.1984  0.1959
  491TMC3    C3 7298   0.235   0.508  17.537  0.0116 -0.4462 -0.8586
  491TMC3    C4 7299   0.072   0.635  17.370  0.3691  0.3638  0.5660
  491TMC3    C5 7300   0.087   0.504  17.360  0.2004  0.7116  0.5046
  491TMC3    C6 7301   0.175   0.436  17.438 -0.4971  0.1441  1.0460
  491TMC3     C 7302   0.157   0.852  17.443 -0.3412  0.8383 -0.3264
  491TMC3     O 7303   0.065   0.902  17.388 -0.1484 -0.1273 -0.1837
  491TMC3     H 7304   0.282   0.692  17.618 -0.6828  2.1948 -0.3568
  491TMC3    H1 7305   0.007   0.685  17.299  0.3096  0.9685  1.0434
  491TMC3    H2 7306   0.180   0.329  17.424  0.7911  0.3410  0.0143
  491TMC3    C7 7307   4.702   0.432  17.300  0.5512 -0.2453 -0.0039
  491TMC3    C8 7308   0.340   0.445  17.621 -0.3852 -0.1189 -0.0280
  491TMC3    O1 7309   4.636   0.498  17.223  0.4359 -0.3497 -0.0567
  491TMC3    O2 7310   0.437   0.512  17.657  0.0683 -0.1813 -0.7193
  492MPD2     C 7311   0.717   0.633  11.162 -0.5983  0.5690  0.1045
  492MPD2    C1 7312   0.595   0.643  11.110  0.6771 -0.4789 -0.4544
  492MPD2    C2 7313   0.494   0.563  11.160 -0.0857  0.3181 -0.2152
  492MPD2    C3 7314   0.521   0.483  11.271  0.7257  0.1089  0.4733
  492MPD2    C4 7315   0.643   0.489  11.324  0.0658  0.5238  0.1391
  492MPD2    C5 7316   0.744   0.552  11.264 -0.7141  0.3561 -0.7070
  492MPD2     H 7317   0.395   0.569  11.118  0.7295  0.9455 -2.0682
  492MPD2    H1 7318   0.667   0.428  11.411  0.0517  0.1902 -0.0926
  492MPD2    H2 7319   0.798   0.694  11.123  0.0665  0.9343  2.0414
  492MPD2    H3 7320   0.842   0.554  11.311 -0.3431  1.5455 -1.5344
  492MPD2     N 7321   0.429   0.403  11.342  0.2272 -0.1415 -0.2962
  492MPD2    H5 7322   0.465   0.347  11.418 -2.0460 -0.7980  0.2697
  492MPD2    N1 7323   0.568   0.731  11.005  0.2032 -0.2141 -0.3162
  492MPD2    H7 7324   0.479   0.721  10.957  0.1540 -1.0247 -0.0541
  493TMC3    C1 7325   0.595   0.907  10.847 -0.7306  0.6752 -0.2317
  493TMC3    C2 7326   0.633   1.037  10.831 -0.1923  0.0086  0.1587
  493TMC3    C3 7327   0.610   1.103  10.718 -0.9620  0.6378 -0.0226
  493TMC3    C4 7328   0.532   0.843  10.740  0.1048 -0.5789  0.2121
  493TMC3    C5 7329   0.528   0.907  10.622 -0.5748  0.0376 -0.4856
  493TMC3    C6 7330   0.555   1.045  10.609  0.0085 -0.3811  0.6888
  493TMC3     C 7331   0.647   0.834  10.961 -0.8454 -0.3485 -0.5893
  493TMC3     O 7332   0.751   0.876  11.008  0.2408 -0.5919 -0.0082
  493TMC3     H 7333   0.671   1.095  10.915 -0.9521  1.5862 -0.5861
  493TMC3    H1 7334   0.519   0.736  10.750 -1.7029 -0.4668 -0.9258
  493TMC3    H2 7335   0.523   1.107  10.526  2.4229  1.7611  1.3880
  493TMC3    C7 7336   0.436   0.846  10.527 -0.7796 -0.2701 -0.1969
  493TMC3    C8 7337   0.672   1.238  10.714 -0.0612 -0.1306  0.3326
  493TMC3    O1 7338   0.377   0.743  10.557 -0.5524 -0.1278 -0.3796
  493TMC3    O2 7339   0.696   1.293  10.820 -0.2030  0.0841 -0.1109
  494TMC3    C1 7340   0.419   2.754   0.623  0.8531  0.1294  0.4415
  494TMC3    C2 7341   0.410   2.613   0.635 -0.8642 -0.0073 -0.0866
  494TMC3    C3 7342   0.526   2.549   0.668 -0.4838 -0.0380 -0.4559
  494TMC3    C4 7343   0.534   2.819   0.630 -0.1299  0.3622 -0.3950
  494TMC3    C5 7344   0.648   2.757   0.664  0.1895 -0.0716  0.1457
  494TMC3    C6 7345   0.640   2.620   0.689 -0.2276  0.3863 -0.7061
  494TMC3     C 7346   0.308   2.824   0.683 -0.0159  0.1363 -0.2340
  494TMC3     O 7347   0.347   2.889   0.780 -0.1200 -0.0335 -0.6159
  494TMC3     H 7348   0.309   2.577   0.644 -0.9026  0.1114 -0.0408
  494TMC3    H1 7349   0.515   2.924   0.613 -1.1023 -0.1141 -2.2653
  494TMC3    H2 7350   0.725   2.564   0.724  0.9174  1.2167 -2.1657
  494TMC3    C7 7351   0.760   2.801   0.585  0.4505 -0.8037  0.4770
  494TMC3    C8 7352   0.513   2.414   0.717 -0.0338 -0.5315  0.7132
  494TMC3    O1 7353   0.847   2.717   0.565 -0.1929 -0.1904  0.4324
  494TMC3    O2 7354   0.606   2.369   0.779  0.0835  0.2604  0.5935
  495TMC3    C1 7355   4.325   4.598  14.845  0.0209 -0.5114  0.0840
  495TMC3    C2 7356   4.264   4.687  14.760 -0.0380  0.7763  0.9383
  495TMC3    C3 7357   4.300   0.100  14.780  0.3454 -0.1823  0.0120
  495TMC3    C4 7358   4.404   4.648  14.952  0.2090 -0.0824  0.6133
  495TMC3    C5 7359   4.407   0.065  14.970  0.4426 -0.1625 -0.4528
  495TMC3    C6 7360   4.376   0.152  14.871  0.0109  1.0939  0.2861
  495TMC3     C 7361   4.321   4.450  14.818 -0.5060  0.0313 -0.5819
  495TMC3     O 7362   4.232   4.413  14.741  0.1478 -0.5943  0.1146
  495TMC3     H 7363   4.210   4.652  14.673  1.8546  0.0396  0.0639
  495TMC3    H1 7364   4.440   4.578  15.027 -1.8984  1.2053  2.8256
  495TMC3    H2 7365   4.396   0.258  14.880 -0.1637  1.0811  0.8622
  495TMC3    C7 7366   4.454   0.121  15.099  0.3021  1.4206 -0.5896
  495TMC3    C8 7367   4.221   0.193  14.702  0.2510 -0.7444 -0.1763
  495TMC3    O1 7368   4.506   0.235  15.102  0.5953  0.3402  0.5535
  495TMC3    O2 7369   4.270   0.304  14.682 -0.3371 -0.3121 -0.1008
  496MPD2     C 7370   2.053   4.197  15.579  0.1383  0.0489  0.0418
  496MPD2    C1 7371   1.957   4.105  15.585  0.2855  0.3308 -0.0554
  496MPD2    C2 7372   1.854   4.121  15.686  0.5783  0.0008 -0.5133
  496MPD2    C3 7373   1.860   4.226  15.773  0.1673  0.7317  0.1681
  496MPD2    C4 7374   1.952   4.326  15.751  0.7293  0.4682 -0.3939
  496MPD2    C5 7375   2.049   4.311  15.657 -0.0295 -0.0253 -0.0067
  496MPD2     H 7376   1.776   4.046  15.693  0.2154  0.2864 -1.5715
  496MPD2    H1 7377   1.962   4.412  15.816 -0.0957 -1.3905  2.1695
  496MPD2    H2 7378   2.135   4.193  15.507  0.1211 -0.2749  0.0405
  496MPD2    H3 7379   2.124   4.388  15.642 -0.1586  0.0029 -0.5097
  496MPD2     N 7380   1.766   4.233  15.878  0.3719 -0.8268  0.0850
  496MPD2    H5 7381   1.687   4.169  15.875  2.3563 -3.1688 -2.0115
  496MPD2    N1 7382   1.971   3.989  15.510  1.0494 -0.7300  0.3096
  496MPD2    H7 7383   2.053   3.980  15.451  2.0455 -0.4190  1.6356
  497TMC3    C1 7384   1.666   4.275  16.091  0.1427 -0.4851  0.3231
  497TMC3    C2 7385   1.551   4.237  16.037 -0.3535  1.0636  0.0219
  497TMC3    C3 7386   1.450   4.200  16.125  0.4762 -0.4572  0.6070
  497TMC3    C4 7387   1.690   4.298  16.221  0.1616 -0.2903 -0.3471
  497TMC3    C5 7388   1.583   4.271  16.305  0.1992  0.9651  0.7997
  497TMC3    C6 7389   1.463   4.220  16.263 -0.1602  0.1283 -0.1682
  497TMC3     C 7390   1.781   4.295  16.000  0.0965 -0.0683  1.1711
  497TMC3     O 7391   1.879   4.351  16.052  0.1539 -0.0711  0.3631
  497TMC3     H 7392   1.537   4.211  15.933 -4.4985 -1.3736  1.1887
  497TMC3    H1 7393   1.792   4.315  16.253  0.5743 -1.6108 -0.9566
  497TMC3    H2 7394   1.391   4.189  16.337  0.5027 -0.9189  0.0493
  497TMC3    C7 7395   1.598   4.283  16.456 -1.0170  0.0959 -0.1344
  497TMC3    C8 7396   1.324   4.160  16.077 -0.0322  0.7473 -0.4636
  497TMC3    O1 7397   1.507   4.237  16.524 -0.1991 -0.4632 -0.4482
  497TMC3    O2 7398   1.244   4.106  16.150  0.2172 -0.1784 -0.0068
  498MPD2     C 7399   3.134   0.727   9.808 -0.7964 -0.0820 -0.3190
  498MPD2    C1 7400   3.089   0.820   9.899  0.0758 -0.1397 -0.1626
  498MPD2    C2 7401   2.954   0.837   9.922  0.1289  0.4274  0.5516
  498MPD2    C3 7402   2.867   0.750   9.862  0.0167 -0.1776  0.3807
  498MPD2    C4 7403   2.919   0.643   9.789  0.1675  0.1778  0.5701
  498MPD2    C5 7404   3.049   0.643   9.754  0.4749 -0.1760 -0.0563
  498MPD2     H 7405   2.920   0.907   9.998 -1.8533  2.4347 -2.1827
  498MPD2    H1 7406   2.863   0.555   9.760  0.7455 -0.0616  0.1813
  498MPD2    H2 7407   3.241   0.707   9.798 -0.8868 -1.2364  1.0948
  498MPD2    H3 7408   3.094   0.558   9.705  0.0837  0.6433 -1.8532
  498MPD2     N 7409   2.732   0.758   9.899  0.4052 -0.5419  0.3297
  498MPD2    H5 7410   2.701   0.828   9.966 -0.5365 -0.1302 -0.5321
  498MPD2    N1 7411   3.176   0.915   9.953 -0.7337 -0.7563 -0.4166
  498MPD2    H7 7412   3.130   0.995   9.995 -1.0301 -0.8166 -0.6310
  499TMC3    C1 7413   3.376   1.052   9.971 -0.2024 -0.4317 -0.0804
  499TMC3    C2 7414   3.509   1.063   9.996 -0.2045  0.3027  0.0041
  499TMC3    C3 7415   3.552   1.191  10.014  0.0955  0.1548  0.0937
  499TMC3    C4 7416   3.291   1.160   9.943  0.6938  0.0861  0.7568
  499TMC3    C5 7417   3.347   1.281   9.961 -0.6405  0.1109 -0.4290
  499TMC3    C6 7418   3.476   1.304   9.994 -1.3241 -0.4287  0.2064
  499TMC3     C 7419   3.317   0.921   9.941 -0.0056  0.0393  0.4180
  499TMC3     O 7420   3.398   0.832   9.914  0.3942  0.0311  0.6019
  499TMC3     H 7421   3.569   0.978  10.028  1.2997  2.1074  1.9593
  499TMC3    H1 7422   3.188   1.141   9.914  0.4123  1.0119  1.1295
  499TMC3    H2 7423   3.507   1.408  10.005 -3.5439  0.1449  1.0427
  499TMC3    C7 7424   3.267   1.402   9.954 -0.7437 -0.3011 -0.0212
  499TMC3    C8 7425   3.696   1.213  10.054  0.6464 -0.2496  0.0395
  499TMC3    O1 7426   3.321   1.507   9.914 -0.4199  0.0164  0.0601
  499TMC3    O2 7427   3.773   1.127  10.013  0.7209  0.7949  0.8335
  500MPD2     C 7428   4.172   2.102  10.820 -0.6190  0.6590  0.2108
  500MPD2    C1 7429   4.205   2.123  10.685  0.4816 -0.2427 -0.3884
  500MPD2    C2 7430   4.111   2.153  10.591  0.3020  0.5901  0.1574
  500MPD2    C3 7431   3.977   2.176  10.634 -0.3429  0.7045 -0.2578
  500MPD2    C4 7432   3.942   2.158  10.769 -0.5148  0.0188  0.1781
  500MPD2    C5 7433   4.039   2.114  10.856  0.6242 -0.6428 -0.4699
  500MPD2     H 7434   4.143   2.167  10.489  0.9948  1.4439  0.4919
  500MPD2    H1 7435   3.840   2.168  10.806 -0.1460 -0.7233  1.3725
  500MPD2    H2 7436   4.250   2.075  10.890 -0.4691 -0.1468 -0.2657
  500MPD2    H3 7437   4.006   2.096  10.958  2.4676 -0.7666  0.1008
  500MPD2     N 7438   3.876   2.208  10.540  0.4993  0.0808 -0.2697
  500MPD2    H5 7439   3.781   2.192  10.572  1.0381 -3.6127 -0.5122
  500MPD2    N1 7440   4.333   2.091  10.633 -0.1196 -0.2061  0.1782
  500MPD2    H7 7441   4.347   2.120  10.536  0.4112 -0.2894  0.2305
  501TMC3    C1 7442   4.559   2.033  10.609 -0.2319  0.2944 -0.1534
  501TMC3    C2 7443   4.578   2.145  10.530 -0.3688 -0.3239 -0.2446
  501TMC3    C3 7444   4.708   2.172  10.501 -0.0420  0.4897  0.2527
  501TMC3    C4 7445   4.658   1.953  10.654 -0.1376 -0.0098 -0.2662
  501TMC3    C5 7446   0.065   1.985  10.616  0.2385 -0.3711 -0.6531
  501TMC3    C6 7447   0.086   2.091  10.535  0.1445  0.4991 -0.2642
  501TMC3     C 7448   4.437   2.036  10.697 -0.0966 -0.3132 -0.7501
  501TMC3     O 7449   4.435   1.963  10.798  0.0288 -0.3748  0.7214
  501TMC3     H 7450   4.502   2.221  10.518 -1.3292 -1.1516  0.5309
  501TMC3    H1 7451   4.640   1.877  10.729  1.0218  2.3987  2.4650
  501TMC3    H2 7452   0.184   2.121  10.502  0.3890 -1.4047 -1.2848
  501TMC3    C7 7453   0.158   1.965  10.713  0.4549 -0.2663 -0.0908
  501TMC3    C8 7454   0.029   2.311  10.511  0.2409  0.3504  1.0615
  501TMC3    O1 7455   0.141   1.865  10.782  0.2017 -0.4938  0.0270
  501TMC3    O2 7456   0.131   2.331  10.578  0.2940 -0.1374 -0.3696
  502TMC3    C1 7457   3.337   0.052  15.327  0.6162 -0.1362  0.6938
  502TMC3    C2 7458   3.244   0.117  15.251  0.4328 -0.0040 -0.4045
  502TMC3    C3 7459   3.133   0.174  15.311 -0.3027  0.4448 -0.4143
  502TMC3    C4 7460   3.302   0.014  15.453  0.2047  0.5671 -0.5330
  502TMC3    C5 7461   3.183   0.046  15.508  0.4192  0.6123 -0.5778
  502TMC3    C6 7462   3.093   0.121  15.434 -0.2691 -1.0976  0.5364
  502TMC3     C 7463   3.459   0.131  15.319  0.7436  0.2483 -0.0349
  502TMC3     O 7464   3.514   0.135  15.209 -0.6186 -0.2556  0.2958
  502TMC3     H 7465   3.275   0.158  15.155  1.9190  0.5379  0.3067
  502TMC3    H1 7466   3.373   4.680  15.513 -0.1314  0.7131  0.0011
  502TMC3    H2 7467   2.994   0.137  15.474 -0.4996 -0.7220 -0.1732
  502TMC3    C7 7468   3.208   0.086  15.647 -0.5331 -0.2869 -0.3218
  502TMC3    C8 7469   3.161   0.324  15.319  0.7262 -0.5890 -0.0235
  502TMC3    O1 7470   3.318   0.072  15.697  0.4851 -0.2109  0.1382
  502TMC3    O2 7471   3.245   0.361  15.240 -0.0174  0.3415 -0.1167
  503MPD2     C 7472   1.276   1.310  17.243  0.3802  0.0976 -0.0170
  503MPD2    C1 7473   1.341   1.369  17.347  0.0833 -0.2451 -0.0752
  503MPD2    C2 7474   1.449   1.311  17.406 -0.6492  0.4495  0.2999
  503MPD2    C3 7475   1.491   1.189  17.364  0.1275  0.6010 -0.4983
  503MPD2    C4 7476   1.424   1.121  17.264 -0.5938 -1.1380  0.4149
  503MPD2    C5 7477   1.312   1.185  17.201 -0.4332  0.3094  0.9575
  503MPD2     H 7478   1.502   1.359  17.487  0.5398 -1.8896  0.8931
  503MPD2    H1 7479   1.459   1.021  17.240 -0.6447 -0.8726 -0.7716
  503MPD2    H2 7480   1.193   1.350  17.186 -0.6199 -2.0966 -0.1063
  503MPD2    H3 7481   1.249   1.130  17.132 -1.6444 -0.1074  2.3862
  503MPD2     N 7482   1.596   1.136  17.441  0.8545  0.0436  0.3306
  503MPD2    H5 7483   1.644   1.191  17.511  0.0326  0.1583  0.8006
  503MPD2    N1 7484   1.308   1.493  17.394  0.2815  0.2882 -0.0967
  503MPD2    H7 7485   1.360   1.517  17.478  0.4444  2.0697 -0.7209
  504TMC3    C1 7486   1.766   0.986  17.498 -0.9693 -0.0393  0.0583
  504TMC3    C2 7487   1.733   0.995  17.631  0.1285 -0.1793  0.5242
  504TMC3    C3 7488   1.812   0.924   0.020  0.1762 -0.7977 -0.5148
  504TMC3    C4 7489   1.867   0.911  17.452  0.6806  0.7829  0.1982
  504TMC3    C5 7490   1.944   0.841  17.540 -0.0335 -0.1521 -0.0469
  504TMC3    C6 7491   1.914   0.845  17.673 -0.1629  0.3056 -0.3264
  504TMC3     C 7492   1.665   1.020  17.407  0.2819  0.6996  0.3087
  504TMC3     O 7493   1.675   0.963  17.300  0.2915 -0.0330  0.4046
  504TMC3     H 7494   1.664   1.065  17.676  0.1440 -1.8523  3.1094
  504TMC3    H1 7495   1.894   0.915  17.347 -0.5538  0.1680 -0.1376
  504TMC3    H2 7496   1.983   0.798   0.050 -0.4904  1.8472  1.0175
  504TMC3    C7 7497   2.056   0.778  17.484 -0.0200  0.9054 -0.0927
  504TMC3    C8 7498   1.802   0.947   0.166  0.8542  0.4199 -0.4472
  504TMC3    O1 7499   2.101   0.827  17.380 -0.5988  0.0472  0.1600
  504TMC3    O2 7500   1.748   1.052   0.199 -0.4434  0.3971 -0.3848
  505MPD2     C 7501   1.428   0.489  10.429  0.1858  0.5999 -0.6293
  505MPD2    C1 7502   1.473   0.362  10.439 -0.2235  0.1210  0.2800
  505MPD2    C2 7503   1.565   0.320  10.531  0.4077  0.2669  0.1535
  505MPD2    C3 7504   1.611   0.414  10.621  0.0650 -0.6197 -0.4058
  505MPD2    C4 7505   1.572   0.548  10.604  0.4292 -0.1401 -0.1415
  505MPD2    C5 7506   1.482   0.586  10.506 -0.0919 -0.7543  0.6246
  505MPD2     H 7507   1.588   0.215  10.545  0.9891 -0.0071 -2.9219
  505MPD2    H1 7508   1.603   0.622  10.677 -0.2564  0.2913 -0.2901
  505MPD2    H2 7509   1.370   0.516  10.342 -0.1336 -0.0548 -0.6157
  505MPD2    H3 7510   1.443   0.684  10.479 -0.9898 -1.0421  0.8957
  505MPD2     N 7511   1.703   0.383  10.721 -0.5911  0.5692  0.4761
  505MPD2    H5 7512   1.754   0.455  10.773 -0.3169 -0.0859  1.1184
  505MPD2    N1 7513   1.431   0.277  10.335 -0.1022  0.6548  0.2535
  505MPD2    H7 7514   1.360   0.311  10.270 -0.5296 -0.9531 -0.1062
  506TMC3    C1 7515   1.468   0.109  10.177  0.3732  0.6244  0.8684
  506TMC3    C2 7516   1.526   0.174  10.071 -0.6103  0.1936 -0.1559
  506TMC3    C3 7517   1.552   0.101   9.958 -0.2338  0.0639  1.1564
  506TMC3    C4 7518   1.450   4.694  10.183  0.0336 -0.0432 -0.6269
  506TMC3    C5 7519   1.516   4.624  10.081 -0.3673 -0.1628  0.0413
  506TMC3    C6 7520   1.548   4.685   9.963 -0.1341  0.6158 -0.1056
  506TMC3     C 7521   1.488   0.158  10.308 -0.6620 -0.4353 -0.3629
  506TMC3     O 7522   1.542   0.082  10.387  0.1112  0.0478 -0.6069
  506TMC3     H 7523   1.533   0.282  10.070 -1.8324  0.2771  0.9275
  506TMC3    H1 7524   1.405   4.653  10.273 -2.5739  2.3397 -0.8449
  506TMC3    H2 7525   1.595   4.620   9.889 -0.8413  1.0678 -0.9571
  506TMC3    C7 7526   1.623   4.537  10.129  0.1580  0.4396  0.2429
  506TMC3    C8 7527   1.618   0.161   9.844 -0.0860 -0.5606 -0.2448
  506TMC3    O1 7528   1.692   4.478  10.050 -0.3658 -0.2906 -0.0818
  506TMC3    O2 7529   1.605   0.096   9.738 -0.1015  0.1755  0.5325
  507TMC3    C1 7530   2.208   0.557  15.272  0.6904  0.2341  0.2607
  507TMC3    C2 7531   2.188   0.536  15.139  0.0265 -0.4294  0.1569
  507TMC3    C3 7532   2.290   0.563  15.054 -0.1754 -0.5504 -0.1942
  507TMC3    C4 7533   2.329   0.618  15.315  0.1604 -0.2227  0.0377
  507TMC3    C5 7534   2.420   0.657  15.223 -0.0108  0.1595  0.2309
  507TMC3    C6 7535   2.403   0.621  15.096  0.1248  0.1143  0.2084
  507TMC3     C 7536   2.081   0.587  15.341  0.4028  0.2958  0.2361
  507TMC3     O 7537   1.984   0.560  15.275 -0.4402  0.3111  0.7537
  507TMC3     H 7538   2.094   0.493  15.106  0.1327 -1.6894  1.5150
  507TMC3    H1 7539   2.340   0.641  15.420  2.4734  0.1938 -0.2968
  507TMC3    H2 7540   2.487   0.643  15.031 -0.8191 -1.7588 -1.6276
  507TMC3    C7 7541   2.465   0.796  15.236  0.1363  0.3631  0.2894
  507TMC3    C8 7542   2.248   0.627  14.928  0.0571 -0.0262 -0.5509
  507TMC3    O1 7543   2.474   0.837  15.351  0.9300  0.3968 -0.9384
  507TMC3    O2 7544   2.331   0.710  14.896 -0.4079 -0.2080 -0.2427
  508MPD2     C 7545   3.615   2.754  16.404  0.0013  0.5217  0.0647
  508MPD2    C1 7546   3.514   2.834  16.451 -0.0768 -0.3641 -0.3471
  508MPD2    C2 7547   3.431   2.893  16.356 -0.0664 -0.1006  0.5943
  508MPD2    C3 7548   3.452   2.880  16.219 -0.1672  0.5351  0.3367
  508MPD2    C4 7549   3.570   2.805  16.180  0.4246 -0.3299  0.6596
  508MPD2    C5 7550   3.635   2.735  16.277  0.3807 -0.2846 -0.0585
  508MPD2     H 7551   3.360   2.967  16.389  0.6771 -0.0134  2.0213
  508MPD2    H1 7552   3.614   2.808  16.081 -0.0601 -0.2513  0.4447
  508MPD2    H2 7553   3.674   2.694  16.472  1.6447  0.6439 -1.2672
  508MPD2    H3 7554   3.729   2.681  16.267  0.7114 -0.0158  1.5422
  508MPD2     N 7555   3.371   2.948  16.140  0.2640  0.3941  0.9779
  508MPD2    H5 7556   3.305   3.001  16.196  0.7110  1.3581  0.5906
  508MPD2    N1 7557   3.497   2.844  16.594 -0.7220 -0.6896  0.0661
  508MPD2    H7 7558   3.585   2.816  16.636 -1.0807  0.5184  1.6181
  509TMC3    C1 7559   3.140   3.238  15.955 -0.4323 -0.7902 -0.0159
  509TMC3    C2 7560   3.200   3.311  15.857  0.4538  0.4596 -0.1057
  509TMC3    C3 7561   3.303   3.251  15.798 -0.3823  0.0937 -0.0679
  509TMC3    C4 7562   3.193   3.126  16.001  0.4899 -0.3785  0.6107
  509TMC3    C5 7563   3.308   3.067  15.944  0.3718 -0.1748 -1.0978
  509TMC3    C6 7564   3.362   3.136  15.841  0.1606 -0.3442  0.3132
  509TMC3     C 7565   3.007   3.272  16.003  0.0953  0.8368 -0.0326
  509TMC3     O 7566   2.967   3.243  16.116 -0.1170 -0.3925 -0.3464
  509TMC3     H 7567   3.170   3.410  15.823 -0.8196 -0.7037 -2.3913
  509TMC3    H1 7568   3.141   3.074  16.081 -1.8476 -1.8137 -1.8494
  509TMC3    H2 7569   3.452   3.098  15.796  0.9473  1.1169  0.6726
  509TMC3    C7 7570   3.377   2.958  16.004 -0.0606 -0.3041 -0.5452
  509TMC3    C8 7571   3.383   3.344  15.720 -0.3178 -0.9585 -0.3710
  509TMC3    O1 7572   3.445   2.895  15.927  0.3346  0.3065  0.3374
  509TMC3    O2 7573   3.460   3.293  15.643 -0.2583 -0.1361  0.1899
  510MPD2     C 7574   1.145   0.146  14.689  0.3121 -0.5299  0.0284
  510MPD2    C1 7575   1.161   0.032  14.767 -0.1591  0.1892  0.0099
  510MPD2    C2 7576   1.278   4.683  14.754  0.2392 -0.4752 -0.1759
  510MPD2    C3 7577   1.377   4.721  14.663  0.6487 -0.1229  0.0923
  510MPD2    C4 7578   1.352   0.111  14.583 -0.0877  0.4866  0.4861
  510MPD2    C5 7579   1.233   0.178  14.598  0.4563 -0.0992 -0.5241
  510MPD2     H 7580   1.288   4.592  14.812 -1.4074 -0.3947  0.2582
  510MPD2    H1 7581   1.405   0.139  14.493  0.7818  0.3849  0.9704
  510MPD2    H2 7582   1.055   0.206  14.700  0.3675 -0.3288 -0.6116
  510MPD2    H3 7583   1.210   0.263  14.535  0.7696 -0.4146 -1.0651
  510MPD2     N 7584   1.496   4.643  14.648  0.2418 -0.9318  0.2603
  510MPD2    H5 7585   1.493   4.555  14.699  0.5277 -1.5058 -0.7077
  510MPD2    N1 7586   1.056   4.696  14.847  0.0775  0.4892  0.4458
  510MPD2    H7 7587   1.076   4.599  14.870 -0.9092  0.3900  0.8611
  511TMC3    C1 7588   0.837   4.688  14.946  0.6343 -0.7571 -0.7634
  511TMC3    C2 7589   0.783   0.017  15.059  0.5239  0.2914  0.5247
  511TMC3    C3 7590   0.699   4.660  15.138  0.5513  0.9981 -0.0455
  511TMC3    C4 7591   0.820   4.558  14.917  0.1683  0.8291 -0.4924
  511TMC3    C5 7592   0.741   4.482  14.997  0.0266 -0.4347  0.9377
  511TMC3    C6 7593   0.675   4.529  15.105 -0.0744 -0.0208 -0.4968
  511TMC3     C 7594   0.939   0.047  14.879 -0.3047 -0.3500  0.0091
  511TMC3     O 7595   0.912   0.166  14.866  0.2767  0.4622 -0.0347
  511TMC3     H 7596   0.793   0.122  15.084  0.1274  0.6713 -0.9338
  511TMC3    H1 7597   0.849   4.521  14.819 -1.2697  1.3540 -1.1125
  511TMC3    H2 7598   0.605   4.466  15.159  0.0932  1.9919  2.0731
  511TMC3    C7 7599   0.680   4.360  14.936  0.4617  0.3951  0.6415
  511TMC3    C8 7600   0.606   0.006  15.227  1.1921 -0.1931 -0.2598
  511TMC3    O1 7601   0.694   4.340  14.815  0.4118 -0.0430 -0.4151
  511TMC3    O2 7602   0.586   0.127  15.207 -0.1956  0.0594 -0.0511
  512TMC3    C1 7603   0.028   4.042  13.303 -0.2516 -0.1563  0.0561
  512TMC3    C2 7604   0.073   3.998  13.423  0.2054  0.7869 -0.0403
  512TMC3    C3 7605   0.150   3.881  13.421 -0.1617 -0.7713 -0.5115
  512TMC3    C4 7606   0.058   3.982  13.183 -0.0123 -0.7174  0.2664
  512TMC3    C5 7607   0.109   3.856  13.186  0.1259 -0.0742 -0.1487
  512TMC3    C6 7608   0.163   3.801  13.303 -0.1619  0.4139  0.2807
  512TMC3     C 7609   4.677   4.169  13.305  0.6766 -0.4830  0.3775
  512TMC3     O 7610   4.686   4.238  13.206 -0.1029  0.1874  0.4459
  512TMC3     H 7611   0.074   4.063  13.510  1.1403 -0.1698  0.6486
  512TMC3    H1 7612   4.721   4.027  13.105  0.1412 -0.2954  0.3961
  512TMC3    H2 7613   0.227   3.714  13.289  0.3740  1.0874 -1.4465
  512TMC3    C7 7614   0.075   3.777  13.072 -0.7352 -0.3063 -0.0436
  512TMC3    C8 7615   0.245   3.848  13.526 -0.4085 -1.3874  0.3409
  512TMC3    O1 7616   0.010   3.825  12.978  0.3851 -0.3588 -0.2933
  512TMC3    O2 7617   0.291   3.735  13.516 -0.2681  0.0265 -0.1140
  513MPD2     C 7618   2.033   4.211  12.570  0.7158  0.7861 -0.1798
  513MPD2    C1 7619   1.948   4.112  12.624 -0.1873  0.1526  0.2318
  513MPD2    C2 7620   1.887   4.131  12.745 -0.0255  0.1656 -0.6521
  513MPD2    C3 7621   1.912   4.245  12.819 -0.5962  0.1406  0.1181
  513MPD2    C4 7622   1.986   4.343  12.768  0.0864 -0.5575  0.1120
  513MPD2    C5 7623   2.045   4.331  12.645 -0.7698 -0.1485 -0.0586
  513MPD2     H 7624   1.820   4.053  12.778 -1.7476  2.3223  0.9525
  513MPD2    H1 7625   2.012   4.437  12.815 -1.0691 -0.5892  0.8123
  513MPD2    H2 7626   2.075   4.200  12.471 -0.2154 -1.6872 -0.2911
  513MPD2    H3 7627   2.094   4.418  12.601 -2.0034  0.7605  0.3573
  513MPD2     N 7628   1.840   4.258  12.940  0.1458 -0.3941  0.3756
  513MPD2    H5 7629   1.774   4.182  12.951 -0.2928 -0.1796 -0.7684
  513MPD2    N1 7630   1.923   3.992  12.554 -0.1536  0.3653 -0.2924
  513MPD2    H7 7631   1.854   3.934  12.600  0.7918 -1.7339 -1.5108
  514TMC3    C1 7632   1.960   3.790  12.422  0.2097 -0.5420 -0.1550
  514TMC3    C2 7633   2.062   3.698  12.428  0.1273  0.0019 -0.2558
  514TMC3    C3 7634   2.038   3.577  12.480 -0.1974 -0.1908 -0.0991
  514TMC3    C4 7635   1.841   3.756  12.473  0.2154 -0.8460  0.3596
  514TMC3    C5 7636   1.816   3.642  12.541 -0.5266 -0.7462  0.3309
  514TMC3    C6 7637   1.919   3.549  12.544  0.7105 -0.0349 -0.2980
  514TMC3     C 7638   2.009   3.928  12.462 -0.1795 -0.5288  0.5419
  514TMC3     O 7639   2.129   3.949  12.435  0.3563 -0.6884 -0.5301
  514TMC3     H 7640   2.159   3.729  12.391  1.6931 -1.5022  2.6548
  514TMC3    H1 7641   1.766   3.833  12.458 -1.4856 -2.6529 -0.3669
  514TMC3    H2 7642   1.900   3.453  12.590 -3.7876  0.3580 -1.3329
  514TMC3    C7 7643   1.768   3.687  12.668  0.0738 -0.4673  0.5361
  514TMC3    C8 7644   2.118   3.466  12.436  0.8011 -0.4567  0.0263
  514TMC3    O1 7645   1.792   3.804  12.692 -0.2494 -0.1038 -0.0211
  514TMC3    O2 7646   2.102   3.358  12.485 -0.4664  0.9132 -0.2979
  515MPD2     C 7647   4.260   1.515  15.321 -0.1644 -0.2156 -0.6071
  515MPD2    C1 7648   4.341   1.408  15.300 -0.0065 -0.6353  0.2914
  515MPD2    C2 7649   4.478   1.423  15.326 -0.3884 -0.1524 -0.0029
  515MPD2    C3 7650   4.536   1.540  15.371 -0.9305 -0.4492  0.4073
  515MPD2    C4 7651   4.444   1.645  15.397 -0.4085  0.2029 -0.4568
  515MPD2    C5 7652   4.309   1.634  15.370  0.0400 -0.1326 -0.3611
  515MPD2     H 7653   4.551   1.349  15.295  0.6948 -0.0833  2.3706
  515MPD2    H1 7654   4.490   1.740  15.422 -0.4068  0.2573 -0.6646
  515MPD2    H2 7655   4.155   1.516  15.297  0.2340  1.2154 -2.3283
  515MPD2    H3 7656   4.252   1.722  15.397  0.1205 -0.1070 -0.2748
  515MPD2     N 7657   4.675   1.558  15.388 -0.2644 -0.2539  0.1808
  515MPD2    H5 7658   4.704   1.650  15.420  0.0854  0.6070 -2.6204
  515MPD2    N1 7659   4.291   1.284  15.251  0.2426  0.2793 -0.4988
  515MPD2    H7 7660   4.362   1.223  15.210 -1.0674 -0.7326 -1.2336
  516TMC3    C1 7661   4.154   1.124  15.148  0.4432 -0.4772 -0.0333
  516TMC3    C2 7662   4.061   1.116  15.054  0.1893  0.1603  0.4393
  516TMC3    C3 7663   4.055   0.996  14.982 -0.3055 -0.5634 -0.0254
  516TMC3    C4 7664   4.231   1.020  15.193  0.4054 -0.4172  0.2124
  516TMC3    C5 7665   4.225   0.916  15.109 -0.1097  0.9622 -0.2433
  516TMC3    C6 7666   4.144   0.893  15.004 -0.1239  0.8414 -0.8096
  516TMC3     C 7667   4.164   1.249  15.212  0.0818 -0.2257 -0.1107
  516TMC3     O 7668   4.063   1.310  15.229  0.6303  0.0498  0.2081
  516TMC3     H 7669   4.013   1.206  15.017  2.0754  0.2024 -1.8550
  516TMC3    H1 7670   4.301   1.028  15.275 -0.1536 -0.7492  0.7223
  516TMC3    H2 7671   4.150   0.809  14.935 -0.5521  1.5620 -1.7236
  516TMC3    C7 7672   4.260   0.791  15.182 -0.2404  0.8422  0.1493
  516TMC3    C8 7673   3.964   0.989  14.870 -0.2638 -0.2959  0.6404
  516TMC3    O1 7674   4.332   0.804  15.282 -0.3048  0.0507 -0.4328
  516TMC3    O2 7675   3.991   0.904  14.785  0.0126  0.7559 -0.1830
  517MPD2     C 7676   4.046   2.632  17.595 -0.2867 -0.3813 -0.0193
  517MPD2    C1 7677   4.137   2.629   0.007 -0.0138 -0.2056 -0.8380
  517MPD2    C2 7678   4.150   2.739   0.091  0.0726  0.0482 -0.4487
  517MPD2    C3 7679   4.083   2.856   0.064 -0.2771  0.3783 -0.3868
  517MPD2    C4 7680   3.998   2.859  17.650 -0.4787 -0.0916  0.3268
  517MPD2    C5 7681   3.974   2.747  17.572  0.4727  0.7975  0.2904
  517MPD2     H 7682   4.211   2.733   0.180  1.3913  1.6304 -1.2466
  517MPD2    H1 7683   3.942   2.946  17.618  0.4369 -0.2585 -1.7307
  517MPD2    H2 7684   4.031   2.551  17.525 -0.2393  0.0007 -0.4716
  517MPD2    H3 7685   3.902   2.736  17.492 -0.1921 -2.4939  1.3440
  517MPD2     N 7686   4.097   2.977   0.136 -0.1496 -0.1952  0.1409
  517MPD2    H5 7687   4.032   3.053   0.117  0.7939  0.7516  0.7162
  517MPD2    N1 7688   4.216   2.519   0.028 -0.0975  0.2828  0.4020
  517MPD2    H7 7689   4.295   2.540   0.089  0.5206 -1.0741  0.0643
  518TMC3    C1 7690   4.297   2.301  17.678  0.1942 -0.5210 -0.2252
  518TMC3    C2 7691   4.281   2.195  17.588 -0.2306 -0.0966  0.6303
  518TMC3    C3 7692   4.385   2.107  17.580 -0.0869  0.5153 -1.0220
  518TMC3    C4 7693   4.416   2.324   0.049  0.0171 -0.1936  0.1365
  518TMC3    C5 7694   4.514   2.235   0.033  0.0858 -0.0218  0.8140
  518TMC3    C6 7695   4.498   2.125  17.652 -0.0560  0.0327 -0.7648
  518TMC3     C 7696   4.185   2.396  17.677  0.7014  0.2599 -0.2117
  518TMC3     O 7697   4.075   2.355  17.643  0.8302 -0.2056  0.3019
  518TMC3     H 7698   4.189   2.169  17.536  0.9816 -1.0377 -1.0635
  518TMC3    H1 7699   4.439   2.421   0.092 -3.3278  0.7945 -0.2941
  518TMC3    H2 7700   4.575   2.048  17.654 -1.0235 -0.7778  4.3519
  518TMC3    C7 7701   4.651   2.294   0.052 -0.4508  0.5111 -0.1309
  518TMC3    C8 7702   4.390   1.985  17.501 -0.5198  0.1058  0.0259
  518TMC3    O1 7703   4.664   2.401   0.111  0.5211  0.5654 -0.1364
  518TMC3    O2 7704   4.429   1.885  17.558 -0.4042 -0.5832 -0.1460
  519MPD2     C 7705   1.153   1.110  14.281 -0.0062 -0.1662  0.3943
  519MPD2    C1 7706   1.103   1.015  14.187  0.4143 -0.3183  0.5497
  519MPD2    C2 7707   1.177   0.898  14.184 -0.4038 -0.1977  0.0852
  519MPD2    C3 7708   1.290   0.872  14.249 -0.3203 -0.6522  0.0301
  519MPD2    C4 7709   1.329   0.969  14.340  0.2137  0.1942  0.7297
  519MPD2    C5 7710   1.268   1.084  14.354  0.1760  0.6363  0.6751
  519MPD2     H 7711   1.168   0.827  14.102  0.7906  0.4059 -0.5622
  519MPD2    H1 7712   1.410   0.936  14.405 -1.7198 -1.4924  2.3018
  519MPD2    H2 7713   1.105   1.202  14.314  0.3149  0.2076 -0.1680
  519MPD2    H3 7714   1.297   1.144  14.439 -2.5397  1.1631  1.2377
  519MPD2     N 7715   1.364   0.753  14.234 -0.2026  0.3371 -0.2636
  519MPD2    H5 7716   1.453   0.750  14.283  0.7000  2.9919 -1.7464
  519MPD2    N1 7717   0.997   1.043  14.102 -0.2787  0.4106 -0.2660
  519MPD2    H7 7718   0.951   1.132  14.121 -1.3038 -0.0978 -0.3734
  520TMC3    C1 7719   1.412   0.525  14.198  0.4624  0.0796 -1.3153
  520TMC3    C2 7720   1.388   0.419  14.118  0.4671  0.4907 -0.0197
  520TMC3    C3 7721   1.446   0.295  14.133 -0.5163  0.2959  0.2830
  520TMC3    C4 7722   1.500   0.510  14.306 -0.3104  0.0972  0.9426
  520TMC3    C5 7723   1.581   0.394  14.297  0.2729 -0.7649  0.3036
  520TMC3    C6 7724   1.553   0.295  14.217  0.0631  0.9282  0.0387
  520TMC3     C 7725   1.326   0.642  14.165 -0.4021 -0.5134  0.3432
  520TMC3     O 7726   1.227   0.616  14.100  0.6977  0.4721 -0.0024
  520TMC3     H 7727   1.315   0.424  14.038  0.1658  2.0421  0.3603
  520TMC3    H1 7728   1.523   0.587  14.380 -1.0576  0.8073  0.4435
  520TMC3    H2 7729   1.621   0.211  14.207  0.0304  0.8500  0.4814
  520TMC3    C7 7730   1.722   0.412  14.326 -0.3761 -0.0686 -0.2559
  520TMC3    C8 7731   1.439   0.205  14.018 -0.6973  0.0245 -0.1144
  520TMC3    O1 7732   1.783   0.516  14.306 -0.1403  0.0557 -0.3500
  520TMC3    O2 7733   1.541   0.140  13.998  0.2533  0.0055  0.1144
  521MPD2     C 7734   2.110   4.242  17.354  0.1013  0.1016 -0.2406
  521MPD2    C1 7735   2.071   4.109  17.320 -0.6357  0.6308  0.6621
  521MPD2    C2 7736   2.163   4.020  17.260  0.4009  0.4731  0.1541
  521MPD2    C3 7737   2.292   4.057  17.234  0.2480  0.1518  0.0070
  521MPD2    C4 7738   2.326   4.187  17.270 -0.5017 -0.8361  0.1531
  521MPD2    C5 7739   2.241   4.279  17.325 -0.7474  0.4814 -0.6543
  521MPD2     H 7740   2.133   3.916  17.251 -0.0049  0.4958  1.1639
  521MPD2    H1 7741   2.428   4.218  17.254 -0.8943  0.6535  0.5343
  521MPD2    H2 7742   2.048   4.314  17.406  1.0282  0.8154 -0.1214
  521MPD2    H3 7743   2.272   4.383  17.325  0.4877  0.1279  2.0670
  521MPD2     N 7744   2.375   3.968  17.171  0.4612  0.5121  0.4091
  521MPD2    H5 7745   2.336   3.892  17.117 -1.5752  0.8019  1.4549
  521MPD2    N1 7746   1.941   4.067  17.368  0.2037  0.0801  0.3735
  521MPD2    H7 7747   1.882   4.133  17.416 -0.9263 -0.5340 -0.1677
  522TMC3    C1 7748   2.593   3.867  17.116  0.4610 -0.6009 -0.6206
  522TMC3    C2 7749   2.716   3.842  17.162  0.4261 -1.0149 -0.0542
  522TMC3    C3 7750   2.783   3.738  17.102  0.7255 -0.1475 -0.0868
  522TMC3    C4 7751   2.539   3.794  17.016  0.2858  0.9677 -0.2620
  522TMC3    C5 7752   2.608   3.695  16.957  0.6902 -0.5390 -0.1841
  522TMC3    C6 7753   2.737   3.658  17.001 -0.9751  0.3332 -0.1774
  522TMC3     C 7754   2.513   3.972  17.186  0.3683 -0.9649  0.0958
  522TMC3     O 7755   2.580   4.054  17.248  0.0764 -0.1830  0.6584
  522TMC3     H 7756   2.761   3.902  17.241  1.7148 -4.4024  1.7994
  522TMC3    H1 7757   2.443   3.834  16.984 -0.8490 -1.6085 -0.0510
  522TMC3    H2 7758   2.800   3.583  16.956 -1.2378  0.7608 -1.2611
  522TMC3    C7 7759   2.558   3.621  16.842  0.6429  0.4964  0.8566
  522TMC3    C8 7760   2.924   3.733  17.139  0.1824 -0.4545 -0.0848
  522TMC3    O1 7761   2.640   3.558  16.776  0.1803  0.0315  0.0894
  522TMC3    O2 7762   2.965   3.836  17.195 -0.2944 -0.3293 -0.8663
  523MPD2     C 7763   0.349   3.911  10.264  0.0758  0.1480 -0.0369
  523MPD2    C1 7764   0.226   3.852  10.239  0.3704 -0.0443 -0.1176
  523MPD2    C2 7765   0.151   3.889  10.129 -0.4357  0.8405 -0.5306
  523MPD2    C3 7766   0.197   3.980  10.034  0.4443 -0.0663  0.0444
  523MPD2    C4 7767   0.317   4.038  10.056  0.0796  0.2395 -0.1459
  523MPD2    C5 7768   0.388   3.992  10.168  0.8158 -0.6243 -0.4156
  523MPD2     H 7769   0.053   3.843  10.123 -0.0290  0.1441 -1.8734
  523MPD2    H1 7770   0.357   4.115   9.991 -1.2874  0.1003 -1.1499
  523MPD2    H2 7771   0.411   3.882  10.347 -0.0885  0.3206  0.1476
  523MPD2    H3 7772   0.477   4.043  10.202  0.7212  0.5876 -1.9974
  523MPD2     N 7773   0.124   4.016   9.915 -0.0611  0.2220  0.9455
  523MPD2    H5 7774   0.168   4.084   9.853 -1.8610 -0.0489 -0.6383
  523MPD2    N1 7775   0.177   3.751  10.337 -0.4450  0.3293  0.0903
  523MPD2    H7 7776   0.244   3.725  10.409  0.9652  1.9520 -0.6173
  524TMC3    C1 7777   4.664   4.035   9.774  0.8192  0.0339  0.4157
  524TMC3    C2 7778   4.606   3.962   9.673  0.2339 -0.1360  1.5568
  524TMC3    C3 7779   4.520   4.027   9.587  0.0826 -0.4293 -0.3758
  524TMC3    C4 7780   4.638   4.166   9.798  0.3995 -0.0692 -0.0783
  524TMC3    C5 7781   4.546   4.222   9.714  0.3177  0.6898  0.2825
  524TMC3    C6 7782   4.492   4.159   9.606 -0.6026 -0.0701 -0.5358
  524TMC3     C 7783   0.008   3.956   9.873  0.0466  0.6827 -0.7885
  524TMC3     O 7784   4.671   3.854   9.906 -0.0648 -0.1404 -0.0198
  524TMC3     H 7785   4.654   3.868   9.648  2.1055  0.7189  1.8996
  524TMC3    H1 7786   4.671   4.210   9.891  0.9021 -0.9487  0.1537
  524TMC3    H2 7787   4.403   4.197   9.556 -2.3643 -2.0918  1.0652
  524TMC3    C7 7788   4.500   4.355   9.746 -0.4614  0.3651  0.7409
  524TMC3    C8 7789   4.448   3.934   9.493  0.4516 -0.1932 -0.1489
  524TMC3    O1 7790   4.539   4.406   9.848 -1.0688  0.1485  0.0580
  524TMC3    O2 7791   4.468   3.812   9.509  0.0818  0.8556  0.3785
  525MPD2     C 7792   2.449   0.281  14.988  0.0522 -0.4024  0.4073
  525MPD2    C1 7793   2.577   0.273  15.038 -0.2299 -0.1862  0.2158
  525MPD2    C2 7794   2.677   0.331  14.955 -0.1701  0.0969 -0.5828
  525MPD2    C3 7795   2.640   0.404  14.844  1.2052  0.3080  0.2455
  525MPD2    C4 7796   2.512   0.403  14.792 -0.3095 -0.2096  0.2677
  525MPD2    C5 7797   2.419   0.330  14.861 -0.2385  0.7179 -0.5540
  525MPD2     H 7798   2.778   0.332  14.994 -0.5710 -1.7571  0.5328
  525MPD2    H1 7799   2.483   0.461  14.705  0.7850  0.1864  0.1582
  525MPD2    H2 7800   2.363   0.237  15.039 -0.9675  0.1816 -0.8041
  525MPD2    H3 7801   2.319   0.314  14.825 -0.4542 -1.4064  0.9680
  525MPD2     N 7802   2.722   0.486  14.768 -0.3093 -0.3695 -0.0647
  525MPD2    H5 7803   2.673   0.551  14.707 -0.2436  1.3902  1.7840
  525MPD2    N1 7804   2.621   0.201  15.156  0.0740 -0.1077  0.0082
  525MPD2    H7 7805   2.722   0.195  15.167 -0.4101 -1.9704  3.2588
  526TMC3    C1 7806   2.599   0.082  15.346 -0.8155 -0.1953  0.1324
  526TMC3    C2 7807   2.538   0.068  15.468  0.8459 -0.1463 -0.4956
  526TMC3    C3 7808   2.596   4.718  15.569 -0.5380 -0.1209 -0.1118
  526TMC3    C4 7809   2.694   4.717  15.312 -0.0379 -0.0261  0.6142
  526TMC3    C5 7810   2.757   4.648  15.410  0.2880 -0.0595  0.0501
  526TMC3    C6 7811   2.713   4.646  15.541  0.6237  0.3132  0.1893
  526TMC3     C 7812   2.532   0.148  15.249  0.2181 -0.3599  0.0127
  526TMC3     O 7813   2.412   0.160  15.256 -0.0997  0.0026  0.8489
  526TMC3     H 7814   2.444   0.115  15.493 -0.6328 -2.4167 -1.8305
  526TMC3    H1 7815   2.733   4.719  15.211 -2.0026  0.9255 -0.1472
  526TMC3    H2 7816   2.756   4.594  15.625  0.9697 -1.1484 -0.8918
  526TMC3    C7 7817   2.867   4.559  15.384  0.9470  0.2653  1.3293
  526TMC3    C8 7818   2.604   0.063  15.701  0.7387  0.5445 -0.2615
  526TMC3    O1 7819   2.887   4.467  15.460 -0.0940  0.0969 -0.0750
  526TMC3    O2 7820   2.719   0.085  15.747 -0.1460  0.6724  0.0952
  527MPD2     C 7821   0.474   3.543   1.027  0.8054 -0.0215 -0.3844
  527MPD2    C1 7822   0.549   3.457   1.108  0.6305 -0.4527  0.4385
  527MPD2    C2 7823   0.660   3.399   1.058 -0.0869  0.2442  0.6379
  527MPD2    C3 7824   0.706   3.423   0.929 -0.4379 -0.1423  0.4380
  527MPD2    C4 7825   0.636   3.509   0.848  0.0359 -0.2392  0.3826
  527MPD2    C5 7826   0.520   3.558   0.898 -0.2346  0.0005 -0.5873
  527MPD2     H 7827   0.718   3.336   1.124 -0.2248 -0.0489  0.4749
  527MPD2    H1 7828   0.637   3.500   0.740  1.9047 -0.4242  0.4279
  527MPD2    H2 7829   0.370   3.571   1.045  0.7326  0.5732 -1.7064
  527MPD2    H3 7830   0.445   3.594   0.828 -1.1220  0.4548  0.5902
  527MPD2     N 7831   0.810   3.347   0.882 -0.1898  0.0604  0.5568
  527MPD2    H5 7832   0.839   3.264   0.933  1.3960 -1.2927 -2.5163
  527MPD2    N1 7833   0.501   3.418   1.236 -0.1233 -0.2500 -0.2852
  527MPD2    H7 7834   0.569   3.378   1.299  0.7536  1.4928 -0.1290
  528TMC3    C1 7835   0.365   3.408   1.423  0.0136 -0.2871  0.0837
  528TMC3    C2 7836   0.477   3.395   1.503 -0.3196  0.1424 -0.3278
  528TMC3    C3 7837   0.454   3.335   1.621 -0.7800 -0.7939 -0.8524
  528TMC3    C4 7838   0.242   3.374   1.466 -0.2795 -0.5585  0.0494
  528TMC3    C5 7839   0.225   3.324   1.589  0.0672 -0.2599 -0.6265
  528TMC3    C6 7840   0.332   3.298   1.675 -0.0644 -0.0848  0.1526
  528TMC3     C 7841   0.375   3.434   1.283  0.6282 -0.0361  0.7320
  528TMC3     O 7842   0.274   3.447   1.216 -0.2532  0.3501  0.1890
  528TMC3     H 7843   0.575   3.424   1.465 -1.1254  1.6122 -1.3144
  528TMC3    H1 7844   0.156   3.386   1.401  0.3894 -1.9116 -1.0548
  528TMC3    H2 7845   0.323   3.269   1.779 -1.9842 -1.6936 -0.4503
  528TMC3    C7 7846   0.085   3.311   1.641  0.0766 -0.0449 -0.0996
  528TMC3    C8 7847   0.571   3.290   1.690 -0.5517 -0.1351 -0.1514
  528TMC3    O1 7848   0.001   3.367   1.574  0.0228 -0.0325  0.1615
  528TMC3    O2 7849   0.673   3.340   1.648  0.4641 -0.3954  0.0294
  529MPD2     C 7850   3.464   1.578   1.172  0.3149  0.2314  0.1006
  529MPD2    C1 7851   3.385   1.515   1.079  0.0782  0.3228 -0.4539
  529MPD2    C2 7852   3.331   1.589   0.974  0.2648 -0.4836 -0.5958
  529MPD2    C3 7853   3.350   1.726   0.962 -0.5536  0.1519  0.8759
  529MPD2    C4 7854   3.425   1.788   1.057 -0.4114 -0.8847  0.3579
  529MPD2    C5 7855   3.486   1.715   1.154  0.1831 -0.1861  0.3160
  529MPD2     H 7856   3.265   1.535   0.908 -0.2675 -1.4527  0.7160
  529MPD2    H1 7857   3.461   1.890   1.057 -0.8515 -0.7314 -0.9323
  529MPD2    H2 7858   3.498   1.544   1.269  3.8102 -0.0499 -1.2229
  529MPD2    H3 7859   3.550   1.759   1.229 -1.0383  0.0701  1.2079
  529MPD2     N 7860   3.291   1.801   0.858 -0.2814  0.6479  0.2984
  529MPD2    H5 7861   3.291   1.901   0.876 -0.6078  0.2361  2.4855
  529MPD2    N1 7862   3.349   1.381   1.104 -0.5030  0.6044  0.4548
  529MPD2    H7 7863   3.277   1.346   1.041  2.0345  0.7246 -2.4997
  530TMC3    C1 7864   3.300   1.176   1.206 -0.6650  0.3363 -0.3437
  530TMC3    C2 7865   3.350   1.048   1.195 -0.2449 -0.1218  0.0607
  530TMC3    C3 7866   3.262   0.946   1.192  0.3481 -0.0622  0.4621
  530TMC3    C4 7867   3.163   1.200   1.218  0.1225 -0.9104 -0.1894
  530TMC3    C5 7868   3.081   1.088   1.210  0.0337  0.3551  0.0197
  530TMC3    C6 7869   3.125   0.959   1.185  0.1823 -0.1550 -0.1340
  530TMC3     C 7870   3.392   1.292   1.201  0.0109 -0.4008 -0.1817
  530TMC3     O 7871   3.496   1.301   1.264 -0.6732 -0.1531 -0.4219
  530TMC3     H 7872   3.458   1.045   1.206 -0.0089  0.3014 -2.0808
  530TMC3    H1 7873   3.118   1.296   1.242 -2.9152 -2.7579  1.3546
  530TMC3    H2 7874   3.055   0.876   1.173 -0.8887  1.0232 -2.0043
  530TMC3    C7 7875   2.939   1.105   1.196  0.9567 -0.4131  0.1475
  530TMC3    C8 7876   3.316   0.809   1.198  0.3936  0.0980  0.2282
  530TMC3    O1 7877   2.862   1.009   1.208 -0.3577  0.8346  0.0267
  530TMC3    O2 7878   3.251   0.714   1.145 -0.3050 -0.2021  0.8633
  531MPD2     C 7879   1.582   3.638  13.162 -0.1155 -0.1104 -0.0411
  531MPD2    C1 7880   1.629   3.757  13.099  0.1629 -0.6948 -0.4278
  531MPD2    C2 7881   1.671   3.737  12.964  0.6400  0.3175  0.0414
  531MPD2    C3 7882   1.663   3.619  12.887  0.2628 -0.1898 -0.3590
  531MPD2    C4 7883   1.604   3.511  12.959 -0.1309 -0.4502 -0.0095
  531MPD2    C5 7884   1.577   3.523  13.094 -0.3411 -1.0828  0.2939
  531MPD2     H 7885   1.708   3.824  12.911  1.1027 -0.8394 -1.5135
  531MPD2    H1 7886   1.579   3.414  12.917 -3.2306  0.5600 -0.5182
  531MPD2    H2 7887   1.548   3.642  13.265 -0.8245 -0.1725 -0.2720
  531MPD2    H3 7888   1.531   3.431  13.129 -1.9805  0.3793  1.9391
  531MPD2     N 7889   1.702   3.593  12.749 -0.9901  0.2149 -0.6309
  531MPD2    H5 7890   1.681   3.504  12.707 -2.0930 -0.4572  1.3330
  531MPD2    N1 7891   1.624   3.874  13.175  0.5549  0.0487  0.4822
  531MPD2    H7 7892   1.583   3.872  13.268  0.9200 -0.9475  0.6183
  532TMC3    C1 7893   1.674   4.098  13.212  0.1512  0.2117 -0.0555
  532TMC3    C2 7894   1.689   4.209  13.129  0.3199 -0.2289  0.6857
  532TMC3    C3 7895   1.788   4.293  13.161 -0.2224  0.1988  0.2656
  532TMC3    C4 7896   1.757   4.061  13.320  0.0226  0.4706  0.2871
  532TMC3    C5 7897   1.862   4.147  13.332 -0.2721 -0.3351 -0.2834
  532TMC3    C6 7898   1.873   4.264  13.262  0.0684  0.3478 -0.2021
  532TMC3     C 7899   1.645   3.993  13.118  0.5988 -0.8825 -0.2659
  532TMC3     O 7900   1.672   4.024  13.001  0.5639  0.1861 -0.2368
  532TMC3     H 7901   1.617   4.233  13.052 -0.7317 -2.5341  0.9355
  532TMC3    H1 7902   1.751   3.973  13.382  0.9575 -0.3637 -0.8060
  532TMC3    H2 7903   1.961   4.325  13.277  0.1779  0.4140 -1.1479
  532TMC3    C7 7904   1.962   4.120  13.439  0.6308  0.2457  0.5099
  532TMC3    C8 7905   1.863   4.344  13.048  0.1229 -0.5053  0.1764
  532TMC3    O1 7906   2.000   4.222  13.497  0.2734 -0.1559 -0.8989
  532TMC3    O2 7907   1.956   4.426  13.057  0.0919 -0.0887  0.3994
  533TMC3    C1 7908   2.892   0.650  14.755 -0.1210 -0.2106 -0.2141
  533TMC3    C2 7909   3.027   0.668  14.768  0.1010 -0.1168  1.1383
  533TMC3    C3 7910   3.075   0.785  14.818 -0.4654 -0.5682 -0.0226
  533TMC3    C4 7911   2.808   0.753  14.798 -0.2610  0.0636 -0.1361
  533TMC3    C5 7912   2.858   0.853  14.869  0.0481 -0.4301  0.1927
  533TMC3    C6 7913   2.992   0.877  14.877  0.4168  0.2962 -0.5202
  533TMC3     C 7914   2.853   0.521  14.812 -0.4133 -0.4750 -1.3093
  533TMC3     O 7915   2.939   0.446  14.857 -0.0773  0.0514 -0.3724
  533TMC3     H 7916   3.089   0.581  14.748 -0.2004  0.3271 -1.6620
  533TMC3    H1 7917   2.701   0.734  14.799  0.0889 -1.8793  0.3207
  533TMC3    H2 7918   3.023   0.977  14.905 -1.1633  0.8925 -0.8726
  533TMC3    C7 7919   2.788   0.874  14.989  0.1370  0.1695 -0.1673
  533TMC3    C8 7920   3.213   0.802  14.859 -0.8665 -0.2896 -0.3466
  533TMC3    O1 7921   2.722   0.780  15.029 -0.4972 -0.1469 -0.3071
  533TMC3    O2 7922   3.242   0.895  14.927  0.1714  0.6887  0.0125
  534MPD2     C 7923   0.099   1.829   1.839  0.1294  0.1971 -0.8380
  534MPD2    C1 7924   0.139   1.890   1.723 -0.0874 -0.7899  0.8527
  534MPD2    C2 7925   0.124   1.829   1.601 -0.1265  0.6111 -0.1204
  534MPD2    C3 7926   0.061   1.704   1.596 -0.6973 -0.1775 -0.2427
  534MPD2    C4 7927   0.016   1.649   1.713 -0.8080 -0.1444 -0.0814
  534MPD2    C5 7928   0.034   1.710   1.834 -0.5130 -0.1150  0.3071
  534MPD2     H 7929   0.161   1.878   1.512 -2.4847 -0.0213 -1.4402
  534MPD2    H1 7930   4.682   1.557   1.726 -0.4025 -0.3669  0.1224
  534MPD2    H2 7931   0.126   1.869   1.936 -1.9587 -1.9966  0.6576
  534MPD2    H3 7932   4.709   1.674   1.924  1.0976 -1.0546  0.7839
  534MPD2     N 7933   0.031   1.639   1.473  0.1395 -0.1906  0.0950
  534MPD2    H5 7934   4.708   1.549   1.486 -1.1123  0.6233  1.3509
  534MPD2    N1 7935   0.223   2.005   1.727  0.0838 -0.2523 -0.2262
  534MPD2    H7 7936   0.256   2.040   1.637  1.8033 -1.0658  0.0901
  535TMC3    C1 7937   0.049   1.578   1.252 -0.1151 -0.0777  0.0363
  535TMC3    C2 7938   4.722   1.450   1.275  0.2818 -0.8877  0.2397
  535TMC3    C3 7939   0.022   1.355   1.179 -0.3144  0.0742  0.2299
  535TMC3    C4 7940   0.128   1.603   1.146  0.0140  0.0025 -0.1802
  535TMC3    C5 7941   0.153   1.504   1.064 -0.0339  0.5412 -0.2789
  535TMC3    C6 7942   0.103   1.376   1.073 -0.0450  0.4348 -0.4435
  535TMC3     C 7943   0.047   1.686   1.351  0.1599  0.6682  0.3599
  535TMC3     O 7944   0.070   1.801   1.322  0.0742  0.4564  0.0943
  535TMC3     H 7945   4.659   1.425   1.360  1.3474 -0.9413  1.0108
  535TMC3    H1 7946   0.164   1.704   1.130  0.2759  0.3002  2.3534
  535TMC3    H2 7947   0.114   1.303   0.994  3.1637  1.6106 -1.0919
  535TMC3    C7 7948   0.244   1.535   0.956 -0.5117 -0.0192 -0.0545
  535TMC3    C8 7949   4.664   1.237   1.192 -0.1127  0.5550 -0.4600
  535TMC3    O1 7950   0.321   1.625   0.972  0.2019  0.2709 -0.4656
  535TMC3    O2 7951   4.562   1.239   1.256  0.1817 -0.1595 -0.1693
  536MPD2     C 7952   4.153   0.689  16.651 -0.4690 -0.0567  0.1032
  536MPD2    C1 7953   4.055   0.593  16.631  0.3051 -0.2755 -0.5128
  536MPD2    C2 7954   3.982   0.594  16.512 -0.1243  0.0659 -0.0211
  536MPD2    C3 7955   4.010   0.686  16.413  0.4074  0.1498  0.2890
  536MPD2    C4 7956   4.114   0.773  16.431  0.1661 -0.7609 -0.5022
  536MPD2    C5 7957   4.174   0.780  16.551  0.1057  0.3888 -0.2945
  536MPD2     H 7958   3.910   0.515  16.492  0.2602 -0.0715 -0.8278
  536MPD2    H1 7959   4.154   0.842  16.357 -0.7593  1.8233  1.3969
  536MPD2    H2 7960   4.211   0.694  16.742  0.5485  0.6053 -0.5850
  536MPD2    H3 7961   4.252   0.854  16.567 -1.6275  2.2352 -0.3490
  536MPD2     N 7962   3.948   0.691  16.288 -0.3693 -0.2051  0.0487
  536MPD2    H5 7963   3.956   0.775  16.232 -0.5822 -0.6693 -0.6868
  536MPD2    N1 7964   4.029   0.510  16.740  0.4855 -0.4979  0.1341
  536MPD2    H7 7965   4.082   0.529  16.824 -3.2476  1.6253  2.0247
  537TMC3    C1 7966   3.947   0.329  16.859 -0.6076 -0.5650  0.4040
  537TMC3    C2 7967   4.065   0.337  16.931 -0.5124  0.4759  0.1133
  537TMC3    C3 7968   4.076   0.258  17.038  0.1416  0.4901  0.7295
  537TMC3    C4 7969   3.848   0.241  16.896  0.0189 -0.6684 -0.7325
  537TMC3    C5 7970   3.865   0.168  17.009  0.5750  0.8511 -0.5396
  537TMC3    C6 7971   3.978   0.172  17.085  0.6766 -0.0181 -0.2936
  537TMC3     C 7972   3.936   0.411  16.742 -0.5772  0.8528 -0.2859
  537TMC3     O 7973   3.856   0.372  16.660  0.2700 -0.4333  0.1744
  537TMC3     H 7974   4.151   0.400  16.909  1.1010 -1.3965  1.1029
  537TMC3    H1 7975   3.760   0.240  16.832 -0.7600 -1.2839  0.3416
  537TMC3    H2 7976   3.997   0.114  17.174 -1.9227 -0.3383  0.0561
  537TMC3    C7 7977   3.763   0.074  17.043 -0.3304 -0.4099  0.5538
  537TMC3    C8 7978   4.202   0.270  17.099  0.4837  0.5242 -0.6500
  537TMC3    O1 7979   3.651   0.108  17.003 -0.0894  0.0415 -0.3900
  537TMC3    O2 7980   4.256   0.379  17.096 -0.1383  0.2443  0.6985
  538TMC3    C1 7981   0.659   3.329  11.167 -0.4177  0.4152 -1.0051
  538TMC3    C2 7982   0.767   3.340  11.085  0.0017 -0.5448 -0.2787
  538TMC3    C3 7983   0.757   3.429  10.981 -0.5079 -0.0183  0.5762
  538TMC3    C4 7984   0.552   3.409  11.157  0.5124 -0.2355 -0.4903
  538TMC3    C5 7985   0.539   3.488  11.043 -0.1597  0.1413  0.2571
  538TMC3    C6 7986   0.644   3.503  10.955 -0.1381 -0.1599 -0.5689
  538TMC3     C 7987   0.671   3.286  11.306  0.0118  0.1599 -0.8145
  538TMC3     O 7988   0.570   3.255  11.365  0.1703 -0.5333  0.2769
  538TMC3     H 7989   0.849   3.272  11.103  2.4399  1.8778 -2.2690
  538TMC3    H1 7990   0.462   3.401  11.217  1.2196 -0.9691  0.4584
  538TMC3    H2 7991   0.654   3.573  10.872 -2.6982  1.7398  0.7383
  538TMC3    C7 7992   0.403   3.521  10.989  0.2994 -0.4605  0.0736
  538TMC3    C8 7993   0.869   3.434  10.880 -0.1488 -1.1836  0.8395
  538TMC3    O1 7994   0.308   3.454  11.026  0.0014 -0.0275  0.0191
  538TMC3    O2 7995   0.850   3.483  10.766 -0.5307  0.4801  0.3576
  539MPD2     C 7996   0.226   2.519  12.037 -0.0959 -0.4275  0.1713
  539MPD2    C1 7997   0.305   2.605  11.965  0.1857  0.4788 -0.8341
  539MPD2    C2 7998   0.280   2.736  11.970  0.3576 -0.6474 -0.1049
  539MPD2    C3 7999   0.175   2.791  12.047  0.2539  0.3910  0.2269
  539MPD2    C4 8000   0.101   2.700  12.119  0.0486 -1.0027 -0.3466
  539MPD2    C5 8001   0.125   2.570  12.108 -0.6551  0.0452 -0.0241
  539MPD2     H 8002   0.337   2.798  11.902 -1.7342 -0.9384 -2.1288
  539MPD2    H1 8003   0.011   2.732  12.170  1.4818  0.5648  1.2392
  539MPD2    H2 8004   0.239   2.411  12.037 -0.1774 -0.4339 -2.3441
  539MPD2    H3 8005   0.061   2.496  12.156 -0.6747 -0.3592 -0.6688
  539MPD2     N 8006   0.132   2.926  12.043  0.3545 -0.4272 -0.0728
  539MPD2    H5 8007   0.051   2.955  12.097 -2.3625 -3.5528 -2.5000
  539MPD2    N1 8008   0.425   2.565  11.911  0.5349 -0.4841 -0.3912
  539MPD2    H7 8009   0.470   2.648  11.872 -0.0580  1.1411  2.4023
  540TMC3    C1 8010   0.094   3.134  11.957 -0.2724  0.2087 -0.5422
  540TMC3    C2 8011   0.073   3.197  11.838  0.4399 -0.1662  0.2672
  540TMC3    C3 8012   4.711   3.299  11.838  0.5652  0.0360 -0.0818
  540TMC3    C4 8013   0.026   3.165  12.069 -0.4991  0.3389  0.8880
  540TMC3    C5 8014   4.655   3.268  12.065 -0.1373  0.7151  0.6139
  540TMC3    C6 8015   4.634   3.330  11.942  0.2307  0.1886  0.5348
  540TMC3     C 8016   0.175   3.013  11.951  0.4689  0.0199  0.0566
  540TMC3     O 8017   0.257   3.002  11.864 -0.6733  0.3276  0.2177
  540TMC3     H 8018   0.135   3.168  11.753 -0.5167  1.2302 -0.9099
  540TMC3    H1 8019   0.055   3.113  12.160 -0.1864 -0.4645  0.3289
  540TMC3    H2 8020   4.555   3.404  11.936  1.1569  0.9956 -1.4834
  540TMC3    C7 8021   4.560   3.294  12.168 -0.2791  0.4486 -0.3950
  540TMC3    C8 8022   4.685   3.365  11.710  0.3804 -0.5109  0.4379
  540TMC3    O1 8023   4.454   3.337  12.128  0.0823 -0.6596 -0.2716
  540TMC3    O2 8024   4.676   3.489  11.708 -0.5745  0.1393 -0.0728
  541MPD2     C 8025   3.832   3.940  13.427 -0.4647 -1.1039  0.6587
  541MPD2    C1 8026   3.706   3.937  13.475 -0.3828  0.4193  0.1755
  541MPD2    C2 8027   3.605   3.991  13.404  0.0502 -0.3467 -0.3561
  541MPD2    C3 8028   3.632   4.053  13.279  0.0302 -0.0488 -0.5070
  541MPD2    C4 8029   3.765   4.063  13.234  0.2422  0.0575 -0.6940
  541MPD2    C5 8030   3.865   3.996  13.309 -0.3667 -0.0203  0.3115
  541MPD2     H 8031   3.503   3.976  13.437 -0.2334  1.2977 -0.4860
  541MPD2    H1 8032   3.795   4.111  13.142  1.9818  0.4209  0.0512
  541MPD2    H2 8033   3.914   3.891  13.479  0.9679 -0.4740 -1.0398
  541MPD2    H3 8034   3.968   4.010  13.277 -0.8882 -1.4369 -1.9838
  541MPD2     N 8035   3.532   4.091  13.187  0.4158  0.1242 -0.1948
  541MPD2    H5 8036   3.562   4.125  13.097  0.0876 -2.8124 -1.3969
  541MPD2    N1 8037   3.683   3.868  13.599  0.9519  0.2307  0.2318
  541MPD2    H7 8038   3.760   3.813  13.634  0.7247 -0.5011 -0.3930
  542TMC3    C1 8039   3.324   4.140  13.088  0.0025  0.1077 -0.3992
  542TMC3    C2 8040   3.362   4.092  12.970  0.6637 -0.0499  0.5269
  542TMC3    C3 8041   3.285   4.119  12.861  0.1911 -0.2051  0.2893
  542TMC3    C4 8042   3.208   4.208  13.113 -0.0164 -0.6712  0.5177
  542TMC3    C5 8043   3.138   4.238  13.003  0.2505 -0.8481 -0.1812
  542TMC3    C6 8044   3.180   4.205  12.877  0.4638 -0.1153 -0.6336
  542TMC3     C 8045   3.394   4.088  13.207 -0.1196  0.2454 -0.7961
  542TMC3     O 8046   3.337   4.078  13.314  0.0465 -0.3481 -0.2492
  542TMC3     H 8047   3.458   4.041  12.962 -0.1062 -1.6393  1.5035
  542TMC3    H1 8048   3.180   4.225  13.217  1.0694  0.8545  0.5460
  542TMC3    H2 8049   3.123   4.204  12.785  0.0469 -3.5555 -0.3320
  542TMC3    C7 8050   3.019   4.321  13.017 -0.0448 -0.9371  0.4908
  542TMC3    C8 8051   3.319   4.069  12.731 -1.1218  0.6979 -0.5015
  542TMC3    O1 8052   2.974   4.345  13.130  0.3500  0.0026 -0.2657
  542TMC3    O2 8053   3.287   4.135  12.632  0.2267  0.6931 -0.4429
  543TMC3    C1 8054   2.911   0.823  17.318  0.4851  0.3284  0.3735
  543TMC3    C2 8055   2.902   0.688  17.300  0.5805  0.1758 -0.1075
  543TMC3    C3 8056   2.899   0.598  17.407  0.1319 -0.2124 -0.4143
  543TMC3    C4 8057   2.913   0.873  17.449  0.0020  0.5650  0.3190
  543TMC3    C5 8058   2.902   0.781  17.550  0.2654 -0.4073 -0.0820
  543TMC3    C6 8059   2.892   0.650  17.536  0.3069 -0.0821  0.3018
  543TMC3     C 8060   2.924   0.909  17.200 -0.6897 -0.3233 -0.4756
  543TMC3     O 8061   3.023   0.893  17.133 -0.4623  0.5180 -0.8906
  543TMC3     H 8062   2.911   0.640  17.203 -0.3830 -0.4493  0.1079
  543TMC3    H1 8063   2.934   0.978  17.470  1.2056  0.1358  1.2133
  543TMC3    H2 8064   2.874   0.595  17.628 -2.8299  2.6848  1.3227
  543TMC3    C7 8065   2.901   0.829  17.689 -0.2363 -0.5036  0.4903
  543TMC3    C8 8066   2.891   0.454  17.383  0.4277 -0.4261 -1.0223
  543TMC3    O1 8067   2.940   0.754   0.084  0.1733  0.0666  0.0978
  543TMC3    O2 8068   2.939   0.402  17.283  0.0210 -0.3758  0.5180
  544MPD2     C 8069   2.670   4.720  17.525  0.5470  0.3505  0.4052
  544MPD2    C1 8070   2.768   0.021  17.434  0.3398 -0.7935 -0.6810
  544MPD2    C2 8071   2.821   0.150  17.415  0.3446 -0.5876 -0.6408
  544MPD2    C3 8072   2.755   0.256  17.479  0.1277 -0.1251 -0.5801
  544MPD2    C4 8073   2.659   0.228  17.577  0.5552  0.9239  0.2400
  544MPD2    C5 8074   2.616   0.099  17.596 -0.0240  0.0550  0.7040
  544MPD2     H 8075   2.890   0.176  17.335 -0.5622  0.0128 -1.2224
  544MPD2    H1 8076   2.614   0.305  17.638 -0.7119  1.0762 -0.8857
  544MPD2    H2 8077   2.626   4.622  17.539  0.0333  0.4628 -0.4111
  544MPD2    H3 8078   2.531   0.090  17.662 -1.5477  3.0747 -0.8499
  544MPD2     N 8079   2.802   0.391  17.474 -0.1632 -0.3169  0.8687
  544MPD2    H5 8080   2.759   0.450  17.545 -2.1224 -1.3796  0.5723
  544MPD2    N1 8081   2.806   4.624  17.367 -0.5904 -0.0891  0.0646
  544MPD2    H7 8082   2.751   4.541  17.388  0.0226 -0.5674 -0.2044
  545TMC3    C1 8083   2.955   4.458  17.291 -0.2884 -0.9387 -0.6684
  545TMC3    C2 8084   3.023   4.418  17.178 -0.2306 -0.2309 -0.4289
  545TMC3    C3 8085   3.042   4.282  17.163  0.1046  1.0824 -0.0772
  545TMC3    C4 8086   2.884   4.369  17.367  0.4849  0.1922  0.5858
  545TMC3    C5 8087   2.912   4.234  17.354  0.7834  0.4889  0.9608
  545TMC3    C6 8088   2.993   4.190  17.255 -0.7142 -0.2232  0.5763
  545TMC3     C 8089   2.925   4.601  17.301  0.2383 -0.0313 -1.0821
  545TMC3     O 8090   3.005   4.681  17.264 -0.4531 -0.2287  0.2645
  545TMC3     H 8091   3.078   4.491  17.120  0.5711  0.2006  0.8657
  545TMC3    H1 8092   2.828   4.406  17.453 -0.1080  1.8278 -0.5030
  545TMC3    H2 8093   3.002   4.082  17.244 -2.0298 -0.0715 -1.9077
  545TMC3    C7 8094   2.875   4.148  17.461  0.4096 -0.7606 -0.0941
  545TMC3    C8 8095   3.153   4.236  17.082  0.6413 -0.2777  0.2064
  545TMC3    O1 8096   2.762   4.157  17.512  0.5578 -0.8177  0.0040
  545TMC3    O2 8097   3.230   4.325  17.037  0.6924 -0.1643  0.6763
  546MPD2     C 8098   4.284   0.664  17.443 -0.1386 -0.3745  0.7380
  546MPD2    C1 8099   4.220   0.771  17.387 -0.3577 -0.3766  0.2118
  546MPD2    C2 8100   4.300   0.867  17.338 -1.0130  0.2220 -0.1780
  546MPD2    C3 8101   4.436   0.863  17.347 -0.6031 -0.4270  0.4984
  546MPD2    C4 8102   4.493   0.760  17.419 -0.3267  1.2639 -0.1887
  546MPD2    C5 8103   4.415   0.665  17.472 -0.2086  0.5189 -0.5328
  546MPD2     H 8104   4.251   0.944  17.280  1.4556  0.7555 -1.5391
  546MPD2    H1 8105   4.600   0.756  17.439 -0.4623  0.9423  0.4655
  546MPD2    H2 8106   4.221   0.579  17.467 -0.2255 -0.0989  1.4933
  546MPD2    H3 8107   4.453   0.575  17.519 -1.0220  0.4037 -0.0949
  546MPD2     N 8108   4.521   0.966  17.308  0.3954 -0.1446  0.1593
  546MPD2    H5 8109   4.618   0.946  17.330  0.8894  1.0989 -0.8919
  546MPD2    N1 8110   4.078   0.772  17.389  0.0351  0.0776  0.3283
  546MPD2    H7 8111   4.031   0.683  17.406  0.8977 -0.5438 -0.5047
  547TMC3    C1 8112   3.858   0.864  17.382  0.2220 -0.0683 -0.1563
  547TMC3    C2 8113   3.778   0.924  17.289 -1.1275  0.3039  0.4378
  547TMC3    C3 8114   3.643   0.891  17.297  0.1324  0.4208 -0.2615
  547TMC3    C4 8115   3.813   0.786  17.485  0.1713 -0.1351 -0.2484
  547TMC3    C5 8116   3.674   0.752  17.492 -0.4554 -1.1115  0.1559
  547TMC3    C6 8117   3.591   0.801  17.391  0.2167 -0.2064  0.4562
  547TMC3     C 8118   4.002   0.886  17.367  0.1185 -0.1653  0.2845
  547TMC3     O 8119   4.032   0.995  17.322  0.5421 -0.2862 -0.3448
  547TMC3     H 8120   3.816   0.969  17.198  1.3097  2.3191  2.4552
  547TMC3    H1 8121   3.882   0.736  17.552  1.0724  0.4542 -0.7432
  547TMC3    H2 8122   3.487   0.772  17.382  0.3492 -1.4029  2.6387
  547TMC3    C7 8123   3.649   0.636  17.569 -0.0178  0.1229  0.2093
  547TMC3    C8 8124   3.583   0.897  17.165 -0.1300  0.0305  0.3156
  547TMC3    O1 8125   3.708   0.632  17.677  0.6067  0.5541  0.2556
  547TMC3    O2 8126   3.479   0.965  17.155 -0.5530 -0.4483 -0.1812
  548MPD2     C 8127   4.115   1.263  12.363 -0.5212  0.0311  0.4155
  548MPD2    C1 8128   4.123   1.189  12.476 -0.0300  0.6310  0.7942
  548MPD2    C2 8129   4.243   1.122  12.503 -0.5242  0.2392 -0.2106
  548MPD2    C3 8130   4.338   1.118  12.400 -0.3746 -0.0181 -0.1042
  548MPD2    C4 8131   4.324   1.193  12.283 -0.3625  0.3308  0.2846
  548MPD2    C5 8132   4.215   1.275  12.270 -0.8059  0.6219  0.0916
  548MPD2     H 8133   4.257   1.059  12.591 -1.7966 -0.5716 -0.5827
  548MPD2    H1 8134   4.395   1.194  12.202  0.2626  4.2956  0.9105
  548MPD2    H2 8135   4.028   1.320  12.334  0.7079  1.3945 -0.5614
  548MPD2    H3 8136   4.204   1.329  12.176  1.5943  0.4622 -0.2860
  548MPD2     N 8137   4.446   1.036  12.423 -0.2447 -0.2756 -0.4005
  548MPD2    H5 8138   4.444   0.986  12.511  1.1817 -0.4227 -0.4623
  548MPD2    N1 8139   4.010   1.187  12.554 -0.1379 -0.1808 -0.0727
  548MPD2    H7 8140   3.931   1.244  12.523 -1.4116 -1.9124 -0.0373
  549TMC3    C1 8141   3.866   1.140  12.737  0.5071  0.2259 -0.5026
  549TMC3    C2 8142   3.802   1.260  12.716 -0.0623  0.1982 -0.1264
  549TMC3    C3 8143   3.704   1.295  12.803 -0.2871  1.0288  0.6812
  549TMC3    C4 8144   3.833   1.055  12.837 -0.7303 -0.2061 -0.2606
  549TMC3    C5 8145   3.726   1.090  12.916 -0.0908  0.4475  0.9603
  549TMC3    C6 8146   3.664   1.211  12.905 -1.0221  0.1000 -0.5802
  549TMC3     C 8147   3.995   1.114  12.669  0.7273 -0.1958  0.3278
  549TMC3     O 8148   4.062   1.030  12.732  0.1388  0.1535  0.0704
  549TMC3     H 8149   3.828   1.317  12.628 -2.5040  0.5992 -0.6008
  549TMC3    H1 8150   3.879   0.960  12.865  1.0422  0.3149 -1.4199
  549TMC3    H2 8151   3.579   1.236  12.967 -1.5536 -1.3060 -0.7537
  549TMC3    C7 8152   3.704   1.023  13.043 -0.9096  0.9132 -0.1855
  549TMC3    C8 8153   3.629   1.415  12.780  0.2962  0.4034  0.1171
  549TMC3    O1 8154   3.697   1.088  13.143  0.4342  0.0133  0.0052
  549TMC3    O2 8155   3.519   1.421  12.826 -0.1821  0.2911 -1.1658
  550TMC3    C1 8156   2.991   3.824  12.758 -0.3296  0.4670 -0.1254
  550TMC3    C2 8157   2.934   3.891  12.859  0.1377 -0.5214 -0.1176
  550TMC3    C3 8158   2.803   3.938  12.841 -0.1752  0.4372  0.2019
  550TMC3    C4 8159   2.922   3.813  12.636 -0.4705 -0.5995 -0.1988
  550TMC3    C5 8160   2.800   3.871  12.625  0.0520 -0.8737  1.0569
  550TMC3    C6 8161   2.735   3.934  12.725 -0.4189 -0.1422  0.4356
  550TMC3     C 8162   3.116   3.756  12.784  0.3606 -0.0052  0.3120
  550TMC3     O 8163   3.182   3.789  12.883  0.1688  0.4444 -0.0583
  550TMC3     H 8164   2.984   3.923  12.950 -2.7190  2.0149  0.5741
  550TMC3    H1 8165   2.956   3.755  12.551  0.2237 -1.4414  0.6618
  550TMC3    H2 8166   2.630   3.961  12.717 -0.4176 -0.5281 -0.8265
  550TMC3    C7 8167   2.751   3.871  12.493 -0.6705 -0.7145 -0.4018
  550TMC3    C8 8168   2.725   3.996  12.944  0.7539  0.0921  0.2130
  550TMC3    O1 8169   2.753   3.766  12.432  0.4823 -0.8181 -0.1275
  550TMC3    O2 8170   2.635   4.063  12.898  0.5740  1.3594 -0.0742
  551TMC3    C1 8171   0.457   1.627  13.399 -0.1118  0.4037  0.1792
  551TMC3    C2 8172   0.538   1.672  13.300  0.5369 -0.7519  0.2630
  551TMC3    C3 8173   0.613   1.783  13.330 -0.0478 -0.4205  0.5851
  551TMC3    C4 8174   0.457   1.679  13.528  0.0998  0.1770 -0.3429
  551TMC3    C5 8175   0.537   1.787  13.556 -1.2225 -0.1045 -0.4231
  551TMC3    C6 8176   0.617   1.840  13.455  0.4206 -0.2573 -0.0454
  551TMC3     C 8177   0.363   1.525  13.357  0.1231  0.7295  0.2487
  551TMC3     O 8178   0.373   1.494  13.238  0.6007 -0.0539  0.1041
  551TMC3     H 8179   0.541   1.623  13.203 -0.4818 -0.2902 -0.0012
  551TMC3    H1 8180   0.414   1.624  13.611  2.2827 -1.5257 -0.3544
  551TMC3    H2 8181   0.682   1.925  13.469 -1.2087  0.7470  1.4331
  551TMC3    C7 8182   0.563   1.814  13.698  0.0869  0.4323  0.3033
  551TMC3    C8 8183   0.703   1.824  13.229 -0.0238  0.4431 -0.3975
  551TMC3    O1 8184   0.521   1.747  13.791  0.4580 -0.6829 -0.2469
  551TMC3    O2 8185   0.740   1.743  13.145 -0.2544  0.0408 -0.5002
  552MPD2     C 8186   2.284   4.166  13.983  0.2131 -0.0272  0.6506
  552MPD2    C1 8187   2.242   4.050  14.038 -0.1383  0.0619  0.1405
  552MPD2    C2 8188   2.323   3.994  14.136  0.2074 -1.0188 -0.6489
  552MPD2    C3 8189   2.461   4.025  14.132 -0.1105  0.2193 -0.3187
  552MPD2    C4 8190   2.504   4.138  14.064  0.4390  0.2472 -0.0930
  552MPD2    C5 8191   2.413   4.213  13.989  0.0706  0.0629 -0.3576
  552MPD2     H 8192   2.289   3.913  14.200 -2.9596 -1.0621 -2.3917
  552MPD2    H1 8193   2.608   4.169  14.062  0.2217  1.0668  1.8042
  552MPD2    H2 8194   2.234   4.222  13.905 -0.9714  1.5650  2.5948
  552MPD2    H3 8195   2.439   4.310  13.949  1.8014  0.0966  0.8447
  552MPD2     N 8196   2.566   3.952  14.193  0.0631  0.7345 -0.1421
  552MPD2    H5 8197   2.661   3.979  14.170  0.6390  1.2177  2.8413
  552MPD2    N1 8198   2.112   3.998  14.022  0.6154  0.1717  0.9035
  552MPD2    H7 8199   2.098   3.915  14.080  0.3123  0.6132  1.4544
  553TMC3    C1 8200   1.903   3.944  13.941  0.4001  0.4490 -0.3270
  553TMC3    C2 8201   1.848   3.927  13.816  0.3907  0.3832  0.1277
  553TMC3    C3 8202   1.781   3.805  13.790  0.6483  0.2900  0.4279
  553TMC3    C4 8203   1.890   3.837  14.030 -0.9493  0.0888 -0.3062
  553TMC3    C5 8204   1.840   3.719  13.993 -0.1605 -0.2887  1.0884
  553TMC3    C6 8205   1.778   3.707  13.877 -0.3590 -0.1867  0.2685
  553TMC3     C 8206   2.018   4.034  13.934 -0.0560  0.4229  0.0448
  553TMC3     O 8207   2.021   4.127  13.857  0.0023  0.4746  0.0533
  553TMC3     H 8208   1.876   3.995  13.737 -0.3711  3.4485  2.4800
  553TMC3    H1 8209   1.941   3.849  14.126 -1.0507  2.2834 -0.5136
  553TMC3    H2 8210   1.707   3.628  13.857  0.5612 -0.9186 -0.0948
  553TMC3    C7 8211   1.946   3.620  13.978 -0.1113 -0.0862 -0.6161
  553TMC3    C8 8212   1.784   3.776  13.652  0.5459  0.3787  1.0623
  553TMC3    O1 8213   1.920   3.542  13.891 -0.6275 -0.3005  0.1671
  553TMC3    O2 8214   1.763   3.875  13.585  0.1856  0.4948 -0.4243
  554TMC3    C1 8215   3.959   2.822  11.766  0.3643  0.7718 -0.8250
  554TMC3    C2 8216   3.877   2.745  11.690 -0.8094  0.1968 -0.2842
  554TMC3    C3 8217   3.883   2.764  11.552 -0.3472 -0.0248  0.2078
  554TMC3    C4 8218   4.036   2.926  11.715  0.0976  0.8366  0.4504
  554TMC3    C5 8219   4.020   2.959  11.580 -0.6778 -0.0619 -0.6005
  554TMC3    C6 8220   3.944   2.871  11.498  0.9183 -0.1368  0.2472
  554TMC3     C 8221   3.999   2.775  11.897  0.1379  0.3319 -0.0047
  554TMC3     O 8222   4.066   2.856  11.964 -0.1268 -0.4290 -0.3658
  554TMC3     H 8223   3.817   2.663  11.729 -1.3684  1.3900  1.3815
  554TMC3    H1 8224   4.114   2.971  11.775 -0.7808 -0.0439  2.2446
  554TMC3    H2 8225   3.945   2.894  11.392 -3.3585 -0.8549  0.0504
  554TMC3    C7 8226   4.078   3.076  11.519  0.0903  0.0214 -0.3723
  554TMC3    C8 8227   3.814   2.677  11.465  0.9774 -0.5344  0.3550
  554TMC3    O1 8228   4.037   3.103  11.405 -0.1708 -0.4210  0.3353
  554TMC3    O2 8229   3.879   2.663  11.361 -0.1124  0.3653 -0.0745
  555TMC3    C1 8230   2.883   1.950  15.064 -0.7464  0.3643 -0.6134
  555TMC3    C2 8231   2.765   2.013  15.082  0.5298 -0.3149 -0.5666
  555TMC3    C3 8232   2.708   1.992  15.207  0.3953  0.4833 -1.0521
  555TMC3    C4 8233   2.956   1.877  15.156 -0.6188 -0.2971  0.0011
  555TMC3    C5 8234   2.894   1.860  15.282  0.1666  0.2606 -0.3891
  555TMC3    C6 8235   2.769   1.912  15.309 -0.4789  0.3117 -0.2310
  555TMC3     C 8236   2.962   2.003  14.952  0.1034 -0.0386  0.4202
  555TMC3     O 8237   3.087   1.993  14.956 -0.0966  0.5605 -0.2422
  555TMC3     H 8238   2.733   2.104  15.033  0.2707 -0.5572 -0.8410
  555TMC3    H1 8239   3.056   1.844  15.132 -0.7361 -0.4451 -0.2859
  555TMC3    H2 8240   2.731   1.912  15.410 -1.3700  1.3866 -0.5728
  555TMC3    C7 8241   2.916   1.745  15.364 -0.7546  0.2478 -0.0923
  555TMC3    C8 8242   2.648   2.110  15.254 -0.5022  0.0625  0.8031
  555TMC3    O1 8243   2.843   1.710  15.455 -0.5906 -0.4206 -0.1374
  555TMC3    O2 8244   2.540   2.131  15.198  0.5011  0.6359  0.0877
  556MPD2     C 8245   1.722   4.132  10.629 -0.6773 -0.0115  0.4974
  556MPD2    C1 8246   1.616   4.090  10.705  0.1664 -0.0952  0.6157
  556MPD2    C2 8247   1.523   4.013  10.632  0.2350  0.0468  0.7172
  556MPD2    C3 8248   1.528   3.981  10.498  0.7248  0.0652 -0.3717
  556MPD2    C4 8249   1.642   4.022  10.430 -0.0387 -0.1963  0.5228
  556MPD2    C5 8250   1.737   4.097  10.496 -0.4897  0.5852 -0.5111
  556MPD2     H 8251   1.438   3.978  10.691 -0.7612  0.3857 -0.5342
  556MPD2    H1 8252   1.663   3.989  10.329  3.3836 -0.3401  1.2962
  556MPD2    H2 8253   1.797   4.202  10.666 -0.8306  1.8857 -2.7514
  556MPD2    H3 8254   1.824   4.133  10.443 -1.4210  1.8039 -1.2410
  556MPD2     N 8255   1.421   3.903  10.442 -0.5722  0.2755  0.0598
  556MPD2    H5 8256   1.363   3.844  10.501 -0.9252  1.0954  0.5371
  556MPD2    N1 8257   1.582   4.145  10.835 -0.3403  0.2919  0.0371
  556MPD2    H7 8258   1.499   4.110  10.882 -0.3520  1.0922  0.6107
  557TMC3    C1 8259   1.321   3.778  10.280 -0.1057 -0.0405  0.3640
  557TMC3    C2 8260   1.246   3.791  10.163 -0.8665 -0.4038  0.6786
  557TMC3    C3 8261   1.154   3.689  10.143 -0.0628 -0.3527  0.3579
  557TMC3    C4 8262   1.298   3.682  10.371 -0.0187  0.5096 -0.6905
  557TMC3    C5 8263   1.210   3.585  10.338 -0.5454  0.1824  0.6160
  557TMC3    C6 8264   1.127   3.585  10.226  0.0669  0.0660 -0.0776
  557TMC3     C 8265   1.416   3.881  10.316  0.3768  0.5151 -0.1069
  557TMC3     O 8266   1.456   3.950  10.220  0.1735  0.1108  0.3944
  557TMC3     H 8267   1.253   3.879  10.099 -0.8093 -1.1529 -0.3547
  557TMC3    H1 8268   1.358   3.676  10.462  0.8928 -1.0540 -1.3975
  557TMC3    H2 8269   1.045   3.514  10.216 -0.3969  0.7418 -1.0244
  557TMC3    C7 8270   1.169   3.492  10.446 -0.4476  0.7329  0.0958
  557TMC3    C8 8271   1.061   3.717  10.031 -0.2708  1.2667  0.2968
  557TMC3    O1 8272   1.046   3.475  10.458 -0.1672  0.8232  0.1266
  557TMC3    O2 8273   1.046   3.831   9.987  0.0822 -1.1082 -0.3958
  558TMC3    C1 8274   3.776   2.308  10.360 -0.1481  0.2631 -0.2374
  558TMC3    C2 8275   3.662   2.313  10.432 -0.0067 -0.9438  0.2145
  558TMC3    C3 8276   3.540   2.312  10.354  0.2541  0.0759 -0.4906
  558TMC3    C4 8277   3.775   2.300  10.220 -0.2253  0.2930  0.5853
  558TMC3    C5 8278   3.656   2.293  10.152 -0.2880  0.0315  0.3568
  558TMC3    C6 8279   3.537   2.303  10.219  0.0597  0.1833  0.1770
  558TMC3     C 8280   3.901   2.254  10.416  0.3811  0.1599  0.2354
  558TMC3     O 8281   4.004   2.259  10.354  0.5219 -0.0646  0.4402
  558TMC3     H 8282   3.658   2.319  10.540 -0.1537  0.8393  0.0956
  558TMC3    H1 8283   3.865   2.308  10.161 -0.6382  0.6847  0.0083
  558TMC3    H2 8284   3.447   2.323  10.163  1.0944  1.1593 -1.1362
  558TMC3    C7 8285   3.662   2.317  10.010  0.8259 -0.3315 -0.4966
  558TMC3    C8 8286   3.408   2.313  10.423  0.2011 -1.0438  0.7738
  558TMC3    O1 8287   3.752   2.387   9.967 -0.2346 -0.6035 -0.5787
  558TMC3    O2 8288   3.306   2.329  10.358 -0.4001 -0.4149  0.0569
  559MPD2     C 8289   3.777   2.626  10.573 -0.8558 -0.0747  0.1561
  559MPD2    C1 8290   3.729   2.549  10.673  0.3306  0.3433 -0.2749
  559MPD2    C2 8291   3.824   2.503  10.762  0.5433  0.6320  0.9592
  559MPD2    C3 8292   3.956   2.532  10.749  0.0597 -0.0003 -0.3756
  559MPD2    C4 8293   4.003   2.601  10.641 -0.1599  0.8803 -0.3624
  559MPD2    C5 8294   3.908   2.646  10.551  0.0820  0.4632 -0.6362
  559MPD2     H 8295   3.800   2.446  10.851 -0.1424 -1.2470 -0.4164
  559MPD2    H1 8296   4.105   2.633  10.627  0.1626 -0.1658 -0.3946
  559MPD2    H2 8297   3.705   2.676  10.510  2.3784  0.8995 -2.7380
  559MPD2    H3 8298   3.940   2.701  10.463 -0.1741  1.5226 -0.0585
  559MPD2     N 8299   4.041   2.490  10.851  0.4514  0.0086 -0.1583
  559MPD2    H5 8300   3.989   2.429  10.913 -2.1428  1.9919 -0.3983
  559MPD2    N1 8301   3.586   2.547  10.689 -0.6661 -0.0406  0.4052
  559MPD2    H7 8302   3.527   2.586  10.616  3.0897  1.9967 -1.5936
  560TMC3    C1 8303   4.226   2.458  10.991  0.3145 -0.4767 -0.3928
  560TMC3    C2 8304   4.142   2.366  11.051  0.0266  0.0225  0.1229
  560TMC3    C3 8305   4.172   2.328  11.175 -0.1299  0.7184  0.4663
  560TMC3    C4 8306   4.337   2.509  11.055 -0.3357 -0.2392 -0.4306
  560TMC3    C5 8307   4.349   2.471  11.186  0.0615 -0.5427  0.0212
  560TMC3    C6 8308   4.273   2.382  11.254  0.4891 -0.0314 -0.2177
  560TMC3     C 8309   4.177   2.521  10.870  0.5752 -0.3504  0.1473
  560TMC3     O 8310   4.243   2.599  10.803 -0.3896  0.0958 -0.2078
  560TMC3     H 8311   4.070   2.307  10.995  1.0879 -0.8075 -0.3564
  560TMC3    H1 8312   4.399   2.580  11.001 -1.8787  0.7706 -0.8512
  560TMC3    H2 8313   4.266   2.368  11.362  0.2893 -0.6133 -0.3079
  560TMC3    C7 8314   4.463   2.527  11.254  0.1268  0.2671 -1.2642
  560TMC3    C8 8315   4.055   2.273  11.239  1.2313 -1.0207  0.1912
  560TMC3    O1 8316   4.526   2.600  11.180 -0.2415  0.0736  0.4851
  560TMC3    O2 8317   3.951   2.275  11.183 -0.4129 -0.0158 -0.4662
  561TMC3    C1 8318   1.753   1.384  11.528  0.7833  0.5215 -0.6830
  561TMC3    C2 8319   1.684   1.313  11.619 -0.7693  0.5516 -0.0680
  561TMC3    C3 8320   1.648   1.370  11.740 -0.2142  0.7129 -0.2514
  561TMC3    C4 8321   1.795   1.504  11.562  0.3791  0.1928 -0.2857
  561TMC3    C5 8322   1.766   1.561  11.684  0.5304  0.2076 -0.2458
  561TMC3    C6 8323   1.696   1.487  11.779  0.6469 -0.4198  0.0276
  561TMC3     C 8324   1.745   1.338  11.388 -0.6872 -0.0142 -0.4194
  561TMC3     O 8325   1.648   1.268  11.358  0.1929  0.0717 -0.4023
  561TMC3     H 8326   1.655   1.213  11.587  0.3892  0.4079 -0.6722
  561TMC3    H1 8327   1.845   1.569  11.491  1.4782  1.2359  1.4583
  561TMC3    H2 8328   1.675   1.531  11.876  0.2125 -2.6824  0.9705
  561TMC3    C7 8329   1.812   1.693  11.727  0.0103 -0.2491  0.1799
  561TMC3    C8 8330   1.589   1.285  11.835  0.2241  0.1713 -0.4682
  561TMC3    O1 8331   1.785   1.729  11.840 -0.7700  0.4177 -0.1521
  561TMC3    O2 8332   1.593   1.163  11.821 -0.7729 -0.2993  0.3822
  562TMC3    C1 8333   2.725   2.449  16.153  0.4542 -0.3849  0.9150
  562TMC3    C2 8334   2.651   2.561  16.114 -0.2244  0.4436 -0.0823
  562TMC3    C3 8335   2.606   2.563  15.988  0.0714 -0.4510  0.2299
  562TMC3    C4 8336   2.753   2.347  16.065 -0.2020  0.0747 -0.2815
  562TMC3    C5 8337   2.710   2.362  15.938  0.3210 -0.0728 -0.3487
  562TMC3    C6 8338   2.639   2.467  15.896 -0.2098 -0.1300  0.2005
  562TMC3     C 8339   2.718   2.420  16.293 -0.5944  0.4634  0.3474
  562TMC3     O 8340   2.629   2.468  16.365 -0.4411  0.2886  0.0428
  562TMC3     H 8341   2.614   2.638  16.182  1.4094 -0.3214  1.6649
  562TMC3    H1 8342   2.801   2.257  16.099 -0.1225  0.4520  0.6158
  562TMC3    H2 8343   2.609   2.468  15.792  0.7058 -0.7373 -0.0759
  562TMC3    C7 8344   2.765   2.273  15.839 -0.2268 -0.2313 -0.1705
  562TMC3    C8 8345   2.510   2.668  15.961 -0.0710  0.3415  0.9865
  562TMC3    O1 8346   2.702   2.249  15.738 -0.2014  0.6705 -0.2763
  562TMC3    O2 8347   2.464   2.725  16.055  0.3393  0.0627 -0.1040
  563MPD2     C 8348   0.320   4.092  15.559  0.2780 -0.7633  0.0217
  563MPD2    C1 8349   0.292   3.986  15.641  0.0490 -0.3053  0.3608
  563MPD2    C2 8350   0.391   3.894  15.665 -0.6125 -0.0896  0.7882
  563MPD2    C3 8351   0.516   3.906  15.612  0.4870  0.0855 -0.0302
  563MPD2    C4 8352   0.542   4.015  15.533  0.2233 -0.2294  0.9747
  563MPD2    C5 8353   0.451   4.110  15.511 -0.4766  0.5216 -0.2213
  563MPD2     H 8354   0.364   3.805  15.721 -0.9903  0.5067  1.5473
  563MPD2    H1 8355   0.638   4.045  15.492 -0.6498 -0.5888 -1.3282
  563MPD2    H2 8356   0.244   4.169  15.550  0.6490 -0.4963 -0.8237
  563MPD2    H3 8357   0.490   4.192  15.452  0.1095 -1.3602 -2.4683
  563MPD2     N 8358   0.612   3.819  15.653  0.0806 -0.5265 -0.1040
  563MPD2    H5 8359   0.591   3.747  15.721 -0.4019  1.2408  1.5918
  563MPD2    N1 8360   0.176   3.991  15.721 -0.6187  0.1486  1.1175
  563MPD2    H7 8361   0.132   4.082  15.733  1.8610  1.0575  3.0886
  564TMC3    C1 8362   0.051   3.942  15.912 -0.3596  0.2031  0.6144
  564TMC3    C2 8363   4.648   3.881  15.930 -0.3632  0.4972 -0.5237
  564TMC3    C3 8364   4.612   3.869  16.064 -0.0852 -0.0791  0.4011
  564TMC3    C4 8365   0.136   3.968  16.010 -0.0609  0.5524 -0.4817
  564TMC3    C5 8366   0.102   3.948  16.142  0.1362  0.8841 -0.0982
  564TMC3    C6 8367   4.696   3.906  16.164  0.4047 -0.5260 -0.1533
  564TMC3     C 8368   0.115   3.888  15.796 -0.5471  0.0056  0.3782
  564TMC3     O 8369   0.129   3.767  15.796 -0.7265 -0.0518  0.2153
  564TMC3     H 8370   4.596   3.833  15.848 -2.2636  0.1481  0.8924
  564TMC3    H1 8371   0.240   3.984  15.985  0.1821 -0.8575 -0.3727
  564TMC3    H2 8372   4.659   3.910  16.266  0.0239 -1.8009 -0.2347
  564TMC3    C7 8373   0.196   3.865  16.203  0.8399 -0.8907  0.5839
  564TMC3    C8 8374   4.538   3.746  16.089 -0.2447  0.3091  0.3602
  564TMC3    O1 8375   0.314   3.904  16.211  0.4050 -0.1056  0.4807
  564TMC3    O2 8376   4.528   3.717  16.206  0.0870 -0.1096  0.3232
  565TMC3    C1 8377   1.252   1.011  10.124  0.2985  0.0615  0.7316
  565TMC3    C2 8378   1.235   0.931  10.232 -0.6991  0.1256  0.0016
  565TMC3    C3 8379   1.189   0.807  10.213 -0.0515  0.1256  0.0675
  565TMC3    C4 8380   1.218   0.973   9.998  0.4100 -0.0876  0.2650
  565TMC3    C5 8381   1.163   0.842   9.989 -0.0926  0.6741 -1.2378
  565TMC3    C6 8382   1.143   0.755  10.097 -0.4606  0.2323  0.0985
  565TMC3     C 8383   1.301   1.144  10.137 -0.0606  0.3817  0.3950
  565TMC3     O 8384   1.311   1.210  10.038  0.6415  0.2092 -0.5634
  565TMC3     H 8385   1.255   0.970  10.331 -1.3775 -0.2539  0.2916
  565TMC3    H1 8386   1.244   1.039   9.917  0.5708 -0.8078 -0.2772
  565TMC3    H2 8387   1.133   0.648  10.083 -0.3420  0.3832 -1.1474
  565TMC3    C7 8388   1.120   0.811   9.853 -0.4123  0.5601 -0.0371
  565TMC3    C8 8389   1.163   0.733  10.333  0.4592 -0.0989 -0.3299
  565TMC3    O1 8390   1.140   0.889   9.761  0.0378 -0.2276 -0.2368
  565TMC3    O2 8391   1.224   0.766  10.435  0.1988 -0.0472 -0.3001
  566MPD2     C 8392   2.363   1.691  14.441 -0.4007 -0.0007  0.4246
  566MPD2    C1 8393   2.418   1.807  14.391 -0.2617  1.2264  0.2853
  566MPD2    C2 8394   2.350   1.887  14.305  0.0066 -0.1635  0.6191
  566MPD2    C3 8395   2.219   1.847  14.266  0.2297 -0.1378 -0.3667
  566MPD2    C4 8396   2.168   1.722  14.312 -0.0380  0.6503 -0.4249
  566MPD2    C5 8397   2.243   1.650  14.402  0.3036 -0.0618 -0.0563
  566MPD2     H 8398   2.381   1.982  14.263 -0.1664 -0.1947  0.4192
  566MPD2    H1 8399   2.071   1.695  14.274  0.9951 -2.3073 -0.9418
  566MPD2    H2 8400   2.417   1.623  14.506  0.2924 -0.1812 -0.3362
  566MPD2    H3 8401   2.211   1.550  14.429 -0.0356 -0.0437 -0.3910
  566MPD2     N 8402   2.153   1.938  14.177  0.2719 -0.0237  0.4517
  566MPD2    H5 8403   2.196   2.029  14.170 -0.3307  0.2012 -0.3137
  566MPD2    N1 8404   2.551   1.839  14.424 -0.3493 -0.6124  0.4911
  566MPD2    H7 8405   2.602   1.771  14.480 -1.5765 -0.8238  1.3530
  567TMC3    C1 8406   2.765   1.948  14.448 -0.3187  0.3449 -0.3089
  567TMC3    C2 8407   2.861   2.015  14.380  0.0640 -0.0097  0.2415
  567TMC3    C3 8408   2.990   1.971  14.384  1.0209  0.3090 -0.1255
  567TMC3    C4 8409   2.793   1.849  14.530  0.0207 -0.5399 -0.1289
  567TMC3    C5 8410   2.927   1.803  14.535 -0.1696  0.4042  0.0794
  567TMC3    C6 8411   3.024   1.864  14.457  0.3380  0.4883 -0.8639
  567TMC3     C 8412   2.628   1.949  14.388  0.0039  0.0063  0.6505
  567TMC3     O 8413   2.598   2.031  14.306  0.3271  0.0702  0.0279
  567TMC3     H 8414   2.823   2.098  14.322 -0.6759 -0.7872 -0.3931
  567TMC3    H1 8415   2.718   1.801  14.592  0.0482  1.1938  1.2461
  567TMC3    H2 8416   3.128   1.842  14.479 -1.0591 -0.6216  4.3991
  567TMC3    C7 8417   2.971   1.711  14.642  0.0517  0.3132 -0.7224
  567TMC3    C8 8418   3.080   2.024  14.284  0.3751  0.4137  0.2636
  567TMC3    O1 8419   3.087   1.666  14.642 -0.1793  0.0472 -0.2463
  567TMC3    O2 8420   3.046   2.132  14.237  0.2280  0.0194  0.4791
  568MPD2     C 8421   0.566   2.741  16.754  0.4161  1.3115 -0.2056
  568MPD2    C1 8422   0.472   2.789  16.849  0.1466 -0.2353  0.1938
  568MPD2    C2 8423   0.369   2.872  16.813  0.5739 -0.1386  0.1421
  568MPD2    C3 8424   0.352   2.907  16.675 -0.4381 -0.2228  0.3786
  568MPD2    C4 8425   0.439   2.851  16.582 -0.0948 -0.2870  0.1361
  568MPD2    C5 8426   0.540   2.763  16.622 -0.4805  0.3570 -0.3052
  568MPD2     H 8427   0.292   2.908  16.879  0.9982  0.7779  0.1318
  568MPD2    H1 8428   0.447   2.884  16.479 -1.7673 -0.3746 -0.0138
  568MPD2    H2 8429   0.645   2.672  16.781  0.8921  3.0039  2.6160
  568MPD2    H3 8430   0.609   2.723  16.549 -3.2504 -2.8390 -1.1578
  568MPD2     N 8431   0.249   2.996  16.637 -0.3054  0.0282 -0.4848
  568MPD2    H5 8432   0.185   3.032  16.707 -0.0967  1.0860 -0.8394
  568MPD2    N1 8433   0.491   2.748  16.982 -0.0286 -0.6035  0.0624
  568MPD2    H7 8434   0.567   2.683  17.001  0.2100 -1.1770 -2.8889
  569TMC3    C1 8435   0.079   3.063  16.503 -0.6011  0.0742  0.2349
  569TMC3    C2 8436   0.046   3.166  16.587  0.2060 -0.3116  0.4807
  569TMC3    C3 8437   4.646   3.226  16.584 -0.1997  0.3444 -0.0847
  569TMC3    C4 8438   4.714   3.028  16.400 -0.0366 -0.0389  0.4532
  569TMC3    C5 8439   4.587   3.077  16.406 -0.0396 -0.6177 -0.2611
  569TMC3    C6 8440   4.550   3.176  16.495 -0.2144  0.2007  0.7176
  569TMC3     C 8441   0.211   2.998  16.506  0.0296 -0.7741  0.8190
  569TMC3     O 8442   0.242   2.939  16.404  0.0980 -0.1700 -0.0536
  569TMC3     H 8443   0.113   3.204  16.663  1.3529 -3.2535  0.9105
  569TMC3    H1 8444   0.009   2.940  16.338  0.4507  0.6530 -0.3856
  569TMC3    H2 8445   4.448   3.214  16.495  0.8347  2.9720 -0.1123
  569TMC3    C7 8446   4.564   3.111  16.269  0.0416 -0.0072 -0.1773
  569TMC3    C8 8447   4.645   3.372  16.588  0.5259 -0.7996 -0.1327
  569TMC3    O1 8448   4.594   3.020  16.189 -0.0217 -0.0392  0.2356
  569TMC3    O2 8449   4.567   3.416  16.505  0.0419 -0.7005  0.3435
  570TMC3    C1 8450   4.270   1.705  16.619 -0.4344 -0.1611 -0.0536
  570TMC3    C2 8451   4.342   1.666  16.510 -0.1908 -0.1393  0.3080
  570TMC3    C3 8452   4.307   1.728  16.387 -0.3963 -0.2926 -0.3487
  570TMC3    C4 8453   4.164   1.783  16.615  0.2433  0.2112  0.2761
  570TMC3    C5 8454   4.138   1.845  16.495  0.1745  0.4457  0.5444
  570TMC3    C6 8455   4.212   1.818  16.377 -0.7558  0.0397  0.7147
  570TMC3     C 8456   4.296   1.622  16.735 -0.0709 -0.0485 -0.7032
  570TMC3     O 8457   4.313   1.499  16.720  0.0239 -0.3676 -0.0306
  570TMC3     H 8458   4.429   1.601  16.523  0.2217  0.7554  1.9884
  570TMC3    H1 8459   4.101   1.783  16.703 -1.6354  1.1883 -1.0706
  570TMC3    H2 8460   4.192   1.863  16.280 -1.3976  0.5080  1.0713
  570TMC3    C7 8461   4.057   1.963  16.507  0.1733  0.0093 -0.4059
  570TMC3    C8 8462   4.397   1.732  16.273  0.6046  0.1300  0.3036
  570TMC3    O1 8463   4.048   2.028  16.612  0.1281 -0.0746 -0.2783
  570TMC3    O2 8464   4.377   1.811  16.176 -0.4201 -0.1642 -0.5564
  571MPD2     C 8465   2.498   3.374  17.049 -0.2492 -0.0611 -0.4382
  571MPD2    C1 8466   2.550   3.418  17.164  0.0347 -0.3357 -0.0785
  571MPD2    C2 8467   2.471   3.487  17.253 -0.6552 -0.1731  0.2324
  571MPD2    C3 8468   2.333   3.504  17.231  0.3693 -0.0577 -0.6495
  571MPD2    C4 8469   2.282   3.455  17.114  0.3454  0.4993 -0.6115
  571MPD2    C5 8470   2.365   3.400  17.022 -0.3433 -0.2083 -0.3570
  571MPD2     H 8471   2.523   3.523  17.341 -2.5013  1.7530  0.5428
  571MPD2    H1 8472   2.180   3.473  17.080 -0.1040  1.0288  1.0178
  571MPD2    H2 8473   2.558   3.321  16.975  0.6716 -3.5246  2.8029
  571MPD2    H3 8474   2.326   3.361  16.928  2.1426 -0.4732 -1.2798
  571MPD2     N 8475   2.249   3.588  17.308 -0.9317  0.0049 -0.0999
  571MPD2    H5 8476   2.153   3.593  17.275  0.0406  0.0626 -2.9659
  571MPD2    N1 8477   2.683   3.379  17.196  0.8975  0.4420  0.0022
  571MPD2    H7 8478   2.737   3.332  17.124  0.8134 -0.3160  0.4283
  572TMC3    C1 8479   2.194   3.735  17.477 -1.1154  0.7818 -0.4117
  572TMC3    C2 8480   2.082   3.658  17.509  0.3823  0.6096  0.4434
  572TMC3    C3 8481   2.010   3.701  17.615 -0.3953  0.1282 -0.4895
  572TMC3    C4 8482   2.234   3.856  17.536 -0.4635 -0.1265  0.7168
  572TMC3    C5 8483   2.144   3.899  17.633  1.0914  0.0403  0.3078
  572TMC3    C6 8484   2.034   3.822  17.675 -0.6661  0.2155 -0.6009
  572TMC3     C 8485   2.295   3.674  17.406 -0.9971 -0.2792 -0.4053
  572TMC3     O 8486   2.414   3.707  17.429 -0.6692  0.2404  0.0663
  572TMC3     H 8487   2.067   3.557  17.472  1.8776  0.2044  0.9509
  572TMC3    H1 8488   2.316   3.909  17.490 -2.9158  3.2504  0.2029
  572TMC3    H2 8489   1.960   3.855   0.054  0.7058  1.5705  0.2048
  572TMC3    C7 8490   2.144   4.037  17.675  0.1160  0.2274  0.2810
  572TMC3    C8 8491   1.898   3.619  17.646 -0.1664 -0.4242 -0.2077
  572TMC3    O1 8492   2.040   4.084   0.029 -0.1632 -0.0871 -0.1260
  572TMC3    O2 8493   1.850   3.551  17.555  0.0083 -0.5954  0.1950
  573MPD2     C 8494   4.004   3.913   0.963 -0.3659 -0.4876 -0.9128
  573MPD2    C1 8495   3.870   3.942   0.974  0.0580 -0.6251  0.1220
  573MPD2    C2 8496   3.791   3.954   0.862  0.2741  0.2758 -0.4184
  573MPD2    C3 8497   3.859   3.933   0.740 -0.2614 -0.5805  0.9170
  573MPD2    C4 8498   3.998   3.908   0.734  0.9175 -0.2199  1.1223
  573MPD2    C5 8499   4.071   3.909   0.848 -0.6369 -0.3308  0.3150
  573MPD2     H 8500   3.683   3.958   0.866  0.1854 -1.2195 -1.1623
  573MPD2    H1 8501   4.045   3.895   0.637  1.4824  2.0000  1.1172
  573MPD2    H2 8502   4.068   3.906   1.051 -2.8563 -0.7307  0.8900
  573MPD2    H3 8503   4.176   3.883   0.844 -0.2164  1.4355 -0.0998
  573MPD2     N 8504   3.795   3.920   0.615  0.2999  0.1682 -0.1486
  573MPD2    H5 8505   3.853   3.889   0.538 -1.6615 -0.1704 -1.5043
  573MPD2    N1 8506   3.820   3.968   1.107 -0.7727 -0.4785  0.2619
  573MPD2    H7 8507   3.885   3.939   1.180  0.4634  0.7280 -0.3580
  574TMC3    C1 8508   3.626   3.906   0.448 -0.3765  0.0793  0.0234
  574TMC3    C2 8509   3.495   3.901   0.419  0.5219 -0.3923  0.6700
  574TMC3    C3 8510   3.455   3.887   0.289  0.1405 -0.7576 -0.5581
  574TMC3    C4 8511   3.719   3.899   0.349 -0.1955  0.3142 -0.3347
  574TMC3    C5 8512   3.677   3.884   0.219  0.4260 -0.2081  0.1392
  574TMC3    C6 8513   3.540   3.871   0.185 -0.2967 -0.1360  1.0952
  574TMC3     C 8514   3.657   3.933   0.591  0.7675 -1.3866  0.1900
  574TMC3     O 8515   3.568   3.975   0.663 -0.5203 -0.5527 -0.1713
  574TMC3     H 8516   3.424   3.904   0.500  0.8065 -2.3611  0.9827
  574TMC3    H1 8517   3.824   3.920   0.367  0.1981 -0.6652 -1.5091
  574TMC3    H2 8518   3.504   3.840   0.088  0.7981  1.0888  0.2877
  574TMC3    C7 8519   3.769   3.878   0.107  0.4540 -0.5243  0.2719
  574TMC3    C8 8520   3.312   3.861   0.270 -0.6068  0.1718 -0.2629
  574TMC3    O1 8521   3.721   3.891  17.689  0.0036 -0.1390 -0.2870
  574TMC3    O2 8522   3.238   3.818   0.361  0.4790  0.1380 -0.0292
  575TMC3    C1 8523   1.368   0.259  11.085  0.0948 -0.1691  0.0180
  575TMC3    C2 8524   1.394   0.132  11.043 -0.5843 -0.3321 -0.3665
  575TMC3    C3 8525   1.396   0.108  10.911 -0.6014  0.3116  0.3510
  575TMC3    C4 8526   1.320   0.352  10.997  0.4820 -0.2147  0.5831
  575TMC3    C5 8527   1.305   0.322  10.863  0.1270  0.1752 -0.2385
  575TMC3    C6 8528   1.356   0.203  10.812 -0.1833  0.5278 -0.5305
  575TMC3     C 8529   1.382   0.285  11.231 -0.5661 -0.1515  0.3103
  575TMC3     O 8530   1.360   0.186  11.299 -0.1373 -0.6479 -0.1377
  575TMC3     H 8531   1.435   0.055  11.107 -1.2151 -1.8562 -1.7888
  575TMC3    H1 8532   1.282   0.445  11.038 -0.2009 -1.1176  1.9843
  575TMC3    H2 8533   1.340   0.187  10.706 -0.5008  1.1476 -0.5781
  575TMC3    C7 8534   1.238   0.414  10.769 -0.1056 -0.2837  0.5549
  575TMC3    C8 8535   1.450   4.713  10.862 -0.0544 -0.7487  0.1669
  575TMC3    O1 8536   1.242   0.534  10.797  0.0615 -0.2486 -0.5349
  575TMC3    O2 8537   1.540   4.661  10.924  0.7993 -0.2175  0.2939
  576MPD2     C 8538   0.593   1.741  12.851  0.7838  0.3300 -0.0287
  576MPD2    C1 8539   0.670   1.836  12.782 -0.7424  0.0254 -0.3265
  576MPD2    C2 8540   0.636   1.967  12.804 -0.6632 -0.1259 -0.0733
  576MPD2    C3 8541   0.546   2.012  12.902 -0.4801 -0.0003  0.2591
  576MPD2    C4 8542   0.484   1.914  12.973  0.0708 -0.4932  0.0276
  576MPD2    C5 8543   0.501   1.785  12.947  0.0632 -0.1159 -0.0175
  576MPD2     H 8544   0.681   2.049  12.749  0.6880  0.5516  2.0338
  576MPD2    H1 8545   0.411   1.933  13.051  0.7618 -2.5831  1.1820
  576MPD2    H2 8546   0.596   1.635  12.827  1.7770  0.3301  0.1038
  576MPD2    H3 8547   0.438   1.712  12.996 -0.2682 -1.5846 -2.6229
  576MPD2     N 8548   0.527   2.152  12.907  0.2960  0.0447  0.7380
  576MPD2    H5 8549   0.579   2.209  12.841  0.8997 -1.4532 -0.0906
  576MPD2    N1 8550   0.763   1.813  12.677 -0.1732  0.3288 -0.4586
  576MPD2    H7 8551   0.788   1.896  12.624 -2.0055  1.4478  0.4547
  577TMC3    C1 8552   0.922   1.694  12.545  0.1002  0.1527  0.0987
  577TMC3    C2 8553   1.001   1.583  12.528  0.6266 -0.3126  0.1667
  577TMC3    C3 8554   1.102   1.590  12.438  0.3100  0.1855  0.4392
  577TMC3    C4 8555   0.947   1.811  12.475 -0.3400 -0.1410 -0.1089
  577TMC3    C5 8556   1.057   1.817  12.403  1.6592  0.3637  0.1626
  577TMC3    C6 8557   1.139   1.709  12.378 -0.1535  0.2128  0.4603
  577TMC3     C 8558   0.829   1.690  12.658 -0.2237  0.0371  0.4889
  577TMC3     O 8559   0.817   1.592  12.727  0.4148 -0.1226 -0.7103
  577TMC3     H 8560   0.985   1.495  12.589 -0.2916  0.3052  0.8249
  577TMC3    H1 8561   0.893   1.901  12.502  0.9881  1.0575 -1.4433
  577TMC3    H2 8562   1.213   1.715  12.299 -0.0576 -1.6682  0.4098
  577TMC3    C7 8563   1.060   1.932  12.321 -0.1029  0.3401  0.2364
  577TMC3    C8 8564   1.159   1.465  12.395 -0.3678  0.0664  0.6232
  577TMC3    O1 8565   0.959   2.001  12.308  0.0390  0.1760  0.7165
  577TMC3    O2 8566   1.162   1.371  12.470  0.0285 -0.5901 -0.7521
  578MPD2     C 8567   3.689   1.337   0.773  0.7293  0.2322  0.2077
  578MPD2    C1 8568   3.789   1.262   0.714  0.3495 -0.4232 -0.2820
  578MPD2    C2 8569   3.829   1.142   0.763 -0.3489 -0.4589  0.2420
  578MPD2    C3 8570   3.775   1.102   0.885 -0.6776 -0.0775 -0.5579
  578MPD2    C4 8571   3.684   1.181   0.953 -0.1864  0.1995  0.5594
  578MPD2    C5 8572   3.644   1.301   0.899  0.2373 -0.1579  0.4896
  578MPD2     H 8573   3.889   1.073   0.706 -1.3528 -0.1740 -1.1852
  578MPD2    H1 8574   3.648   1.148   1.050  0.1213 -1.3663  0.1427
  578MPD2    H2 8575   3.648   1.423   0.721 -1.1696 -0.6274  0.2838
  578MPD2    H3 8576   3.562   1.360   0.940  2.4367  1.6161  2.3924
  578MPD2     N 8577   3.827   0.980   0.927 -0.1053 -0.6337 -0.0416
  578MPD2    H5 8578   3.876   0.919   0.862 -1.3627 -0.7844 -0.8593
  578MPD2    N1 8579   3.849   1.318   0.593  0.0117 -0.4235  0.1247
  578MPD2    H7 8580   3.826   1.410   0.557 -0.9260 -0.4559  0.6480
  579TMC3    C1 8581   3.900   0.827   1.069 -0.1535 -0.2115  0.1197
  579TMC3    C2 8582   4.023   0.885   1.099 -0.9378  0.4432  0.1661
  579TMC3    C3 8583   4.130   0.804   1.125  0.3247  0.6460 -0.5139
  579TMC3    C4 8584   3.898   0.690   1.037  0.4225  0.6385  0.2956
  579TMC3    C5 8585   4.014   0.617   1.048 -0.1828 -0.8856  0.8717
  579TMC3    C6 8586   4.127   0.674   1.094  0.4045 -0.0813 -0.9307
  579TMC3     C 8587   3.792   0.914   1.042  0.3067  0.2414 -0.9354
  579TMC3     O 8588   3.739   0.960   1.139  0.2819  0.4863  0.9370
  579TMC3     H 8589   4.031   0.990   1.127  0.6894  0.5827 -0.8544
  579TMC3    H1 8590   3.804   0.652   0.998  0.4551  1.4784 -0.5952
  579TMC3    H2 8591   4.209   0.611   1.128  0.9251  1.2786  0.3586
  579TMC3    C7 8592   4.017   0.477   1.029 -0.8369 -0.3041 -0.0951
  579TMC3    C8 8593   4.253   0.882   1.139 -0.4353 -0.0565  0.0576
  579TMC3    O1 8594   4.126   0.431   1.002  0.1295  0.5658  0.3632
  579TMC3    O2 8595   4.247   0.995   1.187  0.1641  0.5145 -0.3170
  580TMC3    C1 8596   3.277   0.490  12.087 -0.2683 -0.2121  0.0371
  580TMC3    C2 8597   3.283   0.623  12.117 -0.1702  0.0068  0.0219
  580TMC3    C3 8598   3.335   0.660  12.232  0.1321 -0.1011 -0.3032
  580TMC3    C4 8599   3.350   0.400  12.160 -0.4122  0.1920 -0.4906
  580TMC3    C5 8600   3.413   0.445  12.275  0.2690 -0.7118 -0.0228
  580TMC3    C6 8601   3.397   0.574  12.312 -0.6344 -0.0418 -0.1021
  580TMC3     C 8602   3.247   0.456  11.950  0.1268 -0.3524  0.1200
  580TMC3     O 8603   3.238   0.550  11.867  0.3359 -0.4113 -0.0693
  580TMC3     H 8604   3.242   0.699  12.051 -1.4557 -0.9543 -0.2814
  580TMC3    H1 8605   3.364   0.302  12.116  0.5206 -0.7262  1.8520
  580TMC3    H2 8606   3.434   0.597  12.411  1.4640  1.5045 -1.2541
  580TMC3    C7 8607   3.494   0.358  12.357 -0.2426  0.5778 -0.2496
  580TMC3    C8 8608   3.376   0.803  12.243  0.2918  0.0006 -0.3780
  580TMC3    O1 8609   3.549   0.401  12.458 -0.0651 -0.5277 -0.1146
  580TMC3    O2 8610   3.305   0.890  12.191 -0.1766 -0.0187  0.1477
  581MPD2     C 8611   1.582   0.365  14.820  0.2354 -0.2161  0.5073
  581MPD2    C1 8612   1.454   0.345  14.870 -0.5636  0.3755 -0.3269
  581MPD2    C2 8613   1.351   0.412  14.804 -0.6049  0.2740  0.0538
  581MPD2    C3 8614   1.375   0.506  14.706  0.4788 -0.3406 -0.6486
  581MPD2    C4 8615   1.504   0.543  14.675  0.4057  0.2542  0.2562
  581MPD2    C5 8616   1.601   0.462  14.720 -1.0161 -0.5811 -0.0352
  581MPD2     H 8617   1.249   0.383  14.824  0.9224 -4.5107  1.0106
  581MPD2    H1 8618   1.529   0.612  14.595 -0.4513 -0.1593 -0.3702
  581MPD2    H2 8619   1.661   0.301  14.857  0.8714 -0.7621 -1.7968
  581MPD2    H3 8620   1.695   0.483  14.671  0.0064 -1.3282  1.6254
  581MPD2     N 8621   1.263   0.572  14.657 -0.1283 -0.2780  0.1510
  581MPD2    H5 8622   1.171   0.549  14.693 -0.1959  1.5259  1.1351
  581MPD2    N1 8623   1.411   0.250  14.965 -0.0568  0.1328  0.5629
  581MPD2    H7 8624   1.312   0.238  14.987 -0.2193 -1.4052 -1.0502
  582TMC3    C1 8625   1.439   0.090  15.145  0.8168  0.3917 -0.3774
  582TMC3    C2 8626   1.519   0.049  15.248 -0.1909  0.0607  0.0404
  582TMC3    C3 8627   1.473   4.678  15.343 -0.4369  0.1724 -0.9997
  582TMC3    C4 8628   1.306   0.057  15.138 -0.2407 -0.3658 -0.5198
  582TMC3    C5 8629   1.263   4.685  15.227 -0.4154 -0.1737 -0.1926
  582TMC3    C6 8630   1.345   4.631  15.325 -0.2480  0.7316 -0.5892
  582TMC3     C 8631   1.499   0.187  15.055  0.3170 -0.5954 -0.1552
  582TMC3     O 8632   1.620   0.194  15.047 -0.5135 -0.6263 -0.5691
  582TMC3     H 8633   1.616   0.096  15.254  0.1636 -0.4197 -1.9895
  582TMC3    H1 8634   1.232   0.082  15.062  0.9494 -1.0993 -1.9259
  582TMC3    H2 8635   1.305   4.558  15.395 -0.5258  1.2855 -0.1699
  582TMC3    C7 8636   1.127   4.693  15.274 -0.0890  0.7941 -0.3134
  582TMC3    C8 8637   1.518   4.705  15.480 -0.3313  0.1035  0.5827
  582TMC3    O1 8638   1.083   4.603  15.343  0.1083  0.2024 -0.6356
  582TMC3    O2 8639   1.426   4.712  15.560  0.1789  0.1237 -0.0417
  583MPD2     C 8640   1.711   2.160  17.444  0.8650 -0.2565  0.1646
  583MPD2    C1 8641   1.686   2.263  17.350  0.2070  0.1525 -0.8181
  583MPD2    C2 8642   1.638   2.380  17.405  0.2962 -0.5686 -0.2293
  583MPD2    C3 8643   1.598   2.378  17.542 -0.2107 -0.9816  0.7054
  583MPD2    C4 8644   1.622   2.274  17.625  0.0859  0.1113  0.3214
  583MPD2    C5 8645   1.685   2.168  17.576  0.2992  0.7491 -0.1312
  583MPD2     H 8646   1.609   2.462  17.340  3.3175  1.1080  0.5447
  583MPD2    H1 8647   1.602   2.275   0.039 -1.1751  0.2502  0.0791
  583MPD2    H2 8648   1.760   2.070  17.408  1.5015 -0.9322  2.7091
  583MPD2    H3 8649   1.720   2.088  17.639  1.2503  1.0945 -0.2305
  583MPD2     N 8650   1.537   2.501  17.593 -0.0742 -0.6697 -0.3062
  583MPD2    H5 8651   1.514   2.574  17.526  1.1435 -0.1934 -0.2107
  583MPD2    N1 8652   1.728   2.268  17.211  0.3602  0.8880 -0.1696
  583MPD2    H7 8653   1.706   2.352  17.159 -0.9394  2.0820  2.2839
  584TMC3    C1 8654   1.445   2.661   0.048 -0.0599 -0.1327  0.0804
  584TMC3    C2 8655   1.477   2.759  17.651 -0.2329 -0.4996  0.7512
  584TMC3    C3 8656   1.422   2.885  17.664  0.2399  0.0842  0.2459
  584TMC3    C4 8657   1.356   2.687   0.142 -0.3740  0.4152  1.0262
  584TMC3    C5 8658   1.298   2.810   0.153  0.8843  0.2985 -0.6163
  584TMC3    C6 8659   1.331   2.915   0.070  0.2869  0.0826  0.2210
  584TMC3     C 8660   1.478   2.520   0.027 -0.5931  0.2917 -0.5666
  584TMC3     O 8661   1.469   2.440   0.119 -0.5431  0.7690  0.0977
  584TMC3     H 8662   1.548   2.736  17.573  2.2290  3.8007  1.7438
  584TMC3    H1 8663   1.337   2.619   0.225 -0.6103  0.0861  0.6992
  584TMC3    H2 8664   1.294   3.017   0.075  0.7667  0.2285  0.8127
  584TMC3    C7 8665   1.195   2.827   0.255 -0.4673  0.0924 -0.0209
  584TMC3    C8 8666   1.417   2.955  17.541 -0.0043 -0.7705 -0.5368
  584TMC3    O1 8667   1.152   2.727   0.309 -0.7730 -0.5048 -0.4065
  584TMC3    O2 8668   1.444   2.896  17.438 -0.1279  0.4178 -0.0453
  585MPD2     C 8669   1.423   1.397   0.258 -0.0475  0.2394 -0.0599
  585MPD2    C1 8670   1.286   1.430   0.244 -0.2338 -0.5565  0.4105
  585MPD2    C2 8671   1.218   1.389   0.131 -0.3853 -0.2172  0.1260
  585MPD2    C3 8672   1.270   1.298   0.046  0.4498  0.7957 -0.0982
  585MPD2    C4 8673   1.403   1.254   0.067 -0.7218  0.4134  0.4296
  585MPD2    C5 8674   1.476   1.297   0.174  0.0414 -0.0027 -0.4867
  585MPD2     H 8675   1.121   1.436   0.115  0.0118  0.4203 -0.4194
  585MPD2    H1 8676   1.458   1.186   0.003  0.6879  2.0608 -0.1145
  585MPD2    H2 8677   1.493   1.455   0.318 -1.3521 -1.5515  3.1936
  585MPD2    H3 8678   1.576   1.259   0.187 -0.4777 -1.2596 -0.1936
  585MPD2     N 8679   1.196   1.240  17.631  0.0345  0.4603  0.1700
  585MPD2    H5 8680   1.231   1.166  17.570  0.8781 -1.8585  3.5029
  585MPD2    N1 8681   1.212   1.509   0.330 -0.8170  0.4602  0.6037
  585MPD2    H7 8682   1.117   1.522   0.295 -1.1825 -0.1041  1.3932
  586TMC3    C1 8683   1.010   1.209  17.472 -0.2200 -0.2741  0.1802
  586TMC3    C2 8684   1.071   1.098  17.424  0.3741 -1.0222 -0.4166
  586TMC3    C3 8685   1.020   1.024  17.319  0.5531 -0.1889 -0.7654
  586TMC3    C4 8686   0.894   1.260  17.420  0.4961  0.8241  0.0157
  586TMC3    C5 8687   0.837   1.185  17.324 -0.0307 -0.5120 -0.6605
  586TMC3    C6 8688   0.907   1.079  17.266  0.0141  0.8779 -0.5033
  586TMC3     C 8689   1.071   1.279  17.588 -0.3035 -1.0751 -0.5914
  586TMC3     O 8690   0.994   1.356  17.649  0.4218  0.4092 -0.4617
  586TMC3     H 8691   1.157   1.048  17.469 -0.4898 -0.4678  1.8424
  586TMC3    H1 8692   0.854   1.356  17.449 -1.4330 -0.1956  0.7454
  586TMC3    H2 8693   0.887   1.034  17.169  0.7856  1.4345 -0.9170
  586TMC3    C7 8694   0.712   1.133  17.369  0.4478  0.1083  0.1834
  586TMC3    C8 8695   1.060   0.888  17.286  0.3352  0.1802 -0.1490
  586TMC3    O1 8696   0.710   1.014  17.368 -0.4560  0.0343  0.1483
  586TMC3    O2 8697   1.170   0.859  17.330  0.2580  0.6197  0.2774
  587TMC3    C1 8698   3.306   4.600  16.637  0.4118 -0.6222 -0.0093
  587TMC3    C2 8699   3.317   0.016  16.636 -0.4466  0.5393  0.1484
  587TMC3    C3 8700   3.430   0.066  16.695 -0.5767  0.1652  0.1053
  587TMC3    C4 8701   3.414   4.525  16.670  1.4867 -0.2739  0.7461
  587TMC3    C5 8702   3.533   4.583  16.702 -0.1947 -0.2917  0.2745
  587TMC3    C6 8703   3.542   4.718  16.729  0.2177 -0.2276 -0.9379
  587TMC3     C 8704   3.180   4.532  16.605  0.4908 -0.0105  0.1186
  587TMC3     O 8705   3.177   4.411  16.592 -0.2657 -0.2041 -0.1949
  587TMC3     H 8706   3.247   0.087  16.593  0.4478  0.9319 -0.6641
  587TMC3    H1 8707   3.407   4.418  16.657 -0.4529  0.0925 -1.2324
  587TMC3    H2 8708   3.631   0.043  16.769 -1.3447  0.3304  1.9721
  587TMC3    C7 8709   3.624   4.491  16.763  0.0001 -0.2674  0.1968
  587TMC3    C8 8710   3.422   0.198  16.743 -0.2912 -0.3914  0.4443
  587TMC3    O1 8711   3.587   4.378  16.794 -0.0808 -0.2397  0.1118
  587TMC3    O2 8712   3.525   0.264  16.756 -0.0357 -0.6278 -0.2269
  588TMC3    C1 8713   4.719   2.796   9.983 -0.2107  0.5402 -0.1278
  588TMC3    C2 8714   4.648   2.682   9.968 -0.3431  0.7969  0.5224
  588TMC3    C3 8715   4.719   2.564   9.957 -0.4222  0.4086 -0.0897
  588TMC3    C4 8716   0.133   2.801   9.956  0.1806  0.6433  0.0232
  588TMC3    C5 8717   0.195   2.684   9.927 -0.1912  0.2895  0.3611
  588TMC3    C6 8718   0.134   2.563   9.933 -0.0105 -0.2394 -0.1192
  588TMC3     C 8719   4.660   2.929   9.976  0.9553 -0.0037  0.1474
  588TMC3     O 8720   4.582   2.951   9.886  0.0923  0.0611  0.0416
  588TMC3     H 8721   4.540   2.682   9.977 -0.4787  0.9804 -1.0680
  588TMC3    H1 8722   0.186   2.893   9.934  0.0757  0.4695 -0.9800
  588TMC3    H2 8723   0.198   2.475   9.928 -1.4907 -1.2793 -0.9399
  588TMC3    C7 8724   0.338   2.687   9.947  0.9576  0.5925 -0.3875
  588TMC3    C8 8725   4.649   2.437   9.973  0.5120 -1.2941  0.2217
  588TMC3    O1 8726   0.391   2.579   9.926 -0.2508  0.3150  1.2111
  588TMC3    O2 8727   4.570   2.448  10.066  1.3456  0.0854  0.6696
  589TMC3    C1 8728   4.414   0.249   1.701 -0.1724  0.3470 -0.3419
  589TMC3    C2 8729   4.514   0.350   1.685  0.6681 -0.0610 -0.5424
  589TMC3    C3 8730   4.644   0.307   1.654  0.5109  0.2130 -0.1528
  589TMC3    C4 8731   4.446   0.119   1.681  0.0589 -0.5338  0.1919
  589TMC3    C5 8732   4.579   0.085   1.651  0.4766 -0.7485  0.3077
  589TMC3    C6 8733   4.674   0.177   1.638  0.2891  0.1309 -0.4115
  589TMC3     C 8734   4.272   0.283   1.699  0.1374 -0.7038  0.6044
  589TMC3     O 8735   4.200   0.196   1.642 -0.1020  0.2670 -0.1766
  589TMC3     H 8736   4.512   0.456   1.706  0.8078 -0.2155  0.2567
  589TMC3    H1 8737   4.373   0.039   1.679 -3.0293  2.2771 -1.6792
  589TMC3    H2 8738   0.053   0.146   1.615  0.3633  1.2806 -1.6273
  589TMC3    C7 8739   4.622   4.669   1.625  0.3000 -0.2164  0.2821
  589TMC3    C8 8740   0.029   0.407   1.672 -0.2262  0.5569 -0.4440
  589TMC3    O1 8741   0.019   4.641   1.648 -0.2316 -0.8844  0.2148
  589TMC3    O2 8742   0.011   0.505   1.737 -0.9723  0.2775 -0.0748
  590MPD2     C 8743   3.995   3.091  17.155  0.0146  0.1993 -0.4792
  590MPD2    C1 8744   3.919   3.089  17.041 -0.7170 -0.7909  0.6914
  590MPD2    C2 8745   3.972   3.156  16.934 -0.0559 -0.4907 -0.2080
  590MPD2    C3 8746   4.092   3.224  16.936  0.2993  0.2074 -0.5359
  590MPD2    C4 8747   4.162   3.235  17.057  0.8105  0.3256 -0.1255
  590MPD2    C5 8748   4.115   3.154  17.160 -0.1335  0.1113 -0.1605
  590MPD2     H 8749   3.924   3.160  16.837  0.3102  0.1642 -0.3633
  590MPD2    H1 8750   4.250   3.298  17.065 -0.4124  2.3442 -2.5699
  590MPD2    H2 8751   3.965   3.041  17.247  1.7676 -2.0498 -1.1281
  590MPD2    H3 8752   4.167   3.143  17.254 -0.7208 -1.0634  0.0252
  590MPD2     N 8753   4.122   3.299  16.819 -0.2150 -1.1849  0.2932
  590MPD2    H5 8754   4.061   3.306  16.738 -0.4615  1.4009  0.7000
  590MPD2    N1 8755   3.787   3.035  17.046 -0.1050  0.2955 -0.2687
  590MPD2    H7 8756   3.751   3.006  17.137 -1.4522  0.2034 -0.8285
  591TMC3    C1 8757   4.224   3.465  16.689  0.2634  0.4928 -0.0480
  591TMC3    C2 8758   4.218   3.392  16.574 -0.1319  0.4701 -0.6851
  591TMC3    C3 8759   4.262   3.448  16.457 -0.0866  0.0796 -1.0201
  591TMC3    C4 8760   4.277   3.593  16.693 -0.1250  0.5584  0.3726
  591TMC3    C5 8761   4.322   3.640  16.573 -0.4554  0.1426 -0.2332
  591TMC3    C6 8762   4.317   3.569  16.453 -0.7727 -0.5030  0.0779
  591TMC3     C 8763   4.231   3.387  16.810 -0.7698 -0.5612 -0.0292
  591TMC3     O 8764   4.329   3.410  16.879  0.3352  0.3776  0.4275
  591TMC3     H 8765   4.200   3.286  16.583 -0.6917  0.8625  2.9778
  591TMC3    H1 8766   4.319   3.637  16.783  2.3612 -2.9985  1.0097
  591TMC3    H2 8767   4.362   3.607  16.363  0.1165 -2.0138 -0.1262
  591TMC3    C7 8768   4.396   3.765  16.582 -0.3429  0.3429 -0.1436
  591TMC3    C8 8769   4.241   3.370  16.338 -0.1783  0.2476  0.2560
  591TMC3    O1 8770   4.429   3.802  16.693 -0.2172  0.8010 -0.6271
  591TMC3    O2 8771   4.229   3.249  16.355 -0.1143  0.0656  0.1260
  592MPD2     C 8772   4.514   0.498  11.447 -0.1548 -0.0086  0.4628
  592MPD2    C1 8773   4.536   0.505  11.584  0.6873 -0.7560 -0.7668
  592MPD2    C2 8774   4.465   0.427  11.665 -0.2237  0.3862  0.0132
  592MPD2    C3 8775   4.384   0.332  11.614 -0.1755 -0.0453  0.4594
  592MPD2    C4 8776   4.367   0.323  11.473 -0.0556 -0.3312  0.6025
  592MPD2    C5 8777   4.435   0.402  11.387 -0.0881  0.4830 -0.5330
  592MPD2     H 8778   4.469   0.436  11.773  0.1625  1.2539 -0.0729
  592MPD2    H1 8779   4.300   0.244  11.440 -0.2269  0.1985 -0.2942
  592MPD2    H2 8780   4.586   0.557  11.391 -1.7490  0.9899 -0.5477
  592MPD2    H3 8781   4.417   0.402  11.281  0.6841 -1.3792 -0.6540
  592MPD2     N 8782   4.317   0.251  11.716 -0.3841 -0.5868 -0.1979
  592MPD2    H5 8783   4.327   0.277  11.813 -0.3940 -3.5399  0.5924
  592MPD2    N1 8784   4.632   0.607  11.631  0.0106 -0.1273 -0.2447
  592MPD2    H7 8785   4.670   0.658  11.553  0.7191 -0.5084 -0.1462
  593TMC3    C1 8786   0.052   0.728  11.782 -0.4095 -0.4164  1.0869
  593TMC3    C2 8787   0.090   0.729  11.912 -0.1600 -0.1946  0.0236
  593TMC3    C3 8788   0.211   0.788  11.942 -0.6470  0.6973 -0.7055
  593TMC3    C4 8789   0.122   0.780  11.678 -0.1827  0.2920  0.2869
  593TMC3    C5 8790   0.236   0.848  11.716  0.2636 -0.0089 -0.2180
  593TMC3    C6 8791   0.294   0.839  11.846  0.0975  0.0095 -0.3433
  593TMC3     C 8792   4.678   0.622  11.759  0.0231  0.1326 -0.2719
  593TMC3     O 8793   4.646   0.551  11.853  0.0840  0.4142 -0.1958
  593TMC3     H 8794   0.013   0.705  11.985  0.3040 -0.2763  0.4867
  593TMC3    H1 8795   0.073   0.777  11.581  1.2558  2.3080 -0.4925
  593TMC3    H2 8796   0.384   0.892  11.873  2.5072 -4.6072  0.6650
  593TMC3    C7 8797   0.317   0.920  11.615  0.2814  0.1421  0.6485
  593TMC3    C8 8798   0.238   0.825  12.080  0.4250  0.6862 -0.0707
  593TMC3    O1 8799   0.414   0.986  11.651  0.3549  0.2170  0.3291
  593TMC3    O2 8800   0.145   0.877  12.142 -0.3645 -0.0644 -0.3121
  594MPD2     C 8801   3.225   4.042  14.149  0.1134 -0.2303  0.5603
  594MPD2    C1 8802   3.146   4.070  14.250 -0.1150 -0.8879  0.4241
  594MPD2    C2 8803   3.142   4.193  14.315  0.2514 -0.4204  0.4475
  594MPD2    C3 8804   3.251   4.280  14.296  0.3723  0.3457  0.8306
  594MPD2    C4 8805   3.351   4.238  14.211 -0.1720  0.2138  0.0728
  594MPD2    C5 8806   3.330   4.122  14.140 -0.8920  0.2650 -0.9732
  594MPD2     H 8807   3.066   4.221  14.387  0.3340 -0.7445  0.6641
  594MPD2    H1 8808   3.441   4.293  14.186  0.1841 -0.6979 -0.6316
  594MPD2    H2 8809   3.238   3.944  14.103  2.0756 -0.2528  1.1829
  594MPD2    H3 8810   3.402   4.082  14.070 -1.0090  3.1225 -2.7202
  594MPD2     N 8811   3.254   4.399  14.367 -0.3738 -0.4780  0.2353
  594MPD2    H5 8812   3.176   4.420  14.428 -1.4645  0.7531 -1.5823
  594MPD2    N1 8813   3.054   3.965  14.285 -0.6018  0.5533 -0.4988
  594MPD2    H7 8814   3.026   3.899  14.213  1.4681 -2.1570  1.1763
  595TMC3    C1 8815   3.438   0.017  14.615 -0.4337  0.4036  0.1849
  595TMC3    C2 8816   3.426   4.692  14.488  0.1164 -0.5522  0.1696
  595TMC3    C3 8817   3.336   4.590  14.476 -0.5008 -0.2025  0.2692
  595TMC3    C4 8818   3.365   4.699  14.720 -0.1196 -0.4729 -0.1523
  595TMC3    C5 8819   3.271   4.608  14.700  0.0217 -0.5184  0.8088
  595TMC3    C6 8820   3.254   4.552  14.580 -0.1380 -0.1460  0.7152
  595TMC3     C 8821   3.573   0.064  14.642  0.4113 -0.1611  0.0228
  595TMC3     O 8822   3.634   0.042  14.745  0.5531  0.3328  0.4252
  595TMC3     H 8823   3.488   4.718  14.404 -1.9662  1.1841 -0.8243
  595TMC3    H1 8824   3.372   0.021  14.818  0.6854 -0.3930 -0.2481
  595TMC3    H2 8825   3.180   4.473  14.583  1.4632 -1.6704  0.0198
  595TMC3    C7 8826   3.183   4.575  14.808  0.8582 -0.2396  0.3713
  595TMC3    C8 8827   3.353   4.497  14.371  0.6279  0.4516  0.9828
  595TMC3    O1 8828   3.063   4.559  14.788  0.2019 -0.3287 -0.6001
  595TMC3    O2 8829   3.442   4.515  14.293  0.9064 -0.0080  0.5024
  596MPD2     C 8830   2.358   1.872  17.057  0.2583  0.4767  0.1498
  596MPD2    C1 8831   2.396   1.979  16.977  0.4021  0.3327 -0.1334
  596MPD2    C2 8832   2.370   1.971  16.840  0.0948 -1.0596 -1.1739
  596MPD2    C3 8833   2.313   1.859  16.780  0.5751  0.0473 -0.6975
  596MPD2    C4 8834   2.295   1.749  16.864  0.6246 -0.8092  0.0970
  596MPD2    C5 8835   2.309   1.758  17.002  0.0222 -0.3133  0.3010
  596MPD2     H 8836   2.385   2.064  16.788 -0.5106  0.1586  0.8057
  596MPD2    H1 8837   2.262   1.653  16.825 -0.8627 -0.8743  1.4954
  596MPD2    H2 8838   2.367   1.867  17.165 -2.6285  2.3172  0.4678
  596MPD2    H3 8839   2.285   1.674  17.066  3.2292 -0.4633  1.3100
  596MPD2     N 8840   2.279   1.842  16.646  0.3813 -0.4943 -0.4247
  596MPD2    H5 8841   2.257   1.747  16.617 -4.2059  0.6580 -0.7453
  596MPD2    N1 8842   2.446   2.099  17.039  0.0336  0.2713 -0.6216
  596MPD2    H7 8843   2.447   2.189  16.992 -0.9354  0.9012  0.5537
  597TMC3    C1 8844   2.496   2.240  17.226  0.3516 -0.2495  0.2242
  597TMC3    C2 8845   2.499   2.350  17.147 -1.0652  0.1122 -0.0192
  597TMC3    C3 8846   2.471   2.468  17.206  0.0146  0.3315 -0.0358
  597TMC3    C4 8847   2.474   2.257  17.361  0.3004 -0.2310 -0.3967
  597TMC3    C5 8848   2.456   2.382  17.418  0.2712 -0.3631  0.0275
  597TMC3    C6 8849   2.453   2.492  17.338  0.1615  0.4037  0.0663
  597TMC3     C 8850   2.476   2.109  17.178 -0.0674 -0.5209  0.9129
  597TMC3     O 8851   2.480   2.023  17.263  0.5337 -0.3872 -0.9634
  597TMC3     H 8852   2.496   2.348  17.038  0.3422 -1.3185 -0.0358
  597TMC3    H1 8853   2.486   2.174  17.430  2.4949  0.5885  0.1970
  597TMC3    H2 8854   2.455   2.594  17.376  1.7421  0.3592  0.0934
  597TMC3    C7 8855   2.397   2.410  17.550 -0.2898  0.3174  0.6789
  597TMC3    C8 8856   2.456   2.577  17.107 -0.3129 -0.3078 -0.0610
  597TMC3    O1 8857   2.349   2.522  17.566  0.3871  0.3850 -0.0639
  597TMC3    O2 8858   2.493   2.579  16.992 -0.4279 -0.1460 -0.0288
  598TMC3    C1 8859   0.390   3.597  15.512  0.0035  0.4540  0.4057
  598TMC3    C2 8860   0.269   3.529  15.529 -0.9206 -0.2622  0.2208
  598TMC3    C3 8861   0.149   3.562  15.457  0.3253  0.3148 -0.4026
  598TMC3    C4 8862   0.395   3.691  15.411 -0.2703  0.6357 -0.2283
  598TMC3    C5 8863   0.283   3.718  15.338  0.2790  0.3521 -0.4576
  598TMC3    C6 8864   0.159   3.662  15.367 -0.8997  0.3632  0.3737
  598TMC3     C 8865   0.513   3.535  15.553 -0.5235  0.0050  0.2632
  598TMC3     O 8866   0.601   3.553  15.475 -0.1783  0.0694 -0.7004
  598TMC3     H 8867   0.263   3.468  15.618  3.3664  2.3104  2.2216
  598TMC3    H1 8868   0.489   3.740  15.390  0.1687  1.4198  3.7056
  598TMC3    H2 8869   0.066   3.689  15.318 -0.3446  0.8407 -0.4131
  598TMC3    C7 8870   0.281   3.819  15.234 -0.3031  0.2562 -0.3391
  598TMC3    C8 8871   0.028   3.484  15.480  0.2276  0.6224  0.5997
  598TMC3    O1 8872   0.171   3.832  15.184 -0.1398  0.3107 -0.4136
  598TMC3    O2 8873   0.033   3.424  15.585  0.3384 -0.1635  0.4482
  599MPD2     C 8874   0.784   1.366  16.438 -0.3483 -0.2244  0.1921
  599MPD2    C1 8875   0.690   1.294  16.368 -0.7358  0.9171  0.1038
  599MPD2    C2 8876   0.558   1.322  16.373 -0.8198 -0.4056 -0.3143
  599MPD2    C3 8877   0.520   1.436  16.445  0.6619 -0.5009  0.0982
  599MPD2    C4 8878   0.620   1.517  16.493  0.1216  0.0510  0.1158
  599MPD2    C5 8879   0.753   1.480  16.499  0.2612 -0.0541 -0.5245
  599MPD2     H 8880   0.486   1.260  16.322 -2.2566  0.4234  0.6870
  599MPD2    H1 8881   0.592   1.603  16.553 -0.5159  0.2058 -0.4127
  599MPD2    H2 8882   0.888   1.336  16.439  0.2257  1.7896  1.9114
  599MPD2    H3 8883   0.828   1.536  16.553 -0.7946 -1.8762  2.8117
  599MPD2     N 8884   0.386   1.476  16.471 -1.4571 -0.3383  0.1812
  599MPD2    H5 8885   0.377   1.546  16.544 -0.8644  0.3633 -0.4062
  599MPD2    N1 8886   0.748   1.173  16.312 -0.0099 -0.1950 -0.0135
  599MPD2    H7 8887   0.848   1.162  16.319 -0.2393 -1.4435  1.4947
  600TMC3    C1 8888   0.159   1.455  16.492  0.5448 -0.2292 -0.8314
  600TMC3    C2 8889   0.089   1.363  16.563  0.2669 -0.1459  0.7802
  600TMC3    C3 8890   4.711   1.407  16.646  0.3220 -0.9186  0.0370
  600TMC3    C4 8891   0.132   1.589  16.491  0.2196  0.1510  0.2027
  600TMC3    C5 8892   0.025   1.626  16.576  0.0372 -0.5314 -0.1663
  600TMC3    C6 8893   4.671   1.539  16.647 -0.3216 -0.1512  0.2341
  600TMC3     C 8894   0.277   1.400  16.442  0.5781  1.1781 -0.5204
  600TMC3     O 8895   0.272   1.295  16.379  0.6527  0.4405  0.0131
  600TMC3     H 8896   0.111   1.258  16.549 -2.0105 -0.5366  0.0989
  600TMC3    H1 8897   0.183   1.661  16.428  0.7860 -0.3650  0.0588
  600TMC3    H2 8898   4.592   1.572  16.714 -0.7061 -4.0136  1.6874
  600TMC3    C7 8899   4.723   1.763  16.614  0.1523  0.0391  0.8887
  600TMC3    C8 8900   4.664   1.308  16.745 -0.2060  0.0175  0.2745
  600TMC3    O1 8901   4.605   1.797  16.633 -0.0231 -0.2268  0.1898
  600TMC3    O2 8902   0.008   1.208  16.763 -0.4923 -0.4372 -0.6091
  601MPD2     C 8903   2.356   4.516  17.629 -0.0618 -0.0362 -0.0446
  601MPD2    C1 8904   2.224   4.477  17.630  1.1280 -0.1187 -0.4594
  601MPD2    C2 8905   2.194   4.339  17.656 -0.5621 -0.2585  0.1659
  601MPD2    C3 8906   2.289   4.238  17.641 -0.5090 -0.4695 -0.2321
  601MPD2    C4 8907   2.414   4.281  17.617  0.5005 -0.3396 -0.3221
  601MPD2    C5 8908   2.445   4.417  17.612 -0.4716 -0.4364 -0.5673
  601MPD2     H 8909   2.091   4.309  17.672 -0.2585 -1.0799  0.5771
  601MPD2    H1 8910   2.498   4.211  17.619  0.5364 -0.2804  0.1911
  601MPD2    H2 8911   2.384   4.620  17.628 -0.6910  0.1487  2.9252
  601MPD2    H3 8912   2.549   4.446  17.616 -0.9804  1.1782  1.0496
  601MPD2     N 8913   2.258   4.100  17.635 -0.1515  0.2229  0.3528
  601MPD2    H5 8914   2.335   4.037  17.613  0.7600  1.0895  1.0599
  601MPD2    N1 8915   2.115   4.567  17.631  0.2012  0.0914  0.4546
  601MPD2    H7 8916   2.023   4.523  17.636  0.9988 -1.7001 -0.4826
  602TMC3    C1 8917   2.006   0.054  17.603 -0.2672  0.0980  0.2474
  602TMC3    C2 8918   2.019   0.187  17.581 -0.4154 -0.6906 -0.4532
  602TMC3    C3 8919   1.917   0.243  17.507 -0.4315  0.5192  0.0033
  602TMC3    C4 8920   1.890   4.705  17.566 -0.2115  0.5692  0.2937
  602TMC3    C5 8921   1.803   0.050  17.485 -0.2564  0.2025 -0.1712
  602TMC3    C6 8922   1.816   0.181  17.446 -0.7849  0.3710 -0.5967
  602TMC3     C 8923   2.127   4.703  17.631 -0.7789 -0.0414 -0.6657
  602TMC3     O 8924   2.220   0.056  17.648 -0.1994  0.3416 -0.8945
  602TMC3     H 8925   2.099   0.250  17.618 -0.2759 -1.4115  0.4780
  602TMC3    H1 8926   1.880   4.597  17.571  3.0055  0.2164 -1.0772
  602TMC3    H2 8927   1.737   0.236  17.396  1.3419  1.6553 -2.5080
  602TMC3    C7 8928   1.713   4.685  17.417 -0.0240  0.4510 -0.2941
  602TMC3    C8 8929   1.906   0.385  17.467  0.0946  0.0586 -0.4864
  602TMC3    O1 8930   1.678   4.584  17.471 -0.3333  0.0732  0.6074
  602TMC3    O2 8931   1.828   0.452  17.530 -0.0620  0.2055  0.0892
  603TMC3    C1 8932   1.081   0.011  11.128 -0.0404 -0.0012 -1.2282
  603TMC3    C2 8933   1.073   4.714  11.265 -0.0879  0.2640 -0.3716
  603TMC3    C3 8934   1.045   0.100  11.343 -0.2722 -0.3217 -0.0825
  603TMC3    C4 8935   1.053   0.135  11.078 -0.4021  0.2750 -0.4551
  603TMC3    C5 8936   1.032   0.238  11.165 -0.1953  0.0614 -0.4171
  603TMC3    C6 8937   1.039   0.225  11.297 -0.0436 -0.1191 -0.2923
  603TMC3     C 8938   1.102   4.625  11.037  0.9606 -0.1967  0.0259
  603TMC3     O 8939   1.075   4.646  10.920 -0.1592 -0.0433 -0.1182
  603TMC3     H 8940   1.077   4.613  11.305 -2.4034  0.3294 -0.0279
  603TMC3    H1 8941   1.058   0.154  10.972 -0.4986  0.6167 -0.3980
  603TMC3    H2 8942   1.006   0.313  11.353  0.5910  1.0573 -1.7754
  603TMC3    C7 8943   0.999   0.366  11.110 -0.1995  0.3684  0.2519
  603TMC3    C8 8944   1.046   0.062  11.486 -0.0108 -0.8147  0.0013
  603TMC3    O1 8945   1.054   0.468  11.145  0.0153 -0.1997  0.1688
  603TMC3    O2 8946   1.056   4.668  11.513 -0.4596  0.0906  0.0454
  604MPD2     C 8947   1.228   3.225  16.810 -0.4711  1.3606  0.0248
  604MPD2    C1 8948   1.130   3.232  16.714 -0.6093  0.0593  0.0768
  604MPD2    C2 8949   1.153   3.184  16.584 -0.1888 -0.4521  0.3497
  604MPD2    C3 8950   1.267   3.119  16.552  0.3311 -0.2345 -0.1332
  604MPD2    C4 8951   1.359   3.098  16.657 -0.0960 -0.1690  0.6795
  604MPD2    C5 8952   1.337   3.150  16.788 -0.1569 -0.2679 -0.8391
  604MPD2     H 8953   1.093   3.213  16.498  0.1313 -2.6815 -0.6227
  604MPD2    H1 8954   1.459   3.060  16.640  0.2465  0.7847  0.5583
  604MPD2    H2 8955   1.221   3.261  16.912 -0.6348  3.4447 -0.7364
  604MPD2    H3 8956   1.407   3.138  16.870 -1.6472  2.5476  0.8530
  604MPD2     N 8957   1.289   3.085  16.418 -0.1701  0.0028 -0.3216
  604MPD2    H5 8958   1.210   3.090  16.353 -1.5044 -0.4681  1.2576
  604MPD2    N1 8959   1.017   3.302  16.761 -0.2655 -0.1966 -0.2991
  604MPD2    H7 8960   1.016   3.348  16.851  1.1651  2.8684 -1.8567
  605TMC3    C1 8961   0.824   3.426  16.741 -0.3221  1.0652 -1.1071
  605TMC3    C2 8962   0.897   3.530  16.801  0.5458  0.0578 -0.7800
  605TMC3    C3 8963   0.864   3.653  16.758  0.5267  0.1066  0.6759
  605TMC3    C4 8964   0.729   3.455  16.652  0.5534  0.2992  0.0139
  605TMC3    C5 8965   0.689   3.580  16.627 -0.9235  0.1444  0.6106
  605TMC3    C6 8966   0.769   3.685  16.666  0.7506 -0.7401  0.4355
  605TMC3     C 8967   0.901   3.311  16.694 -0.7581 -0.8938 -0.1055
  605TMC3     O 8968   0.881   3.280  16.578 -0.0621 -0.5256  0.6596
  605TMC3     H 8969   0.964   3.516  16.885 -0.0569 -0.2196 -0.3448
  605TMC3    H1 8970   0.667   3.369  16.628 -1.5063  1.6819  0.3827
  605TMC3    H2 8971   0.748   3.783  16.625 -0.6954 -1.0735  0.3782
  605TMC3    C7 8972   0.591   3.623  16.529 -0.3120  0.2388 -0.2598
  605TMC3    C8 8973   0.984   3.732  16.745 -0.1031 -0.6578  0.4933
  605TMC3    O1 8974   0.592   3.740  16.495 -0.6688 -0.1290  0.2564
  605TMC3    O2 8975   1.088   3.676  16.777  0.1518  0.5551 -0.1192
  606TMC3    C1 8976   2.837   2.020  17.203 -0.7216 -0.6963 -0.1589
  606TMC3    C2 8977   2.911   1.987  17.315  0.1722 -0.5443  0.7722
  606TMC3    C3 8978   2.905   1.860  17.360 -0.2499  0.7591  0.6347
  606TMC3    C4 8979   2.764   1.931  17.136 -0.3181 -0.1057  0.2886
  606TMC3    C5 8980   2.765   1.805  17.182  0.5382  0.0865  0.4428
  606TMC3    C6 8981   2.830   1.766  17.299  0.3488  0.7358  0.8418
  606TMC3     C 8982   2.838   2.153  17.148  0.7180 -0.4664 -0.3067
  606TMC3     O 8983   2.772   2.163  17.044  0.2919 -0.1243 -0.3910
  606TMC3     H 8984   2.974   2.055  17.371  1.2678  1.2825 -2.7047
  606TMC3    H1 8985   2.705   1.955  17.049  1.7606 -0.3760 -1.1949
  606TMC3    H2 8986   2.844   1.664  17.334  1.8744  0.4876 -0.4834
  606TMC3    C7 8987   2.657   1.721  17.137 -0.4434 -0.2749  0.3844
  606TMC3    C8 8988   2.960   1.827  17.492  0.1366  0.1717  0.1860
  606TMC3    O1 8989   2.644   1.707  17.018  0.0546 -0.4771  0.7210
  606TMC3    O2 8990   2.984   1.917  17.571  0.5640 -0.0667  0.3362
  607MPD2     C 8991   4.553   4.624  11.676  0.1352 -0.1783  0.2403
  607MPD2    C1 8992   4.606   0.007  11.754 -0.0613 -0.0148  0.0692
  607MPD2    C2 8993   4.601   4.714  11.891  0.0706 -0.5052  0.2641
  607MPD2    C3 8994   4.562   4.601  11.951  0.3194  0.1156  0.0006
  607MPD2    C4 8995   4.522   4.497  11.872  0.2917  0.3762 -0.0094
  607MPD2    C5 8996   4.502   4.515  11.737  0.7862  0.5660 -0.2115
  607MPD2     H 8997   4.641   0.070  11.954  0.2325 -1.1156  0.9208
  607MPD2    H1 8998   4.498   4.402  11.919 -1.0290  0.6141 -0.2004
  607MPD2    H2 8999   4.552   4.634  11.568 -0.9484  0.8055  0.3392
  607MPD2    H3 9000   4.480   4.428  11.676 -0.4179 -0.0881  1.1518
  607MPD2     N 9001   4.580   4.583  12.092 -0.1959  0.1521 -0.4921
  607MPD2    H5 9002   4.605   4.667  12.143 -2.1080  1.1487 -1.2064
  607MPD2    N1 9003   4.658   0.127  11.703  0.3083  0.4741 -0.4428
  607MPD2    H7 9004   4.689   0.196  11.770  1.4380 -0.0119 -0.4658
  608TMC3    C1 9005   0.047   0.266  11.567  0.4790  0.7463  0.0008
  608TMC3    C2 9006   0.097   0.313  11.686  0.2968 -0.1817  0.6759
  608TMC3    C3 9007   0.219   0.375  11.685  0.1376 -0.2923 -0.1049
  608TMC3    C4 9008   0.118   0.280  11.447 -0.3810 -0.2454 -0.6907
  608TMC3    C5 9009   0.232   0.355  11.453  0.8657 -0.0169  0.6521
  608TMC3    C6 9010   0.284   0.412  11.572 -0.2372  0.1698  0.4918
  608TMC3     C 9011   4.681   0.156  11.573 -0.6088  0.3546  0.1056
  608TMC3     O 9012   4.663   0.078  11.478 -0.1348 -0.1531  0.6226
  608TMC3     H 9013   0.027   0.336  11.765 -2.6799 -2.6771 -1.2304
  608TMC3    H1 9014   0.086   0.237  11.353 -0.1892  1.6975 -1.6369
  608TMC3    H2 9015   0.377   0.467  11.568 -0.1142  0.1033  2.3863
  608TMC3    C7 9016   0.296   0.392  11.322  0.8168  0.9671 -0.1710
  608TMC3    C8 9017   0.265   0.425  11.812  0.2456  0.7391  0.1770
  608TMC3    O1 9018   0.221   0.455  11.245 -0.0732  0.3253  0.0307
  608TMC3    O2 9019   0.339   0.523  11.822 -0.3449 -0.5829 -0.4311
  609TMC3    C1 9020   3.349   4.497   9.141  0.1914 -0.0475 -0.3712
  609TMC3    C2 9021   3.237   4.472   9.060  0.3221 -0.1785  0.4221
  609TMC3    C3 9022   3.242   4.346   8.999  0.1597  0.2338  0.2483
  609TMC3    C4 9023   3.453   4.410   9.145 -0.3047 -0.7086 -0.1110
  609TMC3    C5 9024   3.448   4.286   9.086 -0.0433 -0.4062  0.1719
  609TMC3    C6 9025   3.341   4.253   9.009 -0.7483  0.4895  0.7656
  609TMC3     C 9026   3.337   4.611   9.231 -0.2837  0.4811  0.4194
  609TMC3     O 9027   3.440   4.667   9.266 -0.1801  0.3804  0.5493
  609TMC3     H 9028   3.153   4.539   9.048  2.4819  2.6663  1.2469
  609TMC3    H1 9029   3.539   4.439   9.204 -1.0357  2.3138 -0.5655
  609TMC3    H2 9030   3.317   4.156   8.967  0.9247 -0.2583  1.5456
  609TMC3    C7 9031   3.554   4.192   9.113 -0.8606 -0.3169 -0.2723
  609TMC3    C8 9032   3.134   4.312   8.905  0.2910  0.0201 -0.0758
  609TMC3    O1 9033   3.641   4.233   9.186  0.0787 -0.0836 -0.5136
  609TMC3    O2 9034   3.163   4.225   8.822  0.4892 -0.6959 -0.3241
  610TMC3    C1 9035   0.167   4.717  12.755  0.0233  0.0438 -0.0249
  610TMC3    C2 9036   0.283   0.064  12.739 -0.3338 -0.2936  0.1780
  610TMC3    C3 9037   0.389   4.721  12.685  0.4614  0.1490  0.1372
  610TMC3    C4 9038   0.150   4.583  12.720  0.3572 -0.0607  0.6859
  610TMC3    C5 9039   0.263   4.519  12.674  0.5393 -0.3749 -0.3152
  610TMC3    C6 9040   0.381   4.588  12.655 -0.0636  0.3095 -0.1581
  610TMC3     C 9041   0.042   0.060  12.787 -0.4588 -0.6335 -0.8317
  610TMC3     O 9042   4.659   4.722  12.798 -0.9824  0.6723 -0.6015
  610TMC3     H 9043   0.293   0.169  12.764  0.5724 -0.5661  0.9683
  610TMC3    H1 9044   0.066   4.522  12.753  0.0180  0.9388  1.6617
  610TMC3    H2 9045   0.469   4.540  12.615 -0.5473 -0.8106  0.1262
  610TMC3    C7 9046   0.277   4.377  12.687 -0.4757  0.3546  0.1593
  610TMC3    C8 9047   0.441   0.072  12.578 -0.1138  0.0351 -0.9104
  610TMC3    O1 9048   0.392   4.346  12.700  0.0886  0.0025 -0.6214
  610TMC3    O2 9049   0.356   0.147  12.534  0.1830  0.1624 -0.3935
  611MPD2     C 9050   4.549   0.365  10.936 -0.5446 -0.5065 -0.4837
  611MPD2    C1 9051   4.527   0.281  10.828 -0.2618 -0.9232 -0.0371
  611MPD2    C2 9052   4.630   0.272  10.730 -0.3124  0.3967 -0.2585
  611MPD2    C3 9053   0.019   0.353  10.738 -1.0570 -0.0933 -0.1736
  611MPD2    C4 9054   0.032   0.434  10.846  0.1925  0.5635 -0.0800
  611MPD2    C5 9055   4.659   0.440  10.942  0.7794 -0.1861 -0.6098
  611MPD2     H 9056   4.624   0.193  10.655 -2.0145  0.5655 -0.3091
  611MPD2    H1 9057   0.114   0.504  10.858  0.6812 -0.3981  2.1385
  611MPD2    H2 9058   4.471   0.379  11.010 -0.7633 -1.4299 -0.5329
  611MPD2    H3 9059   4.673   0.503  11.029  1.2394 -1.0593 -0.0463
  611MPD2     N 9060   0.132   0.347  10.656 -0.5971 -0.6309  1.2082
  611MPD2    H5 9061   0.209   0.407  10.681 -1.7263  1.2298  0.2624
  611MPD2    N1 9062   4.401   0.214  10.821  0.1340 -0.2221  0.4472
  611MPD2    H7 9063   4.337   0.220  10.899 -0.2651  1.0661  0.0242
  612TMC3    C1 9064   0.281   0.282  10.483 -1.1230  0.5220  0.1934
  612TMC3    C2 9065   0.383   0.358  10.534 -0.5376  0.5357  0.3068
  612TMC3    C3 9066   0.484   0.406  10.453  0.2113 -0.0610 -0.1606
  612TMC3    C4 9067   0.279   0.244  10.353 -0.5503 -0.7314 -0.2495
  612TMC3    C5 9068   0.386   0.290  10.275  0.3631  0.0154  0.0259
  612TMC3    C6 9069   0.495   0.362  10.321  0.5174 -0.3881 -0.2887
  612TMC3     C 9070   0.159   0.258  10.559  0.2233  0.1058  0.0621
  612TMC3     O 9071   0.083   0.174  10.515  0.3430 -0.0761 -0.2212
  612TMC3     H 9072   0.393   0.373  10.640  1.0732 -1.4231  0.4412
  612TMC3    H1 9073   0.194   0.193  10.309 -1.8759  2.1252 -0.9833
  612TMC3    H2 9074   0.567   0.399  10.249 -0.8716  2.1532 -0.3876
  612TMC3    C7 9075   0.365   0.318  10.136  0.3174  0.4554  0.2787
  612TMC3    C8 9076   0.587   0.493  10.512 -0.2306  0.1912  0.5320
  612TMC3    O1 9077   0.406   0.420  10.086 -0.3446  0.2478  0.1226
  612TMC3    O2 9078   0.638   0.586  10.450  0.1402 -0.1521 -0.0592
  613MPD2     C 9079   3.311   2.554  16.386  0.2208 -1.3540 -0.2168
  613MPD2    C1 9080   3.258   2.495  16.275  0.3012 -1.1617  0.1621
  613MPD2    C2 9081   3.300   2.366  16.240 -0.8739  0.1178  0.0124
  613MPD2    C3 9082   3.402   2.304  16.311  0.6339 -0.6119 -0.5167
  613MPD2    C4 9083   3.457   2.363  16.421  0.3017  0.4946 -0.1657
  613MPD2    C5 9084   3.412   2.483  16.459  0.3501  0.7011 -0.0978
  613MPD2     H 9085   3.258   2.324  16.149 -0.2025  0.1926 -0.3383
  613MPD2    H1 9086   3.539   2.323  16.480 -0.7477  1.5252  1.9731
  613MPD2    H2 9087   3.283   2.653  16.421  0.1630 -1.1335 -0.8688
  613MPD2    H3 9088   3.438   2.535  16.550  0.2752  0.7468 -0.1029
  613MPD2     N 9089   3.463   2.181  16.268  0.1488 -0.1491 -0.0181
  613MPD2    H5 9090   3.542   2.160  16.329  0.5091 -0.9860 -0.7639
  613MPD2    N1 9091   3.164   2.573  16.192 -0.4891 -0.4963 -0.5316
  613MPD2    H7 9092   3.161   2.674  16.209 -1.8143 -0.2529 -2.2021
  614TMC3    C1 9093   3.094   2.644  15.984 -0.5851 -0.0908  0.0636
  614TMC3    C2 9094   3.221   2.666  15.937 -0.8033 -0.6915 -0.4850
  614TMC3    C3 9095   3.240   2.652  15.806 -0.0463 -0.1231  0.0023
  614TMC3    C4 9096   2.987   2.654  15.900  0.0608  0.0297 -0.3541
  614TMC3    C5 9097   3.011   2.648  15.764  0.5232  0.3316  0.3803
  614TMC3    C6 9098   3.136   2.639  15.714  0.0001  0.6889  0.4814
  614TMC3     C 9099   3.100   2.533  16.080  0.0518 -0.0911 -0.1582
  614TMC3     O 9100   3.051   2.422  16.064 -0.6435 -0.1553 -0.1581
  614TMC3     H 9101   3.302   2.667  16.009  0.5692 -0.9552 -2.0183
  614TMC3    H1 9102   2.882   2.654  15.925  0.4037 -1.6937  1.1175
  614TMC3    H2 9103   3.149   2.622  15.608 -1.7630 -3.3066  0.9146
  614TMC3    C7 9104   2.893   2.649  15.681 -0.7174  0.1604  0.1960
  614TMC3    C8 9105   3.347   2.556  15.786  1.4343 -0.3093 -0.4675
  614TMC3    O1 9106   2.791   2.702  15.725  0.0690 -0.4890 -0.4362
  614TMC3    O2 9107   3.326   2.452  15.725 -0.2776  0.0112  0.2952
  615MPD2     C 9108   3.090   3.349  16.672  0.4879 -0.0836 -0.1503
  615MPD2    C1 9109   3.018   3.443  16.604 -1.0224 -0.3760 -0.6851
  615MPD2    C2 9110   2.922   3.393  16.511 -0.5083  1.0923 -0.7269
  615MPD2    C3 9111   2.899   3.256  16.506  0.1855 -0.3888 -0.7425
  615MPD2    C4 9112   2.976   3.169  16.582  0.0803  0.4600  0.9951
  615MPD2    C5 9113   3.074   3.220  16.657  0.2283  0.3337 -1.3093
  615MPD2     H 9114   2.852   3.457  16.460 -0.8670  2.8759  1.9885
  615MPD2    H1 9115   2.967   3.062  16.574  0.6721  0.5947 -1.4979
  615MPD2    H2 9116   3.163   3.377  16.747  1.9765 -0.9291 -1.2750
  615MPD2    H3 9117   3.141   3.158  16.716 -0.6870 -1.1289 -1.8222
  615MPD2     N 9118   2.809   3.194  16.419 -0.2713  0.0250 -0.1602
  615MPD2    H5 9119   2.812   3.094  16.402  0.1464  0.1494 -0.8038
  615MPD2    N1 9120   3.036   3.581  16.619 -0.4749  0.2160 -0.7118
  615MPD2    H7 9121   2.972   3.635  16.563  1.5310  1.1441 -2.1134
  616TMC3    C1 9122   3.154   3.787  16.638 -0.0454 -0.0039  0.3863
  616TMC3    C2 9123   3.276   3.845  16.597  0.9528  0.1116 -0.2118
  616TMC3    C3 9124   3.277   3.980  16.591 -0.1165  0.1321 -0.3791
  616TMC3    C4 9125   3.040   3.864  16.674  0.1834 -0.4017  0.2151
  616TMC3    C5 9126   3.060   3.997  16.686  0.6312  0.0243 -0.4792
  616TMC3    C6 9127   3.176   4.055  16.650  0.4037 -1.0190 -0.0522
  616TMC3     C 9128   3.153   3.645  16.663 -0.4328  0.6222  0.5077
  616TMC3     O 9129   3.262   3.592  16.702 -0.1071  0.6486 -0.3661
  616TMC3     H 9130   3.358   3.785  16.560 -0.3070 -0.6782 -1.6876
  616TMC3    H1 9131   2.946   3.814  16.695 -0.0342 -0.6503 -1.3867
  616TMC3    H2 9132   3.192   4.162  16.643  1.0194 -1.1339 -0.3804
  616TMC3    C7 9133   2.950   4.061  16.757 -0.0697 -0.0498 -0.2370
  616TMC3    C8 9134   3.399   4.044  16.548 -0.5749  0.0379 -0.1839
  616TMC3    O1 9135   2.850   4.002  16.807  0.2118  0.1781  0.5037
  616TMC3    O2 9136   3.497   3.971  16.551  0.3680 -0.3328 -0.1922
  617MPD2     C 9137   0.950   1.723  13.607  0.3988 -0.1806  0.4157
  617MPD2    C1 9138   0.914   1.663  13.727  0.7092  0.0201  0.1958
  617MPD2    C2 9139   0.843   1.546  13.718 -0.3856 -0.3645  0.3239
  617MPD2    C3 9140   0.796   1.488  13.605  0.2912  0.2233 -0.4342
  617MPD2    C4 9141   0.838   1.544  13.490 -0.0347 -0.6288 -0.6981
  617MPD2    C5 9142   0.913   1.659  13.490  0.0323  0.3644 -0.1269
  617MPD2     H 9143   0.824   1.501  13.815 -0.8895 -2.8732 -0.9388
  617MPD2    H1 9144   0.801   1.503  13.397  0.1786  1.0565 -1.5378
  617MPD2    H2 9145   1.002   1.818  13.603 -2.4657  1.4188  1.5388
  617MPD2    H3 9146   0.929   1.708  13.395 -3.6321 -0.3984 -1.1137
  617MPD2     N 9147   0.685   1.395  13.604 -0.1054 -0.3073 -0.2456
  617MPD2    H5 9148   0.655   1.361  13.513 -2.7250  2.1463 -0.2874
  617MPD2    N1 9149   0.957   1.703  13.849  0.3470 -0.3294 -0.0111
  617MPD2    H7 9150   0.923   1.651  13.929  2.8119 -1.3863  0.3500
  618TMC3    C1 9151   1.082   1.811  14.012 -0.2441  0.5877 -0.1398
  618TMC3    C2 9152   1.115   1.690  14.062  0.4028 -1.1933 -0.6847
  618TMC3    C3 9153   1.214   1.687  14.152 -0.1708 -0.9989 -0.0490
  618TMC3    C4 9154   1.129   1.931  14.057 -0.5259  0.3146 -0.1165
  618TMC3    C5 9155   1.223   1.921  14.160 -0.7701  0.6502  0.4429
  618TMC3    C6 9156   1.271   1.799  14.201 -0.2503  0.6030  0.4049
  618TMC3     C 9157   1.033   1.818  13.878  0.4266 -0.3498  0.1481
  618TMC3     O 9158   1.078   1.901  13.800  0.1784  0.3122 -0.3071
  618TMC3     H 9159   1.083   1.600  14.010 -0.8273  0.5372 -2.8961
  618TMC3    H1 9160   1.096   2.021  14.006  1.0941 -0.0725 -1.8251
  618TMC3    H2 9161   1.343   1.792  14.281 -1.9727 -0.3855  1.8683
  618TMC3    C7 9162   1.275   2.042  14.229  0.5480  0.1664  0.3941
  618TMC3    C8 9163   1.272   1.559  14.181  0.5959  0.2100  0.7558
  618TMC3    O1 9164   1.193   2.133  14.231  0.1735 -0.3722 -0.0880
  618TMC3    O2 9165   1.198   1.468  14.209 -0.4306 -0.3693 -0.1149
  619MPD2     C 9166   2.463   3.016  13.949 -0.4160 -0.5352  0.0240
  619MPD2    C1 9167   2.368   3.020  13.852 -0.5685 -0.5036  0.4547
  619MPD2    C2 9168   2.245   2.961  13.877 -0.1399 -0.2996 -0.2716
  619MPD2    C3 9169   2.214   2.913  14.002  0.5982 -0.4289  0.1262
  619MPD2    C4 9170   2.315   2.906  14.093 -0.5521  0.8290 -0.2201
  619MPD2    C5 9171   2.445   2.947  14.069  0.4821 -0.5719  0.0999
  619MPD2     H 9172   2.185   2.956  13.787 -2.2934  0.7345  1.1177
  619MPD2    H1 9173   2.288   2.858  14.186  0.9707  3.0001  1.3325
  619MPD2    H2 9174   2.564   3.053  13.934 -0.7992  1.7724  3.0875
  619MPD2    H3 9175   2.515   2.934  14.151 -0.4566  0.4529  1.0615
  619MPD2     N 9176   2.084   2.865  14.024 -0.4256  0.1934 -0.0298
  619MPD2    H5 9177   2.022   2.882  13.946 -0.7291  0.7392  0.3303
  619MPD2    N1 9178   2.393   3.079  13.726 -0.7888 -0.0514  0.5243
  619MPD2    H7 9179   2.314   3.080  13.661  0.9902  0.3425 -1.6549
  620TMC3    C1 9180   2.483   3.240  13.571 -0.9043 -0.1736  0.2555
  620TMC3    C2 9181   2.385   3.213  13.486 -0.4200 -0.1095  0.0834
  620TMC3    C3 9182   2.343   3.314  13.400 -0.1384 -0.0529  0.0195
  620TMC3    C4 9183   2.526   3.371  13.586  0.1233  0.2391 -0.4257
  620TMC3    C5 9184   2.477   3.466  13.503  0.4764  0.3657  0.4031
  620TMC3    C6 9185   2.386   3.436  13.396 -0.2298 -0.0411 -0.1847
  620TMC3     C 9186   2.500   3.161  13.694 -0.1466  0.1689  0.0727
  620TMC3     O 9187   2.607   3.191  13.753  0.3687 -0.1059 -0.2143
  620TMC3     H 9188   2.333   3.117  13.485  0.7114 -0.7175 -0.4893
  620TMC3    H1 9189   2.598   3.395  13.663 -0.3436 -0.3711  0.1998
  620TMC3    H2 9190   2.357   3.510  13.324  0.6306  0.0672 -0.4248
  620TMC3    C7 9191   2.454   3.599  13.564 -0.1344 -0.1129 -0.2974
  620TMC3    C8 9192   2.205   3.323  13.425  0.3276 -0.1601  0.0016
  620TMC3    O1 9193   2.526   3.619  13.662 -0.4027 -0.2773  0.0192
  620TMC3    O2 9194   2.165   3.285  13.534 -0.1027  0.7110  0.1577
  621MPD2     C 9195   2.037   3.562  10.237  0.4225  0.2013 -0.2236
  621MPD2    C1 9196   2.130   3.497  10.158  0.6170  0.5716 -0.5560
  621MPD2    C2 9197   2.198   3.564  10.060  0.2506 -0.2647 -0.5835
  621MPD2    C3 9198   2.175   3.699  10.043  0.7508  0.5946  0.1320
  621MPD2    C4 9199   2.087   3.765  10.125  0.1147  0.5171  0.0176
  621MPD2    C5 9200   2.027   3.699  10.221  0.0956  0.3249 -0.2312
  621MPD2     H 9201   2.279   3.517  10.004 -0.4301 -2.3547  0.1810
  621MPD2    H1 9202   2.052   3.863  10.096  1.6600  0.7721 -0.9558
  621MPD2    H2 9203   1.974   3.516  10.313 -1.8264  2.0099 -0.9874
  621MPD2    H3 9204   1.952   3.759  10.271 -0.2395  0.7319 -1.2256
  621MPD2     N 9205   2.253   3.760   9.945 -0.2937  0.7692 -0.7872
  621MPD2    H5 9206   2.318   3.695   9.902  1.7321  2.5348 -0.4223
  621MPD2    N1 9207   2.171   3.359  10.174  0.2930  0.9221  0.2303
  621MPD2    H7 9208   2.234   3.314  10.109 -0.4653 -2.4753  1.8235
  622TMC3    C1 9209   2.114   3.141  10.259  0.1232  0.6484 -0.1044
  622TMC3    C2 9210   2.002   3.085  10.314  0.2479  0.1629  0.8242
  622TMC3    C3 9211   1.944   2.975  10.255  0.0178  0.4842  0.1889
  622TMC3    C4 9212   2.186   3.082  10.155 -1.0396 -0.6033 -0.2562
  622TMC3    C5 9213   2.130   2.968  10.110  0.0974 -0.3761  0.2579
  622TMC3    C6 9214   2.018   2.909  10.158 -0.8631 -0.0280  0.0926
  622TMC3     C 9215   2.120   3.281  10.283  1.2296 -0.0434 -0.5231
  622TMC3     O 9216   2.062   3.318  10.383 -0.2669 -0.0293  0.2313
  622TMC3     H 9217   1.942   3.138  10.387 -0.6535 -0.9922  0.9195
  622TMC3    H1 9218   2.285   3.116  10.126 -1.4576  1.9099  1.3566
  622TMC3    H2 9219   1.974   2.826  10.104  0.1859 -0.7576  0.3598
  622TMC3    C7 9220   2.187   2.898  10.002  0.0362  0.0348 -0.1384
  622TMC3    C8 9221   1.804   2.994  10.217 -0.6346  0.1305  0.2717
  622TMC3    O1 9222   2.176   2.776  10.002 -0.5857 -0.3197  0.3135
  622TMC3    O2 9223   1.717   2.932  10.282  0.0100 -0.1782 -0.8791
  623MPD2     C 9224   1.446   3.849  15.823  0.3912 -0.0641 -0.1674
  623MPD2    C1 9225   1.368   3.809  15.926  0.2291  0.2860  0.2855
  623MPD2    C2 9226   1.410   3.828  16.060  0.1408 -0.3833 -0.4330
  623MPD2    C3 9227   1.531   3.890  16.084 -0.1761 -0.3981 -0.3115
  623MPD2    C4 9228   1.616   3.921  15.982 -0.1464 -0.2923  0.0350
  623MPD2    C5 9229   1.573   3.905  15.849  0.2406  0.9150  0.1478
  623MPD2     H 9230   1.333   3.810  16.135  0.1034 -1.0051 -0.6236
  623MPD2    H1 9231   1.721   3.945  15.993 -0.3981  1.7576 -1.8766
  623MPD2    H2 9232   1.408   3.854  15.722  0.5200 -0.7172 -0.2486
  623MPD2    H3 9233   1.632   3.924  15.760  1.4473  2.0040  1.1683
  623MPD2     N 9234   1.576   3.893  16.222  0.0626 -0.6996  0.5189
  623MPD2    H5 9235   1.510   3.857  16.291 -1.3402  1.4745  0.2987
  623MPD2    N1 9236   1.236   3.752  15.915  0.3449 -0.6761 -0.4975
  623MPD2    H7 9237   1.190   3.729  16.003  0.3496  0.9667 -0.0509
  624TMC3    C1 9238   1.824   3.791  16.580 -0.3038 -0.3597 -0.2134
  624TMC3    C2 9239   1.724   3.825  16.664  0.3964  0.1123  0.3807
  624TMC3    C3 9240   1.620   3.898  16.611 -0.6491  0.4905 -0.0489
  624TMC3    C4 9241   1.821   3.823  16.449  0.0362 -0.2760 -0.5599
  624TMC3    C5 9242   1.718   3.902  16.402 -0.0689  0.1562 -0.6156
  624TMC3    C6 9243   1.616   3.936  16.482  0.0123 -0.2616  0.0895
  624TMC3     C 9244   1.934   3.720  16.636  0.0127 -0.2354  0.6184
  624TMC3     O 9245   1.951   3.742  16.757 -0.4164 -0.0020 -0.6640
  624TMC3     H 9246   1.710   3.802  16.769  0.2990  0.8532  0.5312
  624TMC3    H1 9247   1.914   3.817  16.393  1.3448 -1.1134  1.7138
  624TMC3    H2 9248   1.534   3.989  16.434  0.6362 -0.6224 -1.3829
  624TMC3    C7 9249   1.705   3.919  16.261  0.0962 -0.0300  0.4451
  624TMC3    C8 9250   1.493   3.902  16.680  0.4059  0.1980  0.9121
  624TMC3    O1 9251   1.812   3.920  16.199  0.3884 -0.3897  0.8569
  624TMC3    O2 9252   1.455   3.806  16.744  0.3881  0.6477 -0.0300
  625MPD2     C 9253   2.425   4.572   0.577  0.7819 -0.4966 -0.1416
  625MPD2    C1 9254   2.503   4.672   0.627  0.4886 -0.0977 -0.6716
  625MPD2    C2 9255   2.637   4.651   0.632  0.2978 -0.6037 -0.1016
  625MPD2    C3 9256   2.704   4.533   0.594 -0.2864  0.0214 -0.0432
  625MPD2    C4 9257   2.623   4.437   0.543 -0.2288 -0.5389 -0.1904
  625MPD2    C5 9258   2.487   4.460   0.526 -0.2182 -0.5821 -0.3084
  625MPD2     H 9259   2.700   0.008   0.667  2.6057 -3.0331  1.2755
  625MPD2    H1 9260   2.669   4.344   0.510  0.3873 -0.7316  1.2100
  625MPD2    H2 9261   2.318   4.577   0.557  0.7775 -0.5125 -0.1218
  625MPD2    H3 9262   2.423   4.383   0.483 -0.2903 -1.7748  1.9397
  625MPD2     N 9263   2.846   4.540   0.594 -0.4033 -0.3662 -0.0440
  625MPD2    H5 9264   2.885   4.627   0.629  0.2288 -0.7280  0.1470
  625MPD2    N1 9265   2.448   0.073   0.672  0.4671 -1.0045 -0.3953
  625MPD2    H7 9266   2.515   0.142   0.706 -0.2230 -0.6937  0.3480
  626TMC3    C1 9267   2.298   0.252   0.694  0.4522 -0.0345  0.2672
  626TMC3    C2 9268   2.200   0.315   0.623 -0.1020 -0.1869 -0.0854
  626TMC3    C3 9269   2.162   0.442   0.652  0.5953 -0.1795 -0.7033
  626TMC3    C4 9270   2.380   0.325   0.783 -0.5478 -0.8012 -0.0055
  626TMC3    C5 9271   2.344   0.451   0.804 -0.5417  0.1969 -0.8905
  626TMC3    C6 9272   2.236   0.514   0.747  1.2382 -0.2037  0.1534
  626TMC3     C 9273   2.316   0.111   0.667  0.0393 -0.0161 -0.8806
  626TMC3     O 9274   2.218   0.054   0.632  0.5336  0.3129  0.1136
  626TMC3     H 9275   2.146   0.268   0.542 -1.6835  1.7554 -0.1607
  626TMC3    H1 9276   2.459   0.276   0.838 -2.0713 -3.3344 -0.0594
  626TMC3    H2 9277   2.227   0.622   0.749 -1.9717 -0.4257 -2.4902
  626TMC3    C7 9278   2.405   0.511   0.917 -0.2852  0.9791  0.1804
  626TMC3    C8 9279   2.063   0.501   0.573  0.7412  1.0102 -1.1020
  626TMC3    O1 9280   2.513   0.459   0.944  0.0104 -0.5805 -0.0843
  626TMC3    O2 9281   2.045   0.455   0.463 -0.4030  0.4496 -0.4022
  627MPD2     C 9282   0.748   0.293  14.199  0.3379  0.9364  0.1341
  627MPD2    C1 9283   0.696   0.375  14.294 -0.0383  0.3449  0.8188
  627MPD2    C2 9284   0.579   0.338  14.353 -0.0283 -0.6589  0.0259
  627MPD2    C3 9285   0.514   0.219  14.329  0.2757 -0.3475 -0.5622
  627MPD2    C4 9286   0.578   0.135  14.243  0.1470  0.0478  0.2979
  627MPD2    C5 9287   0.692   0.170  14.180  0.1463  0.1510 -0.6867
  627MPD2     H 9288   0.532   0.412  14.416 -0.1569 -1.5351  0.9622
  627MPD2    H1 9289   0.543   0.033  14.232 -3.2263  1.4053 -1.6064
  627MPD2    H2 9290   0.840   0.308  14.145  0.5024  0.3621  0.2565
  627MPD2    H3 9291   0.731   0.095  14.112 -0.5703 -0.4086 -0.4833
  627MPD2     N 9292   0.393   0.196  14.399  0.2876  0.7275  0.2112
  627MPD2    H5 9293   0.347   0.272  14.449  2.0573  1.5081  0.6463
  627MPD2    N1 9294   0.767   0.493  14.345 -0.3023  0.1216  0.6706
  627MPD2    H7 9295   0.715   0.559  14.402  2.5310  2.2114  0.8018
  628TMC3    C1 9296   0.951   0.605  14.426  0.5274  0.4084  0.3616
  628TMC3    C2 9297   1.081   0.590  14.467 -0.2873 -0.1876 -0.0436
  628TMC3    C3 9298   1.142   0.705  14.519 -0.2946 -1.1673  0.2239
  628TMC3    C4 9299   0.883   0.722  14.429 -0.2613 -0.0914  0.1106
  628TMC3    C5 9300   0.952   0.833  14.477  0.5039 -0.1256  0.5647
  628TMC3    C6 9301   1.085   0.829  14.528 -0.6200 -0.1224 -0.5117
  628TMC3     C 9302   0.903   0.506  14.333 -0.4834  0.1378 -0.6727
  628TMC3     O 9303   0.983   0.437  14.269  0.0093  0.3145  0.2114
  628TMC3     H 9304   1.121   0.490  14.470  1.3183  0.4749  0.6541
  628TMC3    H1 9305   0.776   0.725  14.410 -0.1901 -1.2280 -0.4786
  628TMC3    H2 9306   1.138   0.914  14.570 -2.5098  1.5333 -1.4713
  628TMC3    C7 9307   0.894   0.969  14.475 -0.1929 -0.9224 -0.5518
  628TMC3    C8 9308   1.268   0.689  14.589  0.2149 -0.4706  0.3774
  628TMC3    O1 9309   0.945   1.058  14.545 -0.0657  0.6231  0.1719
  628TMC3    O2 9310   1.354   0.773  14.570  0.7539  0.1839  0.4684
  629MPD2     C 9311   3.661   4.448  16.373  0.0653 -0.0704 -0.6380
  629MPD2    C1 9312   3.707   4.341  16.446  0.2291  0.7002  0.0046
  629MPD2    C2 9313   3.613   4.250  16.486 -0.2473  0.3074 -0.4049
  629MPD2    C3 9314   3.479   4.253  16.444 -0.5844  0.2734 -1.0688
  629MPD2    C4 9315   3.440   4.358  16.363 -0.3617  0.3307 -0.1144
  629MPD2    C5 9316   3.530   4.455  16.330 -0.8573  0.2242 -0.7356
  629MPD2     H 9317   3.642   4.172  16.554  1.1542  0.4977 -0.7881
  629MPD2    H1 9318   3.339   4.371  16.325 -0.8354 -0.1790  0.9576
  629MPD2    H2 9319   3.727   4.529  16.346 -0.9241  0.7985 -0.4583
  629MPD2    H3 9320   3.499   4.538  16.268  2.7628  2.0688 -0.0692
  629MPD2     N 9321   3.376   4.168  16.488 -0.7560 -0.0786 -0.9550
  629MPD2    H5 9322   3.283   4.199  16.462 -1.5903 -1.0951  0.8701
  629MPD2    N1 9323   3.842   4.330  16.466 -0.1324  0.0499 -0.3938
  629MPD2    H7 9324   3.897   4.410  16.435 -0.8235  0.8653  0.4499
  630TMC3    C1 9325   4.067   4.249  16.550  0.0347  1.2895  0.0539
  630TMC3    C2 9326   4.126   4.368  16.524 -0.2913 -0.7552  0.4902
  630TMC3    C3 9327   4.257   4.381  16.559  0.4105  0.4254  0.2686
  630TMC3    C4 9328   4.132   4.152  16.620 -0.1650 -0.2708  0.0603
  630TMC3    C5 9329   4.257   4.182  16.676 -0.1578  0.2538  0.2969
  630TMC3    C6 9330   4.328   4.294  16.634  0.2746  0.7815  0.0675
  630TMC3     C 9331   3.915   4.229  16.528 -0.4304 -0.4096  0.1167
  630TMC3     O 9332   3.869   4.125  16.570 -0.3473  0.0831  0.5884
  630TMC3     H 9333   4.080   4.439  16.457 -1.3471 -1.9471 -0.0355
  630TMC3    H1 9334   4.075   4.076  16.672  2.1401 -0.5108  2.1909
  630TMC3    H2 9335   4.420   4.325  16.683 -0.0815  0.2966  1.0377
  630TMC3    C7 9336   4.270   4.140  16.818 -0.5109  0.1677  0.5047
  630TMC3    C8 9337   4.310   4.517  16.574  0.5566  0.0272  0.4069
  630TMC3    O1 9338   4.201   4.053  16.866  0.0685  0.3943  0.3337
  630TMC3    O2 9339   4.432   4.517  16.594  0.2316  0.8310 -0.2797
  631MPD2     C 9340   1.914   3.278  15.834  0.6081  0.0511 -0.8779
  631MPD2    C1 9341   2.031   3.308  15.771 -0.3227  0.2012  0.7857
  631MPD2    C2 9342   2.149   3.266  15.828  0.1100 -0.6580 -0.0809
  631MPD2    C3 9343   2.151   3.193  15.944 -0.5527  0.3279 -0.2568
  631MPD2    C4 9344   2.027   3.151  15.996 -0.1668 -0.5450  0.4018
  631MPD2    C5 9345   1.911   3.197  15.936  0.2070 -0.1094 -0.6100
  631MPD2     H 9346   2.245   3.300  15.791  0.8721 -0.2257  2.2740
  631MPD2    H1 9347   2.021   3.074  16.071 -0.3534  0.1517  1.0945
  631MPD2    H2 9348   1.821   3.315  15.791 -0.7583 -1.3115  0.9054
  631MPD2    H3 9349   1.820   3.165  15.985  1.1339 -0.6511  0.7458
  631MPD2     N 9350   2.280   3.152  15.995  0.6665 -0.5517 -0.0897
  631MPD2    H5 9351   2.361   3.149  15.935 -1.0819 -0.5978 -2.4433
  631MPD2    N1 9352   2.023   3.389  15.655 -0.0099  0.1186  0.0383
  631MPD2    H7 9353   1.929   3.418  15.628 -0.6173 -0.8348  1.1381
  632TMC3    C1 9354   2.093   3.547  15.490  0.0817  0.6962 -0.0954
  632TMC3    C2 9355   1.996   3.634  15.534 -0.1963  0.3118  0.7881
  632TMC3    C3 9356   1.976   3.752  15.468  0.1496 -0.4704  0.1889
  632TMC3    C4 9357   2.175   3.585  15.392  0.0906  0.2133  0.4095
  632TMC3    C5 9358   2.155   3.706  15.331  0.6452 -0.1463  0.1124
  632TMC3    C6 9359   2.058   3.789  15.366  0.1203  0.5392  1.2364
  632TMC3     C 9360   2.127   3.430  15.577  0.2939  0.1702 -0.3698
  632TMC3     O 9361   2.237   3.376  15.559 -0.6263  0.1023 -0.5263
  632TMC3     H 9362   1.941   3.616  15.625  0.7140 -1.5881  0.9702
  632TMC3    H1 9363   2.248   3.513  15.357 -0.2985 -0.4361  0.9350
  632TMC3    H2 9364   2.044   3.884  15.317  1.1398 -0.8263 -1.7081
  632TMC3    C7 9365   2.235   3.745  15.220  0.2710  0.1327  0.5182
  632TMC3    C8 9366   1.917   3.862  15.543 -0.0873 -0.4946  0.5883
  632TMC3    O1 9367   2.179   3.789  15.121 -0.1395  0.2334  0.3304
  632TMC3    O2 9368   1.844   3.834  15.634 -0.5270 -0.0637  0.1324
  633MPD2     C 9369   1.944   2.138   0.179  1.2306 -0.4318 -0.1457
  633MPD2    C1 9370   2.008   2.080   0.074  0.0545  0.7103 -0.2178
  633MPD2    C2 9371   2.030   1.946   0.077 -0.0306  0.3184 -0.2458
  633MPD2    C3 9372   1.987   1.872   0.192  1.1059  0.1392  0.2839
  633MPD2    C4 9373   1.917   1.933   0.293 -0.3908 -0.2481  0.0855
  633MPD2    C5 9374   1.888   2.068   0.285  0.1726 -1.0438 -0.1604
  633MPD2     H 9375   2.077   1.900  17.683 -0.3426  0.4494 -0.4842
  633MPD2    H1 9376   1.889   1.875   0.381  1.2080 -0.1588  0.6563
  633MPD2    H2 9377   1.938   2.247   0.177  2.7934 -0.3686 -0.5107
  633MPD2    H3 9378   1.834   2.109   0.370 -1.0717  0.4568 -1.6707
  633MPD2     N 9379   2.005   1.730   0.207 -0.2100 -0.1050 -0.1505
  633MPD2    H5 9380   1.955   1.680   0.280  0.3785  0.8546  0.8868
  633MPD2    N1 9381   2.043   2.145  17.645  0.1472 -0.3723  0.9595
  633MPD2    H7 9382   2.053   2.083  17.566  0.8640 -2.7883  2.9286
  634TMC3    C1 9383   2.057   2.311  17.486  0.2074 -0.5865  0.1506
  634TMC3    C2 9384   2.123   2.218  17.410  0.0858  1.2902 -0.0876
  634TMC3    C3 9385   2.153   2.253  17.275 -0.3180 -0.5389 -0.2439
  634TMC3    C4 9386   2.012   2.427  17.438  0.2387 -0.1590  0.2358
  634TMC3    C5 9387   2.034   2.453  17.305 -0.6126  1.1887  1.0364
  634TMC3    C6 9388   2.117   2.371  17.225 -0.6596 -0.1269 -0.3778
  634TMC3     C 9389   2.032   2.284  17.627 -0.2299  0.6599  0.3747
  634TMC3     O 9390   1.993   2.376   0.006 -0.1391  0.0943  0.5279
  634TMC3     H 9391   2.155   2.122  17.449  0.3407  1.7504  0.8458
  634TMC3    H1 9392   1.943   2.486  17.498 -0.0497  1.2271 -1.4318
  634TMC3    H2 9393   2.146   2.407  17.127 -1.6480 -0.8804 -0.9333
  634TMC3    C7 9394   1.948   2.552  17.236 -0.1991 -0.8138 -0.0783
  634TMC3    C8 9395   2.105   2.146  17.185 -0.0590 -1.2019 -0.0542
  634TMC3    O1 9396   1.956   2.540  17.114  0.0226 -0.3058  0.2401
  634TMC3    O2 9397   2.040   2.056  17.235 -0.1107 -0.5749  0.2093
  635TMC3    C1 9398   2.871   3.329  17.305  0.3015  0.5314  0.0046
  635TMC3    C2 9399   2.872   3.222  17.218 -0.7444 -0.1106  0.2931
  635TMC3    C3 9400   2.987   3.145  17.212  0.4736  0.2344  0.0839
  635TMC3    C4 9401   2.982   3.359  17.387  0.2194  0.6020 -0.9339
  635TMC3    C5 9402   3.086   3.269  17.385  0.0182 -0.2123  0.2340
  635TMC3    C6 9403   3.088   3.158  17.304 -0.5224  0.1869 -0.1320
  635TMC3     C 9404   2.749   3.395  17.325  0.4328  0.4782  0.0957
  635TMC3     O 9405   2.723   3.448  17.432  0.0929 -0.2843  1.0595
  635TMC3     H 9406   2.784   3.185  17.167  0.6770  2.6590 -4.1803
  635TMC3    H1 9407   2.985   3.447  17.450  0.0803  0.1150 -0.2455
  635TMC3    H2 9408   3.178   3.100  17.286 -0.8741 -0.3349 -0.2122
  635TMC3    C7 9409   3.157   3.269  17.510  0.2743 -0.6976 -0.0790
  635TMC3    C8 9410   2.994   3.028  17.133 -0.5323  1.0015  0.1665
  635TMC3    O1 9411   3.143   3.364  17.584  0.2387 -0.1886 -0.2628
  635TMC3    O2 9412   3.069   2.944  17.177  0.1142  0.0335  0.2012
  636MPD2     C 9413   2.927   2.056  15.682 -0.2958  0.4676  0.1008
  636MPD2    C1 9414   2.964   2.121  15.801  0.0689 -0.0529  0.0645
  636MPD2    C2 9415   3.080   2.089  15.857 -0.3405 -0.5922  0.0533
  636MPD2    C3 9416   3.172   1.998  15.801 -0.8347 -0.0589  0.7666
  636MPD2    C4 9417   3.137   1.938  15.683 -0.2227 -0.1533 -0.7276
  636MPD2    C5 9418   3.013   1.966  15.624 -0.9628  0.4709 -0.7449
  636MPD2     H 9419   3.111   2.143  15.946  1.4800 -0.2981 -0.7476
  636MPD2    H1 9420   3.193   1.863  15.628  0.3549 -1.1444  1.2078
  636MPD2    H2 9421   2.826   2.075  15.648 -2.0049 -3.3789  3.0533
  636MPD2    H3 9422   2.973   1.911  15.540 -0.0372 -2.7456  0.8941
  636MPD2     N 9423   3.283   1.960  15.879  0.2692  0.3893 -0.4277
  636MPD2    H5 9424   3.293   1.997  15.973  0.0510 -1.3055  0.2617
  636MPD2    N1 9425   2.882   2.217  15.875 -0.5672 -0.0389 -0.2625
  636MPD2    H7 9426   2.925   2.256  15.958 -1.0191 -0.1141  0.0050
  637TMC3    C1 9427   3.480   1.868  15.953 -0.2718 -0.0170  0.0998
  637TMC3    C2 9428   3.432   1.896  16.079 -0.2123 -1.6358  0.6017
  637TMC3    C3 9429   3.497   1.976  16.168  1.0442 -0.6566 -0.2536
  637TMC3    C4 9430   3.605   1.908  15.919 -0.1510 -0.0554 -0.6796
  637TMC3    C5 9431   3.683   1.969  16.009  0.5108 -0.5194 -0.4013
  637TMC3    C6 9432   3.622   2.009  16.130  0.3209  0.0386  0.7351
  637TMC3     C 9433   3.383   1.869  15.842 -0.4223 -0.5131  0.4711
  637TMC3     O 9434   3.412   1.818  15.737  0.1483  0.0950 -1.0434
  637TMC3     H 9435   3.331   1.859  16.095 -0.7904  0.8728  2.6364
  637TMC3    H1 9436   3.630   1.916  15.814 -1.0783  0.0925 -0.8861
  637TMC3    H2 9437   3.663   2.094  16.183  0.0363  0.3686  0.4284
  637TMC3    C7 9438   3.746   2.088  15.954 -0.7651 -0.0825  0.1292
  637TMC3    C8 9439   3.416   2.092  16.180  0.1276 -0.1598  0.0320
  637TMC3    O1 9440   3.867   2.101  15.959 -0.2022  0.6065 -0.0538
  637TMC3    O2 9441   3.344   2.107  16.087 -0.3160 -0.3625  0.1656
  638MPD2     C 9442   2.895   1.136  15.236  0.8992 -0.2432  0.8306
  638MPD2    C1 9443   2.842   1.012  15.195 -0.3304  0.1053 -0.6123
  638MPD2    C2 9444   2.802   0.921  15.288 -0.1251 -0.3057 -0.2417
  638MPD2    C3 9445   2.794   0.951  15.419  0.0726 -0.7452 -0.8146
  638MPD2    C4 9446   2.832   1.082  15.459  0.3249  0.0017  0.2783
  638MPD2    C5 9447   2.897   1.162  15.372  0.7758  0.2330  0.8937
  638MPD2     H 9448   2.762   0.826  15.255  0.8353 -0.6006 -0.5800
  638MPD2    H1 9449   2.826   1.119  15.560  0.2192  2.1001 -0.4979
  638MPD2    H2 9450   2.947   1.205  15.170 -0.6642  1.6059  1.4980
  638MPD2    H3 9451   2.926   1.260  15.405 -1.7349  1.6970 -1.2442
  638MPD2     N 9452   2.764   0.848  15.511 -0.2848 -0.2208  1.1065
  638MPD2    H5 9453   2.760   0.755  15.472  0.2976 -0.7136  2.2099
  638MPD2    N1 9454   2.841   0.984  15.056  0.0219  0.7926  0.6564
  638MPD2    H7 9455   2.895   1.052  15.003 -1.0112 -0.3494 -1.8417
  639TMC3    C1 9456   2.708   0.731  15.707  0.0922 -0.0103  0.1596
  639TMC3    C2 9457   2.638   0.653  15.624 -0.7877  0.3836  0.3608
  639TMC3    C3 9458   2.590   0.543  15.685 -0.4523 -0.0615 -0.3169
  639TMC3    C4 9459   2.727   0.704  15.835 -0.9019  0.8938  0.0793
  639TMC3    C5 9460   2.666   0.596  15.895  0.0950 -0.0203 -0.1312
  639TMC3    C6 9461   2.597   0.506  15.813  0.1326  0.4354 -0.3087
  639TMC3     C 9462   2.761   0.848  15.650 -0.5840  0.2441 -0.0709
  639TMC3     O 9463   2.818   0.922  15.728  0.1645  0.4804  0.4109
  639TMC3     H 9464   2.614   0.668  15.519 -1.2096 -2.9202 -0.0255
  639TMC3    H1 9465   2.779   0.772  15.902 -1.7937  0.4081  1.2559
  639TMC3    H2 9466   2.543   0.422  15.855 -0.6636  1.5238  0.8644
  639TMC3    C7 9467   2.762   0.529  15.976  0.3509 -0.6224 -0.3290
  639TMC3    C8 9468   2.509   0.453  15.607 -0.2274 -0.3383 -0.6330
  639TMC3    O1 9469   2.815   0.597  16.059 -0.0138 -0.4973 -0.0753
  639TMC3    O2 9470   2.557   0.402  15.505  0.9089  0.2441  0.0192
  640MPD2     C 9471   3.464   4.660   9.948 -0.3605 -0.6566 -0.2663
  640MPD2    C1 9472   3.512   0.062   9.910  0.3373  0.7543  0.2241
  640MPD2    C2 9473   3.447   0.176   9.968 -0.3276  0.0002  0.0100
  640MPD2    C3 9474   3.327   0.166  10.042  0.2767  0.7885 -0.0602
  640MPD2    C4 9475   3.275   0.037  10.055 -0.3404 -0.0154 -0.3740
  640MPD2    C5 9476   3.343   4.651  10.006 -0.0993 -0.1774 -0.5214
  640MPD2     H 9477   3.487   0.272   9.938 -0.1915  0.1982  0.8181
  640MPD2    H1 9478   3.181   0.029  10.108 -1.6103  0.2947 -2.5839
  640MPD2    H2 9479   3.499   4.570   9.898 -0.7226 -1.4421  0.8959
  640MPD2    H3 9480   3.309   4.549  10.023  0.1098 -0.3207 -0.9567
  640MPD2     N 9481   3.263   0.279  10.103 -0.5432 -0.4096  0.2832
  640MPD2    H5 9482   3.167   0.264  10.132 -0.0354 -0.1719  2.1030
  640MPD2    N1 9483   3.632   0.066   9.835 -0.3679  0.0956  0.1208
  640MPD2    H7 9484   3.679   4.700   9.823  2.0033  1.1860  1.4098
  641TMC3    C1 9485   3.801   0.146   9.696  0.0465  0.4831 -0.0223
  641TMC3    C2 9486   3.868   0.031   9.724 -0.3278  0.2266 -0.6508
  641TMC3    C3 9487   3.945   4.707   9.621 -0.1376 -0.2992  0.1936
  641TMC3    C4 9488   3.806   0.210   9.569  0.1390 -0.2753  0.6622
  641TMC3    C5 9489   3.880   0.158   9.469 -0.3287  0.0354  0.8623
  641TMC3    C6 9490   3.950   0.041   9.492  0.4710  0.1955  0.6583
  641TMC3     C 9491   3.678   0.182   9.769 -1.5187  0.0848 -0.7363
  641TMC3     O 9492   3.621   0.289   9.744 -0.3725  1.0598 -0.1398
  641TMC3     H 9493   3.860   4.703   9.820  0.0999 -0.0450 -0.7608
  641TMC3    H1 9494   3.736   0.290   9.551 -0.7707 -1.1664  0.2142
  641TMC3    H2 9495   4.001   4.710   9.413  0.4090 -0.7232  1.2343
  641TMC3    C7 9496   3.862   0.200   9.331 -0.2702 -0.2223  0.7213
  641TMC3    C8 9497   4.006   4.575   9.640  0.0768  0.5217 -0.5230
  641TMC3    O1 9498   3.882   0.124   9.242  0.2714  0.9629 -0.5494
  641TMC3    O2 9499   4.003   4.501   9.540  0.7882  0.0112  0.1071
  642TMC3    C1 9500   4.613   0.894  12.364 -0.2165  0.2558 -0.6652
  642TMC3    C2 9501   4.668   0.902  12.484  0.2491 -0.2932  0.1447
  642TMC3    C3 9502   0.022   0.793  12.519 -0.6712 -0.7146  0.1875
  642TMC3    C4 9503   4.623   0.781  12.284 -0.6886  1.0466 -0.1487
  642TMC3    C5 9504   4.698   0.677  12.326 -0.4685 -1.2466  0.1603
  642TMC3    C6 9505   0.036   0.675  12.446  0.2174  0.0151 -0.4333
  642TMC3     C 9506   4.534   1.003  12.323 -0.5641 -0.4230 -0.3891
  642TMC3     O 9507   4.548   1.032  12.206 -0.0657  0.3878  0.1479
  642TMC3     H 9508   4.648   0.980  12.556  1.3339  1.7376 -1.7430
  642TMC3    H1 9509   4.567   0.776  12.192  2.0720  0.7842 -1.8123
  642TMC3    H2 9510   0.102   0.600  12.488  1.0217  0.3937 -1.0223
  642TMC3    C7 9511   4.648   0.549  12.279 -0.0537 -0.2333  0.2863
  642TMC3    C8 9512   0.067   0.790  12.658 -0.5130 -0.0466 -0.9808
  642TMC3    O1 9513   4.621   0.530  12.160 -0.5489  0.2553 -0.1679
  642TMC3    O2 9514   0.091   0.679  12.701 -0.8010  0.4461 -0.0417
  643TMC3    C1 9515   3.746   0.128   0.496  0.6742 -0.2370 -0.0621
  643TMC3    C2 9516   3.710   0.188   0.609  0.5814 -0.9256 -0.4018
  643TMC3    C3 9517   3.590   0.259   0.615 -0.1969 -1.3144 -0.1462
  643TMC3    C4 9518   3.669   0.138   0.376 -0.5989 -0.0413  0.4026
  643TMC3    C5 9519   3.554   0.209   0.387 -0.5280 -0.0370  0.0501
  643TMC3    C6 9520   3.510   0.270   0.503  0.5363 -0.2699 -0.4269
  643TMC3     C 9521   3.891   0.138   0.469  0.0947 -0.1966  0.2928
  643TMC3     O 9522   3.916   0.231   0.396  0.5293  0.4890  0.2796
  643TMC3     H 9523   3.795   0.196   0.676 -0.3422 -0.4388  0.6987
  643TMC3    H1 9524   3.712   0.108   0.281 -2.2801 -0.1387 -0.3205
  643TMC3    H2 9525   3.420   0.329   0.517  0.8902  0.1759 -0.0401
  643TMC3    C7 9526   3.520   0.287   0.270 -0.6791 -0.1602 -0.0155
  643TMC3    C8 9527   3.591   0.383   0.697 -0.7009 -1.0243 -0.5020
  643TMC3    O1 9528   3.493   0.405   0.280  0.3039 -0.6370 -0.1117
  643TMC3    O2 9529   3.654   0.376   0.801  0.4835  0.2885  0.0666
  644MPD2     C 9530   3.968   4.432   8.987  0.2931 -0.5187  0.1884
  644MPD2    C1 9531   3.944   4.565   8.943  0.4060  0.6592 -0.4086
  644MPD2    C2 9532   3.824   4.592   8.893  0.0990  0.2796  0.2313
  644MPD2    C3 9533   3.735   4.493   8.848 -0.0559 -1.1569 -0.4596
  644MPD2    C4 9534   3.768   4.362   8.877 -0.1022  0.7769  0.1602
  644MPD2    C5 9535   3.876   4.338   8.948 -0.1570  0.3906 -0.1754
  644MPD2     H 9536   3.795   4.692   8.861 -0.9458 -0.5136 -1.3293
  644MPD2    H1 9537   3.694   4.284   8.860 -0.7395  1.4613 -0.2248
  644MPD2    H2 9538   4.066   4.404   9.023  0.1583 -0.8685  0.2839
  644MPD2    H3 9539   3.891   4.232   8.968  0.1510  0.5449  0.3927
  644MPD2     N 9540   3.610   4.532   8.789 -0.3106 -0.5572  0.0816
  644MPD2    H5 9541   3.603   4.632   8.775 -1.3868 -0.6476  0.0463
  644MPD2    N1 9542   4.053   4.662   8.969 -0.2607 -0.0276 -0.7833
  644MPD2    H7 9543   4.134   4.635   9.023 -0.2389 -0.5581 -1.0783
  645TMC3    C1 9544   3.394   4.514   8.698 -0.5415  0.3654 -0.2954
  645TMC3    C2 9545   3.349   4.613   8.784 -0.3474 -0.3164 -0.0830
  645TMC3    C3 9546   3.233   4.675   8.766  0.0571  0.0063 -0.6919
  645TMC3    C4 9547   3.318   4.467   8.599  0.2160  0.7160  0.4586
  645TMC3    C5 9548   3.187   4.517   8.594  0.4101  0.4130  0.6769
  645TMC3    C6 9549   3.148   4.627   8.669 -0.5824  0.1835  0.1488
  645TMC3     C 9550   3.513   4.447   8.743  0.1368  0.4722  0.3759
  645TMC3     O 9551   3.512   4.326   8.717  0.2795  0.5190 -0.1786
  645TMC3     H 9552   3.412   4.633   8.870 -1.6091 -0.4376  0.8754
  645TMC3    H1 9553   3.361   4.415   8.514  1.5279  1.8900  0.4124
  645TMC3    H2 9554   3.047   4.664   8.653 -0.3981  0.2877 -0.7750
  645TMC3    C7 9555   3.096   4.480   8.496 -0.0287 -0.0811  0.1124
  645TMC3    C8 9556   3.177   0.028   8.868  0.1430  0.2163  0.1496
  645TMC3    O1 9557   3.019   4.572   8.468 -0.4512  0.3396 -0.0933
  645TMC3    O2 9558   3.058   0.020   8.895  0.3534 -0.8440 -0.2023
  646MPD2     C 9559   2.800   4.328  15.083  0.4262  0.3006 -0.0988
  646MPD2    C1 9560   2.710   4.285  15.175 -0.2459 -0.7934  0.0313
  646MPD2    C2 9561   2.588   4.343  15.198 -0.3621  0.5097 -0.3081
  646MPD2    C3 9562   2.558   4.458  15.119 -0.0958  0.3208 -0.4870
  646MPD2    C4 9563   2.662   4.510  15.034 -0.0889 -0.4741 -0.5188
  646MPD2    C5 9564   2.783   4.449  15.025 -0.3589 -0.1028 -0.7081
  646MPD2     H 9565   2.515   4.305  15.269 -1.2187  0.1462 -1.3852
  646MPD2    H1 9566   2.638   4.605  14.988  1.5670 -0.1530 -0.7151
  646MPD2    H2 9567   2.900   4.285  15.083  0.8551  1.3055 -1.0645
  646MPD2    H3 9568   2.868   4.479  14.966 -0.0305 -1.5923 -0.9943
  646MPD2     N 9569   2.436   4.523  15.128  0.6146  0.3110 -0.1067
  646MPD2    H5 9570   2.381   4.501  15.211 -0.9494 -1.4632 -1.6379
  646MPD2    N1 9571   2.744   4.165  15.233  0.0637 -0.6171 -0.0148
  646MPD2    H7 9572   2.836   4.129  15.210  0.1968  0.2307 -0.8306
  647TMC3    C1 9573   2.762   3.985  15.374 -0.5335  0.2648 -0.1400
  647TMC3    C2 9574   2.730   3.918  15.488  0.5614  0.1565 -0.3098
  647TMC3    C3 9575   2.814   3.820  15.526  0.7358  0.4483  0.7923
  647TMC3    C4 9576   2.868   3.948  15.290 -0.2711  0.4306 -0.1334
  647TMC3    C5 9577   2.942   3.835  15.329  0.7594 -0.3487  0.3583
  647TMC3    C6 9578   2.916   3.773  15.446  0.5808  0.1770  0.2326
  647TMC3     C 9579   2.674   4.094  15.339 -0.6077  0.2027  0.6093
  647TMC3     O 9580   2.559   4.111  15.386  0.3130 -0.6336  0.1930
  647TMC3     H 9581   2.651   3.950  15.555 -0.2742 -1.3816 -0.5501
  647TMC3    H1 9582   2.888   3.983  15.190 -2.0258 -2.3682 -1.4681
  647TMC3    H2 9583   2.978   3.694  15.486  0.9469 -0.2515 -1.1938
  647TMC3    C7 9584   3.077   3.807  15.275 -0.7906  0.4922  0.1763
  647TMC3    C8 9585   2.756   3.719  15.614  0.3704  0.2566  0.3147
  647TMC3    O1 9586   3.140   3.714  15.312 -0.0771  0.2342  0.6096
  647TMC3    O2 9587   2.743   3.608  15.565  0.2831 -0.4079  0.1123
  648TMC3    C1 9588   2.227   1.920  16.424 -0.1683  0.1461  0.4879
  648TMC3    C2 9589   2.240   1.797  16.370 -0.2481  0.1175  1.0784
  648TMC3    C3 9590   2.173   1.774  16.247 -0.2349  0.2158  0.0600
  648TMC3    C4 9591   2.173   2.024  16.355  0.0506 -0.3847  0.1435
  648TMC3    C5 9592   2.117   1.999  16.233 -0.0683 -0.0291 -0.9080
  648TMC3    C6 9593   2.111   1.876  16.179 -0.5067 -0.3623 -0.4712
  648TMC3     C 9594   2.286   1.946  16.561 -0.7514 -0.4641 -0.8240
  648TMC3     O 9595   2.311   2.067  16.571  0.1748 -0.1348 -0.1446
  648TMC3     H 9596   2.283   1.713  16.423 -0.1300  1.2895  2.8063
  648TMC3    H1 9597   2.159   2.121  16.401 -0.5741  0.3126 -1.5011
  648TMC3    H2 9598   2.074   1.860  16.079  0.6462 -3.0166 -0.4600
  648TMC3    C7 9599   2.015   2.087  16.178  0.3784  0.1063  0.0189
  648TMC3    C8 9600   2.176   1.642  16.188  0.3335  0.5062 -0.3548
  648TMC3    O1 9601   1.972   2.062  16.064  0.0060  0.3113  0.1281
  648TMC3    O2 9602   2.079   1.607  16.130 -0.0280  0.7178  0.0447
  649TMC3    C1 9603   1.133   3.104  13.127  0.3474 -0.3080 -0.6109
  649TMC3    C2 9604   1.270   3.123  13.103  0.7179  0.8106  0.3347
  649TMC3    C3 9605   1.357   3.080  13.199 -0.5160  0.3410 -0.0027
  649TMC3    C4 9606   1.080   3.053  13.238  0.7672 -0.0535  0.0519
  649TMC3    C5 9607   1.173   3.027  13.338 -0.0052  0.2423  0.4000
  649TMC3    C6 9608   1.307   3.024  13.317 -0.4511 -0.0722  0.5036
  649TMC3     C 9609   1.037   3.140  13.024 -0.1160  0.2646 -0.0919
  649TMC3     O 9610   0.920   3.124  13.055 -0.4686  0.0621 -0.1028
  649TMC3     H 9611   1.306   3.189  13.025 -0.2280  1.9787  0.8835
  649TMC3    H1 9612   0.973   3.040  13.250  1.2881 -1.5043  3.1549
  649TMC3    H2 9613   1.383   2.999  13.391 -0.3453  3.0345  1.4600
  649TMC3    C7 9614   1.116   2.982  13.461 -0.4120  0.2406 -0.3915
  649TMC3    C8 9615   1.505   3.116  13.204 -0.2833  0.2522 -0.5723
  649TMC3    O1 9616   0.996   2.980  13.465 -0.2269  0.1343  0.0315
  649TMC3    O2 9617   1.560   3.100  13.313 -0.6788 -0.4682 -0.0975
  650TMC3    C1 9618   3.805   4.717  13.152  0.0540  0.1940  0.1964
  650TMC3    C2 9619   3.788   0.136  13.169 -0.2352 -0.4257 -1.2550
  650TMC3    C3 9620   3.805   0.214  13.055  0.3520  0.0595 -0.6905
  650TMC3    C4 9621   3.814   4.660  13.025  0.9243  0.0269 -0.5891
  650TMC3    C5 9622   3.807   0.024  12.920 -0.3756  0.0692  0.0268
  650TMC3    C6 9623   3.813   0.157  12.935  0.4468  0.0377  0.0232
  650TMC3     C 9624   3.845   4.637  13.266  0.2902 -0.4188  0.0377
  650TMC3     O 9625   3.840   4.685  13.377  0.0915 -0.1110  0.2956
  650TMC3     H 9626   3.778   0.177  13.269  1.5986  1.3977 -1.8156
  650TMC3    H1 9627   3.786   4.556  13.013  0.9935  0.2906 -3.0054
  650TMC3    H2 9628   3.816   0.217  12.845  2.6546  0.4313  0.3568
  650TMC3    C7 9629   3.759   4.684  12.794 -0.1380  0.0012 -0.0335
  650TMC3    C8 9630   3.788   0.361  13.057  0.1669  0.6526  0.2318
  650TMC3    O1 9631   3.741   4.562  12.794  0.0355 -0.5181 -0.1055
  650TMC3    O2 9632   3.798   0.419  12.947 -0.2385  0.0406  0.2496
  651MPD2     C 9633   2.835   2.124  11.319 -0.9765  0.2062  0.7175
  651MPD2    C1 9634   2.782   2.140  11.196 -0.5440 -0.5360  0.5865
  651MPD2    C2 9635   2.851   2.220  11.108  0.0512  0.2335  0.8786
  651MPD2    C3 9636   2.973   2.274  11.148  0.8405  0.2528  0.7726
  651MPD2    C4 9637   3.026   2.266  11.274  0.2373 -0.2901 -0.1765
  651MPD2    C5 9638   2.950   2.187  11.359 -0.3146 -0.1643 -0.0987
  651MPD2     H 9639   2.810   2.229  11.008 -2.5079  1.7383  2.0722
  651MPD2    H1 9640   3.111   2.322  11.312  1.9946 -2.3715 -1.0036
  651MPD2    H2 9641   2.778   2.064  11.390 -1.0530 -1.4145 -0.7109
  651MPD2    H3 9642   2.996   2.158  11.453  1.9572 -2.5910 -1.9672
  651MPD2     N 9643   3.043   2.347  11.050  0.1585 -0.3058 -0.3769
  651MPD2    H5 9644   2.992   2.365  10.964 -0.5171  1.4322  0.3689
  651MPD2    N1 9645   2.661   2.073  11.167 -0.6091  0.3088  0.0137
  651MPD2    H7 9646   2.621   2.023  11.246 -1.4533  0.1532 -0.5152
  652TMC3    C1 9647   3.383   2.507  10.806  0.5153 -0.2886  0.3179
  652TMC3    C2 9648   3.338   2.486  10.931 -0.2910  0.2737 -0.2580
  652TMC3    C3 9649   3.199   2.470  10.948 -0.9268  0.1912  0.0323
  652TMC3    C4 9650   3.294   2.541  10.704  0.0597  0.0319  0.0082
  652TMC3    C5 9651   3.158   2.539  10.731 -0.4831 -0.1723 -0.5253
  652TMC3    C6 9652   3.113   2.495  10.854  0.0153  0.7499 -0.7310
  652TMC3     C 9653   3.526   2.486  10.797  0.5194 -0.0789  0.2666
  652TMC3     O 9654   3.580   2.394  10.860  0.6029  0.2299  0.1415
  652TMC3     H 9655   3.404   2.483  11.017  0.6571 -0.0154 -1.0048
  652TMC3    H1 9656   3.322   2.551  10.600 -0.3909 -0.1130 -0.1255
  652TMC3    H2 9657   3.007   2.509  10.872  0.4792  0.1066  2.5182
  652TMC3    C7 9658   3.065   2.563  10.623 -0.2868  0.5111 -0.5750
  652TMC3    C8 9659   3.166   2.400  11.060 -0.3864 -0.3930  0.3481
  652TMC3    O1 9660   2.965   2.497  10.634 -0.4492 -0.1053 -0.8613
  652TMC3    O2 9661   3.256   2.359  11.132 -0.3673 -0.4097 -0.5305
  653MPD2     C 9662   1.538   2.050   0.443  0.9448 -0.0039 -0.1909
  653MPD2    C1 9663   1.520   2.140   0.341 -0.4367 -0.5923  0.2641
  653MPD2    C2 9664   1.439   2.108   0.232  0.5254  0.1981  0.4480
  653MPD2    C3 9665   1.381   1.982   0.227  0.3047  0.0863  0.5442
  653MPD2    C4 9666   1.395   1.893   0.337 -0.8162  1.0652  0.1060
  653MPD2    C5 9667   1.463   1.935   0.443 -0.6826 -1.0387 -0.1638
  653MPD2     H 9668   1.432   2.173   0.145  1.1024 -0.8851 -0.3978
  653MPD2    H1 9669   1.345   1.798   0.350 -1.0711  1.2029  0.1249
  653MPD2    H2 9670   1.595   2.068   0.533  0.0403  0.4011  0.2988
  653MPD2    H3 9671   1.461   1.880   0.536 -2.0682 -1.4562 -0.4354
  653MPD2     N 9672   1.313   1.942   0.108  0.0894  0.3799 -0.1810
  653MPD2    H5 9673   1.311   2.011   0.033 -1.9764  2.2429  1.6271
  653MPD2    N1 9674   1.577   2.269   0.337  0.2681 -0.4066  0.6280
  653MPD2    H7 9675   1.556   2.325   0.254  0.5751 -3.4454 -1.5127
  654TMC3    C1 9676   1.229   1.801  17.634  0.3881 -0.5537  0.2921
  654TMC3    C2 9677   1.149   1.909  17.595 -0.9185  0.2948  0.0426
  654TMC3    C3 9678   1.105   1.911  17.463 -0.3613 -0.1719  0.2299
  654TMC3    C4 9679   1.249   1.692  17.554  0.1319 -0.4957  0.2513
  654TMC3    C5 9680   1.185   1.688  17.431 -0.2241 -0.3309 -0.5340
  654TMC3    C6 9681   1.122   1.799  17.380 -0.1051  0.6408 -0.1404
  654TMC3     C 9682   1.298   1.808   0.073  0.6703  0.3022 -0.2594
  654TMC3     O 9683   1.336   1.707   0.126 -0.2015  0.6309  0.2657
  654TMC3     H 9684   1.117   1.985  17.665  1.4143 -0.1010  1.5259
  654TMC3    H1 9685   1.313   1.614  17.592  1.1607 -0.9219 -2.3522
  654TMC3    H2 9686   1.100   1.803  17.274 -2.6449 -3.0226  0.2552
  654TMC3    C7 9687   1.207   1.577  17.347 -0.0832  0.0999  0.2758
  654TMC3    C8 9688   1.027   2.028  17.409 -0.7582 -1.2375  0.2444
  654TMC3    O1 9689   1.138   1.571  17.245 -0.5658 -0.2988 -0.0911
  654TMC3    O2 9690   0.983   2.107  17.492 -0.2037 -0.8800  0.7669
  655MPD2     C 9691   2.649   1.955  15.951 -0.3831  0.7780 -0.1262
  655MPD2    C1 9692   2.533   2.005  15.902 -0.4511  0.3303  0.5912
  655MPD2    C2 9693   2.500   1.949  15.780  0.4693 -0.3732  0.2595
  655MPD2    C3 9694   2.578   1.849  15.712  0.2276 -0.2603  0.6662
  655MPD2    C4 9695   2.693   1.809  15.776 -0.4256 -0.2081  0.1782
  655MPD2    C5 9696   2.732   1.870  15.891  0.0582  0.1257 -0.1076
  655MPD2     H 9697   2.406   1.978  15.734 -0.6066 -0.1661  2.6089
  655MPD2    H1 9698   2.768   1.745  15.732  3.5215  3.4477  1.5511
  655MPD2    H2 9699   2.674   1.989  16.051  3.3140 -2.5886  0.0792
  655MPD2    H3 9700   2.827   1.837  15.931  0.7469  1.8254 -0.3416
  655MPD2     N 9701   2.532   1.796  15.594 -0.0864 -0.1497  0.3729
  655MPD2    H5 9702   2.583   1.711  15.569  0.2759  0.7749 -2.0437
  655MPD2    N1 9703   2.451   2.111  15.962  0.3773  0.3233  0.7062
  655MPD2    H7 9704   2.368   2.133  15.908  1.4088  1.0924 -0.5691
  656TMC3    C1 9705   2.361   2.274  16.108 -0.5751  0.0754  0.2973
  656TMC3    C2 9706   2.337   2.302  16.243 -0.1371 -0.1236 -0.4880
  656TMC3    C3 9707   2.281   2.427  16.263  0.5061  0.0425 -0.5802
  656TMC3    C4 9708   2.315   2.351  16.008 -0.2973  0.6855 -0.0692
  656TMC3    C5 9709   2.250   2.466  16.029 -0.2832 -0.5383  0.0235
  656TMC3    C6 9710   2.229   2.503  16.165  0.0857 -0.2525  0.1417
  656TMC3     C 9711   2.464   2.169  16.082 -0.0270 -0.8474  0.1578
  656TMC3     O 9712   2.543   2.148  16.169 -0.1941  0.2400  0.6583
  656TMC3     H 9713   2.366   2.245  16.330  0.2564 -0.3084 -0.7409
  656TMC3    H1 9714   2.338   2.321  15.907  0.7438 -0.4954  0.5215
  656TMC3    H2 9715   2.189   2.601  16.186  3.3293  1.1459 -0.2130
  656TMC3    C7 9716   2.173   2.525  15.926 -0.3968 -0.0563 -0.5777
  656TMC3    C8 9717   2.215   2.445  16.395  0.2481 -0.4457  0.6399
  656TMC3    O1 9718   2.180   2.460  15.823 -0.2897  0.1542 -0.1734
  656TMC3    O2 9719   2.188   2.335  16.445  0.1148  0.1628  0.4290
  657TMC3    C1 9720   1.507   1.218  15.213 -0.4167  0.0373  0.3797
  657TMC3    C2 9721   1.536   1.280  15.331  0.2362  0.3099  0.1807
  657TMC3    C3 9722   1.465   1.393  15.355  0.1169  0.9307  0.1457
  657TMC3    C4 9723   1.404   1.253  15.136  0.4285  0.5635 -0.6874
  657TMC3    C5 9724   1.323   1.366  15.173  0.5785  0.6391  0.4357
  657TMC3    C6 9725   1.348   1.431  15.293 -0.1035 -0.2758 -0.0827
  657TMC3     C 9726   1.598   1.116  15.156  0.3170  0.6041  0.0465
  657TMC3     O 9727   1.551   1.030  15.081  0.1030  0.3144  0.3424
  657TMC3     H 9728   1.614   1.242  15.397 -0.8588  0.6689  1.6834
  657TMC3    H1 9729   1.384   1.194  15.047 -1.1679  1.0545 -0.6551
  657TMC3    H2 9730   1.297   1.522  15.323  0.1944 -0.3023  0.5098
  657TMC3    C7 9731   1.285   1.446  15.067  0.2256  0.0527  0.5738
  657TMC3    C8 9732   1.491   1.457  15.491  0.9980  0.0570  0.1636
  657TMC3    O1 9733   1.320   1.417  14.952  0.1090  0.4455 -0.1449
  657TMC3    O2 9734   1.427   1.559  15.512  0.1119 -0.2381  0.7175
  658MPD2     C 9735   2.910   1.517  15.112 -0.5722 -0.8289  0.0599
  658MPD2    C1 9736   2.794   1.570  15.077  0.1221 -0.0569 -0.3249
  658MPD2    C2 9737   2.791   1.635  14.954 -0.3877  0.8222  0.8812
  658MPD2    C3 9738   2.901   1.644  14.873 -0.8798  0.6664  0.0557
  658MPD2    C4 9739   3.018   1.578  14.913 -0.0248  0.3973  0.2651
  658MPD2    C5 9740   3.022   1.513  15.034 -0.0892  0.7191 -0.1345
  658MPD2     H 9741   2.713   1.706  14.930 -0.3817  0.5436  0.0191
  658MPD2    H1 9742   3.106   1.579  14.850 -1.3775 -0.5500 -1.6589
  658MPD2    H2 9743   2.906   1.462  15.205 -0.3916  2.6285  2.0913
  658MPD2    H3 9744   3.116   1.476  15.072  0.5060  2.3458 -0.0351
  658MPD2     N 9745   2.887   1.713  14.751 -0.0533  0.5616 -0.3712
  658MPD2    H5 9746   2.806   1.772  14.743 -2.1507 -2.3286 -0.6226
  658MPD2    N1 9747   2.683   1.563  15.161 -0.6679  0.5552  0.5681
  658MPD2    H7 9748   2.681   1.536  15.258 -0.7329 -0.0800  0.3876
  659TMC3    C1 9749   2.459   1.607  15.228  0.0370  0.1044  0.1229
  659TMC3    C2 9750   2.485   1.661  15.354 -0.3085  0.0152 -0.5443
  659TMC3    C3 9751   2.389   1.737  15.414 -0.0528 -0.0241  0.0467
  659TMC3    C4 9752   2.331   1.597  15.186 -0.2362 -0.1565 -0.0532
  659TMC3    C5 9753   2.237   1.674  15.248 -0.6610 -0.0715  0.3661
  659TMC3    C6 9754   2.269   1.749  15.353 -0.0296  0.3294  0.0855
  659TMC3     C 9755   2.558   1.600  15.121  0.1980  0.2275  0.1564
  659TMC3     O 9756   2.512   1.609  15.011  0.1398 -0.0493 -0.1830
  659TMC3     H 9757   2.589   1.665  15.384 -0.4353  1.9450 -0.3441
  659TMC3    H1 9758   2.307   1.551  15.091  2.7470 -1.2087 -0.2970
  659TMC3    H2 9759   2.189   1.801  15.404 -0.7767  0.7587 -1.5213
  659TMC3    C7 9760   2.095   1.679  15.213  0.8411  0.7234  0.0085
  659TMC3    C8 9761   2.422   1.837  15.518 -0.2111 -0.8089  0.7064
  659TMC3    O1 9762   2.028   1.774  15.252 -1.0756 -0.4492  0.2611
  659TMC3    O2 9763   2.359   1.940  15.507 -0.2539 -0.1164  0.8181
  660MPD2     C 9764   1.379   0.368  12.838 -0.0741 -0.5047 -0.1093
  660MPD2    C1 9765   1.253   0.406  12.787 -0.4269  1.1167 -0.6198
  660MPD2    C2 9766   1.141   0.326  12.814  0.0900  0.5489  0.2483
  660MPD2    C3 9767   1.151   0.226  12.907  1.7447 -0.3514  0.5980
  660MPD2    C4 9768   1.274   0.197  12.962 -0.1078 -0.5098  0.7039
  660MPD2    C5 9769   1.388   0.255  12.917 -0.2976 -0.0058  0.2914
  660MPD2     H 9770   1.048   0.351  12.765  0.4971 -1.9054 -1.8008
  660MPD2    H1 9771   1.275   0.116  13.034 -1.8981  0.7874  2.1537
  660MPD2    H2 9772   1.466   0.420  12.800 -1.6648  2.8158  0.7552
  660MPD2    H3 9773   1.482   0.213  12.953 -0.2564 -0.8533 -0.8127
  660MPD2     N 9774   1.040   0.152  12.961 -0.7297 -0.7289  0.7562
  660MPD2    H5 9775   1.058   0.072  13.020  1.0087 -0.2278  0.8925
  660MPD2    N1 9776   1.245   0.515  12.696 -0.2881 -0.2694  0.4206
  660MPD2    H7 9777   1.335   0.551  12.666 -0.9903  1.7908  0.8185
  661TMC3    C1 9778   1.129   0.658  12.534 -0.2769 -0.2150 -0.7353
  661TMC3    C2 9779   1.243   0.668  12.458 -0.9855 -0.6758  1.1655
  661TMC3    C3 9780   1.218   0.693  12.330 -0.3729  0.2500  0.3092
  661TMC3    C4 9781   1.006   0.714  12.504  0.0494 -0.7015  0.5657
  661TMC3    C5 9782   0.999   0.761  12.378 -0.7891  1.0647 -0.4842
  661TMC3    C6 9783   1.103   0.753  12.290 -0.2065 -0.3445 -0.4748
  661TMC3     C 9784   1.125   0.572  12.659  0.2660  0.2788  0.2105
  661TMC3     O 9785   1.020   0.572  12.722 -0.2341  0.1347  0.3116
  661TMC3     H 9786   1.337   0.624  12.492  1.9863  1.2273 -4.5624
  661TMC3    H1 9787   0.914   0.688  12.555 -0.6725  0.0716 -0.3458
  661TMC3    H2 9788   1.101   0.800  12.192  0.4105  0.4711 -0.0955
  661TMC3    C7 9789   0.868   0.775  12.324 -0.0510  0.1732  0.3148
  661TMC3    C8 9790   1.328   0.733  12.249  0.1047  0.2277  0.0901
  661TMC3    O1 9791   0.866   0.753  12.203  0.1941 -0.0983  0.0928
  661TMC3    O2 9792   1.319   0.711  12.131 -0.1856 -0.3542 -0.5154
  662MPD2     C 9793   1.004   0.403  17.080  0.2583 -0.0837 -0.5992
  662MPD2    C1 9794   1.107   0.466  17.154  0.2438 -0.3193 -0.4122
  662MPD2    C2 9795   1.100   0.602  17.183 -0.2465  0.2298  0.1208
  662MPD2    C3 9796   0.982   0.680  17.175  0.3931 -0.5922  0.1747
  662MPD2    C4 9797   0.878   0.607  17.111  0.1515 -0.9439 -0.5319
  662MPD2    C5 9798   0.889   0.474  17.070 -0.9390 -0.1761  0.1553
  662MPD2     H 9799   1.183   0.646  17.237  0.2958  0.3411 -0.8118
  662MPD2    H1 9800   0.786   0.653  17.078 -0.4323 -1.0368  0.9810
  662MPD2    H2 9801   1.020   0.306  17.035  0.2143  0.1054 -1.0150
  662MPD2    H3 9802   0.805   0.430  17.018 -1.3003  0.3490  0.2922
  662MPD2     N 9803   0.970   0.815  17.213  0.7410 -0.4420  0.4045
  662MPD2    H5 9804   0.877   0.854  17.199  0.7157  0.3028  2.6655
  662MPD2    N1 9805   1.230   0.405  17.194 -0.3574 -0.1597 -0.4293
  662MPD2    H7 9806   1.290   0.467  17.248 -1.5402  1.7638 -1.3260
  663TMC3    C1 9807   1.384   0.249  17.264 -0.5096 -0.8872  0.4330
  663TMC3    C2 9808   1.456   0.364  17.266 -0.0912 -0.2399  0.1762
  663TMC3    C3 9809   1.529   0.407  17.375  1.0030  0.1466 -0.1336
  663TMC3    C4 9810   1.362   0.181  17.383  0.1348 -0.3204 -0.5404
  663TMC3    C5 9811   1.430   0.227  17.495 -0.3203 -0.0967  0.3671
  663TMC3    C6 9812   1.511   0.337  17.485  0.5758 -0.2708  0.1710
  663TMC3     C 9813   1.255   0.273  17.202 -0.3196 -0.0186 -0.1929
  663TMC3     O 9814   1.186   0.176  17.185  0.2925 -0.4754 -0.5407
  663TMC3     H 9815   1.482   0.422  17.178 -2.1148  2.4117  1.3212
  663TMC3    H1 9816   1.293   0.097  17.378 -0.0493 -0.2991  1.4082
  663TMC3    H2 9817   1.592   0.349  17.556 -0.0781 -2.2985  1.2519
  663TMC3    C7 9818   1.405   0.199  17.634 -0.0212  0.3649 -0.7034
  663TMC3    C8 9819   1.499   0.548  17.397  0.4284 -0.0346  0.4113
  663TMC3    O1 9820   1.424   0.285   0.021 -0.4281  0.4962  0.5567
  663TMC3    O2 9821   1.427   0.597  17.316  0.1190 -0.5786 -0.5828
  664MPD2     C 9822   4.253   4.371   0.312  0.1089  1.0697 -0.1964
  664MPD2    C1 9823   4.136   4.282   0.335  0.3195  0.3026  0.8909
  664MPD2    C2 9824   4.088   4.272   0.461 -0.0875  0.0467 -0.1029
  664MPD2    C3 9825   4.148   4.323   0.570  0.3424 -0.2017 -0.3163
  664MPD2    C4 9826   4.254   4.410   0.546  0.2060  1.3770  0.0282
  664MPD2    C5 9827   4.307   4.430   0.420  0.2905  0.1269 -0.4903
  664MPD2     H 9828   3.992   4.226   0.479 -1.0676  2.5522  1.0739
  664MPD2    H1 9829   4.319   4.457   0.618  1.3631 -2.9814  1.8086
  664MPD2    H2 9830   4.285   4.392   0.211  0.9614  3.0361  0.4738
  664MPD2    H3 9831   4.392   4.497   0.411 -0.7036  1.3107 -1.1689
  664MPD2     N 9832   4.101   4.319   0.703  0.1290 -0.4778  0.0066
  664MPD2    H5 9833   4.166   4.364   0.767  0.8603 -2.9527  0.9892
  664MPD2    N1 9834   4.062   4.231   0.220  0.0420 -0.5238  0.7309
  664MPD2    H7 9835   3.970   4.189   0.228 -1.2941  2.2488  0.1767
  665TMC3    C1 9836   3.955   4.273   0.888 -0.4571 -0.3709 -0.0681
  665TMC3    C2 9837   4.059   4.237   0.966  0.8061 -0.1375 -0.4219
  665TMC3    C3 9838   4.052   4.260   1.096  0.3280  0.2347  0.5581
  665TMC3    C4 9839   3.845   4.323   0.949 -0.0608 -0.5238  0.5777
  665TMC3    C5 9840   3.837   4.349   1.080 -0.2266 -0.1739  0.0472
  665TMC3    C6 9841   3.945   4.323   1.155  0.8571 -0.4935 -0.0966
  665TMC3     C 9842   3.971   4.291   0.740  0.7069  0.5462 -0.1930
  665TMC3     O 9843   3.871   4.317   0.670  0.1433  0.2911  0.1982
  665TMC3     H 9844   4.146   4.206   0.909  0.4406 -1.3206 -0.3464
  665TMC3    H1 9845   3.755   4.355   0.898  1.7951  0.1971 -2.2504
  665TMC3    H2 9846   3.953   4.347   1.261  0.1963  0.7618 -0.3409
  665TMC3    C7 9847   3.716   4.397   1.147  0.9104 -0.5199 -0.4337
  665TMC3    C8 9848   4.137   4.178   1.180 -0.0517  0.8991  0.0114
  665TMC3    O1 9849   3.609   4.356   1.113 -0.0741 -0.1272 -0.3321
  665TMC3    O2 9850   4.094   4.170   1.294  0.2073  0.0473  0.4543
  666TMC3    C1 9851   2.377   3.936   9.831 -0.0840  0.4442  0.0298
  666TMC3    C2 9852   2.437   3.841   9.758  0.8662  0.5185  0.3370
  666TMC3    C3 9853   2.552   3.866   9.685 -0.0913  0.0586  0.5873
  666TMC3    C4 9854   2.441   4.057   9.849  0.4290 -0.2517 -0.7730
  666TMC3    C5 9855   2.557   4.082   9.785  0.2885 -0.2199 -0.7551
  666TMC3    C6 9856   2.614   3.987   9.706  0.2446 -0.0503  0.0243
  666TMC3     C 9857   2.271   3.902   9.924 -0.4526  0.1552  0.5990
  666TMC3     O 9858   2.216   3.996   9.980 -0.2407 -0.1292 -0.4275
  666TMC3     H 9859   2.400   3.740   9.760  1.3541  0.3001 -2.5516
  666TMC3    H1 9860   2.408   4.123   9.929 -1.1412 -2.1307  0.1477
  666TMC3    H2 9861   2.712   4.007   9.662  0.1295  0.9496  0.2181
  666TMC3    C7 9862   2.651   4.165   9.858 -0.1347 -0.6364 -0.0363
  666TMC3    C8 9863   2.639   3.756   9.679 -0.0652 -0.5284 -0.7163
  666TMC3    O1 9864   2.623   4.198   9.972 -0.3180  0.4857  0.7521
  666TMC3    O2 9865   2.747   3.785   9.731  0.0768 -0.2928 -0.6688
  667MPD2     C 9866   4.401   3.512  14.930 -0.1106  0.4971 -0.2892
  667MPD2    C1 9867   4.302   3.603  14.969 -0.1394 -0.5523 -1.0117
  667MPD2    C2 9868   4.176   3.593  14.913 -0.9537 -0.5485 -0.6159
  667MPD2    C3 9869   4.155   3.488  14.826 -0.8199 -0.3127  0.1667
  667MPD2    C4 9870   4.255   3.408  14.783  0.0716  0.2100  0.2183
  667MPD2    C5 9871   4.376   3.419  14.844 -0.1613  0.6775  0.3249
  667MPD2     H 9872   4.097   3.649  14.963 -1.7614 -0.6331 -1.8011
  667MPD2    H1 9873   4.232   3.333  14.708  0.7495  0.9358 -0.7131
  667MPD2    H2 9874   4.501   3.507  14.971 -1.3027 -0.7866  2.5517
  667MPD2    H3 9875   4.446   3.342  14.815 -0.8621  0.4289 -0.7009
  667MPD2     N 9876   4.032   3.466  14.760  0.1981 -0.0086  0.3108
  667MPD2    H5 9877   4.037   3.389  14.693 -2.0061 -0.8193  1.0639
  667MPD2    N1 9878   4.335   3.687  15.080 -0.2242  0.0769 -0.2136
  667MPD2    H7 9879   4.254   3.724  15.129  0.0926 -0.4718  0.7170
  668TMC3    C1 9880   4.465   3.784  15.248  0.0104  0.7737  0.6331
  668TMC3    C2 9881   4.559   3.886  15.260 -0.1317  0.2452 -0.4556
  668TMC3    C3 9882   4.625   3.907  15.375  0.2469 -0.2181  0.0020
  668TMC3    C4 9883   4.440   3.712  15.362  0.4833  0.7737  0.2847
  668TMC3    C5 9884   4.492   3.744  15.479 -0.3733 -0.0004  0.3057
  668TMC3    C6 9885   4.593   3.836  15.485  0.2208 -0.4310  0.5602
  668TMC3     C 9886   4.461   3.715  15.123  0.3148 -0.6090  0.0468
  668TMC3     O 9887   4.566   3.699  15.062  0.7097  0.0767  0.3748
  668TMC3     H 9888   4.584   3.935  15.166  1.7138 -1.5277 -0.9039
  668TMC3    H1 9889   4.374   3.627  15.353  1.1584  0.2421  0.3156
  668TMC3    H2 9890   4.642   3.856  15.579 -1.2609  1.0260  1.0300
  668TMC3    C7 9891   4.410   3.724  15.596  0.3290  0.2053 -0.1048
  668TMC3    C8 9892   4.685   4.038  15.392 -0.4758  0.1073  0.6686
  668TMC3    O1 9893   4.462   3.750  15.702  0.0441 -0.6778  0.1330
  668TMC3    O2 9894   4.670   4.084  15.503 -0.0980 -0.2107 -0.1293
  669TMC3    C1 9895   2.755   3.717  14.547 -0.5871  0.0834 -0.3732
  669TMC3    C2 9896   2.656   3.722  14.448  0.0881 -0.7194  0.0241
  669TMC3    C3 9897   2.672   3.799  14.342  0.4731 -0.0323 -0.3017
  669TMC3    C4 9898   2.871   3.793  14.528  0.6200  0.0353  0.1720
  669TMC3    C5 9899   2.881   3.861  14.415 -0.7085  0.0516  0.3283
  669TMC3    C6 9900   2.784   3.871  14.323  0.3249  0.1467 -0.3487
  669TMC3     C 9901   2.726   3.632  14.664 -0.3283 -0.4491  0.2409
  669TMC3     O 9902   2.622   3.566  14.662 -0.0675 -0.0275 -0.1425
  669TMC3     H 9903   2.573   3.654  14.458 -0.2991 -0.3071 -0.4184
  669TMC3    H1 9904   2.943   3.798  14.608  0.2489 -0.3313  0.5349
  669TMC3    H2 9905   2.800   3.929  14.232 -2.2077  0.9259 -0.2819
  669TMC3    C7 9906   2.996   3.956  14.410 -0.1665  0.4552 -0.0101
  669TMC3    C8 9907   2.547   3.849  14.289 -0.4965  0.2459  0.2214
  669TMC3    O1 9908   3.033   4.007  14.520 -0.3159  0.1846  0.0269
  669TMC3    O2 9909   2.441   3.811  14.337 -0.1516  1.0228  0.3555
  670MPD2     C 9910   1.229   1.424  13.364 -0.4455  0.6817  0.0880
  670MPD2    C1 9911   1.259   1.433  13.500  1.1512 -0.1354  0.0653
  670MPD2    C2 9912   1.182   1.365  13.587  0.0328 -0.1965 -0.1048
  670MPD2    C3 9913   1.080   1.288  13.543 -0.3364  0.0947  0.0182
  670MPD2    C4 9914   1.045   1.292  13.408  0.0231  0.9126  0.4698
  670MPD2    C5 9915   1.118   1.364  13.319  0.4594 -0.4874 -0.1945
  670MPD2     H 9916   1.210   1.370  13.691  0.8081 -1.6352 -0.2459
  670MPD2    H1 9917   0.964   1.236  13.363  0.3140  1.5282 -0.8349
  670MPD2    H2 9918   1.289   1.468  13.285 -0.7039  0.0618 -0.4521
  670MPD2    H3 9919   1.115   1.347  13.212  0.6607 -2.5094  0.1241
  670MPD2     N 9920   1.009   1.209  13.631 -0.2035  0.8972  0.2620
  670MPD2    H5 9921   1.037   1.203  13.729  0.2028 -0.3872  0.0620
  670MPD2    N1 9922   1.376   1.491  13.557  0.4477 -0.1119 -0.0405
  670MPD2    H7 9923   1.378   1.488  13.659  1.5985 -1.7046 -0.1112
  671TMC3    C1 9924   0.858   1.056  13.715 -0.9119 -0.0389  0.1017
  671TMC3    C2 9925   0.877   1.096  13.844 -0.6305 -0.5743  0.1799
  671TMC3    C3 9926   0.827   1.018  13.951  0.1137 -0.1146  0.1778
  671TMC3    C4 9927   0.788   0.942  13.684  0.1824 -0.9216  0.0705
  671TMC3    C5 9928   0.735   0.875  13.788 -1.0376  0.9383  0.6411
  671TMC3    C6 9929   0.739   0.923  13.918 -0.6123  0.1413  0.2778
  671TMC3     C 9930   0.902   1.127  13.600  0.5480  0.0377 -0.1021
  671TMC3     O 9931   0.842   1.110  13.497 -0.4335  0.1620  0.3915
  671TMC3     H 9932   0.954   1.170  13.862  0.7531 -1.9315 -0.0764
  671TMC3    H1 9933   0.791   0.906  13.582 -0.1876  2.7016 -1.1945
  671TMC3    H2 9934   0.710   0.854  13.996  1.0569  1.0518  1.7223
  671TMC3    C7 9935   0.684   0.746  13.762 -0.3138 -0.6142 -0.4776
  671TMC3    C8 9936   0.939   0.950  14.024 -0.5059 -0.3085 -1.0855
  671TMC3    O1 9937   0.736   0.685  13.672  0.2892 -0.0607 -0.5145
  671TMC3    O2 9938   0.931   0.829  14.048 -0.2221 -0.0765  0.1144
  672MPD2     C 9939   0.643   1.956   1.723 -0.1559  0.0786 -0.0607
  672MPD2    C1 9940   0.668   2.010   1.597 -0.1318  0.6907  0.2220
  672MPD2    C2 9941   0.733   2.129   1.585  0.2198 -0.6540 -0.2178
  672MPD2    C3 9942   0.785   2.190   1.702  0.1234 -0.6050  0.2949
  672MPD2    C4 9943   0.752   2.140   1.828 -0.2045 -0.2781  0.5586
  672MPD2    C5 9944   0.684   2.021   1.833  0.2418  0.4717 -0.2963
  672MPD2     H 9945   0.748   2.162   1.483 -0.2347 -0.9294 -0.3775
  672MPD2    H1 9946   0.775   2.172   1.929  0.5418 -0.1368  0.3505
  672MPD2    H2 9947   0.571   1.876   1.736 -0.0916 -0.4200 -2.9257
  672MPD2    H3 9948   0.644   1.988   1.929  3.3044 -0.7449  0.5616
  672MPD2     N 9949   0.866   2.309   1.701 -0.2261  0.5449 -0.1933
  672MPD2    H5 9950   0.909   2.340   1.788  0.4210  2.0137 -1.0216
  672MPD2    N1 9951   0.629   1.952   1.476  0.1227 -0.0964  0.8195
  672MPD2    H7 9952   0.635   2.006   1.390  1.1835  0.0611  0.9970
  673TMC3    C1 9953   0.611   1.790   1.315  0.9544  0.6274  0.2391
  673TMC3    C2 9954   0.693   1.694   1.258 -0.0352  0.0497 -0.5701
  673TMC3    C3 9955   0.670   1.684   1.120 -0.2605  0.7435 -0.0463
  673TMC3    C4 9956   0.533   1.876   1.244  0.0715  0.2787  0.1843
  673TMC3    C5 9957   0.514   1.858   1.111 -0.5496  0.3176 -0.6395
  673TMC3    C6 9958   0.588   1.760   1.046  0.5050  0.6133 -0.2957
  673TMC3     C 9959   0.621   1.814   1.454 -0.0525  0.0971  0.6111
  673TMC3     O 9960   0.685   1.728   1.509  0.0892  0.9162 -0.0548
  673TMC3     H 9961   0.768   1.640   1.314  0.4432  1.1027 -0.1963
  673TMC3    H1 9962   0.460   1.934   1.299  0.2858  0.4243  0.3186
  673TMC3    H2 9963   0.575   1.738   0.941  3.8450  0.5165 -0.7073
  673TMC3    C7 9964   0.469   1.963   1.024 -0.2010 -0.0182  0.1406
  673TMC3    C8 9965   0.771   1.609   1.052  0.7370  0.6114 -0.3367
  673TMC3    O1 9966   0.471   2.073   1.083 -0.0237 -0.2444  0.5082
  673TMC3    O2 9967   0.735   1.544   0.952 -0.3147 -0.1607 -0.0446
  674MPD2     C 9968   1.470   2.136   1.013 -0.4088  0.1136  0.7616
  674MPD2    C1 9969   1.520   2.057   0.910 -0.3913  0.4693  0.4120
  674MPD2    C2 9970   1.439   1.950   0.867  0.0698 -0.5318 -0.2511
  674MPD2    C3 9971   1.305   1.938   0.908 -0.3462  0.6320  0.1557
  674MPD2    C4 9972   1.252   2.019   1.005 -0.6218 -0.6458  0.0472
  674MPD2    C5 9973   1.334   2.114   1.052 -0.3371  0.5116 -0.2092
  674MPD2     H 9974   1.472   1.879   0.792  1.1959  0.4195 -0.6577
  674MPD2    H1 9975   1.148   2.016   1.035 -0.7381  1.2690 -0.1611
  674MPD2    H2 9976   1.531   2.217   1.050 -0.7519  0.7991 -0.1613
  674MPD2    H3 9977   1.300   2.178   1.132  0.4199  0.7598 -0.0911
  674MPD2     N 9978   1.232   1.837   0.841 -0.0896 -0.0247  0.0482
  674MPD2    H5 9979   1.284   1.762   0.795  0.7975  1.9666 -2.1721
  674MPD2    N1 9980   1.654   2.080   0.867 -0.4372  0.3412 -0.6157
  674MPD2    H7 9981   1.693   2.172   0.881  1.0582 -0.1933 -1.2678
  675TMC3    C1 9982   1.855   2.022   0.749  0.0680 -1.0104  0.8939
  675TMC3    C2 9983   1.950   1.931   0.739 -0.7860  0.9843  0.7176
  675TMC3    C3 9984   2.083   1.972   0.719 -0.3358 -0.2962 -0.7856
  675TMC3    C4 9985   1.882   2.153   0.736  0.7300 -0.1293 -0.3386
  675TMC3    C5 9986   2.011   2.185   0.696  0.5115  0.2875 -0.8518
  675TMC3    C6 9987   2.114   2.099   0.684 -0.0192  0.2386 -0.5330
  675TMC3     C 9988   1.727   1.981   0.807  0.4215  0.0728  0.1817
  675TMC3     O 9989   1.714   1.862   0.800  0.6423 -0.3255 -0.2465
  675TMC3     H 9990   1.926   1.832   0.777  0.3720  0.4209 -0.0161
  675TMC3    H1 9991   1.802   2.227   0.735  1.2713  0.4736  0.7500
  675TMC3    H2 9992   2.218   2.127   0.676  0.0352  1.0745  3.0968
  675TMC3    C7 9993   2.048   2.325   0.676 -0.3035  0.6772 -0.0787
  675TMC3    C8 9994   2.183   1.869   0.725 -0.6384  0.5083 -0.5384
  675TMC3    O1 9995   2.157   2.355   0.633 -0.1484  0.3448 -0.6403
  675TMC3    O2 9996   2.282   1.883   0.655  0.3746 -0.3339 -0.5266
  676MPD2     C 9997   4.028   4.578  11.263  0.3553 -0.2798  0.4218
  676MPD2    C1 9998   3.908   4.514  11.302  0.0959 -0.2174  0.4273
  676MPD2    C2 9999   3.884   4.386  11.261 -0.0589  0.3441  0.1006
  676MPD2    C310000   3.974   4.307  11.188  0.4211  0.5713 -0.0426
  676MPD2    C410001   4.092   4.365  11.149 -0.3422  0.3533  0.5040
  676MPD2    C510002   4.113   4.500  11.183  0.5301  0.3837 -0.6317
  676MPD2     H10003   3.791   4.337  11.288 -0.2252  0.6496  0.0825
  676MPD2    H110004   4.158   4.326  11.073 -0.7317  1.0197 -0.1825
  676MPD2    H210005   4.049   4.680  11.292 -0.2120 -0.4779  1.5184
  676MPD2    H310006   4.209   4.543  11.156  0.6396  0.1542 -0.6107
  676MPD2     N10007   3.945   4.179  11.139 -0.8426 -0.0449 -0.3603
  676MPD2    H510008   4.012   4.128  11.082 -1.2305 -0.1060 -0.7661
  676MPD2    N110009   3.811   4.575  11.387 -0.8066  0.2956 -0.5545
  676MPD2    H710010   3.734   4.517  11.419  0.2017 -1.2494 -0.9213
  677TMC3    C110011   3.718   0.004  11.535 -0.5714 -0.0555  0.5480
  677TMC3    C210012   3.608   4.641  11.530 -0.5445 -0.1902  0.7183
  677TMC3    C310013   3.513   4.660  11.625 -0.1395  1.0569 -0.6545
  677TMC3    C410014   3.741   0.098  11.627  0.0653  0.2055  0.9925
  677TMC3    C510015   3.639   0.122  11.716 -0.0017  0.9974 -0.0871
  677TMC3    C610016   3.525   0.041  11.713 -0.1532  0.5027  0.4890
  677TMC3     C10017   3.820   4.705  11.439 -0.0420 -0.2919 -0.2644
  677TMC3     O10018   3.885   0.083  11.396  0.4647 -0.1744  0.4163
  677TMC3     H10019   3.582   4.572  11.451  1.4249 -0.5663  0.3866
  677TMC3    H110020   3.841   0.136  11.644 -0.4925  2.1760 -0.1387
  677TMC3    H210021   3.452   0.038  11.793  0.5565 -0.6662  1.0990
  677TMC3    C710022   3.661   0.162  11.854  0.2334  0.5169  0.5401
  677TMC3    C810023   3.398   4.570  11.635  0.6146  0.0457 -0.5003
  677TMC3    O110024   3.586   0.115  11.939 -0.2802 -0.1227  0.9889
  677TMC3    O210025   3.333   4.554  11.533  0.0657 -0.5253  1.0916
  678MPD2     C10026   0.534   0.536   1.613 -0.3799  0.2595  0.4304
  678MPD2    C110027   0.509   0.421   1.545 -0.2289 -0.5921  0.3886
  678MPD2    C210028   0.386   0.360   1.550  0.2870 -0.1142  0.2907
  678MPD2    C310029   0.278   0.425   1.616  0.2733 -0.5019 -0.1062
  678MPD2    C410030   0.297   0.544   1.682  0.2713  0.1477 -0.0600
  678MPD2    C510031   0.426   0.592   1.681  0.7958  0.1805 -0.1392
  678MPD2     H10032   0.380   0.263   1.501  1.2181 -0.2716  0.4987
  678MPD2    H110033   0.218   0.582   1.746  1.9292  1.4675  1.1726
  678MPD2    H210034   0.626   0.594   1.609  1.2205 -2.3907 -0.8678
  678MPD2    H310035   0.450   0.674   1.748  0.5959  0.6125 -0.5887
  678MPD2     N10036   0.148   0.364   1.614  0.2700 -0.4740  0.1629
  678MPD2    H510037   0.139   0.274   1.567  1.2003  0.3387 -1.5697
  678MPD2    N110038   0.606   0.347   1.472 -0.0776  0.3288  0.4275
  678MPD2    H710039   0.580   0.253   1.444  1.0464  0.3931 -0.8198
  679TMC3    C110040   0.871   0.064   1.317 -0.4018 -0.1437  1.0026
  679TMC3    C210041   0.787   0.151   1.384 -0.4767 -0.5847 -0.1093
  679TMC3    C310042   0.815   0.289   1.371 -0.1869  0.1318 -0.4515
  679TMC3    C410043   0.966   0.105   1.227 -0.4119 -0.2841  0.6966
  679TMC3    C510044   0.992   0.237   1.230  0.4409 -0.0437 -0.0118
  679TMC3    C610045   0.911   0.333   1.294 -1.3953 -0.8620 -0.2949
  679TMC3     C10046   0.860   4.641   1.350 -0.5379 -0.1655 -1.0720
  679TMC3     O10047   0.962   4.580   1.316 -0.4798  0.2789  0.3364
  679TMC3     H10048   0.709   0.119   1.452 -0.2752 -0.4243  0.1986
  679TMC3    H110049   1.013   0.029   1.167  0.4600  0.0031  1.0249
  679TMC3    H210050   0.947   0.436   1.295  1.1027 -1.7140 -1.6412
  679TMC3    C710051   1.089   0.292   1.129  0.3131  0.3101  0.2106
  679TMC3    C810052   0.738   0.385   1.451  0.5156 -0.5731  0.4346
  679TMC3    O110053   1.075   0.406   1.093 -0.4434  0.2507 -0.4163
  679TMC3    O210054   0.785   0.494   1.452 -0.1378  0.2589  0.2626
  680MPD2     C10055   0.417   3.290  13.810 -0.0550  0.4445  0.1221
  680MPD2    C110056   0.533   3.264  13.868  0.1065  0.2179 -0.8713
  680MPD2    C210057   0.642   3.342  13.858 -0.0149  0.4487  0.3677
  680MPD2    C310058   0.637   3.450  13.774 -0.4900  0.0837 -0.3099
  680MPD2    C410059   0.513   3.482  13.710  0.1590 -0.4155 -0.1928
  680MPD2    C510060   0.411   3.398  13.728 -0.1164  0.0452 -0.3170
  680MPD2     H10061   0.731   3.299  13.903 -1.9388 -2.8431  1.0055
  680MPD2    H110062   0.513   3.570  13.646 -1.8004 -0.5347 -0.3427
  680MPD2    H210063   0.322   3.239  13.805 -0.4431  1.1383  0.5313
  680MPD2    H310064   0.308   3.411  13.695 -0.0547  1.5291  0.0852
  680MPD2     N10065   0.742   3.544  13.764  0.3091 -0.0955  0.1163
  680MPD2    H510066   0.718   3.634  13.722  2.1432  0.6416  0.6445
  680MPD2    N110067   0.547   3.149  13.943  0.2440  0.8900 -0.1220
  680MPD2    H710068   0.638   3.130  13.983 -0.1222  1.0340  0.7756
  681TMC3    C110069   0.504   2.959  14.059  0.5003  0.7682  0.0280
  681TMC3    C210070   0.466   2.957  14.189  0.3486  0.4629 -0.0957
  681TMC3    C310071   0.568   2.954  14.281  0.2714  0.1701  0.5066
  681TMC3    C410072   0.641   2.953  14.028  0.8988 -0.5889 -0.0811
  681TMC3    C510073   0.744   2.947  14.125  0.6307 -0.4258  0.6628
  681TMC3    C610074   0.709   2.942  14.260  0.2826 -0.3841 -0.2036
  681TMC3     C10075   0.447   3.066  13.983 -0.2550  0.3076 -0.8564
  681TMC3     O10076   0.325   3.076  13.986  0.0024  0.2250  0.4163
  681TMC3     H10077   0.365   2.983  14.218 -0.0222  1.5921 -2.4144
  681TMC3    H110078   0.672   2.945  13.925 -0.0261 -0.9784 -0.3221
  681TMC3    H210079   0.774   2.925  14.345  4.2378  1.7292 -2.8025
  681TMC3    C710080   0.879   2.947  14.088  0.0548  0.3328 -0.5550
  681TMC3    C810081   0.524   2.989  14.417  0.6318 -0.4794  0.4805
  681TMC3    O110082   0.953   2.943  14.183 -0.9341 -0.0222  0.0397
  681TMC3    O210083   0.406   2.971  14.450  0.5424 -0.1128  0.1810
  682MPD2     C10084   3.070   4.473  11.050  0.0990 -0.4863  0.4562
  682MPD2    C110085   3.064   4.340  11.017 -0.2871 -1.4183  0.4397
  682MPD2    C210086   3.038   4.254  11.125  0.0877  0.6146 -0.0338
  682MPD2    C310087   3.018   4.293  11.259  0.5987 -0.1017  0.1104
  682MPD2    C410088   3.023   4.431  11.289  0.0290  0.7290 -0.2885
  682MPD2    C510089   3.047   4.517  11.181  0.6784 -0.1850  0.5240
  682MPD2     H10090   3.034   4.149  11.102 -0.7057  0.8062 -0.7892
  682MPD2    H110091   3.014   4.461  11.393 -0.6951  0.9021 -0.3984
  682MPD2    H210092   3.096   4.552  10.980 -0.1460 -2.6751 -2.0646
  682MPD2    H310093   3.046   4.625  11.191  1.0083 -0.2114  0.8552
  682MPD2     N10094   2.995   4.210  11.371  0.6879  0.1158  0.4832
  682MPD2    H510095   2.985   4.256  11.461  0.1352 -2.0490  1.5341
  682MPD2    N110096   3.071   4.277  10.893  0.5159  0.2406  0.1609
  682MPD2    H710097   3.030   4.184  10.901  1.1632  0.0224  0.9720
  683TMC3    C110098   2.983   3.995  11.724 -0.7468  0.1650 -0.3914
  683TMC3    C210099   2.933   3.867  11.731  0.1626  0.2087 -0.5254
  683TMC3    C310100   2.908   3.804  11.606  0.4122 -0.1538 -0.2299
  683TMC3    C410101   2.999   4.068  11.608 -0.3515 -0.4378 -0.7081
  683TMC3    C510102   2.962   4.009  11.490 -0.1248  0.5343 -0.0465
  683TMC3    C610103   2.924   3.880  11.490 -0.1715 -0.0380 -0.0358
  683TMC3     C10104   3.009   4.066  11.850 -0.0307 -0.3270 -0.3868
  683TMC3     O10105   2.989   4.187  11.844 -0.0987  0.4087  0.1084
  683TMC3     H10106   2.899   3.816  11.820  1.9313 -0.4838 -0.2371
  683TMC3    H110107   3.042   4.166  11.623 -1.5244 -0.3950  2.3326
  683TMC3    H210108   2.887   3.824  11.405 -0.4388 -0.7457  0.5457
  683TMC3    C710109   2.977   4.072  11.363  0.0721 -0.1648 -0.2423
  683TMC3    C810110   2.897   3.665  11.593  0.1432  0.0714 -0.3945
  683TMC3    O110111   2.956   3.999  11.266  0.2305  0.5811  0.0370
  683TMC3    O210112   2.804   3.621  11.525  0.6389  0.3402  0.0676
  684MPD2     C10113   0.812   3.925  16.322  0.4305 -0.5421 -0.5163
  684MPD2    C110114   0.806   3.968  16.193  0.2491  0.0099  0.1661
  684MPD2    C210115   0.808   4.101  16.164  0.7359  0.3730  0.1852
  684MPD2    C310116   0.831   4.191  16.265  0.7379 -0.3457 -0.8597
  684MPD2    C410117   0.845   4.154  16.399 -0.1414  0.6531 -0.2756
  684MPD2    C510118   0.827   4.021  16.424  0.6451  0.6887 -0.1740
  684MPD2     H10119   0.787   4.135  16.063 -0.6461 -0.4672  0.1919
  684MPD2    H110120   0.867   4.237  16.464 -3.5117  0.7316  0.7891
  684MPD2    H210121   0.805   3.820  16.347  0.0816 -0.8339 -1.8720
  684MPD2    H310122   0.815   3.999  16.530 -0.2974 -3.3556 -1.1024
  684MPD2     N10123   0.857   4.325  16.223  0.0709  0.3904  0.7717
  684MPD2    H510124   0.892   4.390  16.293 -1.2421 -0.4137  2.1584
  684MPD2    N110125   0.806   3.876  16.077 -0.1857  0.3678 -0.4761
  684MPD2    H710126   0.788   3.906  15.981  0.1450 -0.5755 -0.8313
  685TMC3    C110127   0.857   3.690  15.948  0.1628 -0.3325  0.1284
  685TMC3    C210128   0.770   3.735  15.849  0.4628  0.3342 -0.0700
  685TMC3    C310129   0.822   3.731  15.720  0.2004  0.2474 -0.1669
  685TMC3    C410130   0.983   3.655  15.931  0.2557  0.0308  0.2869
  685TMC3    C510131   1.035   3.673  15.803 -0.0844 -0.0934 -0.2543
  685TMC3    C610132   0.955   3.712  15.697 -0.3283 -0.0989 -0.4873
  685TMC3     C10133   0.846   3.744  16.087 -0.1191  0.2204 -0.1157
  685TMC3     O10134   0.903   3.698  16.184  0.5377  0.4289 -0.5293
  685TMC3     H10135   0.670   3.771  15.871 -0.2800 -1.5760 -0.2609
  685TMC3    H110136   1.042   3.615  16.012 -0.4558 -0.1800  0.7010
  685TMC3    H210137   0.997   3.730  15.598 -0.1861  2.5878  0.0726
  685TMC3    C710138   1.170   3.724  15.796 -0.4131 -1.0667  0.0857
  685TMC3    C810139   0.748   3.820  15.623 -0.1439  0.3090  0.5457
  685TMC3    O110140   1.212   3.719  15.683 -0.4651 -0.1005  0.3561
  685TMC3    O210141   0.821   3.880  15.545 -0.1799  0.2076 -0.0191
  686MPD2     C10142   2.593   3.246  15.620 -0.3486  0.3440 -0.1523
  686MPD2    C110143   2.591   3.280  15.751 -0.0287  0.1645 -0.2717
  686MPD2    C210144   2.661   3.199  15.845 -0.4123 -0.0772  0.3025
  686MPD2    C310145   2.695   3.069  15.805 -0.9211 -1.1198 -0.0173
  686MPD2    C410146   2.691   3.040  15.674 -0.1468  0.9480 -0.0294
  686MPD2    C510147   2.651   3.130  15.583  0.4844 -0.7026 -0.1651
  686MPD2     H10148   2.671   3.236  15.946  0.6739 -0.3117  0.2841
  686MPD2    H110149   2.723   2.942  15.640 -0.7062  0.0373  2.0802
  686MPD2    H210150   2.546   3.306  15.544  2.7603  1.2943 -1.3422
  686MPD2    H310151   2.661   3.102  15.478 -0.6935  1.7298 -0.9224
  686MPD2     N10152   2.745   2.965  15.887  0.0090 -0.1794  0.0124
  686MPD2    H510153   2.791   2.887  15.841  0.3519  0.8609 -1.4210
  686MPD2    N110154   2.517   3.395  15.778 -0.4902  0.5089  0.3422
  686MPD2    H710155   2.479   3.441  15.695 -1.7171 -1.8011 -0.3720
  687TMC3    C110156   2.654   3.046  16.093 -0.2169  0.3099  0.4647
  687TMC3    C210157   2.516   3.048  16.074  0.0975 -0.0400  0.2302
  687TMC3    C310158   2.439   3.116  16.164 -0.3840  0.5796  0.0043
  687TMC3    C410159   2.715   3.116  16.193 -0.9123  0.6362 -0.1387
  687TMC3    C510160   2.633   3.181  16.278  0.1808 -0.5702 -0.4912
  687TMC3    C610161   2.499   3.179  16.267 -0.3394 -0.1969  0.2029
  687TMC3     C10162   2.739   2.954  16.023  0.3090  0.1359 -0.3645
  687TMC3     O10163   2.796   2.873  16.093 -0.4849 -1.0208  0.0928
  687TMC3     H10164   2.485   2.983  15.993  2.0297 -1.4492  0.6223
  687TMC3    H110165   2.822   3.106  16.206 -0.9205 -1.5248 -1.7713
  687TMC3    H210166   2.435   3.241  16.329  0.4208  0.5931  0.1926
  687TMC3    C710167   2.703   3.264  16.365  0.2399  0.1462 -0.1219
  687TMC3    C810168   2.302   3.132  16.132  0.0653  0.7759 -0.2155
  687TMC3    O110169   2.658   3.363  16.407  0.2877  0.0835 -0.6679
  687TMC3    O210170   2.226   3.172  16.223 -0.8347  0.1656  0.2638
  688MPD2     C10171   2.304   2.274   0.350  0.3984 -0.2179  0.2534
  688MPD2    C110172   2.244   2.370   0.264  0.4038  0.1108  0.3294
  688MPD2    C210173   2.285   2.390   0.136 -0.0997 -0.2637  0.5748
  688MPD2    C310174   2.392   2.314   0.087  0.4324  0.3162 -0.0413
  688MPD2    C410175   2.452   2.223   0.171  0.0407 -0.1592 -0.5298
  688MPD2    C510176   2.415   2.204   0.300 -0.4330 -0.1868 -0.3435
  688MPD2     H10177   2.232   2.458   0.070 -0.2376  0.4449  1.4152
  688MPD2    H110178   2.544   2.174   0.140 -0.6235  0.8862 -4.1713
  688MPD2    H210179   2.267   2.261   0.451  0.6536 -0.6077  0.2948
  688MPD2    H310180   2.473   2.140   0.366 -0.2687  1.0274  0.7059
  688MPD2     N10181   2.433   2.314  17.644 -0.2697  0.9022  0.3147
  688MPD2    H510182   2.500   2.242  17.619 -1.5296  0.4393 -1.7595
  688MPD2    N110183   2.141   2.443   0.323  0.2015 -0.4329  0.1552
  688MPD2    H710184   2.102   2.412   0.412  1.8877 -0.7568  0.7699
  689TMC3    C110185   1.933   2.558   0.322  0.5351  0.7071 -0.0513
  689TMC3    C210186   1.861   2.671   0.292 -0.3064 -0.0851  0.0676
  689TMC3    C310187   1.719   2.662   0.307 -0.7054 -0.0024 -0.2037
  689TMC3    C410188   1.871   2.444   0.371 -0.0928 -0.7012 -0.5726
  689TMC3    C510189   1.732   2.446   0.368 -0.5693  0.1569 -0.0701
  689TMC3    C610190   1.654   2.547   0.334  0.3393  0.8244  0.5420
  689TMC3     C10191   2.070   2.549   0.270  0.5269 -0.0681  0.1291
  689TMC3     O10192   2.103   2.621   0.176 -0.2379  0.0525  0.2009
  689TMC3     H10193   1.914   2.757   0.254  0.7034 -0.7384 -0.0130
  689TMC3    H110194   1.917   2.350   0.398  0.3982 -1.0357 -2.6022
  689TMC3    H210195   1.553   2.541   0.373  0.9856  0.4832  2.1696
  689TMC3    C710196   1.674   2.324   0.421 -0.3084  0.4072 -0.8661
  689TMC3    C810197   1.634   2.778   0.324 -0.7140 -0.1662  0.5970
  689TMC3    O110198   1.740   2.266   0.505 -0.0870  0.3480 -0.5326
  689TMC3    O210199   1.529   2.753   0.382 -0.1690 -0.1766  0.6139
  690MPD2     C10200   4.123   4.354  16.177 -0.2493 -0.2472  0.3471
  690MPD2    C110201   4.046   4.420  16.080  0.5275  0.0472  0.3940
  690MPD2    C210202   4.099   4.528  16.017 -0.2946  0.5079 -0.3054
  690MPD2    C310203   4.226   4.580  16.045 -0.4972  0.6136 -0.0198
  690MPD2    C410204   4.303   4.508  16.128 -0.4085 -0.5627 -0.2584
  690MPD2    C510205   4.250   4.403  16.198 -0.0317 -1.1987 -0.0127
  690MPD2     H10206   4.040   4.596  15.957 -0.9746 -0.2848 -0.5319
  690MPD2    H110207   4.404   4.529  16.160  0.4993 -2.7613 -1.6247
  690MPD2    H210208   4.092   4.272  16.241  0.4982 -2.2063 -1.8068
  690MPD2    H310209   4.312   4.375  16.282  0.0025  1.7326  0.9433
  690MPD2     N10210   4.271   4.702  15.978 -0.0587  0.1823 -0.0693
  690MPD2    H510211   4.200   0.021  15.920 -0.4745  0.7513  0.8616
  690MPD2    N110212   3.909   4.390  16.046  0.2278  0.0153 -0.4286
  690MPD2    H710213   3.864   4.453  15.980 -0.2964  1.1370  1.0022
  691TMC3    C110214   3.731   4.253  16.008  0.4044 -0.5379  0.0902
  691TMC3    C210215   3.651   4.364  16.003 -0.1478 -0.2714  0.4896
  691TMC3    C310216   3.545   4.349  15.923 -0.3316 -0.9904 -0.3256
  691TMC3    C410217   3.703   4.132  15.949 -0.2734  0.4085 -0.5659
  691TMC3    C510218   3.593   4.136  15.868 -0.1635  0.2163 -0.1888
  691TMC3    C610219   3.507   4.236  15.852  0.5273 -0.2846 -0.3610
  691TMC3     C10220   3.858   4.262  16.065 -0.3063 -0.5609  0.3695
  691TMC3     O10221   3.903   4.173  16.136 -0.0163  0.3031  0.3661
  691TMC3     H10222   3.668   4.449  16.068  0.1676  0.0683 -0.0283
  691TMC3    H110223   3.770   4.047  15.947 -1.2683 -0.3780 -0.7161
  691TMC3    H210224   3.423   4.213  15.788  0.3715  1.2251 -0.7035
  691TMC3    C710225   3.604   4.048  15.759  0.0748  0.3015 -0.7106
  691TMC3    C810226   3.438   4.445  15.949  0.6102 -0.3652  0.0967
  691TMC3    O110227   3.611   4.092  15.647  0.1581 -0.1369  0.1178
  691TMC3    O210228   3.467   4.525  16.040  0.0963  0.0089 -0.2585
  692TMC3    C110229   0.775   0.982  16.164 -0.3725 -0.1193  0.1800
  692TMC3    C210230   0.895   0.954  16.209 -0.1481 -0.3057  0.0392
  692TMC3    C310231   0.986   0.877  16.143 -0.0520  0.4063  0.0124
  692TMC3    C410232   0.724   0.907  16.065  0.7575  0.0676  0.2297
  692TMC3    C510233   0.808   0.818  16.001  0.2229 -0.5290  0.2014
  692TMC3    C610234   0.935   0.801  16.042 -0.6793 -0.3579  0.0997
  692TMC3     C10235   0.684   1.086  16.216 -0.0845  0.1671  0.0253
  692TMC3     O10236   0.573   1.109  16.177 -0.3035  0.3420 -0.0924
  692TMC3     H10237   0.946   1.028  16.271  3.5031  0.9200 -4.4407
  692TMC3    H110238   0.621   0.917  16.033  0.7225 -0.9236  0.0165
  692TMC3    H210239   1.006   0.753  15.976 -0.1105 -0.9214  1.1052
  692TMC3    C710240   0.746   0.716  15.936  0.2184  0.1874  0.1631
  692TMC3    C810241   1.057   0.793  16.237 -0.4913 -0.4157  0.2421
  692TMC3    O110242   0.628   0.738  15.906 -0.1427  0.2137 -0.3620
  692TMC3    O210243   1.049   0.674  16.210 -0.4005  0.0051  0.5666
  693MPD2     C10244   0.121   3.815  10.662 -0.3467  0.3813 -0.5264
  693MPD2    C110245   0.080   3.722  10.751 -0.5116 -0.0753  0.1178
  693MPD2    C210246   0.170   3.651  10.827  0.0203  0.5370 -0.0070
  693MPD2    C310247   0.305   3.683  10.819 -0.9598  0.5813  0.1637
  693MPD2    C410248   0.339   3.783  10.738  0.2369 -0.1038 -0.8625
  693MPD2    C510249   0.248   3.851  10.661 -0.7655  0.6905 -0.0947
  693MPD2     H10250   0.150   3.560  10.883  1.7256  0.5804  0.6696
  693MPD2    H110251   0.442   3.815  10.728 -0.0356  1.1390  0.3829
  693MPD2    H210252   0.045   3.856  10.596 -0.1969  0.7043 -0.4979
  693MPD2    H310253   0.287   3.924  10.591 -0.5800  3.0954  2.4966
  693MPD2     N10254   0.412   3.619  10.890 -0.1296 -0.2762 -0.4069
  693MPD2    H510255   0.503   3.664  10.885 -0.4413  0.6796  2.6534
  693MPD2    N110256   4.667   3.703  10.764 -0.1086 -0.2613  0.9393
  693MPD2    H710257   4.609   3.751  10.695 -2.7908 -0.5707  2.9694
  694TMC3    C110258   4.463   3.633  10.871  0.2468 -0.8132  0.2118
  694TMC3    C210259   4.389   3.538  10.805  0.0637  0.2688  0.0322
  694TMC3    C310260   4.296   3.474  10.872 -0.1860 -0.2687 -0.6994
  694TMC3    C410261   4.434   3.656  10.999 -0.0922  0.3850  0.2317
  694TMC3    C510262   4.332   3.593  11.065  0.2373 -0.0601  1.0854
  694TMC3    C610263   4.263   3.496  11.003 -0.8081  0.5546  0.0423
  694TMC3     C10264   4.604   3.624  10.856  0.4136 -0.2800  0.6241
  694TMC3     O10265   4.654   3.556  10.942 -0.5169 -0.0409 -0.3361
  694TMC3     H10266   4.428   3.493  10.714 -0.4519 -0.5424  0.2156
  694TMC3    H110267   4.504   3.724  11.047 -2.5351  1.9741  1.5453
  694TMC3    H210268   4.187   3.437  11.054 -2.4097  1.9183 -0.7639
  694TMC3    C710269   4.326   3.600  11.208  0.8271  0.3362  0.3060
  694TMC3    C810270   4.220   3.358  10.807  0.7186 -0.3231 -0.3641
  694TMC3    O110271   4.366   3.700  11.267  0.4337  0.1123  0.2581
  694TMC3    O210272   4.150   3.288  10.878 -0.1552 -0.1145 -0.3507
  695MPD2     C10273   1.408   0.119  13.732  0.2320 -0.7075 -0.6397
  695MPD2    C110274   1.303   0.168  13.810  0.0818  0.0104 -0.3095
  695MPD2    C210275   1.173   0.197  13.750  0.6498  0.4065 -0.4184
  695MPD2    C310276   1.157   0.168  13.618 -0.3603  0.8619 -0.2492
  695MPD2    C410277   1.259   0.105  13.548  0.3938 -0.1972  0.4233
  695MPD2    C510278   1.382   0.077  13.603 -0.2728  0.4044 -0.8578
  695MPD2     H10279   1.096   0.247  13.807 -1.4714 -1.5746 -1.5353
  695MPD2    H110280   1.255   0.068  13.447 -3.2989  2.6369 -0.4808
  695MPD2    H210281   1.502   0.085  13.775  0.6372  1.4032  0.1339
  695MPD2    H310282   1.458   0.024  13.547 -0.1473  1.2008 -1.4429
  695MPD2     N10283   1.019   0.173  13.571  0.6096  0.2705 -0.8108
  695MPD2    H510284   0.946   0.220  13.623  0.5895  0.0024 -0.6008
  695MPD2    N110285   1.324   0.211  13.943  0.5752  0.4837  0.3671
  695MPD2    H710286   1.242   0.257  13.981 -0.2383 -1.0690  0.4713
  696TMC3    C110287   0.855   0.183  13.403 -0.2907 -0.4568  1.2902
  696TMC3    C210288   0.747   0.174  13.480  0.2953  0.6313  0.5814
  696TMC3    C310289   0.625   0.224  13.430 -0.1193 -0.4368  0.4038
  696TMC3    C410290   0.855   0.240  13.277 -0.3638 -0.2656 -0.0544
  696TMC3    C510291   0.734   0.291  13.235 -0.3752 -0.3262  0.7986
  696TMC3    C610292   0.619   0.281  13.305 -0.2488  0.0328  0.2152
  696TMC3     C10293   0.988   0.150  13.438 -0.5795  0.1533  0.6149
  696TMC3     O10294   1.055   0.109  13.343 -0.1898  0.1702  0.2362
  696TMC3     H10295   0.753   0.126  13.577 -0.0077  3.0613  1.8305
  696TMC3    H110296   0.941   0.261  13.215 -1.8282  1.6596 -1.4408
  696TMC3    H210297   0.522   0.321  13.277 -0.1459 -0.4141 -0.7885
  696TMC3    C710298   0.747   0.429  13.193 -0.2115 -1.3778 -0.0937
  696TMC3    C810299   0.552   0.307  13.520  0.5096  0.1753  0.2333
  696TMC3    O110300   0.842   0.459  13.117  0.3593 -0.8649 -0.4721
  696TMC3    O210301   0.512   0.411  13.474  0.1759  0.0562 -0.3461
  697MPD2     C10302   0.073   2.697  15.800 -0.2567 -0.2909  0.8790
  697MPD2    C110303   0.136   2.626  15.698  1.0415  0.1273 -0.3446
  697MPD2    C210304   0.205   2.707  15.608 -1.2555 -0.5625 -0.3179
  697MPD2    C310305   0.196   2.844  15.606 -0.1550  0.0725 -0.2221
  697MPD2    C410306   0.125   2.905  15.704 -0.6685  0.5334 -0.1696
  697MPD2    C510307   0.067   2.831  15.797 -0.0901 -0.1890  0.4077
  697MPD2     H10308   0.267   2.665  15.530  3.4276 -0.0102  3.0447
  697MPD2    H110309   0.146   3.008  15.729 -0.0649  0.0332  1.3514
  697MPD2    H210310   0.014   2.648  15.877 -0.1996 -1.9837 -0.1295
  697MPD2    H310311   0.010   2.887  15.870 -1.1442  1.0692 -1.3800
  697MPD2     N10312   0.273   2.921  15.514 -0.3446 -0.0192 -0.7021
  697MPD2    H510313   0.331   2.876  15.445 -0.5720 -1.2970 -0.0461
  697MPD2    N110314   0.149   2.484  15.695  0.2897  0.3415 -0.4590
  697MPD2    H710315   0.220   2.447  15.632  0.4443  0.3778 -0.3063
  698TMC3    C110316   0.396   3.092  15.410 -0.7609 -0.3301 -0.2734
  698TMC3    C210317   0.392   3.221  15.357 -0.0523  0.3054 -0.1823
  698TMC3    C310318   0.494   3.263  15.280  0.3605 -0.5240 -0.7722
  698TMC3    C410319   0.498   3.006  15.375  0.3766  0.0554 -0.1235
  698TMC3    C510320   0.601   3.056  15.296 -0.0581 -0.2742  0.1090
  698TMC3    C610321   0.605   3.185  15.255  0.1087  0.4509  0.5162
  698TMC3     C10322   0.294   3.054  15.507 -0.4067 -0.5263  0.2251
  698TMC3     O10323   0.244   3.143  15.570 -0.3310  0.0625 -0.1345
  698TMC3     H10324   0.304   3.282  15.373 -1.0668 -1.4672  1.0792
  698TMC3    H110325   0.523   2.914  15.427 -1.1132  0.0837  0.6403
  698TMC3    H210326   0.678   3.218  15.182 -2.0672  3.0421 -0.4854
  698TMC3    C710327   0.652   2.958  15.214  0.6221 -0.1249  0.4996
  698TMC3    C810328   0.463   3.372  15.185 -0.0916  0.0871 -0.0392
  698TMC3    O110329   0.600   2.845  15.228 -0.4649  0.5276 -0.4644
  698TMC3    O210330   0.344   3.380  15.164  0.6863 -0.1076  0.2265
  699TMC3    C110331   0.815   0.073  12.977  0.7269  0.2665 -0.6183
  699TMC3    C210332   0.863   4.707  13.077  0.5692  0.4293  0.7360
  699TMC3    C310333   0.765   4.636  13.139  0.0417 -0.1146  0.1910
  699TMC3    C410334   0.679   0.098  12.955  1.1527 -0.2180 -0.2078
  699TMC3    C510335   0.596   0.010  13.018  0.1627  0.4123 -0.3029
  699TMC3    C610336   0.639   4.636  13.098 -0.3650 -0.3584 -0.0868
  699TMC3     C10337   0.907   0.161  12.916  0.8140 -0.2555  0.7472
  699TMC3     O10338   0.856   0.233  12.828 -0.3630 -0.1442 -0.0618
  699TMC3     H10339   0.966   4.698  13.109  0.3351  0.9532  1.6258
  699TMC3    H110340   0.647   0.170  12.881  0.8376 -0.5870 -0.4307
  699TMC3    H210341   0.570   4.568  13.146 -0.1619 -1.5881 -1.5252
  699TMC3    C710342   0.460   0.039  13.023  0.1811  0.1892 -0.1629
  699TMC3    C810343   0.777   4.583  13.274 -0.1039  0.0398  0.9593
  699TMC3    O110344   0.430   0.157  13.008  0.4240  0.5893 -0.2532
  699TMC3    O210345   0.686   4.603  13.349 -0.0496  0.3426 -0.2140
  700TMC3    C110346   4.307   3.329  17.559 -0.6182  0.0058 -0.9004
  700TMC3    C210347   4.281   3.195  17.551  0.0812 -0.4008 -0.0911
  700TMC3    C310348   4.340   3.106  17.634  0.5400  0.2431 -0.3796
  700TMC3    C410349   4.387   3.378  17.659 -0.0391  0.4347 -0.1584
  700TMC3    C510350   4.439   3.284   0.053 -0.4096  0.5032 -0.0978
  700TMC3    C610351   4.419   3.152   0.047 -0.1544 -0.6874 -0.2561
  700TMC3     C10352   4.272   3.402  17.438 -0.4940 -1.0081 -0.0657
  700TMC3     O10353   4.158   3.371  17.395 -0.9740 -0.2413 -0.0740
  700TMC3     H10354   4.235   3.165  17.458 -3.1555  0.9680  1.0861
  700TMC3    H110355   4.408   3.483  17.670  1.2410  0.1051  0.5822
  700TMC3    H210356   4.464   3.083   0.117 -1.4372  0.1487  1.3942
  700TMC3    C710357   4.539   3.322   0.152 -0.0059 -0.3112  0.2902
  700TMC3    C810358   4.355   2.972  17.577 -0.4476 -0.0059 -0.3374
  700TMC3    O110359   4.540   3.256   0.257 -0.3356 -0.0743 -0.1252
  700TMC3    O210360   4.269   2.928  17.505 -0.2542 -0.5389 -0.5625
  701TMC3    C110361   4.078   1.731  16.003  0.2592 -0.0890 -0.2279
  701TMC3    C210362   4.124   1.626  15.927 -0.4151  0.4247 -0.2700
  701TMC3    C310363   4.198   1.651  15.814 -0.0790 -0.0637  0.1632
  701TMC3    C410364   4.115   1.859  15.968 -0.0255 -0.1999 -0.5631
  701TMC3    C510365   4.198   1.880  15.859  0.2597 -0.8366 -0.3428
  701TMC3    C610366   4.250   1.778  15.792 -0.2042 -0.2303 -0.0013
  701TMC3     C10367   4.011   1.726  16.131 -0.5664 -0.2820  0.0086
  701TMC3     O10368   3.975   1.835  16.177  0.4390  0.0717  0.3462
  701TMC3     H10369   4.080   1.529  15.949  0.9638 -0.2427 -0.4645
  701TMC3    H110370   4.094   1.952  16.018 -1.9491 -0.3874 -1.0451
  701TMC3    H210371   4.324   1.801  15.716 -2.1965  0.1589 -1.8374
  701TMC3    C710372   4.284   1.998  15.863 -0.1662 -0.0502  0.2532
  701TMC3    C810373   4.286   1.549  15.771  0.0931  0.5186 -0.6734
  701TMC3    O110374   4.328   2.042  15.756  0.1054 -0.5467 -0.3339
  701TMC3    O210375   4.407   1.554  15.795  0.2959  0.2840  0.0557
  702MPD2     C10376   3.837   4.145  10.483  0.4166 -0.3797 -0.2013
  702MPD2    C110377   3.828   4.200  10.612  0.1504  0.0462 -0.4477
  702MPD2    C210378   3.851   4.337  10.632 -0.6015  0.3394 -0.2154
  702MPD2    C310379   3.885   4.425  10.532  0.7109  0.1976 -1.1837
  702MPD2    C410380   3.891   4.365  10.407 -0.0069 -0.7018 -0.8582
  702MPD2    C510381   3.865   4.234  10.378 -0.4000 -0.8252 -0.3893
  702MPD2     H10382   3.852   4.375  10.734  1.8606 -1.2397  0.3610
  702MPD2    H110383   3.907   4.438  10.329 -0.8158 -0.4069 -0.7542
  702MPD2    H210384   3.816   4.039  10.471  0.5967 -0.3262 -0.9896
  702MPD2    H310385   3.860   4.204  10.274 -0.6609  1.5464 -1.0508
  702MPD2     N10386   3.931   4.555  10.569  0.2789 -0.2988 -0.0335
  702MPD2    H510387   3.945   4.568  10.668  0.9064 -0.2487 -0.1320
  702MPD2    N110388   3.809   4.123  10.729  0.3007 -0.5910 -0.4349
  702MPD2    H710389   3.832   4.176  10.813  2.3233 -1.7978 -0.2045
  703TMC3    C110390   4.035   0.037  10.581 -0.0015 -0.3700 -0.3771
  703TMC3    C210391   3.955   0.092  10.673  0.0691  0.3830 -0.3709
  703TMC3    C310392   4.005   0.153  10.788 -0.3990  0.7136 -0.5228
  703TMC3    C410393   4.169   0.029  10.615 -0.2482  0.7535 -0.1401
  703TMC3    C510394   4.224   0.092  10.729 -0.4320 -0.9106  0.5775
  703TMC3    C610395   4.137   0.151  10.822 -0.1093 -0.2930 -0.1537
  703TMC3     C10396   3.986   4.654  10.493 -0.5323 -0.1973 -0.1877
  703TMC3     O10397   3.992   4.666  10.368 -0.0930 -0.7885  0.2044
  703TMC3     H10398   3.849   0.094  10.653 -0.0360 -2.2666 -0.1620
  703TMC3    H110399   4.227   4.701  10.539  1.0845 -1.6702  2.4841
  703TMC3    H210400   4.156   0.181  10.925 -2.9487 -1.8365  0.8236
  703TMC3    C710401   4.363   0.133  10.716  0.2346 -0.7069 -0.2662
  703TMC3    C810402   3.915   0.160  10.896  0.2895 -0.6462 -0.3034
  703TMC3    O110403   4.422   0.094  10.612 -0.4905  0.3812  0.4206
  703TMC3    O210404   3.915   0.257  10.970 -0.2086 -0.5469  0.6913
  704TMC3    C110405   1.548   2.435  12.326  1.1284  0.0009  0.1215
  704TMC3    C210406   1.674   2.382  12.316  0.1897  0.7083  0.1290
  704TMC3    C310407   1.710   2.273  12.389 -0.0213 -0.5208 -0.5603
  704TMC3    C410408   1.451   2.369  12.401 -0.0553  0.3348  0.4333
  704TMC3    C510409   1.490   2.255  12.466 -0.3449 -0.1462  0.2797
  704TMC3    C610410   1.619   2.207  12.466  0.3112 -0.0826 -0.2483
  704TMC3     C10411   1.503   2.536  12.234  0.1527  0.1432  0.4508
  704TMC3     O10412   1.411   2.607  12.271 -0.2251 -0.3943 -0.1314
  704TMC3     H10413   1.756   2.443  12.281 -0.6961 -0.0275 -3.2514
  704TMC3    H110414   1.353   2.409  12.420 -1.0615 -0.4185 -3.0862
  704TMC3    H210415   1.659   2.126  12.525 -1.6089  0.2724  1.5437
  704TMC3    C710416   1.383   2.174  12.524 -0.2208 -0.7932  0.1076
  704TMC3    C810417   1.832   2.211  12.347  0.0961 -0.7168  0.0183
  704TMC3    O110418   1.294   2.231  12.587  0.5332  0.3366 -0.3375
  704TMC3    O210419   1.871   2.248  12.236  0.1331 -0.3626  0.0422
  705MPD2     C10420   1.245   0.149  16.640 -0.1530  0.2358 -0.3292
  705MPD2    C110421   1.183   0.198  16.531  0.2541  0.5388  0.2117
  705MPD2    C210422   1.044   0.216  16.528 -0.1787  0.0841 -1.0140
  705MPD2    C310423   0.967   0.183  16.644  0.0559 -0.0749  0.8434
  705MPD2    C410424   1.026   0.150  16.755  0.5801  0.6497  0.1777
  705MPD2    C510425   1.161   0.119  16.750  0.3452  0.3233  0.2994
  705MPD2     H10426   1.006   0.258  16.436  2.1353 -1.4711 -2.6678
  705MPD2    H110427   0.971   0.120  16.843 -0.2625  1.3031 -0.1232
  705MPD2    H210428   1.351   0.126  16.646 -0.5976 -2.0904 -1.2833
  705MPD2    H310429   1.203   0.078  16.841  3.5460  2.4603 -0.2220
  705MPD2     N10430   0.827   0.205  16.657 -0.6134 -0.2206  0.1161
  705MPD2    H510431   0.793   0.202  16.753 -1.3688  0.6651 -0.1227
  705MPD2    N110432   1.262   0.228  16.418  0.3179 -0.4443  0.2866
  705MPD2    H710433   1.222   0.284  16.343 -2.2651  1.2405  2.9699
  706TMC3    C110434   1.568   0.333  16.126 -0.8957 -0.0881 -0.0686
  706TMC3    C210435   1.497   0.444  16.096  0.1901 -0.1280 -0.1901
  706TMC3    C310436   1.403   0.485  16.181  0.1956  0.0508 -0.0740
  706TMC3    C410437   1.561   0.275  16.248 -0.0508  0.4094 -0.2175
  706TMC3    C510438   1.462   0.321  16.332 -0.6817  0.4225 -0.1071
  706TMC3    C610439   1.376   0.426  16.298 -0.5486  0.6387 -0.1351
  706TMC3     C10440   1.674   0.287  16.038 -0.1998  0.7669 -0.0988
  706TMC3     O10441   1.790   0.284  16.082  0.3152  0.3069  0.6397
  706TMC3     H10442   1.518   0.498  16.004 -1.6198  0.2520 -0.3832
  706TMC3    H110443   1.615   0.182  16.261 -1.7241 -0.7587 -1.5378
  706TMC3    H210444   1.308   0.461  16.374 -0.4190  0.7368 -0.0639
  706TMC3    C710445   1.399   0.213  16.414 -0.4916  0.4074  0.6275
  706TMC3    C810446   1.405   0.636  16.188  0.2473  0.6320  0.1723
  706TMC3    O110447   1.483   0.140  16.471  0.0733  0.2144  0.0417
  706TMC3    O210448   1.409   0.686  16.078 -0.1947  0.4390 -0.1918
  707TMC3    C110449   3.314   3.871   2.266 -0.3129 -0.2002  0.3673
  707TMC3    C210450   3.439   3.841   2.315 -0.4988  0.3739 -0.0719
  707TMC3    C310451   3.451   3.742   2.401 -0.6699  0.2899 -0.2036
  707TMC3    C410452   3.194   3.820   2.307 -0.8299  0.2402  0.4641
  707TMC3    C510453   3.213   3.717   2.403 -0.5447 -0.3568  0.3839
  707TMC3    C610454   3.333   3.679   2.452  0.1663 -0.4255 -0.1818
  707TMC3     C10455   3.322   3.933   2.133 -0.0070 -0.7160 -0.4779
  707TMC3     O10456   3.429   3.975   2.097  0.5099  0.2502  0.1587
  707TMC3     H10457   3.527   3.898   2.288 -1.0145  0.4427 -1.6256
  707TMC3    H110458   3.096   3.840   2.265 -0.9672 -0.9232  0.2298
  707TMC3    H210459   3.343   3.593   2.518 -0.9577 -0.2958  0.1416
  707TMC3    C710460   3.099   3.641   2.443 -0.5319 -0.9233 -0.2796
  707TMC3    C810461   3.579   3.672   2.427  0.6135  0.5811  0.2169
  707TMC3    O110462   3.129   3.530   2.487  0.3908 -0.0775  0.1301
  707TMC3    O210463   3.573   3.595   2.524 -0.3128  0.5088 -0.0335
  708MPD2     C10464   4.700   3.252  14.375 -0.4296 -0.3962 -0.1910
  708MPD2    C110465   4.693   3.387  14.336  0.1607 -0.6465 -0.1831
  708MPD2    C210466   4.587   3.463  14.385  1.3467 -0.2601  0.1334
  708MPD2    C310467   4.484   3.409  14.456 -0.6597  0.0677  0.0224
  708MPD2    C410468   4.491   3.272  14.495 -0.3914  0.3721  0.0495
  708MPD2    C510469   4.597   3.198  14.450 -0.3787 -0.1555  0.0635
  708MPD2     H10470   4.588   3.567  14.353  1.4010  0.1318  1.4205
  708MPD2    H110471   4.420   3.223  14.560  1.0913 -0.1776  1.2515
  708MPD2    H210472   0.064   3.193  14.349  0.3063  1.4381 -1.9128
  708MPD2    H310473   4.599   3.093  14.478  2.0209  0.3966  1.9225
  708MPD2     N10474   4.373   3.487  14.494 -0.8941 -0.0541 -0.6297
  708MPD2    H510475   4.324   3.458  14.578 -1.2801 -1.8663 -1.4742
  708MPD2    N110476   0.070   3.436  14.252  0.0653 -0.6260 -0.3117
  708MPD2    H710477   0.146   3.373  14.226  2.3664  1.3684  1.4858
  709TMC3    C110478   0.180   3.574  14.098 -0.2442 -0.3084 -0.5601
  709TMC3    C210479   0.159   3.490  13.995 -0.2454 -0.1506  0.4024
  709TMC3    C310480   0.134   3.545  13.866  0.3173 -0.6936  0.1341
  709TMC3    C410481   0.189   3.707  14.079 -0.4827  0.5646  0.7391
  709TMC3    C510482   0.169   3.762  13.954 -0.1037  0.3819  1.0231
  709TMC3    C610483   0.149   3.680  13.849  0.5647 -0.1982 -0.1463
  709TMC3     C10484   0.090   3.562  14.212 -0.3274 -1.2672 -0.4760
  709TMC3     O10485   0.013   3.655  14.223  0.2780 -0.4065  0.0461
  709TMC3     H10486   0.124   3.387  14.004 -0.5399 -0.2601 -1.8470
  709TMC3    H110487   0.189   3.772  14.165 -1.1581  0.6461  0.6755
  709TMC3    H210488   0.123   3.717  13.751  0.6997  0.4123  0.0431
  709TMC3    C710489   0.075   3.876  13.946 -0.1166 -0.3630  0.3923
  709TMC3    C810490   0.060   3.465  13.772  0.1910  0.3811 -0.0836
  709TMC3    O110491   0.085   3.938  13.844 -0.5503  0.5066  0.2515
  709TMC3    O210492   0.064   3.340  13.791  0.3355 -0.5647  0.4155
  710TMC3    C110493   1.464   0.887   0.630  0.2740 -0.4831 -0.8448
  710TMC3    C210494   1.521   0.853   0.512 -0.3121 -0.4435 -0.3003
  710TMC3    C310495   1.521   0.718   0.485  0.1115  0.4081  0.0004
  710TMC3    C410496   1.415   0.791   0.717 -0.4296 -0.0830 -0.4874
  710TMC3    C510497   1.412   0.661   0.672  0.6794  0.3378  0.5348
  710TMC3    C610498   1.460   0.620   0.557  0.2157 -0.4157  0.1508
  710TMC3     C10499   1.515   1.012   0.691  0.0610 -0.9887 -0.3090
  710TMC3     O10500   1.594   1.080   0.627  0.3897 -0.2641 -0.3846
  710TMC3     H10501   1.565   0.928   0.447 -0.0337 -0.2959  0.0525
  710TMC3    H110502   1.377   0.815   0.816  1.3429 -0.4378  0.2904
  710TMC3    H210503   1.438   0.522   0.517  3.4454 -1.0663 -0.0089
  710TMC3    C710504   1.365   0.566   0.769  0.2354  0.0249 -0.0371
  710TMC3    C810505   1.521   0.687   0.337 -1.0599  0.2408  0.0332
  710TMC3    O110506   1.299   0.610   0.860  0.0079  0.0939 -0.6015
  710TMC3    O210507   1.558   0.576   0.307  0.3796 -0.2811 -0.3693
  711TMC3    C110508   0.177   1.544  15.360 -0.0783 -0.3024 -0.0518
  711TMC3    C210509   0.192   1.627  15.464  1.8346  0.8268 -0.4320
  711TMC3    C310510   0.323   1.661  15.492 -0.0632 -0.2799  0.7774
  711TMC3    C410511   0.277   1.511  15.275 -0.5530 -0.1273  0.1221
  711TMC3    C510512   0.403   1.557  15.296 -1.2925 -0.4687 -0.1408
  711TMC3    C610513   0.425   1.638  15.401  0.3636  0.3946 -0.1574
  711TMC3     C10514   0.056   1.471  15.363 -0.0297 -0.2762  0.2933
  711TMC3     O10515   0.059   1.352  15.337  0.3028  0.3888  0.2254
  711TMC3     H10516   0.119   1.637  15.543  1.5649 -0.1786 -0.5500
  711TMC3    H110517   0.249   1.437  15.200  2.2884 -2.4905  1.4015
  711TMC3    H210518   0.523   1.682  15.415 -0.2940  1.7120  0.2977
  711TMC3    C710519   0.515   1.463  15.277 -0.0641 -0.2200 -0.3051
  711TMC3    C810520   0.360   1.657  15.633 -0.0911 -0.8102  0.5340
  711TMC3    O110521   0.602   1.465  15.364 -0.8632  0.6356 -0.3065
  711TMC3    O210522   0.271   1.653  15.715  0.1452 -0.3998  0.0582
  712MPD2     C10523   1.642   2.130  13.820  0.6913  0.1245  0.1283
  712MPD2    C110524   1.533   2.214  13.831  1.4062  0.0520 -0.3148
  712MPD2    C210525   1.557   2.340  13.888 -0.4381 -0.4300  0.2394
  712MPD2    C310526   1.684   2.383  13.930 -0.0563 -0.0497 -0.2252
  712MPD2    C410527   1.791   2.299  13.904 -0.6821 -0.1445 -0.9680
  712MPD2    C510528   1.768   2.172  13.854  0.4670 -0.0941  0.2711
  712MPD2     H10529   1.471   2.403  13.907 -0.1698 -0.6344  2.1528
  712MPD2    H110530   1.891   2.327  13.938  0.4657 -1.4397 -3.2538
  712MPD2    H210531   1.646   2.037  13.765 -3.8529  0.4161 -0.6454
  712MPD2    H310532   1.852   2.106  13.836 -1.2630 -1.9956 -0.8609
  712MPD2     N10533   1.713   2.509  13.978 -0.4597  0.5310  0.1028
  712MPD2    H510534   1.807   2.528  14.012 -1.0327  2.3679  0.6766
  712MPD2    N110535   1.403   2.195  13.784  0.0284  0.0618 -0.3304
  712MPD2    H710536   1.339   2.271  13.803 -1.1282 -1.4052  1.6276
  713TMC3    C110537   1.698   2.749  14.014  0.0211 -0.4564 -0.0944
  713TMC3    C210538   1.804   2.739  14.106 -0.4895 -0.4195  0.4238
  713TMC3    C310539   1.876   2.853  14.120  0.1162 -0.2732  0.3844
  713TMC3    C410540   1.662   2.864  13.957  0.1173 -0.1267 -1.0499
  713TMC3    C510541   1.731   2.979  13.989  0.1862  0.0965 -0.0234
  713TMC3    C610542   1.844   2.974  14.058  0.3185 -1.4424 -0.6619
  713TMC3     C10543   1.632   2.622  13.961  0.0473 -0.4911 -0.0692
  713TMC3     O10544   1.518   2.642  13.916 -0.1918 -0.0708 -0.2393
  713TMC3     H10545   1.845   2.649  14.149 -1.9851 -0.7903  1.0568
  713TMC3    H110546   1.572   2.873  13.897 -0.2645 -1.1104 -0.6361
  713TMC3    H210547   1.907   3.063  14.063 -1.1998 -0.3831 -0.4562
  713TMC3    C710548   1.712   3.099  13.904 -0.7859 -0.0998 -0.2441
  713TMC3    C810549   2.021   2.835  14.143  0.7096 -0.3971  0.3165
  713TMC3    O110550   1.810   3.170  13.879 -0.2128  0.6747 -0.1666
  713TMC3    O210551   2.072   2.808  14.253 -0.3820 -0.0862  0.2772
  714MPD2     C10552   3.688   0.470   1.328 -0.0545 -0.1451 -0.2407
  714MPD2    C110553   3.738   0.592   1.351  0.3716  0.5137 -0.3141
  714MPD2    C210554   3.652   0.699   1.332 -0.7283 -0.6838 -0.8450
  714MPD2    C310555   3.522   0.684   1.277 -0.0232 -0.1923 -0.4154
  714MPD2    C410556   3.476   0.560   1.259  0.2257 -0.5505  0.2203
  714MPD2    C510557   3.560   0.455   1.284  0.7612  0.1788  0.3638
  714MPD2     H10558   3.686   0.801   1.348 -3.0549 -0.2443  1.2081
  714MPD2    H110559   3.377   0.541   1.220  0.3514  1.1479 -0.9292
  714MPD2    H210560   3.746   0.381   1.347  2.2068  1.6990  1.5988
  714MPD2    H310561   3.509   0.360   1.272  0.3744  0.3922  0.3075
  714MPD2     N10562   3.443   0.801   1.253 -0.5168  0.0965 -0.2885
  714MPD2    H510563   3.478   0.893   1.279  0.7172 -0.1458 -1.1109
  714MPD2    N110564   3.877   0.605   1.380  0.0494  0.3949  0.0498
  714MPD2    H710565   3.933   0.523   1.403  0.7495  0.5898 -0.9309
  715TMC3    C110566   4.073   0.703   1.474 -0.0384 -0.0177 -0.0530
  715TMC3    C210567   4.161   0.613   1.411 -0.4353 -0.9383 -0.3202
  715TMC3    C310568   4.296   0.639   1.412 -0.2402  0.2479 -0.0621
  715TMC3    C410569   4.132   0.804   1.547 -0.1200  0.6109 -0.3740
  715TMC3    C510570   4.269   0.827   1.545  0.2364 -0.7953  0.6000
  715TMC3    C610571   4.352   0.741   1.482  0.1689 -0.3804  0.3662
  715TMC3     C10572   3.929   0.718   1.429 -0.5985 -0.0256 -0.5192
  715TMC3     O10573   3.879   0.819   1.476 -0.1878 -0.9047  0.2389
  715TMC3     H10574   4.123   0.527   1.357  1.0225 -1.5209 -0.4195
  715TMC3    H110575   4.063   0.873   1.594 -1.4913  0.3139 -1.9492
  715TMC3    H210576   4.456   0.769   1.472  0.0655 -0.1233 -0.0161
  715TMC3    C710577   4.327   0.945   1.602 -0.2544 -0.5065 -0.4524
  715TMC3    C810578   4.385   0.537   1.355  0.6280  0.1299 -0.1708
  715TMC3    O110579   4.449   0.944   1.621  0.4506  0.4981  0.2323
  715TMC3    O210580   4.331   0.439   1.302 -0.0748  0.1422  0.4650
  716MPD2     C10581   4.145   4.420   9.942 -0.1136 -0.9261  0.0613
  716MPD2    C110582   4.088   4.423   9.821 -0.4719  0.1005 -0.0042
  716MPD2    C210583   4.080   4.306   9.755  0.3466 -0.3968 -0.3147
  716MPD2    C310584   4.143   4.186   9.802 -0.2870 -0.0500 -0.0471
  716MPD2    C410585   4.223   4.194   9.910 -0.5194 -0.0501 -0.3365
  716MPD2    C510586   4.215   4.308   9.986  0.1441  1.0760 -0.2296
  716MPD2     H10587   4.043   4.303   9.653 -1.2947 -1.2409  0.3138
  716MPD2    H110588   4.267   4.102   9.946 -0.7840 -0.0203  0.0641
  716MPD2    H210589   4.145   4.507  10.007  4.5423 -0.9234  0.0231
  716MPD2    H310590   4.253   4.308  10.087  0.8210  2.2580 -0.4828
  716MPD2     N10591   4.121   4.070   9.724 -0.3824  0.2272 -0.1736
  716MPD2    H510592   4.061   4.084   9.643  0.3109 -1.8523 -1.0364
  716MPD2    N110593   4.038   4.543   9.772  0.9385  0.5117  0.5454
  716MPD2    H710594   4.042   4.611   9.847  0.2758  0.7898  0.3277
  717TMC3    C110595   4.100   3.863   9.633 -0.0552  0.1177 -1.3296
  717TMC3    C210596   4.062   3.929   9.518 -0.4496 -0.8638  0.6805
  717TMC3    C310597   4.028   3.844   9.414  0.4749 -0.2489  0.3045
  717TMC3    C410598   4.103   3.730   9.643 -0.0497 -0.3546 -0.3377
  717TMC3    C510599   4.054   3.648   9.539  0.0741  0.3803  0.0704
  717TMC3    C610600   4.014   3.711   9.423 -0.4220 -0.2807  0.1181
  717TMC3     C10601   4.148   3.942   9.748 -0.1563 -0.0920  0.2436
  717TMC3     O10602   4.201   3.887   9.839  0.1045 -0.1176 -0.8480
  717TMC3     H10603   4.089   4.031   9.495  1.8112 -1.4988  0.4853
  717TMC3    H110604   4.146   3.686   9.732  2.2462 -1.1383 -1.8181
  717TMC3    H210605   3.976   3.647   9.344 -1.4557 -0.1663  0.5187
  717TMC3    C710606   4.029   3.507   9.551  0.8909 -0.6565  0.6097
  717TMC3    C810607   3.942   3.907   9.320 -0.6405 -0.4087 -0.0739
  717TMC3    O110608   4.001   3.445   9.448  0.0803 -0.8945 -0.2039
  717TMC3    O210609   3.908   4.017   9.349  0.2083  0.0087 -0.2013
  718MPD2     C10610   2.713   3.154  12.758  0.4813 -0.2023 -0.2222
  718MPD2    C110611   2.678   3.015  12.762  0.0707  0.3523  0.2828
  718MPD2    C210612   2.662   2.955  12.882  0.0941 -1.1011 -0.1136
  718MPD2    C310613   2.693   3.025  13.003 -0.7913 -0.0740  0.3890
  718MPD2    C410614   2.720   3.164  13.001  0.2897  0.0538 -0.1089
  718MPD2    C510615   2.726   3.221  12.878  0.1312  0.0290 -0.5833
  718MPD2     H10616   2.637   2.850  12.889 -0.6405 -0.8072  1.7204
  718MPD2    H110617   2.730   3.220  13.093 -2.3974 -0.5471  0.5544
  718MPD2    H210618   2.738   3.216  12.672  2.0129  3.0778  2.6107
  718MPD2    H310619   2.768   3.319  12.858  1.3073 -0.4536 -0.4306
  718MPD2     N10620   2.665   2.947  13.119  0.3626 -0.1478  0.4678
  718MPD2    H510621   2.627   2.854  13.105 -2.3982  1.1652 -0.8260
  718MPD2    N110622   2.673   2.937  12.646  0.0619 -0.3449 -0.2176
  718MPD2    H710623   2.643   2.842  12.665 -0.0711 -0.3853 -0.6396
  719TMC3    C110624   2.716   2.858  12.431 -0.4333  0.0964  0.0739
  719TMC3    C210625   2.639   2.754  12.482  0.4414  0.4491 -1.1050
  719TMC3    C310626   2.693   2.628  12.507  0.1827  0.6977  0.9590
  719TMC3    C410627   2.840   2.831  12.382 -0.1406  0.0075  0.5785
  719TMC3    C510628   2.897   2.708  12.403  0.9941  0.2770  0.0246
  719TMC3    C610629   2.825   2.610  12.473  0.4599  0.4955  0.2926
  719TMC3     C10630   2.712   2.976  12.518  0.3647  0.5163  0.0961
  719TMC3     O10631   2.761   3.081  12.476 -0.1425 -0.0610  0.2367
  719TMC3     H10632   2.535   2.771  12.503  0.8863 -1.8771  2.9402
  719TMC3    H110633   2.890   2.914  12.334  0.1196  0.6661  1.9856
  719TMC3    H210634   2.878   2.522  12.507 -3.2646 -1.0433  2.1469
  719TMC3    C710635   3.042   2.706  12.393 -0.0655  0.0284 -0.3952
  719TMC3    C810636   2.663   2.582  12.640  0.5747  0.3967 -0.3412
  719TMC3    O110637   3.104   2.805  12.352  0.2223  0.3798  0.4785
  719TMC3    O210638   2.606   2.662  12.711 -0.0987 -0.2909 -0.3062
  720MPD2     C10639   1.785   4.221  14.252 -0.0698 -0.6351  0.1052
  720MPD2    C110640   1.889   4.263  14.174 -0.1735  0.5643  0.4192
  720MPD2    C210641   2.016   4.253  14.228 -0.1152  0.3378  0.4854
  720MPD2    C310642   2.043   4.185  14.344 -0.2965  0.0066  0.6097
  720MPD2    C410643   1.935   4.122  14.406  0.0491 -0.4490 -0.5639
  720MPD2    C510644   1.812   4.135  14.353  0.4333  0.0017  0.5187
  720MPD2     H10645   2.108   4.295  14.189 -0.2137  1.0728  1.0477
  720MPD2    H110646   1.950   4.038  14.473  1.6448  0.6741  0.4765
  720MPD2    H210647   1.679   4.229  14.230 -0.1316 -0.4665  0.4614
  720MPD2    H310648   1.740   4.067  14.398  0.2357 -1.1271 -1.5214
  720MPD2     N10649   2.178   4.175  14.386 -0.0638 -0.9650  0.1558
  720MPD2    H510650   2.245   4.225  14.329 -0.9796 -0.7965 -0.7610
  720MPD2    N110651   1.867   4.324  14.048 -0.5255  0.4979 -0.1802
  720MPD2    H710652   1.941   4.381  14.006  0.9573 -1.9700 -0.9285
  721TMC3    C110653   2.373   4.115  14.530 -0.6450 -0.1557 -0.5042
  721TMC3    C210654   2.425   4.058  14.645  0.1492 -0.4087  0.4170
  721TMC3    C310655   2.562   4.078  14.664  0.1249  0.7019  0.4216
  721TMC3    C410656   2.452   4.190  14.443  1.2676 -0.4486  0.2560
  721TMC3    C510657   2.589   4.204  14.467 -0.1011  0.6065 -0.0877
  721TMC3    C610658   2.647   4.144  14.577  0.2300 -0.0541  0.6024
  721TMC3     C10659   2.224   4.099  14.495 -0.3464  0.9053 -0.4980
  721TMC3     O10660   2.167   4.025  14.571  0.4833  0.2465 -0.2937
  721TMC3     H10661   2.360   4.003  14.712  1.3771 -0.3434  1.6564
  721TMC3    H110662   2.425   4.219  14.342  0.6157  2.1123  1.1604
  721TMC3    H210663   2.745   4.176  14.610  0.7638 -0.9823 -0.0838
  721TMC3    C710664   2.678   4.259  14.361  0.3951  0.9482 -0.5212
  721TMC3    C810665   2.635   4.018  14.774  0.4388 -1.1048 -0.1537
  721TMC3    O110666   2.790   4.212  14.355  0.0740 -0.3156  0.0271
  721TMC3    O210667   2.752   3.986  14.751  0.6413 -0.0903 -0.4690
  722MPD2     C10668   0.540   2.886  13.669  0.5344  0.4858 -0.4161
  722MPD2    C110669   0.528   2.977  13.562  0.0521 -0.8960 -0.4014
  722MPD2    C210670   0.421   2.966  13.478  0.3641  0.0116  0.1844
  722MPD2    C310671   0.314   2.887  13.504  0.3864  0.4372  0.2204
  722MPD2    C410672   0.317   2.811  13.620 -0.0989 -0.2101  0.3855
  722MPD2    C510673   0.437   2.804  13.693  0.1782  0.1543 -0.1542
  722MPD2     H10674   0.423   3.019  13.383  0.2938  0.7872  0.6105
  722MPD2    H110675   0.242   2.742  13.655  0.1744 -0.7638 -0.1108
  722MPD2    H210676   0.632   2.863  13.722 -0.8512 -1.4135  1.1644
  722MPD2    H310677   0.436   2.724  13.767 -1.9628 -0.1230 -0.4616
  722MPD2     N10678   0.208   2.875  13.408 -0.4066  0.0592 -0.1902
  722MPD2    H510679   0.195   2.943  13.334 -0.2410 -1.1965 -1.3791
  722MPD2    N110680   0.616   3.083  13.536 -0.3771 -0.5088  0.2204
  722MPD2    H710681   0.601   3.137  13.452 -2.3940 -0.2495  0.7510
  723TMC3    C110682   0.002   2.824  13.319 -0.2845 -0.0306  0.8120
  723TMC3    C210683   4.622   2.731  13.316 -0.2688 -0.6967 -0.5605
  723TMC3    C310684   4.502   2.764  13.260 -0.5994 -0.4337  0.0614
  723TMC3    C410685   4.698   2.958  13.286  0.1713 -0.4463  0.0990
  723TMC3    C510686   4.582   2.986  13.225 -0.6012 -0.1936  0.2922
  723TMC3    C610687   4.481   2.896  13.213  0.0056 -0.3241  0.1698
  723TMC3     C10688   0.111   2.785  13.409 -0.1402  0.1085  0.0571
  723TMC3     O10689   0.098   2.684  13.477 -0.4667 -0.5543 -0.2121
  723TMC3     H10690   4.636   2.631  13.356 -1.4853 -1.2142 -1.4182
  723TMC3    H110691   0.056   3.030  13.290  0.6595 -1.1468  2.6397
  723TMC3    H210692   4.386   2.924  13.169 -0.3037 -3.0003 -0.8969
  723TMC3    C710693   4.562   3.100  13.136 -0.4929  0.0078 -0.0566
  723TMC3    C810694   4.406   2.666  13.219  0.0188  0.0679 -0.1726
  723TMC3    O110695   4.470   3.094  13.058  0.2497 -0.8310 -0.0538
  723TMC3    O210696   4.301   2.725  13.187  0.6697 -0.2480  0.1092
  724TMC3    C110697   1.140   1.418  10.535 -0.3053 -0.0699  0.0742
  724TMC3    C210698   1.102   1.482  10.422  0.0647 -0.0070  0.0885
  724TMC3    C310699   1.133   1.615  10.403  0.2177 -0.1114  0.2404
  724TMC3    C410700   1.197   1.486  10.643  0.3232  0.5204  0.0712
  724TMC3    C510701   1.202   1.623  10.624  0.3182  0.2339  0.0306
  724TMC3    C610702   1.166   1.693  10.513  0.1737 -0.1989  0.4102
  724TMC3     C10703   1.083   1.286  10.559 -0.0376 -0.0738  0.4699
  724TMC3     O10704   1.115   1.243  10.667  0.2319  0.6027  0.0932
  724TMC3     H10705   1.093   1.428  10.328 -1.0247 -2.2012  1.4383
  724TMC3    H110706   1.216   1.435  10.736 -0.7805 -1.7646 -0.9532
  724TMC3    H210707   1.187   1.799  10.506  0.7616 -0.4216 -1.3358
  724TMC3    C710708   1.292   1.704  10.705  0.0298  0.0762  0.5461
  724TMC3    C810709   1.095   1.674  10.275  0.0817  0.0820 -0.1993
  724TMC3    O110710   1.368   1.781  10.656 -0.4076  0.4817  0.0620
  724TMC3    O210711   1.036   1.608  10.189 -0.1699 -0.4069  0.0613
  725TMC3    C110712   2.397   4.624  13.305 -0.8655  0.7279 -0.0217
  725TMC3    C210713   2.371   4.610  13.166 -0.8837 -0.8944  0.0200
  725TMC3    C310714   2.292   4.502  13.129 -0.9316  0.1820  0.2769
  725TMC3    C410715   2.366   4.521  13.395  0.3368  0.4852 -0.6111
  725TMC3    C510716   2.307   4.407  13.351 -0.3986  0.4584 -0.0922
  725TMC3    C610717   2.257   4.401  13.222 -0.0448 -0.5698  0.2676
  725TMC3     C10718   2.465   0.019  13.355  0.1322 -0.2436  0.3615
  725TMC3     O10719   2.534   0.079  13.272  0.4889 -0.1505 -0.5793
  725TMC3     H10720   2.412   4.679  13.093 -2.7677  1.0589  0.7681
  725TMC3    H110721   2.395   4.523  13.500 -0.7008 -0.8536 -0.2910
  725TMC3    H210722   2.193   4.323  13.184  0.5301  0.3479 -2.6113
  725TMC3    C710723   2.373   4.288  13.398 -0.2926 -0.2442 -0.1680
  725TMC3    C810724   2.337   4.445  13.001  0.8993 -0.1894 -0.4151
  725TMC3    O110725   2.408   4.296  13.513 -0.4107 -0.1548 -0.4114
  725TMC3    O210726   2.364   4.323  13.018  0.0892 -0.2266 -0.5545
  726MPD2     C10727   0.260   1.184  10.517 -0.5044 -0.2597  0.3001
  726MPD2    C110728   0.262   1.255  10.637  0.5232 -0.6738  0.9146
  726MPD2    C210729   0.193   1.205  10.744 -0.4139  0.3616  0.1757
  726MPD2    C310730   0.127   1.084  10.737 -0.2314 -0.3879 -0.7626
  726MPD2    C410731   0.132   1.013  10.621 -0.3849  0.2906  0.8779
  726MPD2    C510732   0.198   1.067  10.513  0.0247 -0.8531  0.0602
  726MPD2     H10733   0.182   1.267  10.831 -0.0234  2.6294 -1.3925
  726MPD2    H110734   0.070   0.924  10.613  0.2719 -0.1065  0.1941
  726MPD2    H210735   0.316   1.205  10.427  0.6619  0.1242  1.1212
  726MPD2    H310736   0.199   1.014  10.419 -0.8060  0.0592 -0.4687
  726MPD2     N10737   0.036   1.040  10.836  0.1156  0.3324  0.3608
  726MPD2    H510738   4.713   0.953  10.811 -0.0743 -0.2828  2.8279
  726MPD2    N110739   0.315   1.390  10.649 -0.6414 -0.2944 -0.1016
  726MPD2    H710740   0.317   1.429  10.742 -0.4392  2.4590 -1.2722
  727TMC3    C110741   0.404   1.601  10.562  0.0274 -0.9203 -0.4879
  727TMC3    C210742   0.488   1.607  10.673 -0.1737 -0.2648 -0.1250
  727TMC3    C310743   0.529   1.728  10.708  0.7130  0.4019  0.2171
  727TMC3    C410744   0.367   1.708  10.486 -0.1604 -1.0317  0.9379
  727TMC3    C510745   0.411   1.828  10.530 -0.2145  0.1681  0.0437
  727TMC3    C610746   0.489   1.847  10.642  0.1426  0.4777  0.0350
  727TMC3     C10747   0.342   1.471  10.533  0.2323  0.3522  0.8230
  727TMC3     O10748   0.318   1.453  10.415 -0.6514 -0.0705 -0.4844
  727TMC3     H10749   0.514   1.522  10.735 -1.6468  0.0860  0.9864
  727TMC3    H110750   0.313   1.698  10.392  0.8350  0.4338  0.1964
  727TMC3    H210751   0.526   1.945  10.669  2.2172  0.1127 -1.4629
  727TMC3    C710752   0.389   1.932  10.438  0.2716 -0.4374 -0.3699
  727TMC3    C810753   0.601   1.741  10.826 -0.2856  0.4342  0.2668
  727TMC3    O110754   0.294   1.914  10.364  0.4151  0.4282 -0.1885
  727TMC3    O210755   0.594   1.647  10.904  0.5178 -0.0679 -0.7424
  728TMC3    C110756   4.423   0.119  15.866 -0.2880 -0.2399  0.2342
  728TMC3    C210757   4.515   0.215  15.895 -0.0774  0.7198 -0.3199
  728TMC3    C310758   4.527   0.325  15.813 -0.4939 -0.5452  0.8460
  728TMC3    C410759   4.331   0.146  15.772  0.6674  0.2560 -0.0532
  728TMC3    C510760   4.353   0.248  15.685 -0.7903 -0.0046 -0.5529
  728TMC3    C610761   4.455   0.339  15.699  0.6292 -0.2250 -0.9728
  728TMC3     C10762   4.404   0.026  15.973 -0.0356 -0.0471 -0.4885
  728TMC3     O10763   4.491   4.703  16.043 -0.2160 -0.3091 -0.0564
  728TMC3     H10764   4.573   0.208  15.986 -1.9995  0.4746  0.8875
  728TMC3    H110765   4.269   0.063  15.739  1.2908 -0.1002 -0.3326
  728TMC3    H210766   4.460   0.429  15.639  0.1914  0.6728  0.3322
  728TMC3    C710767   4.278   0.245  15.556  0.6688  1.1716 -0.1019
  728TMC3    C810768   4.585   0.440  15.870  0.7148 -0.0498  0.2479
  728TMC3    O110769   4.205   0.149  15.539  0.2340 -0.4502  0.2685
  728TMC3    O210770   4.601   0.432  15.991 -0.0431 -0.3279  0.1308
  729MPD2     C10771   1.601   1.767  17.376  1.2423  0.5358 -0.4001
  729MPD2    C110772   1.638   1.632  17.358 -0.7116  0.5572 -0.1813
  729MPD2    C210773   1.669   1.551  17.463  0.2697  0.1650  0.1003
  729MPD2    C310774   1.668   1.602  17.586 -0.1420  0.7180 -0.2441
  729MPD2    C410775   1.640   1.737  17.608  0.5138 -0.1421  0.2014
  729MPD2    C510776   1.595   1.817  17.505  0.3639  0.3832 -0.4017
  729MPD2     H10777   1.701   1.450  17.441 -1.5238 -0.8104  1.9549
  729MPD2    H110778   1.636   1.774   0.017  0.1452 -0.2417  0.2247
  729MPD2    H210779   1.593   1.831  17.289  0.5495  0.1062 -0.6529
  729MPD2    H310780   1.562   1.920  17.512 -1.2168 -0.2612  1.8191
  729MPD2     N10781   1.725   1.526  17.690  0.1964  0.2833  0.3665
  729MPD2    H510782   1.756   1.581   0.076 -0.5531  1.5739 -0.2439
  729MPD2    N110783   1.661   1.592  17.221  0.1997  0.1334 -0.2822
  729MPD2    H710784   1.617   1.642  17.144  1.6550 -0.1872 -1.3329
  730TMC3    C110785   1.895   1.362   0.059  0.2777 -0.0772 -0.1894
  730TMC3    C210786   1.987   1.293  17.677 -1.1061 -0.9239 -0.2536
  730TMC3    C310787   2.118   1.335  17.672 -0.1003  0.1851 -0.2643
  730TMC3    C410788   1.934   1.468   0.138  0.3985 -0.4791  0.3516
  730TMC3    C510789   2.061   1.517   0.120 -0.1184 -0.1263 -0.2489
  730TMC3    C610790   2.153   1.451   0.044 -0.2290 -0.6741  0.0386
  730TMC3     C10791   1.775   1.393  17.671  0.4287 -0.1662  0.9455
  730TMC3     O10792   1.731   1.303  17.603  0.4828 -0.2087  0.5362
  730TMC3     H10793   1.946   1.216  17.612 -1.6175 -0.5157 -0.4184
  730TMC3    H110794   1.862   1.505   0.210 -0.4078  1.1335 -1.2695
  730TMC3    H210795   2.256   1.484   0.048 -0.7935  1.0327  0.2176
  730TMC3    C710796   2.093   1.655   0.135  1.9508 -0.3186  0.2603
  730TMC3    C810797   2.170   1.322  17.534  0.1491 -0.4765  0.3210
  730TMC3    O110798   2.157   1.695   0.038 -0.4465  0.1466  0.2140
  730TMC3    O210799   2.105   1.257  17.452  0.3873  0.6038 -0.1876
  731MPD2     C10800   2.483   3.287  12.109 -0.1227 -0.0572  0.4366
  731MPD2    C110801   2.429   3.402  12.059  0.3134  0.1658  0.5141
  731MPD2    C210802   2.326   3.462  12.133 -0.3696  0.7005  0.0953
  731MPD2    C310803   2.279   3.416  12.252  0.4475  0.2965  0.1682
  731MPD2    C410804   2.333   3.300  12.299  0.5807 -0.3105  0.4427
  731MPD2    C510805   2.437   3.239  12.225  0.4867 -0.2436 -0.5208
  731MPD2     H10806   2.292   3.554  12.087 -1.1300  0.1777 -0.3868
  731MPD2    H110807   2.313   3.252  12.394  0.7986 -2.8947 -0.8045
  731MPD2    H210808   2.559   3.234  12.054 -0.1463 -2.6492  2.9148
  731MPD2    H310809   2.493   3.154  12.264 -1.6223 -0.7208  1.4960
  731MPD2     N10810   2.191   3.501  12.321  0.1165  0.0326 -0.0290
  731MPD2    H510811   2.154   3.578  12.266  0.5223  0.3998  0.2106
  731MPD2    N110812   2.476   3.464  11.940  0.0644 -0.4706 -0.1041
  731MPD2    H710813   2.566   3.441  11.898 -0.2103  0.6420 -1.2988
  732TMC3    C110814   2.466   3.613  11.764  0.7855 -0.1048  0.0070
  732TMC3    C210815   2.404   3.636  11.644 -0.4292 -0.1784 -0.3147
  732TMC3    C310816   2.424   3.763  11.596  0.0375  0.0991 -1.0822
  732TMC3    C410817   2.546   3.708  11.828  0.0617 -0.3316  0.0427
  732TMC3    C510818   2.575   3.825  11.761  0.1579  0.0557  0.1665
  732TMC3    C610819   2.519   3.848  11.638 -0.3889 -0.2572 -0.4100
  732TMC3     C10820   2.391   3.534  11.854  0.1983 -0.4701 -0.4958
  732TMC3     O10821   2.271   3.550  11.849  0.1105  0.3348  0.0174
  732TMC3     H10822   2.328   3.568  11.608  0.3753 -1.7858  1.0540
  732TMC3    H110823   2.573   3.702  11.933 -0.9691 -1.8008  0.2106
  732TMC3    H210824   2.533   3.938  11.579 -2.0411 -0.9923 -1.9269
  732TMC3    C710825   2.597   3.946  11.848  0.5072  0.1308 -0.2749
  732TMC3    C810826   2.306   3.831  11.561  0.2800 -0.5019 -0.2152
  732TMC3    O110827   2.532   4.045  11.800  0.7425 -0.2860  0.5527
  732TMC3    O210828   2.308   3.925  11.484 -0.5163 -0.1576 -0.0828
  733TMC3    C110829   2.551   2.761  13.495 -0.1437 -0.2812 -0.0959
  733TMC3    C210830   2.592   2.872  13.441  0.7590 -0.0404 -0.4053
  733TMC3    C310831   2.678   2.870  13.340 -0.0839 -0.2529 -0.4194
  733TMC3    C410832   2.612   2.642  13.457  0.0974  0.4029  0.8564
  733TMC3    C510833   2.701   2.637  13.358  0.4662 -0.0952  0.0851
  733TMC3    C610834   2.733   2.753  13.293 -0.4068 -0.0876 -0.3344
  733TMC3     C10835   2.409   2.759  13.509  0.1953  0.1988 -1.0552
  733TMC3     O10836   2.351   2.869  13.498 -0.0520  0.0498 -0.3074
  733TMC3     H10837   2.536   2.964  13.456 -0.2782 -0.8773  0.8433
  733TMC3    H110838   2.582   2.551  13.508 -2.7674  0.1245 -1.3835
  733TMC3    H210839   2.810   2.752  13.217 -0.5633  2.4776 -0.5530
  733TMC3    C710840   2.726   2.511  13.285 -0.0057 -0.0158  0.2075
  733TMC3    C810841   2.682   2.985  13.250 -0.2146  0.6501  0.1327
  733TMC3    O110842   2.739   2.408  13.346 -0.0121  0.0720 -0.5843
  733TMC3    O210843   2.703   3.090  13.301  0.4828  0.4769  0.6321
  734MPD2     C10844   0.268   0.362  12.320  0.9629 -0.1020  0.6866
  734MPD2    C110845   0.194   0.268  12.260  0.5848  0.0403  1.0755
  734MPD2    C210846   0.178   0.261  12.126 -0.0505  0.4923  0.2609
  734MPD2    C310847   0.239   0.359  12.045  0.2632 -0.2380 -0.7356
  734MPD2    C410848   0.320   0.456  12.108 -0.2824  0.4365  0.1747
  734MPD2    C510849   0.334   0.454  12.247 -0.6706  0.7991 -0.5219
  734MPD2     H10850   0.131   0.180  12.072  3.2238 -2.7228  2.2424
  734MPD2    H110851   0.367   0.535  12.051  0.5014 -0.4091 -0.3525
  734MPD2    H210852   0.298   0.368  12.424  0.8332  0.0673  0.7142
  734MPD2    H310853   0.387   0.539  12.289 -0.1314 -0.5346  1.5295
  734MPD2     N10854   0.217   0.347  11.908 -0.2269 -0.2819  0.0095
  734MPD2    H510855   0.166   0.268  11.870 -1.0845  0.2122  0.1406
  734MPD2    N110856   0.139   0.167  12.344 -0.3732 -0.0928 -0.4683
  734MPD2    H710857   0.171   0.165  12.440  0.0843 -3.6136 -0.6815
  735TMC3    C110858   0.038   4.681  12.383  1.0936  0.1426  0.1674
  735TMC3    C210859   4.652   4.613  12.341  0.2115  0.0929 -0.1496
  735TMC3    C310860   4.658   4.485  12.290 -0.3853 -0.7385 -0.1557
  735TMC3    C410861   0.160   4.616  12.381  0.1848 -0.6073  0.1560
  735TMC3    C510862   0.162   4.484  12.341  0.1472 -0.3320 -0.1970
  735TMC3    C610863   0.057   4.417  12.300  0.7245 -0.1841  0.5148
  735TMC3     C10864   0.041   0.080  12.309  0.1286  0.2548  0.6824
  735TMC3     O10865   4.689   0.084  12.211 -0.6999  0.8098 -0.3856
  735TMC3     H10866   4.565   4.677  12.335  2.0605  2.5576 -0.4228
  735TMC3    H110867   0.255   4.668  12.391 -1.5840  2.9006 -1.5944
  735TMC3    H210868   0.074   4.319  12.256 -0.5536 -1.2187  2.3037
  735TMC3    C710869   0.288   4.420  12.330 -0.5799 -0.1720  0.5876
  735TMC3    C810870   4.601   4.466  12.157 -0.9540 -0.2068  1.1537
  735TMC3    O110871   0.381   4.493  12.324 -0.2956  0.0508  0.3052
  735TMC3    O210872   4.621   4.357  12.108 -0.0693 -0.5805  0.5692
  736MPD2     C10873   0.354   4.053  12.350 -0.5660 -0.2826  0.7664
  736MPD2    C110874   0.385   4.187  12.352 -0.8767 -0.4003 -0.4019
  736MPD2    C210875   0.518   4.225  12.339 -0.7513 -0.1737  0.2003
  736MPD2    C310876   0.616   4.134  12.325 -0.5096 -0.5502 -0.2569
  736MPD2    C410877   0.583   4.003  12.312  0.2697 -0.2167  0.5327
  736MPD2    C510878   0.453   3.956  12.333  0.4341  0.0690 -0.7558
  736MPD2     H10879   0.548   4.328  12.353 -1.2783  0.0442 -0.2657
  736MPD2    H110880   0.656   3.927  12.288  0.2832  0.3626 -1.2503
  736MPD2    H210881   0.252   4.017  12.356 -0.7043 -0.1467 -0.7092
  736MPD2    H310882   0.421   3.852  12.329  0.5066  0.0499 -0.8417
  736MPD2     N10883   0.754   4.157  12.314  0.0858 -0.2059 -0.6835
  736MPD2    H510884   0.814   4.079  12.286 -1.6383 -2.1996  1.1700
  736MPD2    N110885   0.280   4.281  12.361 -0.5092 -0.1276 -0.1927
  736MPD2    H710886   0.197   4.238  12.400 -0.9805  0.4699 -0.5300
  737TMC3    C110887   0.931   4.284  12.242 -0.4782  0.4759  0.0499
  737TMC3    C210888   0.976   4.414  12.226  0.3221 -0.0098  0.0141
  737TMC3    C310889   1.047   4.446  12.112  0.4795  0.0108  0.6984
  737TMC3    C410890   0.967   4.196  12.145 -0.0564  0.4071  0.2883
  737TMC3    C510891   1.043   4.223  12.036 -0.0490 -0.1267  0.4039
  737TMC3    C610892   1.088   4.351  12.021  0.7516 -0.2081  0.1867
  737TMC3     C10893   0.804   4.282  12.314  0.2272 -0.0987 -0.0418
  737TMC3     O10894   0.755   4.386  12.347  0.2396  0.0518  0.7328
  737TMC3     H10895   0.939   4.491  12.293 -1.7767 -1.2190  0.2516
  737TMC3    H110896   0.910   4.104  12.135 -0.9871  1.0625 -0.5069
  737TMC3    H210897   1.165   4.381  11.952 -0.7116 -0.4776 -1.5629
  737TMC3    C710898   1.082   4.122  11.935 -0.8350  0.6652 -0.0062
  737TMC3    C810899   1.105   4.583  12.101  0.0522 -0.1357  0.0325
  737TMC3    O110900   1.050   4.008  11.969  0.1606  0.0860  0.5607
  737TMC3    O210901   1.117   4.647  12.204  0.2523 -0.2726 -0.6628
  738MPD2     C10902   0.445   3.543  14.940 -0.5058  0.5170 -0.1165
  738MPD2    C110903   0.561   3.529  15.008  0.4018 -0.0927 -0.1611
  738MPD2    C210904   0.667   3.611  14.987  0.0055  0.2428  0.3045
  738MPD2    C310905   0.665   3.700  14.883 -0.8547 -0.1219 -0.3522
  738MPD2    C410906   0.548   3.711  14.810 -0.5458 -0.2959 -0.3241
  738MPD2    C510907   0.439   3.634  14.839  0.7438 -0.8742  0.9065
  738MPD2     H10908   0.748   3.604  15.059 -0.7965 -1.7231  1.0334
  738MPD2    H110909   0.542   3.779  14.726  1.7304  2.0280  1.3830
  738MPD2    H210910   0.354   3.487  14.957 -1.2821  1.7220 -0.2871
  738MPD2    H310911   0.346   3.646  14.786  1.4416  0.9338  0.0877
  738MPD2     N10912   0.770   3.781  14.841 -0.0866  0.0838 -0.2569
  738MPD2    H510913   0.761   3.835  14.756  3.4478  1.3067  0.1409
  738MPD2    N110914   0.573   3.443  15.129  0.4071 -0.4045 -0.7806
  738MPD2    H710915   0.665   3.437  15.173  1.1076 -0.5190 -2.2697
  739TMC3    C110916   0.990   3.881  14.860 -0.3696  0.1481 -0.2452
  739TMC3    C210917   1.019   3.867  14.732  0.4169  0.0271 -0.3980
  739TMC3    C310918   1.146   3.898  14.691 -0.0960 -0.2801  0.4486
  739TMC3    C410919   1.077   3.935  14.952  0.3634 -0.6428  0.0380
  739TMC3    C510920   1.204   3.977  14.908  0.0472 -0.7189  0.1275
  739TMC3    C610921   1.233   3.963  14.773 -0.7510  0.5556  0.7219
  739TMC3     C10922   0.878   3.810  14.926 -0.1977 -0.1605  0.2541
  739TMC3     O10923   0.892   3.785  15.042  0.0257 -0.2270 -0.2515
  739TMC3     H10924   0.951   3.830  14.656  0.9599 -0.1233 -0.8138
  739TMC3    H110925   1.042   3.959  15.052  2.4323 -0.9367  0.8249
  739TMC3    H210926   1.336   3.980  14.743 -0.6592  0.4707  0.9928
  739TMC3    C710927   1.317   3.983  14.997 -0.0916  0.4789 -0.4628
  739TMC3    C810928   1.181   3.870  14.555 -0.4389  0.3704 -0.0772
  739TMC3    O110929   1.421   4.010  14.938  0.2993 -0.2447 -0.2397
  739TMC3    O210930   1.091   3.839  14.481  0.2235  1.0348 -0.1818
  740TMC3    C110931   1.710   4.587  14.573 -0.1408  0.1998 -0.2278
  740TMC3    C210932   1.747   4.513  14.677  0.2443 -0.5571 -0.0703
  740TMC3    C310933   1.867   4.447  14.661 -0.5281 -0.1721  0.1161
  740TMC3    C410934   1.793   4.602  14.466 -0.0515  0.2571 -0.3876
  740TMC3    C510935   1.913   4.531  14.464  0.1581  0.3416 -0.4354
  740TMC3    C610936   1.950   4.445  14.559  0.1966 -0.2056  0.1426
  740TMC3     C10937   1.602   4.690  14.580  0.0417 -0.1973  0.3482
  740TMC3     O10938   1.621   0.080  14.528  0.5846  0.1028 -0.0295
  740TMC3     H10939   1.689   4.501  14.768  1.2622  0.5598  0.7299
  740TMC3    H110940   1.764   4.668  14.386  1.5530 -1.1137 -2.0921
  740TMC3    H210941   2.030   4.376  14.533  0.0275 -0.7925  1.1898
  740TMC3    C710942   2.023   4.555  14.379  0.2617 -0.0624  0.3547
  740TMC3    C810943   1.912   4.382  14.779  0.4190  0.9147 -0.8491
  740TMC3    O110944   2.131   4.518  14.415 -0.1522  0.1487  0.4053
  740TMC3    O210945   1.831   4.354  14.868 -0.7062 -0.4171  0.1822
  741TMC3    C110946   1.041   4.133  14.036 -0.4946  0.0826  0.7436
  741TMC3    C210947   0.926   4.092  14.094 -0.0390 -0.7413  0.4128
  741TMC3    C310948   0.923   4.089  14.232  0.1918 -0.5492  0.0184
  741TMC3    C410949   1.154   4.164  14.114 -0.9654 -0.5141  0.1507
  741TMC3    C510950   1.147   4.147  14.247  0.2959 -0.0154  0.4392
  741TMC3    C610951   1.029   4.123  14.314 -0.4138  0.1775 -0.4652
  741TMC3     C10952   1.049   4.149  13.890 -0.8302 -0.4769 -0.6340
  741TMC3     O10953   1.159   4.162  13.838  0.6080  0.0981 -0.2123
  741TMC3     H10954   0.847   4.049  14.034  0.8930  0.3502 -1.5877
  741TMC3    H110955   1.240   4.215  14.074  0.4819 -2.4653  0.7948
  741TMC3    H210956   1.014   4.110  14.421 -2.4110 -2.1934 -1.0375
  741TMC3    C710957   1.266   4.180  14.322  0.1268 -0.0754  1.0587
  741TMC3    C810958   0.820   3.997  14.292 -0.5837 -0.1995 -0.3217
  741TMC3    O110959   1.373   4.193  14.264  0.0770  0.2338  0.0871
  741TMC3    O210960   0.778   4.016  14.406  0.3472  0.2354 -0.0866
  742TMC3    C110961   0.940   2.761  15.368 -0.0212 -0.9333 -0.5190
  742TMC3    C210962   0.878   2.659  15.306 -0.3333  0.3319  0.3308
  742TMC3    C310963   0.949   2.594  15.204 -0.2718  0.2267  0.1125
  742TMC3    C410964   1.071   2.785  15.359 -0.3821  0.3893 -0.0730
  742TMC3    C510965   1.140   2.706  15.270 -0.4688  0.0137 -0.7398
  742TMC3    C610966   1.085   2.614  15.182 -0.2843 -0.8397  0.4412
  742TMC3     C10967   0.870   2.848  15.458 -0.4462  0.8400 -0.8463
  742TMC3     O10968   0.906   2.963  15.471 -0.1421 -0.0549 -0.4030
  742TMC3     H10969   0.770   2.649  15.305 -0.1769 -1.1336 -1.5792
  742TMC3    H110970   1.119   2.862  15.418 -1.3025  0.0073  1.1760
  742TMC3    H210971   1.150   2.555  15.119 -1.6549 -1.1359 -0.6808
  742TMC3    C710972   1.277   2.693  15.304 -0.0855  0.7420 -0.4719
  742TMC3    C810973   0.882   2.515  15.109  0.4663  0.3753 -0.7251
  742TMC3    O110974   1.326   2.783  15.367 -0.5708 -0.7968  0.7064
  742TMC3    O210975   0.956   2.455  15.032  0.8979 -0.2116 -0.1740
  743MPD2     C10976   4.668   3.349   2.123 -0.3228  0.3030  0.1776
  743MPD2    C110977   4.677   3.470   2.051 -0.2406  0.2175  0.5685
  743MPD2    C210978   0.086   3.517   2.025 -0.2395  0.2864  0.4464
  743MPD2    C310979   0.197   3.452   2.068 -0.8294 -0.0534 -0.1375
  743MPD2    C410980   0.184   3.328   2.134  1.0643  0.0028  0.0999
  743MPD2    C510981   0.062   3.284   2.162 -0.5044  0.1204 -0.1199
  743MPD2     H10982   0.095   3.607   1.965 -1.7707  2.0623  2.8703
  743MPD2    H110983   0.267   3.264   2.160  1.1494 -0.9447 -2.4614
  743MPD2    H210984   4.568   3.308   2.133 -1.1644  2.4666  0.5496
  743MPD2    H310985   0.061   3.183   2.201 -1.8427  0.4164  0.6031
  743MPD2     N10986   0.324   3.504   2.024  0.2528 -0.3933  0.7799
  743MPD2    H510987   0.315   3.595   1.980  0.4679  0.1526  1.8608
  743MPD2    N110988   4.560   3.536   2.008 -0.4788  0.5137  0.3999
  743MPD2    H710989   4.472   3.496   2.039 -2.0064  3.8470  0.4695
  744TMC3    C110990   4.420   3.660   1.863  1.0587  0.5163  0.1027
  744TMC3    C210991   4.321   3.651   1.957 -0.3645 -0.4012 -0.1809
  744TMC3    C310992   4.195   3.691   1.914 -0.9624  0.4806 -0.9522
  744TMC3    C410993   4.408   3.730   1.748 -0.0010  0.4599  0.5821
  744TMC3    C510994   4.281   3.765   1.709 -0.5130 -0.3479  1.0336
  744TMC3    C610995   4.173   3.747   1.794  0.9668  0.0207  0.6762
  744TMC3     C10996   4.553   3.628   1.904  0.5598 -0.6186 -0.3106
  744TMC3     O10997   4.648   3.678   1.842 -0.3220  0.7279  0.2892
  744TMC3     H10998   4.344   3.638   2.062 -2.5658 -0.0450  0.3446
  744TMC3    H110999   4.499   3.753   1.692 -1.2107  1.9062 -0.7920
  744TMC3    H211000   4.068   3.757   1.767  0.6259 -2.5627  1.0857
  744TMC3    C711001   4.254   3.798   1.565  0.6537  0.0116  0.2625
  744TMC3    C811002   4.076   3.679   1.993  0.5030  0.0282  0.2036
  744TMC3    O111003   4.134   3.819   1.536 -0.0053  0.1881 -0.3308
  744TMC3    O211004   3.973   3.735   1.952 -0.2512  0.4246  0.9493
  745TMC3    C111005   1.232   2.133  13.644 -0.2338 -0.6082 -0.0926
  745TMC3    C211006   1.171   2.246  13.688  0.3324 -0.2933 -0.4444
  745TMC3    C311007   1.067   2.296  13.611  0.1949  0.3540 -0.2985
  745TMC3    C411008   1.201   2.081  13.517 -0.2969  0.1419 -0.4112
  745TMC3    C511009   1.091   2.124  13.445 -0.2286 -0.1028 -0.6659
  745TMC3    C611010   1.020   2.232  13.494 -0.1387  0.0391  0.0974
  745TMC3     C11011   1.361   2.092  13.701  0.1293  0.2566 -0.1056
  745TMC3     O11012   1.423   1.994  13.663  0.2535 -0.5648  0.6963
  745TMC3     H11013   1.187   2.270  13.793  1.9540 -2.0119 -0.2850
  745TMC3    H111014   1.253   2.002  13.465 -1.9338  0.2218 -2.2017
  745TMC3    H211015   0.947   2.274  13.426  1.0074  0.5978 -0.7769
  745TMC3    C711016   1.126   2.137  13.302  0.3472 -0.1308 -0.1970
  745TMC3    C811017   0.966   2.381  13.676 -0.2751 -0.0619  0.4137
  745TMC3    O111018   1.129   2.034  13.231 -0.0282  0.3986 -0.4324
  745TMC3    O211019   0.846   2.379  13.650 -0.0735  0.2342  0.5780
  746TMC3    C111020   3.817   3.992  11.096 -0.0194  0.0628 -0.1332
  746TMC3    C211021   3.854   4.006  10.964  0.2010  0.5539  0.5117
  746TMC3    C311022   3.779   3.934  10.873  0.1573  0.6765 -0.2224
  746TMC3    C411023   3.718   3.908  11.144 -0.3492 -0.1482 -0.0818
  746TMC3    C511024   3.653   3.827  11.050  0.1359  0.1536  0.1584
  746TMC3    C611025   3.683   3.843  10.919  0.0494 -0.0610  0.1212
  746TMC3     C11026   3.838   4.110  11.170  0.0277 -0.0694 -0.5147
  746TMC3     O11027   3.751   4.132  11.251  0.7053 -0.1821  0.0147
  746TMC3     H11028   3.932   4.072  10.929  2.1316 -0.2002  3.3853
  746TMC3    H111029   3.700   3.900  11.250 -1.1656 -1.2450 -0.3149
  746TMC3    H211030   3.637   3.775  10.848  1.6145  0.7188 -1.6485
  746TMC3    C711031   3.550   3.736  11.089 -1.1024  1.1476 -0.4713
  746TMC3    C811032   3.766   3.987  10.739  0.0211 -0.6938 -0.5472
  746TMC3    O111033   3.493   3.695  10.989  0.0472  0.6891  0.3882
  746TMC3    O211034   3.706   3.924  10.654  0.3356 -0.1279 -0.5774
  747TMC3    C111035   1.599   4.294  11.016 -0.3163  0.0845 -0.3295
  747TMC3    C211036   1.545   4.204  11.103  0.5726  0.0407  0.7000
  747TMC3    C311037   1.517   4.243  11.230 -0.4533 -0.4930 -0.6693
  747TMC3    C411038   1.656   4.409  11.070 -0.1396 -0.4005 -0.2276
  747TMC3    C511039   1.639   4.429  11.209  0.3002  0.3793 -0.3066
  747TMC3    C611040   1.558   4.358  11.294 -0.7668  0.0147  0.5163
  747TMC3     C11041   1.650   4.251  10.894 -0.3189 -0.2334  0.5198
  747TMC3     O11042   1.748   4.310  10.855 -0.0753 -0.8017  0.3845
  747TMC3     H11043   1.515   4.108  11.062  0.6801  0.2801  0.0729
  747TMC3    H111044   1.726   4.466  11.010 -1.7573 -1.6622 -3.3257
  747TMC3    H211045   1.550   4.383  11.400  0.0378 -2.2314  1.0986
  747TMC3    C711046   1.672   4.561  11.265 -0.1371  0.0563 -0.2525
  747TMC3    C811047   1.440   4.143  11.299  0.0363  0.1538 -0.8407
  747TMC3    O111048   1.687   4.572  11.389 -0.7025 -0.3735 -0.4954
  747TMC3    O211049   1.436   4.032  11.247 -1.0450 -0.7056  0.1477
  748MPD2     C11050   2.421   1.009   1.817 -0.4310 -0.1583 -1.0560
  748MPD2    C111051   2.456   0.893   1.757 -0.7312  0.0527 -0.1820
  748MPD2    C211052   2.580   0.839   1.791 -0.1646  0.2709  0.5669
  748MPD2    C311053   2.677   0.908   1.862 -0.5905 -0.1292  0.2700
  748MPD2    C411054   2.645   1.039   1.906 -0.4717 -0.2132  1.0788
  748MPD2    C511055   2.512   1.082   1.885  0.9863 -0.7081  0.2224
  748MPD2     H11056   2.613   0.743   1.752 -1.3805  0.2134 -0.3404
  748MPD2    H111057   2.711   1.104   1.962 -1.4267  1.4018  0.3324
  748MPD2    H211058   2.322   1.051   1.798 -0.5418  0.3289  0.5749
  748MPD2    H311059   2.487   1.181   1.922  0.8035 -0.4845 -0.4983
  748MPD2     N11060   2.804   0.841   1.880  0.6686  0.6048  0.9725
  748MPD2    H511061   2.813   0.748   1.839  0.1495  1.6483 -1.5517
  748MPD2    N111062   2.358   0.831   1.674 -0.8019 -0.0786  0.2977
  748MPD2    H711063   2.280   0.893   1.653 -0.0535  0.9703  0.6047
  749TMC3    C111064   3.039   0.860   1.849  0.4739  0.1960 -0.2776
  749TMC3    C211065   3.163   0.888   1.909 -0.4245  0.5571  0.0375
  749TMC3    C311066   3.277   0.824   1.867 -0.7162  0.2797  0.4090
  749TMC3    C411067   3.039   0.792   1.735 -0.5302 -1.0937  0.3008
  749TMC3    C511068   3.164   0.753   1.680 -0.4782 -0.8269 -0.5279
  749TMC3    C611069   3.280   0.756   1.753  0.5309  0.1468  0.1798
  749TMC3     C11070   2.914   0.908   1.910  0.5480 -0.4722 -0.1153
  749TMC3     O11071   2.924   1.017   1.972  0.1043  0.0897  0.4987
  749TMC3     H11072   3.160   0.944   2.002 -2.3229  1.6999 -0.7223
  749TMC3    H111073   2.947   0.771   1.682 -0.0453  0.1862 -1.0365
  749TMC3    H211074   3.366   0.693   1.733  0.1690 -0.1699 -0.3519
  749TMC3    C711075   3.174   0.654   1.568  0.2806  0.0609  0.3096
  749TMC3    C811076   3.385   0.834   1.962  0.6949 -0.2804 -1.3547
  749TMC3    O111077   3.263   0.571   1.567 -0.2185 -0.8018 -0.5027
  749TMC3    O211078   3.390   0.932   2.036  0.5692 -0.2909 -0.0405
  750MPD2     C11079   3.910   0.647  10.748  0.2401 -0.8466 -0.0547
  750MPD2    C111080   3.807   0.564  10.780 -0.8525 -0.1844  0.9269
  750MPD2    C211081   3.760   0.479  10.681  1.1808 -0.3336 -0.1511
  750MPD2    C311082   3.813   0.480  10.554  0.5966  0.1177  0.4588
  750MPD2    C411083   3.904   0.567  10.515  0.3006  0.8585  0.0195
  750MPD2    C511084   3.948   0.656  10.617  0.3289 -0.2982 -0.4226
  750MPD2     H11085   3.690   0.399  10.700  2.1024 -1.5181 -1.6457
  750MPD2    H111086   3.949   0.571  10.417  0.1919  1.8439  0.0101
  750MPD2    H211087   3.943   0.710  10.831  1.3278  0.8288 -1.7538
  750MPD2    H311088   4.017   0.737  10.596 -0.2046  1.0870  3.1359
  750MPD2     N11089   3.771   0.397  10.444  0.0709 -0.2716  0.0425
  750MPD2    H511090   3.819   0.426  10.360  0.4013  0.6245  0.5369
  750MPD2    N111091   3.758   0.558  10.913 -0.1859  0.4551  0.1155
  750MPD2    H711092   3.791   0.628  10.978 -0.1107 -0.2286  0.8120
  751TMC3    C111093   3.647   0.232  10.316  0.3351 -0.0797  0.2104
  751TMC3    C211094   3.565   0.120  10.326  0.2880 -0.0455 -0.4026
  751TMC3    C311095   3.608   0.004  10.274 -0.3072  0.0134  0.7328
  751TMC3    C411096   3.757   0.240  10.230 -0.0038 -0.4405  0.1648
  751TMC3    C511097   3.793   0.116  10.169 -0.4731  0.2227  0.3079
  751TMC3    C611098   3.731   0.001  10.203  0.7516 -0.2051 -0.3375
  751TMC3     C11099   3.660   0.318  10.433 -0.4195  0.6370 -0.1694
  751TMC3     O11100   3.581   0.306  10.526  0.2875 -0.1019  0.2909
  751TMC3     H11101   3.474   0.131  10.385  1.3783  0.7508  1.1237
  751TMC3    H111102   3.807   0.334  10.210 -0.9452  0.0452  0.0939
  751TMC3    H211103   3.790   4.635  10.181  0.3996 -0.1743 -1.3993
  751TMC3    C711104   3.896   0.119  10.071  0.4929 -0.0057 -0.1455
  751TMC3    C811105   3.577   4.605  10.351  0.6051  0.2377  0.1888
  751TMC3    O111106   3.954   0.015  10.045 -0.5810 -0.4177  0.0701
  751TMC3    O211107   3.537   4.620  10.463  0.8692 -0.2377 -0.2127
  752TMC3    C111108   2.435   0.847  17.481 -0.1458 -0.2797 -0.2316
  752TMC3    C211109   2.524   0.757  17.542 -0.3517  0.6955 -0.3091
  752TMC3    C311110   2.517   0.742  17.682 -0.6187 -0.1345 -0.2609
  752TMC3    C411111   2.345   0.916  17.557 -0.3425  0.4680 -0.0544
  752TMC3    C511112   2.337   0.898  17.689 -0.5990  0.5497 -0.4873
  752TMC3    C611113   2.428   0.819   0.062  0.4155  0.0041 -0.3462
  752TMC3     C11114   2.465   0.881  17.342  1.2399 -0.1145 -0.4355
  752TMC3     O11115   2.580   0.887  17.308 -0.1198 -0.6922 -0.0473
  752TMC3     H11116   2.600   0.704  17.486  1.3051  0.7613  1.8840
  752TMC3    H111117   2.296   1.006  17.519 -0.6345  0.1133 -0.5216
  752TMC3    H211118   2.408   0.797   0.166  2.0492 -1.0384 -0.2579
  752TMC3    C711119   2.253   0.991   0.068 -0.5411  0.1419 -0.3127
  752TMC3    C811120   2.588   0.636   0.052  0.5078  0.2715  0.1378
  752TMC3    O111121   2.151   1.021   0.010  0.0029  0.5598 -0.0485
  752TMC3    O211122   2.624   0.547  17.672  0.0490 -0.3361 -0.1017
  753TMC3    C111123   4.574   2.474  13.616 -1.2414 -0.3989 -0.0862
  753TMC3    C211124   4.702   2.467  13.662 -0.1460  1.2849 -0.1079
  753TMC3    C311125   0.058   2.354  13.631 -0.1796  0.2345 -0.0423
  753TMC3    C411126   4.519   2.375  13.545  0.5521  0.1022  0.4173
  753TMC3    C511127   4.601   2.272  13.516 -0.0185  0.6455 -0.0203
  753TMC3    C611128   0.005   2.253  13.555  0.9282 -0.2879  0.5186
  753TMC3     C11129   4.504   2.603  13.612  0.0335 -0.0359 -0.0601
  753TMC3     O11130   4.421   2.621  13.524 -0.2268  0.7495 -0.2131
  753TMC3     H11131   0.033   2.547  13.711  2.9438 -1.6982  1.4050
  753TMC3    H111132   4.414   2.375  13.517  1.1694  1.2133 -1.8801
  753TMC3    H211133   0.066   2.171  13.518  2.1989  0.7277  0.3564
  753TMC3    C711134   4.546   2.150  13.443 -0.3638 -0.5104 -0.1014
  753TMC3    C811135   0.192   2.338  13.687 -0.1193 -0.3375 -0.1495
  753TMC3    O111136   4.609   2.046  13.463  0.4610  0.6567 -0.5906
  753TMC3    O211137   0.267   2.270  13.618 -0.4704 -0.3386 -0.0554
  754MPD2     C11138   3.352   1.008  12.939 -0.4579 -0.2649 -0.0609
  754MPD2    C111139   3.321   0.873  12.939  0.3596  0.1736 -0.0024
  754MPD2    C211140   3.196   0.838  12.990 -0.3427 -0.0128  0.4377
  754MPD2    C311141   3.115   0.933  13.051 -0.9854 -0.7894 -0.1471
  754MPD2    C411142   3.155   1.069  13.048 -0.3551  0.7762  0.5551
  754MPD2    C511143   3.275   1.103  12.996 -0.0976  0.6181  0.0539
  754MPD2     H11144   3.173   0.732  12.997  0.5730 -0.1873  0.7476
  754MPD2    H111145   3.085   1.148  13.072 -0.6623  0.8669 -0.6483
  754MPD2    H211146   3.441   1.038  12.886 -2.0873 -1.6648 -3.5992
  754MPD2    H311147   3.299   1.205  12.967  1.1713  0.1075 -0.6860
  754MPD2     N11148   2.998   0.907  13.123  0.0267  0.0753 -0.2766
  754MPD2    H511149   2.950   0.983  13.169 -0.9192 -0.5823 -0.1717
  754MPD2    N111150   3.430   0.781  12.901  0.3118  0.5840  0.8984
  754MPD2    H711151   3.502   0.816  12.839  0.6943  0.6621  1.3923
  755MPD2     C11152   2.423   1.482  13.461  0.0241  0.6124  0.0211
  755MPD2    C111153   2.433   1.382  13.553  0.2369  0.4941  0.5349
  755MPD2    C211154   2.516   1.269  13.536 -0.2776 -0.5026 -0.0806
  755MPD2    C311155   2.562   1.239  13.409  0.2668  0.0944 -0.2448
  755MPD2    C411156   2.537   1.339  13.313 -0.1018  0.1760 -1.0513
  755MPD2    C511157   2.472   1.454  13.340  0.5217  0.3650  0.4510
  755MPD2     H11158   2.520   1.192  13.612  1.6147  0.6501  0.9877
  755MPD2    H111159   2.561   1.321  13.209  3.7039  2.2351 -0.5639
  755MPD2    H211160   2.364   1.572  13.473  2.2679  2.2123 -0.8084
  755MPD2    H311161   2.453   1.529  13.264  1.0193 -0.8512 -0.8777
  755MPD2     N11162   2.626   1.113  13.375 -0.1593  0.1750  0.4510
  755MPD2    H511163   2.661   1.110  13.280  0.2969  0.9187  0.5997
  755MPD2    N111164   2.363   1.388  13.673 -0.5256 -0.0698 -0.2309
  755MPD2    H711165   2.363   1.298  13.721 -0.5216  0.9179  1.6198
  756MPD2     C11166   3.617   2.328   9.716  0.4831  0.4437  0.4270
  756MPD2    C111167   3.537   2.252   9.797  0.6497 -0.5653 -0.4856
  756MPD2    C211168   3.440   2.174   9.734 -0.0531 -0.4620 -0.3455
  756MPD2    C311169   3.419   2.178   9.600 -0.7178  0.4136  0.1006
  756MPD2    C411170   3.497   2.261   9.515 -0.1711  1.0444  0.6217
  756MPD2    C511171   3.594   2.337   9.581  0.7249  0.9008 -0.0038
  756MPD2     H11172   3.368   2.114   9.789 -0.2889  0.9361  0.8659
  756MPD2    H111173   3.468   2.280   9.412 -2.5897  2.0536  1.4887
  756MPD2    H211174   3.695   2.390   9.759  0.8878 -0.5250  1.0997
  756MPD2    H311175   3.657   2.411   9.532  0.9344 -0.9035 -2.4682
  756MPD2     N11176   3.310   2.100   9.556  0.0928  0.0631 -0.0539
  756MPD2    H511177   3.274   2.028   9.616  1.9274 -1.8416 -1.2399
  756MPD2    N111178   3.554   2.261   9.938 -0.2761 -0.0749 -0.7877
  756MPD2    H711179   3.491   2.205   9.995  0.5318  1.0677  1.2403
  757MPD2     C11180   2.891   1.408   9.910  0.7648 -0.2598 -0.3643
  757MPD2    C111181   3.024   1.456   9.902 -0.0994 -0.0677 -0.0673
  757MPD2    C211182   3.039   1.573   9.829 -0.0374  0.8052 -0.2095
  757MPD2    C311183   2.935   1.631   9.755  0.3477 -0.0337 -0.0519
  757MPD2    C411184   2.807   1.572   9.763 -0.2791  0.2722  0.1119
  757MPD2    C511185   2.783   1.475   9.856  0.0709  0.1387  0.0387
  757MPD2     H11186   3.139   1.614   9.814  1.0671 -2.1862 -1.0311
  757MPD2    H111187   2.721   1.628   9.728  1.9758  3.4632 -0.2650
  757MPD2    H211188   2.857   1.318   9.961 -0.9224 -0.3237 -1.5977
  757MPD2    H311189   2.680   1.450   9.881 -1.2633  3.5219 -2.1036
  757MPD2     N11190   2.969   1.735   9.665 -0.5796 -0.3437  0.1546
  757MPD2    H511191   3.062   1.777   9.672 -0.8450 -0.2411  3.1734
  757MPD2    N111192   3.134   1.384   9.956  0.2668  0.1307  0.2151
  757MPD2    H711193   3.101   1.289   9.971  1.7275 -0.6994 -1.9282
  758MPD2     C11194   3.445   1.177  15.820 -0.6376  0.3857  0.3636
  758MPD2    C111195   3.463   1.087  15.921 -0.2302  0.2050  0.0658
  758MPD2    C211196   3.390   1.102  16.035 -0.9284 -0.2051  0.9886
  758MPD2    C311197   3.307   1.211  16.052  0.1414  0.4529 -0.6054
  758MPD2    C411198   3.300   1.305  15.952  0.4478  0.4751 -0.1333
  758MPD2    C511199   3.371   1.293  15.838  0.1127  0.4179 -1.4725
  758MPD2     H11200   3.407   1.035  16.119  1.5786  0.6264  1.1509
  758MPD2    H111201   3.235   1.392  15.965  1.4259  1.1685  0.1262
  758MPD2    H211202   3.511   1.174  15.733  0.7235 -1.1648  1.4520
  758MPD2    H311203   3.374   1.370  15.762 -3.3151  0.6971 -1.2974
  758MPD2     N11204   3.235   1.227  16.169  0.2780 -0.7894  0.2676
  758MPD2    H511205   3.190   1.315  16.191 -0.8407 -2.0883  3.2092
  758MPD2    N111206   3.562   0.994  15.904 -0.5923  0.3363  0.1265
  758MPD2    H711207   3.598   0.978  15.810 -0.5040 -1.3093  0.4294
  759MPD2     C11208   2.190   4.071   9.545  0.0443 -0.3730  0.2992
  759MPD2    C111209   2.149   4.121   9.665 -0.2787  0.3205  0.5847
  759MPD2    C211210   2.204   4.241   9.719  0.2738 -0.3370  0.4112
  759MPD2    C311211   2.324   4.296   9.669  0.0831  0.3701  0.3270
  759MPD2    C411212   2.364   4.240   9.543  0.1882 -0.5390  0.6084
  759MPD2    C511213   2.293   4.135   9.484 -0.2883 -0.2198 -0.1722
  759MPD2     H11214   2.160   4.270   9.813  0.1701  3.8030 -0.9452
  759MPD2    H111215   2.434   4.290   9.477 -0.9221 -0.9281 -0.8837
  759MPD2    H211216   2.132   4.002   9.484  0.0676 -0.7136  0.6596
  759MPD2    H311217   2.319   4.111   9.381  0.0498 -1.1707  0.1363
  759MPD2     N11218   2.394   4.395   9.732 -0.1697 -0.4089 -0.1084
  759MPD2    H511219   2.367   4.422   9.826  0.4992  0.1086 -0.0593
  759MPD2    N111220   2.038   4.064   9.736  0.5256  0.1875  0.2880
  759MPD2    H711221   1.998   4.120   9.811  0.4521 -0.7045  0.9096
  760MPD2     C11222   2.056   0.663  12.038 -0.0618 -0.1297 -0.6313
  760MPD2    C111223   2.190   0.697  12.046 -0.2200 -0.8846 -0.2588
  760MPD2    C211224   2.283   0.609  12.095  0.0932 -0.3962 -0.2717
  760MPD2    C311225   2.241   0.492  12.159 -0.1232 -0.1949 -0.2933
  760MPD2    C411226   2.104   0.468  12.169 -0.2433 -0.7770 -0.0360
  760MPD2    C511227   2.022   0.543  12.094 -0.6240 -0.2143  0.4437
  760MPD2     H11228   2.387   0.640  12.093 -0.0609  0.1726  0.1912
  760MPD2    H111229   2.063   0.373  12.201 -0.0932 -0.8228  0.0209
  760MPD2    H211230   1.981   0.715  11.980  1.6711  1.9953 -0.9790
  760MPD2    H311231   1.916   0.519  12.087 -0.7104  0.3123 -0.0492
  760MPD2     N11232   2.332   0.385  12.198  0.5828 -0.4146  0.2006
  760MPD2    H511233   2.296   0.292  12.217 -0.4244 -0.2982 -1.1223
  760MPD2    N111234   2.242   0.822  11.992 -0.0500  1.3251  0.1203
  760MPD2    H711235   2.343   0.826  12.001 -0.0744 -1.3562  1.6414
  761MPD2     C11236   3.423   4.114  10.374  0.3860 -0.0214  0.2630
  761MPD2    C111237   3.448   4.207  10.470 -0.4625  0.9229  0.2523
  761MPD2    C211238   3.496   4.333  10.443  0.2676 -0.3413 -0.3743
  761MPD2    C311239   3.527   4.371  10.311 -0.5594 -0.7027  1.5804
  761MPD2    C411240   3.510   4.271  10.211  0.0460 -0.2421  0.1616
  761MPD2    C511241   3.452   4.149  10.249 -0.1336 -0.0807  0.4162
  761MPD2     H11242   3.536   4.395  10.522 -0.7792 -0.1196 -0.0247
  761MPD2    H111243   3.523   4.290  10.105  1.5424  0.5166  0.4827
  761MPD2    H211244   3.392   4.013  10.398  1.1019 -0.4152 -0.4410
  761MPD2    H311245   3.427   4.076  10.172 -0.2780  0.3447  0.0558
  761MPD2     N11246   3.563   4.494  10.266  0.3273  0.0660 -0.2270
  761MPD2    H511247   3.583   4.510  10.168 -0.6577 -0.3873 -0.4974
  761MPD2    N111248   3.430   4.186  10.611  0.2169 -0.3057 -0.5165
  761MPD2    H711249   3.463   4.259  10.673 -0.0148 -0.0113 -0.7405
  762MPD2     C11250   3.556   4.630  11.172  0.4389 -0.2853  0.2942
  762MPD2    C111251   3.624   4.541  11.094  0.2248 -0.1352 -0.2043
  762MPD2    C211252   3.729   4.588  11.013 -0.2286 -0.2722  0.2804
  762MPD2    C311253   3.768   4.722  11.016  0.4531 -0.2353  0.1161
  762MPD2    C411254   3.707   0.078  11.106 -0.3032 -0.7327  0.5408
  762MPD2    C511255   3.602   0.035  11.181  0.4597  0.8644 -0.1265
  762MPD2     H11256   3.764   4.531  10.927  0.0950  1.3966 -0.6842
  762MPD2    H111257   3.747   0.175  11.133  1.4777 -1.7511  1.5098
  762MPD2    H211258   3.470   4.603  11.231  1.2407  0.6940  1.9305
  762MPD2    H311259   3.557   0.095  11.259  0.7575  0.7249  0.1505
  762MPD2     N11260   3.859   0.035  10.913  0.1774  0.2959 -0.5568
  762MPD2    H511261   3.886   4.693  10.840 -2.4112 -1.0785 -0.2804
  762MPD2    N111262   3.569   4.414  11.078 -0.1923  0.1090 -0.4799
  762MPD2    H711263   3.486   4.386  11.130 -0.4095  0.7905 -0.4613
  763MPD2     C11264   0.597   0.494  16.231 -0.0588 -0.0189  0.1067
  763MPD2    C111265   0.510   0.594  16.250 -0.0680  0.3225  0.0392
  763MPD2    C211266   0.544   0.690  16.345 -0.0644  0.4618 -0.2449
  763MPD2    C311267   0.653   0.681  16.433 -0.0634 -0.0583 -0.0851
  763MPD2    C411268   0.743   0.573  16.404  0.0903 -0.6953  0.6071
  763MPD2    C511269   0.717   0.494  16.300 -0.7385  0.0735 -0.3633
  763MPD2     H11270   0.475   0.773  16.354 -2.1303 -1.3983  0.9798
  763MPD2    H111271   0.846   0.574  16.437  0.6290 -1.5484 -1.0074
  763MPD2    H211272   0.594   0.425  16.147  0.2544  2.2126 -1.7510
  763MPD2    H311273   0.789   0.415  16.281 -0.4263  0.3197 -0.2116
  763MPD2     N11274   0.683   0.778  16.533  0.0896 -0.0928 -0.5628
  763MPD2    H511275   0.774   0.771  16.579 -0.9650 -1.3981  1.3538
  763MPD2    N111276   0.400   0.599  16.164  0.6218 -0.5708  0.5626
  763MPD2    H711277   0.361   0.691  16.145  0.2110 -1.1762 -1.5042
  764MPD2     C11278   3.181   2.688   0.472  0.3912  0.4074  0.1391
  764MPD2    C111279   3.178   2.620   0.356  0.1791 -0.6068 -0.4816
  764MPD2    C211280   3.191   2.485   0.363  0.1733  0.2244 -0.3445
  764MPD2    C311281   3.189   2.419   0.480 -0.4617 -0.0404 -0.2988
  764MPD2    C411282   3.175   2.489   0.601  0.0489  0.5029  0.0772
  764MPD2    C511283   3.187   2.627   0.590  0.5241 -0.0464 -0.0116
  764MPD2     H11284   3.193   2.428   0.271  1.4373 -0.4641  0.1027
  764MPD2    H111285   3.159   2.446   0.699  0.6220  3.0282  1.2816
  764MPD2    H211286   3.175   2.796   0.474  0.1210  0.4350 -2.1431
  764MPD2    H311287   3.168   2.681   0.682 -1.9299 -2.7124  1.0284
  764MPD2     N11288   3.191   2.276   0.477  0.4101 -0.5553  0.2149
  764MPD2    H511289   3.174   2.233   0.387 -1.9281 -0.7853  0.7667
  764MPD2    N111290   3.156   2.673   0.228 -0.2374  0.3420  0.2035
  764MPD2    H711291   3.155   2.606   0.152 -0.8833  0.7396 -0.1309
  765MPD2     C11292   2.964   4.615  15.885  0.2946 -1.0064  0.3076
  765MPD2    C111293   3.048   4.632  15.985  0.5747 -0.3390  0.3338
  765MPD2    C211294   3.173   4.573  15.977 -0.0922  0.1176  0.7119
  765MPD2    C311295   3.214   4.500  15.861 -0.0509 -0.7133  0.0029
  765MPD2    C411296   3.118   4.478  15.765  0.1436  0.2639  0.6052
  765MPD2    C511297   2.997   4.543  15.777 -0.3943 -0.4525 -0.2141
  765MPD2     H11298   3.232   4.559  16.067  0.9972 -0.4119 -0.0852
  765MPD2    H111299   3.144   4.416  15.679 -1.8738  0.4060 -0.1204
  765MPD2    H211300   2.868   4.664  15.893 -0.0502 -1.3983 -1.4461
  765MPD2    H311301   2.925   4.524  15.698 -0.1957 -1.0842 -0.2416
  765MPD2     N11302   3.333   4.424  15.858  0.4838 -0.3169  0.2108
  765MPD2    H511303   3.350   4.362  15.780 -1.1325  1.8237 -1.8526
  765MPD2    N111304   3.003   4.683  16.112 -0.3388  0.1301  0.1103
  765MPD2    H711305   2.904   4.701  16.122 -1.0601 -1.5510 -3.7948
  766MPD2     C11306   2.417   0.235  16.137 -0.6722 -0.1013 -0.2111
  766MPD2    C111307   2.547   0.213  16.097  0.4825  0.5185  0.0901
  766MPD2    C211308   2.574   0.178  15.968 -0.4619  0.1075  0.0383
  766MPD2    C311309   2.464   0.154  15.888  0.4104  0.1548  0.1795
  766MPD2    C411310   2.333   0.184  15.920  0.3731  0.0453 -0.2142
  766MPD2    C511311   2.309   0.222  16.051  0.2826  0.0223  0.0363
  766MPD2     H11312   2.676   0.146  15.950 -0.4646 -0.1588  0.4909
  766MPD2    H111313   2.249   0.171  15.853 -0.8161  0.9549  1.0802
  766MPD2    H211314   2.394   0.264  16.239 -1.0945  0.4667 -0.4754
  766MPD2    H311315   2.206   0.240  16.081  0.4501 -0.3360  0.8351
  766MPD2     N11316   2.488   0.100  15.756  0.2081  0.5406  0.2992
  766MPD2    H511317   2.408   0.068  15.702 -0.1157  1.4545  0.2299
  766MPD2    N111318   2.663   0.214  16.179  0.1847 -1.2920 -0.0644
  766MPD2    H711319   2.748   0.196  16.127  0.1058 -0.3414 -0.5194
  767MPD2     C11320   2.145   0.437  15.663  0.1508 -0.1175 -0.2179
  767MPD2    C111321   2.270   0.414  15.609 -0.4311  0.0736  1.0245
  767MPD2    C211322   2.266   0.324  15.506  0.0239 -0.4255  0.4028
  767MPD2    C311323   2.149   0.268  15.459 -0.3926 -0.4951  0.3249
  767MPD2    C411324   2.026   0.293  15.523  0.0151 -0.4954 -0.3313
  767MPD2    C511325   2.027   0.376  15.632  0.2288 -0.5398  0.1750
  767MPD2     H11326   2.346   0.295  15.440 -0.4953  0.9693 -0.8440
  767MPD2    H111327   1.929   0.258  15.490 -0.3644  0.7166 -0.5100
  767MPD2    H211328   2.125   0.518  15.732 -0.9547 -0.9248  0.3941
  767MPD2    H311329   1.936   0.410  15.682  0.8268 -0.5553  1.2826
  767MPD2     N11330   2.149   0.188  15.347  0.2217  0.4002 -0.1171
  767MPD2    H511331   2.241   0.167  15.310 -0.0244 -0.4826 -0.2258
  767MPD2    N111332   2.386   0.467  15.665  0.7834 -0.1046 -0.9075
  767MPD2    H711333   2.382   0.538  15.738  0.8083 -0.8609 -0.1701
  768MPD2     C11334   3.632   3.354  10.769 -0.1509  0.1865 -0.1448
  768MPD2    C111335   3.569   3.312  10.879  0.1366 -0.4859 -0.5679
  768MPD2    C211336   3.623   3.340  11.004  0.3234 -0.2222  0.8605
  768MPD2    C311337   3.741   3.418  11.010 -0.9341  0.0930 -1.0636
  768MPD2    C411338   3.801   3.462  10.898  0.8224  0.6990 -0.4835
  768MPD2    C511339   3.748   3.426  10.777 -0.3077  0.1422 -0.1401
  768MPD2     H11340   3.564   3.315  11.091  0.7145  2.2822  1.8498
  768MPD2    H111341   3.898   3.510  10.893  1.3335 -0.3519 -0.5975
  768MPD2    H211342   3.592   3.323  10.672 -0.0839  1.0657 -0.4521
  768MPD2    H311343   3.795   3.445  10.681  0.9363 -0.0169  0.4399
  768MPD2     N11344   3.789   3.433  11.146  0.4065 -0.4796 -0.7756
  768MPD2    H511345   3.737   3.389  11.221 -2.5043  0.6940 -2.1019
  768MPD2    N111346   3.448   3.243  10.878 -0.5475 -0.1521 -0.0393
  768MPD2    H711347   3.416   3.208  10.968  0.0353  1.5212  0.8267
  769MPD2     C11348   4.319   1.075  15.552  0.1259 -0.2666  0.2422
  769MPD2    C111349   4.188   1.123  15.540  0.4178 -0.1806 -0.1940
  769MPD2    C211350   4.156   1.250  15.599 -0.0508  0.8933  0.1859
  769MPD2    C311351   4.258   1.332  15.649 -0.0904 -0.1767 -0.0781
  769MPD2    C411352   4.385   1.284  15.648  0.7290 -0.2341  0.0304
  769MPD2    C511353   4.410   1.156  15.604  0.5065 -0.6912 -0.3078
  769MPD2     H11354   4.057   1.294  15.598 -0.9125 -1.0159  1.3188
  769MPD2    H111355   4.468   1.350  15.668 -0.4670  1.6689 -1.1575
  769MPD2    H211356   4.350   0.980  15.510  0.5335 -0.2830  0.5841
  769MPD2    H311357   4.512   1.119  15.604  0.4733 -0.7701  2.1315
  769MPD2     N11358   4.213   1.460  15.700  0.1186 -0.0565 -0.6651
  769MPD2    H511359   4.114   1.479  15.688  0.1354  2.3804  3.1540
  769MPD2    N111360   4.087   1.032  15.491  0.3561  0.3941  0.2966
  769MPD2    H711361   4.116   0.934  15.486 -2.0112 -0.2790 -0.2793
  770MPD2     C11362   3.155   0.509  15.639 -1.3061 -0.6798  0.4354
  770MPD2    C111363   3.196   0.472  15.515  0.4525 -0.1255 -1.3531
  770MPD2    C211364   3.304   0.538  15.469 -0.5030 -0.6455 -0.1232
  770MPD2    C311365   3.379   0.638  15.538 -0.7050 -0.8677 -0.2146
  770MPD2    C411366   3.334   0.672  15.665 -0.2698 -0.6102 -0.9321
  770MPD2    C511367   3.225   0.607  15.714  0.6821 -0.3057 -0.1884
  770MPD2     H11368   3.354   0.522  15.374  0.0348 -1.1272  0.2365
  770MPD2    H111369   3.378   0.747  15.731  1.3994 -1.6195 -0.8855
  770MPD2    H211370   3.066   0.468  15.683 -0.0098 -0.2419  3.4330
  770MPD2    H311371   3.187   0.638  15.811 -0.5636 -0.9650 -0.4642
  770MPD2     N11372   3.482   0.704  15.470  0.2151  0.3279 -0.6104
  770MPD2    H511373   3.505   0.669  15.378  0.1872 -0.6821 -0.2273
  770MPD2    N111374   3.121   0.373  15.446 -0.5184  0.5818 -0.4392
  770MPD2    H711375   3.036   0.340  15.489  0.6065 -0.8632  0.6616
  771MPD2     C11376   0.529   3.981  13.930  0.5050  0.1739 -0.2056
  771MPD2    C111377   0.487   4.094  13.868  0.2213  0.4904 -0.4087
  771MPD2    C211378   0.406   4.078  13.759  0.7029 -0.0725  0.5738
  771MPD2    C311379   0.375   3.958  13.706  0.2317 -0.3942  0.0719
  771MPD2    C411380   0.417   3.845  13.767 -0.8820  0.5560 -0.4793
  771MPD2    C511381   0.481   3.855  13.888 -0.1756 -0.7933  0.1701
  771MPD2     H11382   0.358   4.163  13.711 -0.0336 -0.7567  0.0878
  771MPD2    H111383   0.392   3.747  13.726 -1.5239  0.0029  1.2225
  771MPD2    H211384   0.589   3.980  14.020 -0.3615  1.2684  0.3815
  771MPD2    H311385   0.509   3.764  13.939 -0.1802  1.0106  3.3900
  771MPD2     N11386   0.289   3.954  13.593 -0.1150  0.3357 -0.1797
  771MPD2    H511387   0.254   4.041  13.554 -1.4140  0.2103  0.6931
  771MPD2    N111388   0.524   4.223  13.897  0.1580 -0.0450 -0.1130
  771MPD2    H711389   0.498   4.295  13.830  6.0485 -0.1308 -2.4603
  772MPD2     C11390   0.309   4.711  13.558 -0.1696 -0.0825  0.1446
  772MPD2    C111391   0.282   4.711  13.692 -0.6351  0.3503 -0.3885
  772MPD2    C211392   0.145   0.003  13.734 -0.6210  0.0060 -0.2291
  772MPD2    C311393   0.044   4.719  13.637  1.1752  0.2169 -0.0054
  772MPD2    C411394   0.074   4.696  13.507 -0.2942  0.3569 -0.1899
  772MPD2    C511395   0.206   4.708  13.467 -0.3461 -0.3693  0.4956
  772MPD2     H11396   0.131   0.025  13.839 -0.4207  0.1480 -0.2312
  772MPD2    H111397   0.004   4.680  13.426  0.4069  0.3502 -0.7845
  772MPD2    H211398   0.411   4.720  13.523 -0.7956  3.6454 -0.7939
  772MPD2    H311399   0.228   4.708  13.361 -0.2306  3.1554  0.5291
  772MPD2     N11400   4.628   0.014  13.669 -0.2465 -0.5410  0.3210
  772MPD2    H511401   4.561   0.014  13.593  2.0277 -2.1537 -1.6863
  772MPD2    N111402   0.372   4.686  13.798 -0.1197  0.2769  0.0825
  772MPD2    H711403   0.338   4.667  13.892  2.5032  1.0918  1.1963
  773MPD2     C11404   4.017   1.053  17.670  0.2252  0.5873  0.0568
  773MPD2    C111405   3.950   0.977   0.076  0.0752  0.1599  0.1121
  773MPD2    C211406   4.010   0.854   0.116 -0.2539  0.0627 -0.4016
  773MPD2    C311407   4.139   0.825   0.079  0.8089  0.9025  0.7282
  773MPD2    C411408   4.200   0.911  17.687 -1.1657  0.5181  0.5912
  773MPD2    C511409   4.144   1.022  17.633 -0.0135  0.6497  0.2134
  773MPD2     H11410   3.958   0.787   0.183 -0.0873  2.3673  1.9916
  773MPD2    H111411   4.298   0.879  17.653 -1.0032 -0.5083  2.0444
  773MPD2    H211412   3.983   1.148  17.631 -1.9605 -0.3059 -0.1861
  773MPD2    H311413   4.201   1.071  17.555 -0.4499  0.0163 -0.5077
  773MPD2     N11414   4.198   0.700   0.097 -0.0478  0.5577  0.0750
  773MPD2    H511415   4.284   0.679   0.046 -1.6002 -0.6437 -2.0463
  773MPD2    N111416   3.827   1.012   0.129  0.2840  0.2194  0.4073
  773MPD2    H711417   3.796   0.953   0.206 -0.4431  0.6518  0.4467
  774MPD2     C11418   3.470   4.469  13.293 -0.0309 -0.0574 -0.1062
  774MPD2    C111419   3.418   4.544  13.392  0.0612 -0.2794 -0.6584
  774MPD2    C211420   3.397   4.680  13.357  0.3692 -0.2561  0.2261
  774MPD2    C311421   3.415   0.008  13.233  0.1330  0.1379  0.5625
  774MPD2    C411422   3.463   4.648  13.134 -0.8519 -0.5444 -0.2529
  774MPD2    C511423   3.498   4.522  13.165  0.0997 -0.1073  0.0571
  774MPD2     H11424   3.362   0.026  13.433 -0.0709  0.8738 -0.9874
  774MPD2    H111425   3.486   4.689  13.036  0.4908  0.1557  0.3631
  774MPD2    H211426   3.467   4.362  13.313 -0.3381  0.2842  1.6754
  774MPD2    H311427   3.529   4.463  13.079  1.5356  1.4723 -0.5125
  774MPD2     N11428   3.399   0.146  13.214  1.0868 -0.1473  0.4254
  774MPD2    H511429   3.345   0.185  13.291 -0.0050  0.0286 -0.4313
  774MPD2    N111430   3.377   4.487  13.513  0.3721  1.3276 -0.1897
  774MPD2    H711431   3.410   4.393  13.531 -0.4090  0.9866 -0.5344
  775MPD2     C11432   4.690   1.520  16.200 -0.0334  0.1243  0.1875
  775MPD2    C111433   4.609   1.628  16.189 -0.3611 -0.0499 -0.3929
  775MPD2    C211434   4.639   1.727  16.096 -0.1184  0.0882 -0.5888
  775MPD2    C311435   0.025   1.720  16.015 -0.4252  0.1016  0.1664
  775MPD2    C411436   0.113   1.611  16.019  0.6566 -0.1873  0.2268
  775MPD2    C511437   0.076   1.515  16.116 -0.1288 -0.5813  0.1421
  775MPD2     H11438   4.571   1.811  16.084 -1.6314 -1.0353  0.1728
  775MPD2    H111439   0.211   1.605  15.973  1.6813  1.7828  2.1643
  775MPD2    H211440   4.683   1.451  16.284 -0.8158 -0.7552 -0.6065
  775MPD2    H311441   0.147   1.434  16.130 -0.1377 -0.9102 -1.7215
  775MPD2     N11442   0.067   1.822  15.934 -0.2102 -0.4121 -0.3825
  775MPD2    H511443   0.124   1.803  15.852  1.5838  0.4631  0.6497
  775MPD2    N111444   4.504   1.640  16.286 -0.5425 -0.3912  0.4159
  775MPD2    H711445   4.489   1.564  16.351  0.5309  0.2079  1.3747
  776MPD2     C11446   3.813   1.057  11.280 -0.3732 -0.0472 -0.5682
  776MPD2    C111447   3.689   0.999  11.312 -0.8471 -1.0535  0.1799
  776MPD2    C211448   3.612   1.062  11.400 -1.1505 -0.3094 -0.1997
  776MPD2    C311449   3.643   1.193  11.439  0.4202  0.7675  0.4664
  776MPD2    C411450   3.762   1.256  11.405 -0.7817 -0.8327 -0.3889
  776MPD2    C511451   3.842   1.184  11.324  0.3225 -0.4972  0.7664
  776MPD2     H11452   3.512   1.031  11.428 -0.4969 -0.7217  1.6552
  776MPD2    H111453   3.797   1.354  11.439 -1.3626 -0.5299 -0.6710
  776MPD2    H211454   3.888   1.008  11.218 -0.0481 -0.2422 -0.0257
  776MPD2    H311455   3.937   1.231  11.299  1.1568 -3.0195 -0.8720
  776MPD2     N11456   3.540   1.270  11.511 -0.1403  0.4563 -0.0455
  776MPD2    H511457   3.555   1.370  11.510 -1.3932  0.6644  1.5628
  776MPD2    N111458   3.658   0.869  11.269 -0.4473 -0.3253 -0.0233
  776MPD2    H711459   3.721   0.818  11.209 -0.4742 -0.6006  0.1801
  777MPD2     C11460   3.520   4.537   1.615  0.5390  0.1696  0.1521
  777MPD2    C111461   3.652   4.561   1.602 -0.0353  0.5106 -0.2277
  777MPD2    C211462   3.726   4.533   1.488  0.1146 -0.1241  0.5636
  777MPD2    C311463   3.659   4.477   1.379  0.1337  0.1063 -0.0373
  777MPD2    C411464   3.525   4.440   1.392  0.3903 -0.5507 -0.2104
  777MPD2    C511465   3.458   4.468   1.509 -1.1916  0.3539 -0.0923
  777MPD2     H11466   3.826   4.573   1.479  0.7404 -1.7666  0.2750
  777MPD2    H111467   3.478   4.391   1.307 -0.9707 -1.8199  1.2786
  777MPD2    H211468   3.461   4.548   1.705 -1.0168 -2.9127 -0.5075
  777MPD2    H311469   3.359   4.423   1.512 -0.6850 -0.7321  0.4502
  777MPD2     N11470   3.745   4.471   1.264  0.5018  0.0231  0.1211
  777MPD2    H511471   3.841   4.503   1.267 -0.0757  2.0533 -2.8098
  777MPD2    N111472   3.708   4.629   1.714  0.3257 -0.1275  0.2150
  777MPD2    H711473   3.643   4.652   1.787 -0.5812  0.0193 -0.6405
  778MPD2     C11474   0.114   4.295  15.373 -0.8435  0.4627  0.3437
  778MPD2    C111475   0.107   4.200  15.270  0.1076 -0.0256  0.6233
  778MPD2    C211476   0.157   4.233  15.149  0.3829 -0.4958  0.3656
  778MPD2    C311477   0.219   4.357  15.123  0.2637 -0.9372  0.4253
  778MPD2    C411478   0.222   4.446  15.222  0.1423 -0.4560  0.5872
  778MPD2    C511479   0.162   4.422  15.343  0.1897  0.0079 -0.6077
  778MPD2     H11480   0.159   4.168  15.062  0.5967 -1.2001  0.9037
  778MPD2    H111481   0.253   4.547  15.197 -2.6699  0.5522  1.2070
  778MPD2    H211482   0.063   4.278  15.467  1.3623  1.8327  1.7731
  778MPD2    H311483   0.175   4.497  15.420 -1.5366  0.6426 -0.9380
  778MPD2     N11484   0.275   4.387  14.997  0.0016  0.1979 -0.1118
  778MPD2    H511485   0.264   4.314  14.927  1.5255  2.8138 -3.0925
  778MPD2    N111486   0.044   4.076  15.284 -0.2917  0.1974  0.0212
  778MPD2    H711487   0.063   4.005  15.215 -1.8093  0.0218 -0.1972
  779MPD2     C11488   0.018   3.037  14.797 -0.0806  0.6564 -0.3250
  779MPD2    C111489   0.111   3.048  14.700  0.1931 -0.6623 -0.4572
  779MPD2    C211490   0.148   3.174  14.656 -0.0610  0.1731 -0.0400
  779MPD2    C311491   0.096   3.283  14.724 -0.4401  0.3328  0.1449
  779MPD2    C411492   0.021   3.266  14.837  0.4911  0.2968  0.6897
  779MPD2    C511493   4.693   3.142  14.857  0.1053 -0.8628 -0.4095
  779MPD2     H11494   0.187   3.190  14.556 -2.0123 -2.5772 -1.2168
  779MPD2    H111495   4.697   3.340  14.901 -1.2784 -0.1269 -0.1077
  779MPD2    H211496   4.687   2.943  14.803  1.6536 -0.3481 -0.6460
  779MPD2    H311497   4.621   3.127  14.937 -0.8699  0.4644 -1.0378
  779MPD2     N11498   0.119   3.411  14.666  0.4254 -0.1919  0.2136
  779MPD2    H511499   0.176   3.412  14.583 -3.0904  0.4634 -2.1963
  779MPD2    N111500   0.166   2.940  14.626  0.2012 -0.5821 -0.7384
  779MPD2    H711501   0.216   2.959  14.540  1.0292 -2.1541 -0.6051
  780MPD2     C11502   3.453   2.950   0.632  0.5616  0.0286 -0.1507
  780MPD2    C111503   3.528   2.878   0.540  0.2489 -0.0815 -0.6824
  780MPD2    C211504   3.632   2.944   0.474  0.0130  0.2953  0.1523
  780MPD2    C311505   3.671   3.075   0.508 -0.2457 -0.0445  0.6447
  780MPD2    C411506   3.581   3.150   0.592  0.6960  1.0081 -1.0047
  780MPD2    C511507   3.482   3.078   0.658 -0.5637 -0.1743 -0.7059
  780MPD2     H11508   3.692   2.886   0.405  2.0951  1.5064  0.9302
  780MPD2    H111509   3.598   3.251   0.627 -2.4236  0.4167  2.1817
  780MPD2    H211510   3.375   2.900   0.689  2.0271 -0.5292  1.3926
  780MPD2    H311511   3.421   3.128   0.732  0.2286 -0.5900  0.2351
  780MPD2     N11512   3.785   3.127   0.449 -0.3406 -0.2086 -0.5664
  780MPD2    H511513   3.832   3.060   0.389  1.2228  2.0799 -1.8706
  780MPD2    N111514   3.510   2.739   0.532  0.2939 -0.0418 -0.2488
  780MPD2    H711515   3.435   2.699   0.588  0.0996  2.2089  1.1357
  781MPD2     C11516   1.481   0.102  12.158 -0.7992  0.1022  0.2543
  781MPD2    C111517   1.611   0.079  12.209 -0.0953  0.4952 -0.5088
  781MPD2    C211518   1.715   0.134  12.133  0.1125 -0.7877  0.0301
  781MPD2    C311519   1.699   0.209  12.023 -0.5027  0.2403 -0.3091
  781MPD2    C411520   1.573   0.235  11.978  1.1370  0.2861  0.2387
  781MPD2    C511521   1.465   0.182  12.043  0.2851 -0.1198  0.5070
  781MPD2     H11522   1.814   0.099  12.161 -0.3150 -1.1053  1.1468
  781MPD2    H111523   1.554   0.309  11.901  1.2430 -0.9601 -1.0046
  781MPD2    H211524   1.388   0.075  12.205  0.1132 -0.6825  1.6017
  781MPD2    H311525   1.361   0.198  12.016 -0.0401 -1.6411  0.8149
  781MPD2     N11526   1.812   0.245  11.948 -0.4019 -0.1872  0.3640
  781MPD2    H511527   1.782   0.292  11.863 -0.0649  1.1140  0.9594
  781MPD2    N111528   1.630   0.006  12.329 -0.3016 -0.3226  0.3693
  781MPD2    H711529   1.724   0.001  12.368 -0.5260  2.2250  1.2252
  782MPD2     C11530   4.234   0.453  10.654  0.5026  0.0693 -0.0036
  782MPD2    C111531   4.362   0.498  10.628  0.8116  0.4135  0.0973
  782MPD2    C211532   4.428   0.575  10.720 -0.1452 -0.3594  0.1657
  782MPD2    C311533   4.361   0.613  10.834  0.5020  0.0611  0.0588
  782MPD2    C411534   4.241   0.561  10.865  0.3882  0.1833 -0.5502
  782MPD2    C511535   4.181   0.473  10.776 -0.0467  0.1880 -0.8793
  782MPD2     H11536   4.530   0.609  10.706  0.0258 -1.6699 -1.7661
  782MPD2    H111537   4.196   0.584  10.961 -0.1975 -1.2126 -0.4901
  782MPD2    H211538   4.188   0.382  10.586  1.6501 -1.0314  0.3590
  782MPD2    H311539   4.080   0.442  10.802 -0.4094 -0.0820 -2.5896
  782MPD2     N11540   4.422   0.715  10.906 -0.0693  0.1178  0.7770
  782MPD2    H511541   4.514   0.748  10.879 -0.2290 -2.2818 -2.6723
  782MPD2    N111542   4.440   0.452  10.518 -0.0697 -0.0683  0.4164
  782MPD2    H711543   4.530   0.497  10.502  0.1643 -0.2060  1.3497
  783MPD2     C11544   3.987   0.383   9.842 -0.5515 -0.7480 -0.3908
  783MPD2    C111545   4.013   0.284   9.937  0.4196  0.2584 -0.3920
  783MPD2    C211546   4.138   0.246   9.965 -0.2318  0.7159  1.1424
  783MPD2    C311547   4.246   0.305   9.909  0.0454 -0.0666 -0.3570
  783MPD2    C411548   4.228   0.386   9.799  0.5227  0.2671 -0.1835
  783MPD2    C511549   4.096   0.424   9.766  0.3026 -0.3293  0.2631
  783MPD2     H11550   4.151   0.184  10.052 -1.8710  2.1971  2.4439
  783MPD2    H111551   4.309   0.431   9.742  0.4535  2.0562  1.1264
  783MPD2    H211552   3.886   0.409   9.814 -1.2392 -1.9933  0.9398
  783MPD2    H311553   4.069   0.480   9.678 -0.5955  0.3050  0.9459
  783MPD2     N11554   4.372   0.282   9.975  0.1922 -0.3025  0.3418
  783MPD2    H511555   4.366   0.210  10.046  0.3459  0.4489  1.1124
  783MPD2    N111556   3.896   0.235  10.004  0.0280  0.2412 -0.0532
  783MPD2    H711557   3.812   0.291   9.999  0.5270  1.1739  2.0330
  784MPD2     C11558   1.261   1.524   0.984  0.2777 -0.0893  0.3806
  784MPD2    C111559   1.247   1.599   1.097  0.9290 -0.2934 -0.4052
  784MPD2    C211560   1.124   1.634   1.137 -0.4169  0.3225 -0.5709
  784MPD2    C311561   1.013   1.584   1.067 -0.4190  0.1073 -0.6566
  784MPD2    C411562   1.027   1.502   0.957 -0.2148 -0.4007 -0.5836
  784MPD2    C511563   1.152   1.471   0.914 -0.0456  0.0547 -0.0932
  784MPD2     H11564   1.103   1.702   1.218  1.5969  0.8145 -0.4668
  784MPD2    H111565   0.939   1.467   0.903 -0.5720 -0.0316 -0.2450
  784MPD2    H211566   1.359   1.504   0.942  0.9224  0.3476  1.6862
  784MPD2    H311567   1.161   1.394   0.839 -3.1224  0.7428 -1.1505
  784MPD2     N11568   0.891   1.633   1.111  1.0241 -0.7503 -0.2057
  784MPD2    H511569   0.888   1.701   1.186 -1.0267  0.1721 -1.1425
  784MPD2    N111570   1.353   1.653   1.166  0.5326  0.0821  0.5600
  784MPD2    H711571   1.326   1.709   1.246  1.1859  4.0005 -1.9830
  785MPD2     C11572   1.997   4.499  10.478 -0.0582  0.5990  0.2816
  785MPD2    C111573   1.904   4.590  10.526  0.3025  0.2033  0.0727
  785MPD2    C211574   1.789   4.611  10.451  0.4310  0.4349  0.1420
  785MPD2    C311575   1.762   4.539  10.328  0.5828  0.7142  0.5283
  785MPD2    C411576   1.853   4.434  10.297  0.3038 -0.7230  0.2629
  785MPD2    C511577   1.968   4.413  10.372 -0.0758  0.5285  0.1586
  785MPD2     H11578   1.722   4.691  10.480  0.6539  0.5047  0.4682
  785MPD2    H111579   1.847   4.365  10.213 -1.9752 -0.5397  0.2684
  785MPD2    H211580   2.081   4.482  10.545 -0.7681 -1.4992  0.6512
  785MPD2    H311581   2.037   4.331  10.358 -1.5547 -0.7121  0.2247
  785MPD2     N11582   1.651   4.579  10.255 -0.0862 -0.3744 -0.6090
  785MPD2    H511583   1.590   4.650  10.292 -1.8968 -2.6914  0.8811
  785MPD2    N111584   1.927   4.669  10.641  0.7916 -0.4215 -0.2411
  785MPD2    H711585   1.850   0.007  10.662 -0.7878 -1.6664 -2.4329
  786MPD2     C11586   0.489   2.414  14.810 -0.2136 -0.3807  0.2662
  786MPD2    C111587   0.614   2.362  14.802  0.5119 -0.0172  0.4180
  786MPD2    C211588   0.698   2.403  14.903 -0.3131  0.1266 -0.7256
  786MPD2    C311589   0.660   2.488  15.006 -0.5357  0.1507 -0.1749
  786MPD2    C411590   0.530   2.537  15.009  0.0069  0.7902  0.7218
  786MPD2    C511591   0.445   2.495  14.908 -0.0984  0.3195  0.4317
  786MPD2     H11592   0.796   2.355  14.912  0.1358  0.8189 -1.9576
  786MPD2    H111593   0.492   2.604  15.086  0.0986 -1.2068  2.4875
  786MPD2    H211594   0.414   2.371  14.744  1.0570 -0.8960 -0.8286
  786MPD2    H311595   0.340   2.516  14.925  0.1441  1.7376  0.1297
  786MPD2     N11596   0.747   2.535  15.100  0.4239 -0.2058 -0.0806
  786MPD2    H511597   0.713   2.608  15.161 -0.6558  1.9071 -3.2667
  786MPD2    N111598   0.657   2.270  14.704 -0.4297 -0.2181 -0.1150
  786MPD2    H711599   0.732   2.207  14.730 -1.5584 -0.6765  2.0204
  787MPD2     C11600   0.774   1.750  15.030 -0.5064 -0.1924  0.0110
  787MPD2    C111601   0.788   1.713  14.898  0.5473  0.4749 -0.0283
  787MPD2    C211602   0.824   1.584  14.866 -0.3043 -0.0542  0.8900
  787MPD2    C311603   0.842   1.494  14.967 -0.0530  0.6095  0.3095
  787MPD2    C411604   0.823   1.529  15.098 -0.2692 -0.1393 -0.0929
  787MPD2    C511605   0.797   1.656  15.122 -0.4368 -0.3860  0.4899
  787MPD2     H11606   0.850   1.561  14.764  1.3602  0.7590  1.1314
  787MPD2    H111607   0.844   1.463  15.181  0.4766  1.7338  1.2222
  787MPD2    H211608   0.724   1.843  15.056  1.4299  0.9877 -0.5039
  787MPD2    H311609   0.790   1.696  15.223  0.4340 -1.2997  0.9160
  787MPD2     N11610   0.902   1.372  14.928 -0.0349 -0.5686 -0.5181
  787MPD2    H511611   0.917   1.362  14.829 -0.0242 -0.9440 -0.4786
  787MPD2    N111612   0.739   1.803  14.800 -0.6677 -0.7016 -0.2577
  787MPD2    H711613   0.712   1.895  14.833 -2.7504 -1.5950  0.5147
  788MPD2     C11614   3.360   0.218   0.920  0.2321  0.3642  0.3916
  788MPD2    C111615   3.243   0.222   0.839 -0.5005 -0.2189  0.3085
  788MPD2    C211616   3.153   0.325   0.855  0.1777  0.6421  0.1489
  788MPD2    C311617   3.190   0.431   0.928  0.8283  0.5764  0.2530
  788MPD2    C411618   3.317   0.442   0.973  0.5543  0.1230 -0.0684
  788MPD2    C511619   3.399   0.338   0.973 -1.4106 -0.2513 -0.2057
  788MPD2     H11620   3.054   0.319   0.812  0.8389 -0.1009 -1.2910
  788MPD2    H111621   3.347   0.536   1.020  0.5727  0.1939 -0.2213
  788MPD2    H211622   3.424   0.131   0.918 -1.2375 -0.6787 -1.0743
  788MPD2    H311623   3.497   0.348   1.019 -2.6142 -1.2159  2.5744
  788MPD2     N11624   3.106   0.545   0.928 -1.0447 -0.2763  0.4389
  788MPD2    H511625   3.150   0.627   0.970  1.9174 -0.0792 -3.0986
  788MPD2    N111626   3.197   0.115   0.755  0.1759 -0.3264 -0.0838
  788MPD2    H711627   3.104   0.126   0.715 -0.8614  0.7411  2.6440
  789MPD2     C11628   3.329   0.480  16.788 -0.2381 -0.4133  0.0217
  789MPD2    C111629   3.248   0.373  16.789 -0.1060  0.0098  0.0083
  789MPD2    C211630   3.111   0.395  16.810 -0.4387  0.4283 -0.3554
  789MPD2    C311631   3.067   0.523  16.836  0.8242 -0.4450 -0.5364
  789MPD2    C411632   3.154   0.631  16.836 -0.3764 -0.4392 -0.5278
  789MPD2    C511633   3.288   0.605  16.820  0.3922 -0.2827  0.7082
  789MPD2     H11634   3.040   0.315  16.797  1.2130 -1.0375 -0.2766
  789MPD2    H111635   3.123   0.732  16.861 -1.9427 -0.9284 -0.4796
  789MPD2    H211636   3.435   0.464  16.771 -0.2235  2.0992 -2.1281
  789MPD2    H311637   3.361   0.685  16.815 -0.7023  0.6352 -0.5452
  789MPD2     N11638   2.927   0.541  16.849 -0.2805  0.0131 -0.2948
  789MPD2    H511639   2.880   0.452  16.861  0.1410 -0.1908 -0.1387
  789MPD2    N111640   3.294   0.244  16.765  0.8154  0.0122  0.9802
  789MPD2    H711641   3.229   0.166  16.760  1.0911 -0.1539 -0.1731
  790MPD2     C11642   3.886   2.422  13.372 -0.1200  0.0924  0.0111
  790MPD2    C111643   3.866   2.311  13.451  0.2071 -0.8285  0.0142
  790MPD2    C211644   3.763   2.226  13.410  0.3993  0.3934 -0.1070
  790MPD2    C311645   3.696   2.228  13.290  0.0957 -0.8201  0.5173
  790MPD2    C411646   3.707   2.340  13.220  1.3801  0.0200  0.3026
  790MPD2    C511647   3.806   2.430  13.260 -0.7408 -0.1930  0.1121
  790MPD2     H11648   3.749   2.137  13.470 -0.3498  0.9652  0.5628
  790MPD2    H111649   3.659   2.362  13.126 -0.7169 -3.2561  0.6078
  790MPD2    H211650   3.957   2.499  13.399 -1.0062 -0.0268  2.6284
  790MPD2    H311651   3.833   2.515  13.199  0.2618 -0.8134 -0.3208
  790MPD2     N11652   3.619   2.117  13.249  0.0371 -0.1942  0.1058
  790MPD2    H511653   3.607   2.049  13.323  0.6679 -0.3465  0.0668
  790MPD2    N111654   3.951   2.301  13.564 -0.0236  0.8193 -0.3348
  790MPD2    H711655   4.023   2.372  13.577 -1.3756  1.7903  1.8795
  791MPD2     C11656   3.032   1.936  12.737  0.3211 -0.8754  0.3261
  791MPD2    C111657   3.072   1.825  12.813  0.8847 -0.0219  0.4579
  791MPD2    C211658   2.991   1.712  12.828 -0.1811 -0.4971  0.0078
  791MPD2    C311659   2.872   1.695  12.772  0.2303 -0.1405 -0.0317
  791MPD2    C411660   2.830   1.801  12.685  0.6809  0.3700 -0.2871
  791MPD2    C511661   2.910   1.920  12.670 -0.9379 -0.0478 -0.3715
  791MPD2     H11662   3.029   1.627  12.883  1.1837 -1.0493 -1.7953
  791MPD2    H111663   2.752   1.778  12.613  0.7003 -0.0461 -0.1782
  791MPD2    H211664   3.089   2.027  12.729 -0.8497 -0.4522 -3.4559
  791MPD2    H311665   2.871   1.993  12.599  0.7969  0.9287 -0.3141
  791MPD2     N11666   2.808   1.573  12.789 -0.7585 -0.5399 -0.2631
  791MPD2    H511667   2.850   1.510  12.856 -0.3490  0.2978  0.2620
  791MPD2    N111668   3.196   1.845  12.872 -0.4058 -0.5619 -0.1311
  791MPD2    H711669   3.240   1.934  12.849  2.2678 -1.6297  0.7714
  792MPD2     C11670   4.074   1.999  11.491  0.3582 -0.0090 -0.9917
  792MPD2    C111671   4.015   2.083  11.400 -0.6455 -0.2819  0.8045
  792MPD2    C211672   3.883   2.059  11.361  0.4988 -0.2565 -0.1739
  792MPD2    C311673   3.809   1.962  11.420  0.7623 -0.5543 -0.2101
  792MPD2    C411674   3.868   1.892  11.522  0.9621  0.6898  0.1414
  792MPD2    C511675   3.995   1.910  11.557 -0.6162 -0.4507 -0.6837
  792MPD2     H11676   3.837   2.115  11.280  0.7143  0.5596  0.2678
  792MPD2    H111677   3.813   1.819  11.581  1.4320 -0.1388 -0.4499
  792MPD2    H211678   4.181   2.009  11.506  0.2267 -1.4553  0.9707
  792MPD2    H311679   4.042   1.861  11.642  1.0336  1.8807 -0.2603
  792MPD2     N11680   3.669   1.940  11.382  0.0064 -0.0456  0.0019
  792MPD2    H511681   3.624   1.861  11.428  0.3260  0.8574  1.8764
  792MPD2    N111682   4.096   2.186  11.339 -0.1708 -0.3738 -0.2173
  792MPD2    H711683   4.186   2.201  11.383  0.4189  2.2607 -2.3707
  793MPD2     C11684   3.175   2.237  10.587 -1.3234  0.0078  0.1920
  793MPD2    C111685   3.301   2.222  10.630  0.9036 -0.2362 -0.6688
  793MPD2    C211686   3.323   2.174  10.760  0.2666  0.8910  0.3326
  793MPD2    C311687   3.226   2.129  10.845  0.3684 -0.1402  0.8335
  793MPD2    C411688   3.099   2.131  10.795 -0.3140  0.2588 -0.6779
  793MPD2    C511689   3.075   2.190  10.671 -0.2006  0.2562 -0.1177
  793MPD2     H11690   3.423   2.173  10.801 -0.4692 -0.6290  2.1082
  793MPD2    H111691   3.010   2.091  10.842 -0.7732  3.7462  1.3990
  793MPD2    H211692   3.139   2.268  10.490 -2.1207 -0.7224  0.2516
  793MPD2    H311693   2.973   2.190  10.636 -0.6612  3.5966  1.2356
  793MPD2     N11694   3.256   2.081  10.972 -0.6191 -1.0268  0.2465
  793MPD2    H511695   3.353   2.093  11.000  0.7152 -1.7061 -4.1878
  793MPD2    N111696   3.417   2.254  10.548 -0.1036 -0.0962 -0.1279
  793MPD2    H711697   3.512   2.238  10.582  1.2405  0.3647 -3.6670
  794MPD2     C11698   3.344   1.738   0.204 -0.0092 -0.1923 -0.3922
  794MPD2    C111699   3.394   1.644   0.109 -0.2745 -0.7423  0.0919
  794MPD2    C211700   3.386   1.673  17.671  0.1794 -0.9126 -0.4822
  794MPD2    C311701   3.336   1.798  17.634 -0.9903  0.1307 -0.6263
  794MPD2    C411702   3.295   1.891   0.031 -0.4576  0.0344 -0.2070
  794MPD2    C511703   3.306   1.863   0.163  0.1377  0.2423  0.6627
  794MPD2     H11704   3.408   1.603  17.592  2.0237  0.5385 -1.2719
  794MPD2    H111705   3.265   1.991   0.003 -1.0454 -0.1770 -0.3149
  794MPD2    H211706   3.352   1.727   0.311 -0.0602  0.7304 -0.2919
  794MPD2    H311707   3.293   1.935   0.242 -1.6037  1.3288 -0.6255
  794MPD2     N11708   3.314   1.837  17.501 -0.5581  0.3161 -0.1099
  794MPD2    H511709   3.278   1.930  17.483 -0.7560  0.5321  1.4085
  794MPD2    N111710   3.444   1.520   0.144  0.8470  0.0206  0.1920
  794MPD2    H711711   3.465   1.458   0.067  1.0615  2.8808 -2.0405
  795MPD2     C11712   1.437   3.396  13.588 -0.9062  0.7184  0.3695
  795MPD2    C111713   1.352   3.306  13.652 -0.2173 -0.3994  0.4302
  795MPD2    C211714   1.401   3.218  13.742  0.0886 -0.2947  0.8669
  795MPD2    C311715   1.539   3.211  13.770 -0.3737  0.9356 -0.4762
  795MPD2    C411716   1.624   3.307  13.708  0.1470 -0.0955 -0.7220
  795MPD2    C511717   1.573   3.396  13.618 -0.1859 -0.2050  0.3810
  795MPD2     H11718   1.333   3.142  13.781 -1.2298  0.3562 -0.1789
  795MPD2    H111719   1.730   3.314  13.732 -0.0302 -0.4239  0.1841
  795MPD2    H211720   1.403   3.475  13.523  0.8695  1.8160  0.7935
  795MPD2    H311721   1.630   3.472  13.568 -0.5740 -0.4891 -0.5003
  795MPD2     N11722   1.581   3.113  13.864  0.2786 -0.0128 -0.1472
  795MPD2    H511723   1.513   3.057  13.915  0.0489 -1.0669 -1.6121
  795MPD2    N111724   1.210   3.303  13.628  0.2718  0.4158 -0.1455
  795MPD2    H711725   1.168   3.232  13.687  0.2443 -0.2613 -0.9867
  796MPD2     C11726   0.655   0.214  15.841 -0.2780 -0.2127  0.4810
  796MPD2    C111727   0.774   0.228  15.909 -0.4211  0.5568 -0.6552
  796MPD2    C211728   0.827   0.353  15.939 -0.3925  0.0170 -0.1976
  796MPD2    C311729   0.762   0.468  15.898  0.2085 -0.6610  0.9594
  796MPD2    C411730   0.647   0.454  15.830  0.0515 -0.3467 -0.2782
  796MPD2    C511731   0.592   0.328  15.801  1.0495  0.5491 -0.0949
  796MPD2     H11732   0.919   0.364  15.993  0.4866  0.7743 -1.8387
  796MPD2    H111733   0.586   0.538  15.800 -1.7934 -1.3693  0.5893
  796MPD2    H211734   0.600   0.123  15.821 -0.5540 -0.3093  1.6839
  796MPD2    H311735   0.499   0.323  15.745  2.1112  1.5464 -1.9278
  796MPD2     N11736   0.815   0.598  15.931 -0.4136  0.2258  0.1734
  796MPD2    H511737   0.906   0.594  15.974 -0.4365  0.6697  0.2575
  796MPD2    N111738   0.835   0.104  15.940  0.1076 -0.2476  0.3258
  796MPD2    H711739   0.783   0.020  15.917  1.9835 -1.5916  0.9530
  797MPD2     C11740   1.531   4.567  17.206  0.0346  0.9377 -0.7885
  797MPD2    C111741   1.589   4.689  17.195  0.3376 -0.1507 -0.1676
  797MPD2    C211742   1.578   0.033  17.075 -0.0986  0.2464 -0.6636
  797MPD2    C311743   1.501   4.707  16.971 -0.0246  0.3995 -0.1378
  797MPD2    C411744   1.439   4.589  16.992 -0.4424 -0.9020  0.0714
  797MPD2    C511745   1.448   4.524  17.110 -0.0356 -0.6725 -0.1597
  797MPD2     H11746   1.641   0.120  17.067 -0.1293 -0.0467 -3.8467
  797MPD2    H111747   1.380   4.547  16.911  1.6869  0.2588 -2.1127
  797MPD2    H211748   1.546   4.506  17.294  1.2117  0.9511 -0.9716
  797MPD2    H311749   1.394   4.431  17.127 -1.1633 -0.3615 -2.0022
  797MPD2     N11750   1.507   0.053  16.848 -0.1962 -0.0799  0.4620
  797MPD2    H511751   1.493   4.710  16.773  0.0789 -1.3133  1.4908
  797MPD2    N111752   1.685   0.015  17.291  0.3359 -0.2185 -0.5002
  797MPD2    H711753   1.738   0.095  17.258  0.0576  0.5305  0.8896
  798MPD2     C11754   1.785   0.640  17.038  0.1222 -0.0698  0.2242
  798MPD2    C111755   1.873   0.540  17.005 -0.1543  0.0913  0.3658
  798MPD2    C211756   1.928   0.455  17.102 -0.2620  0.0923 -0.1795
  798MPD2    C311757   1.900   0.477  17.229 -0.3303  0.4192 -0.4639
  798MPD2    C411758   1.819   0.589  17.264  0.7429 -0.0062  0.3887
  798MPD2    C511759   1.749   0.668  17.167 -0.0918  0.1273 -0.1800
  798MPD2     H11760   1.994   0.375  17.069  1.8470  2.4710 -1.7602
  798MPD2    H111761   1.814   0.629  17.365  0.9990 -1.2980  0.9193
  798MPD2    H211762   1.733   0.701  16.964  2.6269  0.7635 -0.8520
  798MPD2    H311763   1.679   0.746  17.193  0.4377  0.5919 -0.1630
  798MPD2     N11764   1.943   0.386  17.335  0.0810 -0.1793 -0.7228
  798MPD2    H511765   2.010   0.314  17.308 -0.6442 -0.6732 -1.1924
  798MPD2    N111766   1.865   0.507  16.866 -0.9110 -0.4162  0.7493
  798MPD2    H711767   1.810   0.567  16.807 -0.0378 -0.2868  0.0642
  799MPD2     C11768   0.722   1.210  14.392 -0.7870 -0.0549 -0.6228
  799MPD2    C111769   0.708   1.081  14.343 -0.6805  0.1436  1.1243
  799MPD2    C211770   0.624   1.060  14.236 -0.0030 -0.2507 -0.3892
  799MPD2    C311771   0.558   1.169  14.184 -0.3974 -0.1135  0.4672
  799MPD2    C411772   0.571   1.297  14.232 -0.0126  0.3194  0.0579
  799MPD2    C511773   0.650   1.314  14.345  0.0196 -0.3771 -0.0083
  799MPD2     H11774   0.620   0.963  14.189 -1.9041 -0.2194 -0.2760
  799MPD2    H111775   0.517   1.386  14.204  0.7804  0.7977  0.0621
  799MPD2    H211776   0.778   1.218  14.484  0.3843  0.3755 -1.3742
  799MPD2    H311777   0.660   1.410  14.394  1.0952 -1.2931  1.5439
  799MPD2     N11778   0.494   1.171  14.058  0.0428  0.6023  0.5251
  799MPD2    H511779   0.493   1.266  14.021 -0.1708 -1.1197 -3.8292
  799MPD2    N111780   0.792   0.973  14.385 -0.1072  0.5395 -0.0757
  799MPD2    H711781   0.780   0.890  14.329  1.8330  0.1284  0.1325
  800MPD2     C11782   0.850   2.595  14.130  0.0883 -0.0715  0.5856
  800MPD2    C111783   0.987   2.579  14.113 -0.0917  0.3795  0.2979
  800MPD2    C211784   1.041   2.545  13.990 -0.0489 -0.2109  0.1481
  800MPD2    C311785   0.963   2.496  13.894 -0.3759 -0.1935 -0.1242
  800MPD2    C411786   0.827   2.500  13.919 -0.7434 -0.4729  0.4890
  800MPD2    C511787   0.771   2.566  14.023  0.3032 -0.1702 -0.3285
  800MPD2     H11788   1.149   2.538  13.977  0.2312  1.6165  1.4306
  800MPD2    H111789   0.758   2.454  13.849 -0.9324 -0.6165  0.7706
  800MPD2    H211790   0.809   2.626  14.225 -0.9329  1.7481 -0.4623
  800MPD2    H311791   0.663   2.573  14.035  0.4145  0.1760  0.4762
  800MPD2     N11792   1.027   2.451  13.778  0.1348 -0.4752 -0.0711
  800MPD2    H511793   1.129   2.452  13.774  0.2055 -5.0999  0.4864
  800MPD2    N111794   1.062   2.623  14.220  0.3713  0.5003  0.0589
  800MPD2    H711795   1.017   2.684  14.288  2.9506  0.6837  1.5819
  801MPD2     C11796   1.368   3.288  14.189  1.1812 -0.0877  0.3877
  801MPD2    C111797   1.290   3.224  14.288 -0.1999  0.1273  0.5558
  801MPD2    C211798   1.247   3.297  14.401  0.1493  0.4353  0.0830
  801MPD2    C311799   1.279   3.434  14.409 -0.6305 -0.1238  0.6342
  801MPD2    C411800   1.354   3.494  14.314 -0.0112  0.2300 -0.4466
  801MPD2    C511801   1.393   3.424  14.204 -1.0984  0.1735 -0.6000
  801MPD2     H11802   1.198   3.250  14.486  0.7779  0.8729  0.6933
  801MPD2    H111803   1.374   3.600  14.327  2.1055 -0.1095 -0.8922
  801MPD2    H211804   1.418   3.246  14.103 -0.6484  0.3926 -0.9155
  801MPD2    H311805   1.436   3.479  14.121  2.0019  1.5791  1.9443
  801MPD2     N11806   1.232   3.513  14.516  0.1011 -0.1589 -0.1267
  801MPD2    H511807   1.273   3.605  14.531  2.1592 -1.0938  0.0672
  801MPD2    N111808   1.296   3.087  14.298  0.3567  0.8212 -0.5061
  801MPD2    H711809   1.255   3.050  14.383  1.0532  0.8727 -0.1429
  802MPD2     C11810   0.792   2.840   0.183  0.0587 -0.2656  0.1370
  802MPD2    C111811   0.774   2.971   0.140 -0.3684  0.2786 -0.9986
  802MPD2    C211812   0.852   3.018   0.033 -0.0652 -0.0277 -0.0675
  802MPD2    C311813   0.947   2.938  17.670 -0.2022  0.0802  0.2115
  802MPD2    C411814   0.955   2.806   0.017  0.1509 -0.0310 -0.9940
  802MPD2    C511815   0.887   2.764   0.126  0.5591  0.1743 -0.4754
  802MPD2     H11816   0.837   3.122   0.004  0.1519  0.2135  0.6866
  802MPD2    H111817   1.027   2.738  17.666 -0.1412 -1.2379  0.3909
  802MPD2    H211818   0.741   2.811   0.274  0.3198  2.1549  1.0519
  802MPD2    H311819   0.897   2.661   0.157 -1.0842  0.1272 -0.1260
  802MPD2     N11820   1.001   2.986  17.546 -0.7117 -0.4525  0.1834
  802MPD2    H511821   0.983   3.080  17.513 -0.9129 -0.5557  0.0032
  802MPD2    N111822   0.676   3.060   0.191  0.2702 -0.6193  0.1550
  802MPD2    H711823   0.672   3.157   0.160 -1.0389 -0.7660 -0.1563
  803MPD2     C11824   2.037   1.364  11.836 -0.0021  0.2078 -0.1763
  803MPD2    C111825   2.011   1.466  11.923  0.2653  0.5520 -0.9049
  803MPD2    C211826   1.924   1.449  12.022 -0.0499 -0.2554  0.7704
  803MPD2    C311827   1.860   1.325  12.043 -0.3851 -1.1397 -0.0725
  803MPD2    C411828   1.887   1.229  11.953  0.2329 -0.0731  0.4230
  803MPD2    C511829   1.964   1.248  11.842  0.5037 -0.1852 -0.0546
  803MPD2     H11830   1.923   1.530  12.094 -2.3852  0.1048  0.3564
  803MPD2    H111831   1.843   1.130  11.956 -0.9509  0.4101 -0.7658
  803MPD2    H211832   2.112   1.369  11.758  0.0254  0.6678 -0.1203
  803MPD2    H311833   1.985   1.168  11.772  0.8883  1.1330 -1.4528
  803MPD2     N11834   1.767   1.303  12.143  0.0920 -0.0728 -0.0946
  803MPD2    H511835   1.737   1.207  12.159  0.7073 -0.6180 -2.2309
  803MPD2    N111836   2.086   1.584  11.921 -0.0667  0.3781  0.4500
  803MPD2    H711837   2.067   1.645  12.000  0.9328 -1.2343  1.9290
  804MPD2     C11838   1.379   3.139  17.314  0.0996  0.2176 -0.2102
  804MPD2    C111839   1.399   3.179  17.447  0.8664 -0.4413 -0.2974
  804MPD2    C211840   1.423   3.314  17.475  0.1485  0.3162 -0.7262
  804MPD2    C311841   1.442   3.409  17.378 -0.3144 -0.1342 -0.5346
  804MPD2    C411842   1.429   3.368  17.250 -0.7794  0.0278  0.1732
  804MPD2    C511843   1.387   3.239  17.223 -0.5599  0.1818  1.0686
  804MPD2     H11844   1.426   3.351  17.577  0.0057  3.6270 -1.8947
  804MPD2    H111845   1.432   3.437  17.167 -1.0939  0.3558  0.4347
  804MPD2    H211846   1.368   3.035  17.287 -1.2160  0.3577 -0.2222
  804MPD2    H311847   1.385   3.209  17.119 -0.7732 -1.6420  1.5878
  804MPD2     N11848   1.483   3.538  17.417  0.4947 -0.0566 -0.2423
  804MPD2    H511849   1.488   3.547  17.518  0.3436  0.8423 -0.3120
  804MPD2    N111850   1.382   3.090  17.553 -0.0003 -0.2798  0.2233
  804MPD2    H711851   1.374   3.136  17.643 -2.2313 -0.4518  0.0978
  805MPD2     C11852   0.474   1.511  15.861 -0.3386 -0.3943 -0.2299
  805MPD2    C111853   0.550   1.551  15.758 -0.5851  0.2009  0.5164
  805MPD2    C211854   0.689   1.528  15.764 -0.4015  0.2176  0.4477
  805MPD2    C311855   0.746   1.469  15.877 -0.3901 -0.1738  0.3218
  805MPD2    C411856   0.663   1.437  15.981  0.3540 -0.9801 -0.2935
  805MPD2    C511857   0.532   1.451  15.970  0.5136  0.4742 -0.3130
  805MPD2     H11858   0.746   1.544  15.673  0.0232 -0.7842  0.5344
  805MPD2    H111859   0.697   1.388  16.071  0.0069 -1.1447 -0.2503
  805MPD2    H211860   0.368   1.533  15.864 -0.5244 -1.3015 -0.2372
  805MPD2    H311861   0.471   1.412  16.052  1.4425  1.0329  0.6438
  805MPD2     N11862   0.889   1.442  15.881  0.0825 -0.2403 -0.1710
  805MPD2    H511863   0.944   1.475  15.803  0.8121 -0.5926  0.2008
  805MPD2    N111864   0.492   1.614  15.644 -0.3092 -0.1885 -0.0523
  805MPD2    H711865   0.560   1.638  15.573  0.8881 -1.5155  0.6587
  806MPD2     C11866   2.347   1.414   0.885 -0.2090  0.4007 -1.0448
  806MPD2    C111867   2.236   1.444   0.959 -0.0235  0.5011  0.3854
  806MPD2    C211868   2.174   1.567   0.935  0.5346 -0.6539  0.1218
  806MPD2    C311869   2.225   1.647   0.836  0.3087 -0.6707 -0.1665
  806MPD2    C411870   2.333   1.618   0.758 -0.5839 -0.4845  0.0883
  806MPD2    C511871   2.394   1.498   0.786  0.0421  0.3486  0.7611
  806MPD2     H11872   2.095   1.615   0.991  0.0031 -1.7953  0.3545
  806MPD2    H111873   2.377   1.681   0.682 -1.9776  0.7020  0.2640
  806MPD2    H211874   2.409   1.330   0.913 -0.7413  0.2240 -0.4069
  806MPD2    H311875   2.474   1.473   0.718  0.7522  0.7386  1.4556
  806MPD2     N11876   2.152   1.763   0.808 -0.0996 -0.4538  0.7832
  806MPD2    H511877   2.063   1.783   0.853 -1.1735  1.0633 -1.9837
  806MPD2    N111878   2.174   1.359   1.051 -0.6639  0.2444  0.1029
  806MPD2    H711879   2.219   1.268   1.054 -2.0678 -0.4930 -0.7533
  807MPD2     C11880   1.511   1.140   1.569  0.1495  0.1731  0.0250
  807MPD2    C111881   1.613   1.046   1.561 -0.4630 -0.4115 -0.1651
  807MPD2    C211882   1.590   0.921   1.619 -0.0035  0.3403  0.3999
  807MPD2    C311883   1.469   0.888   1.681  0.0886 -0.5553 -0.1316
  807MPD2    C411884   1.374   0.992   1.695 -0.2107 -0.0048 -0.2126
  807MPD2    C511885   1.400   1.118   1.644  0.0943  0.8493 -0.3981
  807MPD2     H11886   1.663   0.840   1.618  0.6468  0.9433 -3.5501
  807MPD2    H111887   1.280   0.977   1.746  1.5963 -0.4391  3.0187
  807MPD2    H211888   1.512   1.236   1.518  2.0449  0.6983  1.0807
  807MPD2    H311889   1.326   1.197   1.647  0.0065  0.8739 -3.1409
  807MPD2     N11890   1.446   0.755   1.719  0.2526 -0.5007 -0.4159
  807MPD2    H511891   1.526   0.693   1.711  1.1084  0.7710 -1.6777
  807MPD2    N111892   1.740   1.073   1.501  0.7878  0.7272 -0.2811
  807MPD2    H711893   1.805   0.995   1.499 -2.0001 -1.6139  1.3111
  808MPD2     C11894   1.652   2.804   9.770 -0.1553 -0.3494 -0.0425
  808MPD2    C111895   1.567   2.865   9.865  0.1222  0.0335  0.0593
  808MPD2    C211896   1.549   2.998   9.856 -0.3387  0.2069 -0.5735
  808MPD2    C311897   1.603   3.072   9.752 -0.3747 -0.3210 -0.0670
  808MPD2    C411898   1.700   3.014   9.674  0.0291 -0.1330 -0.2472
  808MPD2    C511899   1.725   2.886   9.686 -0.0608 -0.3037  0.5036
  808MPD2     H11900   1.488   3.043   9.934  1.4684  0.0078  0.9475
  808MPD2    H111901   1.741   3.053   9.581 -0.4095  0.9535  0.0225
  808MPD2    H211902   1.667   2.697   9.769 -0.4685 -0.4089  0.7668
  808MPD2    H311903   1.795   2.839   9.617  0.9019 -0.5924  1.6816
  808MPD2     N11904   1.566   3.206   9.727  0.4538 -0.0955 -0.5872
  808MPD2    H511905   1.626   3.248   9.657 -1.4687  1.5988 -1.2318
  808MPD2    N111906   1.501   2.793   9.966 -0.3038  0.7125 -0.0502
  808MPD2    H711907   1.469   2.844  10.048  1.3132 -0.2273  1.1666
  809MPD2     C11908   1.993   3.835   9.299  0.1794  0.0844  0.1489
  809MPD2    C111909   1.964   3.698   9.314  0.4991  0.1854 -0.1831
  809MPD2    C211910   1.842   3.662   9.364 -0.4911  0.5538  0.7309
  809MPD2    C311911   1.751   3.752   9.410 -0.0480  0.0801 -0.5182
  809MPD2    C411912   1.782   3.881   9.405  0.0282 -0.7034  0.0626
  809MPD2    C511913   1.896   3.927   9.345  0.9453 -0.5099 -0.8534
  809MPD2     H11914   1.817   3.556   9.368 -0.8661  0.6416  0.7904
  809MPD2    H111915   1.709   3.956   9.436  0.9574  1.1023 -2.0978
  809MPD2    H211916   2.087   3.873   9.262 -0.3082  2.8140  1.6977
  809MPD2    H311917   1.925   4.030   9.326  2.2287 -1.0068 -1.5133
  809MPD2     N11918   1.619   3.710   9.460  0.3382 -0.1005 -0.9115
  809MPD2    H511919   1.566   3.775   9.518  3.0866 -0.4516  1.9841
  809MPD2    N111920   2.060   3.602   9.281 -0.4385  0.0790 -0.1629
  809MPD2    H711921   2.039   3.503   9.285 -1.2975  0.1865 -2.0968
  810MPD2     C11922   0.932   2.432  10.081  0.2163  0.6456 -0.4495
  810MPD2    C111923   0.908   2.328  10.164  0.2579 -0.4218  0.0593
  810MPD2    C211924   0.935   2.353  10.298 -0.1699  0.5192  0.3081
  810MPD2    C311925   0.991   2.469  10.343  0.5261  0.1906  0.3106
  810MPD2    C411926   1.011   2.577  10.256 -1.1446  0.0782  0.2033
  810MPD2    C511927   0.980   2.556  10.129 -0.2029  0.2169  0.1608
  810MPD2     H11928   0.924   2.267  10.363 -0.8725  0.5361  0.2146
  810MPD2    H111929   1.049   2.676  10.283 -1.5318  0.1313  0.5519
  810MPD2    H211930   0.911   2.421   9.975  0.4783  0.2671 -0.4639
  810MPD2    H311931   0.985   2.645  10.067  2.1089 -1.0504 -1.4406
  810MPD2     N11932   1.032   2.486  10.481  0.4422 -0.6388  0.3712
  810MPD2    H511933   1.081   2.572  10.503  1.1828 -0.2755 -2.7212
  810MPD2    N111934   0.856   2.209  10.102 -0.9178  0.2347 -0.1603
  810MPD2    H711935   0.836   2.221  10.003 -0.6402 -2.6404 -0.5530
  811MPD2     C11936   0.064   1.989  10.131 -0.0329  0.1075 -0.4496
  811MPD2    C111937   0.161   2.031  10.046 -0.1066  0.7336 -0.5369
  811MPD2    C211938   0.123   2.136   9.964  0.4164  0.4635  0.1125
  811MPD2    C311939   0.013   2.218   9.989  0.4556 -0.0305 -0.5515
  811MPD2    C411940   4.644   2.171  10.075 -0.3321  0.3068  0.3887
  811MPD2    C511941   4.666   2.053  10.146 -0.0723  0.2146 -0.0664
  811MPD2     H11942   0.196   2.170   9.892 -1.4016  3.5310 -0.2914
  811MPD2    H111943   4.549   2.223  10.082 -0.7664 -0.2734 -1.0059
  811MPD2    H211944   0.077   1.904  10.198  1.1239  0.1822 -0.5712
  811MPD2    H311945   4.593   2.013  10.215  0.9356 -1.3884  0.0608
  811MPD2     N11946   4.720   2.336   9.921  0.4520  0.6050 -0.3754
  811MPD2    H511947   0.069   2.368   9.856  0.8536 -2.7037 -1.5277
  811MPD2    N111948   0.290   1.985  10.067  0.5569  0.3370  0.8090
  811MPD2    H711949   0.299   1.920  10.144 -0.9643 -0.1058  0.6198
  812MPD2     C11950   4.559   1.644  12.343  0.6173 -0.0386 -0.1014
  812MPD2    C111951   4.432   1.610  12.374 -0.8155 -0.0966  0.2849
  812MPD2    C211952   4.409   1.512  12.477  0.2120  0.6099 -0.2696
  812MPD2    C311953   4.516   1.462  12.547  0.5293  0.2772 -0.9506
  812MPD2    C411954   4.641   1.493  12.505 -0.6024 -0.3933  0.1623
  812MPD2    C511955   4.664   1.583  12.406  0.0212  0.0353 -0.3105
  812MPD2     H11956   4.309   1.492  12.514  0.2294 -1.7128 -1.5155
  812MPD2    H111957   0.013   1.457  12.545 -1.4882 -1.8879  0.8972
  812MPD2    H211958   4.572   1.718  12.265  0.7932  0.7801  0.6992
  812MPD2    H311959   0.045   1.614  12.394  0.0572 -0.3774 -1.0972
  812MPD2     N11960   4.485   1.378  12.659  0.2467  0.2293 -0.2469
  812MPD2    H511961   4.388   1.362  12.684 -0.1523  1.0336 -1.3063
  812MPD2    N111962   4.332   1.690  12.302  0.1524 -0.6280  0.3393
  812MPD2    H711963   4.356   1.760  12.232 -0.5546  1.5156  2.2200
  813MPD2     C11964   3.632   3.766  13.071  0.0573 -0.2562  0.1706
  813MPD2    C111965   3.737   3.694  13.124  0.4340  0.3971  0.2313
  813MPD2    C211966   3.716   3.625  13.240  0.2778 -0.1346 -0.4382
  813MPD2    C311967   3.592   3.605  13.302 -0.2567  0.0444  0.0786
  813MPD2    C411968   3.485   3.660  13.228  0.2670 -0.2345  0.2648
  813MPD2    C511969   3.505   3.739  13.118 -0.2479  0.3478 -0.4916
  813MPD2     H11970   3.805   3.586  13.288  0.9705 -1.7273 -3.0220
  813MPD2    H111971   3.381   3.647  13.254  0.2073  0.0257  0.1490
  813MPD2    H211972   3.650   3.834  12.988  0.0439 -0.6193 -0.1328
  813MPD2    H311973   3.419   3.795  13.082 -0.9642  0.4446  1.3103
  813MPD2     N11974   3.578   3.541  13.427 -0.1908  0.9464 -0.2284
  813MPD2    H511975   3.665   3.504  13.464 -0.8776 -1.7024 -1.2831
  813MPD2    N111976   3.871   3.728  13.088  0.7071  0.1297 -0.0712
  813MPD2    H711977   3.870   3.796  13.013  0.1392  0.5474  0.3165
  814MPD2     C11978   4.382   0.144  12.416  0.3843  0.7052  0.1375
  814MPD2    C111979   4.375   0.219  12.298 -0.0991  0.4082 -0.2414
  814MPD2    C211980   4.457   0.322  12.286 -0.3979  0.7534  0.2982
  814MPD2    C311981   4.537   0.361  12.391 -0.4456  0.6643 -0.3128
  814MPD2    C411982   4.552   0.279  12.503 -0.1739 -1.1866  0.6738
  814MPD2    C511983   4.469   0.174  12.513 -0.1656  0.3806  0.6154
  814MPD2     H11984   4.453   0.380  12.195 -1.3209  0.1680 -0.0367
  814MPD2    H111985   4.628   0.288  12.580 -1.0346 -1.4850  1.5747
  814MPD2    H211986   4.324   0.053  12.426  1.8121 -0.0827  1.1598
  814MPD2    H311987   4.470   0.110  12.600  3.5634  1.4877  1.4011
  814MPD2     N11988   4.613   0.473  12.388 -0.1099  0.7124  0.0103
  814MPD2    H511989   4.656   0.506  12.474  1.1555  1.9065 -1.0802
  814MPD2    N111990   4.284   0.186  12.193 -0.1045 -1.2654 -0.3768
  814MPD2    H711991   4.267   0.255  12.121  0.9653  0.6163  1.1780
  815MPD2     C11992   4.547   3.123  12.487  0.6452 -0.1152  0.2287
  815MPD2    C111993   4.499   3.184  12.378 -0.4370  0.5087  0.2362
  815MPD2    C211994   4.368   3.170  12.349 -0.0580 -0.3195  0.5292
  815MPD2    C311995   4.284   3.092  12.436 -0.1092 -0.3374 -0.4931
  815MPD2    C411996   4.337   3.042  12.551  0.2396 -0.1084  0.3011
  815MPD2    C511997   4.468   3.058  12.576  0.4598 -0.7365 -0.1482
  815MPD2     H11998   4.311   3.211  12.266  2.1899 -1.0034 -1.3497
  815MPD2    H111999   4.284   2.971  12.614  1.3616 -1.5136 -0.3567
  815MPD2    H212000   4.653   3.130  12.506  0.0125 -1.1272  4.1908
  815MPD2    H312001   4.519   3.000  12.652  2.8760 -0.3683 -1.4827
  815MPD2     N12002   4.162   3.056  12.382  0.1008 -0.0372 -0.2168
  815MPD2    H512003   4.147   3.084  12.286  2.7275  1.9016 -0.0559
  815MPD2    N112004   4.591   3.247  12.297  0.0523 -0.2947  0.1824
  815MPD2    H712005   4.689   3.236  12.322  1.4959  1.1382 -4.9107
  816MPD2     C12006   4.446   2.692  17.531 -0.0180 -0.5092 -0.5719
  816MPD2    C112007   4.525   2.797  17.576 -0.2697  0.3787 -0.6238
  816MPD2    C212008   4.666   2.780  17.571  0.2993 -0.1553  0.1619
  816MPD2    C312009   4.722   2.663  17.524  0.7589  0.0721 -0.4442
  816MPD2    C412010   4.638   2.561  17.487 -0.8017  0.1981 -0.2499
  816MPD2    C512011   4.502   2.581  17.485  0.2664  0.3238 -0.7579
  816MPD2     H12012   0.016   2.856  17.595 -1.2877  0.3730  3.2515
  816MPD2    H112013   4.676   2.464  17.457 -1.5722 -0.1457 -0.1179
  816MPD2    H212014   4.338   2.690  17.526 -0.0133  0.9210 -1.3723
  816MPD2    H312015   4.432   2.503  17.456 -1.7793  1.1724  1.9553
  816MPD2     N12016   0.145   2.661  17.501 -0.0154  0.0918  0.1080
  816MPD2    H512017   0.184   2.750  17.531  0.2033 -0.0701  0.3031
  816MPD2    N112018   4.479   2.926  17.611  0.0045 -0.1264 -0.0733
  816MPD2    H712019   4.538   2.992  17.661  0.2189  0.3749 -0.9950
  817MPD2     C12020   4.382   4.631   9.749 -0.0411  0.5378 -0.2301
  817MPD2    C112021   4.402   4.554   9.633  0.4077 -0.0640 -0.5054
  817MPD2    C212022   4.361   4.611   9.510  1.0666  0.3317 -0.3764
  817MPD2    C312023   4.309   0.014   9.506 -0.6291 -0.2036 -0.0416
  817MPD2    C412024   4.288   0.081   9.626 -0.3285  0.2568 -0.0537
  817MPD2    C512025   4.321   0.034   9.743  0.0998  0.5244 -0.2701
  817MPD2     H12026   4.377   4.564   9.413 -1.2796 -4.8725  1.7969
  817MPD2    H112027   4.241   0.178   9.626  0.4004  0.6040 -0.1974
  817MPD2    H212028   4.420   4.590   9.842 -0.0329  0.0768 -0.4383
  817MPD2    H312029   4.294   0.070   9.842 -0.5497 -1.1874  0.1918
  817MPD2     N12030   4.280   0.066   9.378  0.3803 -0.3323  0.3369
  817MPD2    H512031   4.333   0.023   9.302  0.4660 -3.1889  2.0054
  817MPD2    N112032   4.439   4.418   9.639  0.5620 -0.3942 -0.3624
  817MPD2    H712033   4.449   4.371   9.549  1.1900 -0.0916 -0.4526
  818MPD2     C12034   3.091   4.355   9.993  0.4179 -0.1503 -0.2195
  818MPD2    C112035   3.009   4.258  10.055 -0.0182 -0.0479  0.6133
  818MPD2    C212036   2.906   4.200   9.983 -0.0515 -0.3383  0.1578
  818MPD2    C312037   2.879   4.239   9.857  0.5884  0.3754  0.0534
  818MPD2    C412038   2.963   4.328   9.793 -0.3439  0.3198  0.8793
  818MPD2    C512039   3.068   4.385   9.864 -1.1141 -0.3900 -0.5351
  818MPD2     H12040   2.848   4.126  10.037  2.3304 -1.5560  1.0735
  818MPD2    H112041   2.945   4.366   9.693 -1.5514 -0.3147  0.8528
  818MPD2    H212042   3.162   4.411  10.054  2.8064 -1.2417 -2.0023
  818MPD2    H312043   3.129   4.460   9.815  1.9379 -2.2705  0.4026
  818MPD2     N12044   2.763   4.198   9.793  0.2696  0.1000  0.0645
  818MPD2    H512045   2.767   4.200   9.692  1.4034  0.3421  0.1184
  818MPD2    N112046   3.019   4.221  10.189  0.1251  0.1474 -0.4408
  818MPD2    H712047   2.954   4.150  10.222  2.6783 -1.6591  0.6753
  819MPD2     C12048   1.344   1.157  15.773  0.5617  0.1888 -0.6248
  819MPD2    C112049   1.298   1.030  15.808  0.1705 -0.2900  0.6296
  819MPD2    C212050   1.379   0.945  15.878  0.5347 -0.0402 -0.2141
  819MPD2    C312051   1.506   0.982  15.921 -0.1799 -0.0531  0.1961
  819MPD2    C412052   1.544   1.108  15.893 -0.0027  0.0814 -0.3205
  819MPD2    C512053   1.460   1.196  15.837  0.6714 -0.4044 -0.0625
  819MPD2     H12054   1.359   0.838  15.886  2.5344 -0.5036 -1.4327
  819MPD2    H112055   1.646   1.145  15.905  0.3907 -2.0366  2.7592
  819MPD2    H212056   1.291   1.243  15.734 -0.0473  0.7586  1.4750
  819MPD2    H312057   1.478   1.303  15.828 -1.2329 -0.1650 -1.1637
  819MPD2     N12058   1.590   0.884  15.977  0.4515 -0.4837 -0.1105
  819MPD2    H512059   1.538   0.800  15.999 -1.1060 -0.3711 -3.4555
  819MPD2    N112060   1.179   0.982  15.745  0.1593 -0.3101  0.4485
  819MPD2    H712061   1.118   1.050  15.700 -0.2932 -1.4944 -0.7310
  820MPD2     C12062   0.547   1.190  15.033 -0.1994 -0.3141 -0.1479
  820MPD2    C112063   0.565   1.255  15.151  0.0084 -0.0750 -0.4505
  820MPD2    C212064   0.638   1.191  15.249 -1.0155  0.4122  0.2168
  820MPD2    C312065   0.684   1.062  15.235 -0.1101  0.1813 -0.2667
  820MPD2    C412066   0.664   0.995  15.119  0.3330  0.0986  0.3749
  820MPD2    C512067   0.595   1.060  15.011 -0.5145  0.3128  0.0554
  820MPD2     H12068   0.641   1.238  15.347  1.3350 -0.5796  0.6217
  820MPD2    H112069   0.702   0.896  15.099 -0.3654  0.1120 -1.0082
  820MPD2    H212070   0.495   1.240  14.953  3.8808 -1.2859 -3.3739
  820MPD2    H312071   0.599   1.016  14.912 -2.5042 -2.3434  1.1665
  820MPD2     N12072   0.737   0.982  15.345 -0.6021 -0.6068  0.3187
  820MPD2    H512073   0.744   0.883  15.323  0.5555 -0.7528  1.3118
  820MPD2    N112074   0.494   1.374  15.174 -0.6277 -0.5876  1.1459
  820MPD2    H712075   0.436   1.406  15.098  0.7491 -1.0446 -0.0854
  821MPD2     C12076   1.254   2.213  13.031  0.3156 -0.5714 -0.4571
  821MPD2    C112077   1.258   2.287  13.152  0.0763  0.2596 -0.0180
  821MPD2    C212078   1.333   2.404  13.152  0.4372  0.1462 -0.4024
  821MPD2    C312079   1.405   2.442  13.037  0.2185  0.1307  0.0879
  821MPD2    C412080   1.393   2.374  12.924  0.1473 -1.0351 -0.0076
  821MPD2    C512081   1.330   2.253  12.925  0.1569  0.3638  0.8361
  821MPD2     H12082   1.328   2.464  13.242  0.8715 -0.5219  0.0718
  821MPD2    H112083   1.444   2.418  12.839 -2.7655 -0.5102 -1.4687
  821MPD2    H212084   1.191   2.125  13.025  1.4905 -1.3427 -1.6011
  821MPD2    H312085   1.322   2.195  12.834 -1.8776  3.0585 -0.6648
  821MPD2     N12086   1.482   2.565  13.036  0.2042 -0.1108  1.3931
  821MPD2    H512087   1.542   2.579  12.956 -0.8095 -0.4153  0.5813
  821MPD2    N112088   1.187   2.258  13.272 -0.3520  0.3814 -0.5776
  821MPD2    H712089   1.178   2.329  13.343 -2.5937 -1.2256  0.7553
  822MPD2     C12090   1.856   2.328  16.093  0.0966 -0.4648  0.2653
  822MPD2    C112091   1.913   2.310  16.217  0.1483  0.5481 -0.5254
  822MPD2    C212092   1.889   2.400  16.314 -0.7068 -0.1663  0.7236
  822MPD2    C312093   1.818   2.520  16.293 -0.5811  0.1780 -0.1173
  822MPD2    C412094   1.758   2.533  16.166  0.9717  0.1731  0.2863
  822MPD2    C512095   1.783   2.441  16.066  0.7138 -0.2648  0.1065
  822MPD2     H12096   1.945   2.398  16.407  1.7787 -0.0906 -0.7893
  822MPD2    H112097   1.696   2.614  16.131 -0.2323 -1.0452 -0.4055
  822MPD2    H212098   1.871   2.258  16.012  1.2308  1.2355 -1.0001
  822MPD2    H312099   1.742   2.466  15.969  1.1430 -0.0359 -0.0145
  822MPD2     N12100   1.816   2.622  16.386  0.0063 -0.0913 -0.4820
  822MPD2    H512101   1.858   2.592  16.473  0.3905 -2.6361 -1.5301
  822MPD2    N112102   2.001   2.203  16.245  0.7527  0.0316 -0.1568
  822MPD2    H712103   2.062   2.220  16.325  2.0640 -0.9085 -0.9584
  823MPD2     C12104   1.685   2.992  17.176  0.0389  0.8625 -0.2221
  823MPD2    C112105   1.728   2.901  17.079  0.6631 -0.5734  0.7592
  823MPD2    C212106   1.809   2.794  17.123 -0.1256 -0.3331  0.0096
  823MPD2    C312107   1.831   2.770  17.261  0.5446 -0.1099 -0.2674
  823MPD2    C412108   1.781   2.858  17.353 -0.6320  0.4110  0.1433
  823MPD2    C512109   1.709   2.965  17.313 -0.6650  0.7735 -0.6051
  823MPD2     H12110   1.857   2.725  17.054  1.3500  0.3099  0.3967
  823MPD2    H112111   1.801   2.837  17.458 -0.5440 -1.0759 -0.1695
  823MPD2    H212112   1.640   3.087  17.148 -3.4398 -0.8785 -0.5194
  823MPD2    H312113   1.681   3.038  17.388  0.9075  1.6617 -0.8885
  823MPD2     N12114   1.898   2.653  17.315 -0.4253  1.0382  0.1075
  823MPD2    H512115   1.900   2.647  17.416 -0.7384  1.7537  0.1528
  823MPD2    N112116   1.701   2.917  16.945 -0.3924 -0.0366 -0.2158
  823MPD2    H712117   1.687   3.015  16.922  1.9407  0.3487  0.0574
  824MPD2     C12118   2.212   1.356  16.135  0.1422 -0.0273  0.6493
  824MPD2    C112119   2.315   1.444  16.164 -1.0378  0.3176  0.0608
  824MPD2    C212120   2.441   1.402  16.154 -0.0539 -0.5740 -0.7160
  824MPD2    C312121   2.475   1.277  16.100 -0.4273  0.1642 -0.0673
  824MPD2    C412122   2.365   1.189  16.071 -0.0414  1.0951  0.6820
  824MPD2    C512123   2.242   1.234  16.083 -0.3003  0.3976 -0.2113
  824MPD2     H12124   2.524   1.470  16.172  1.5059 -2.8954  0.8727
  824MPD2    H112125   2.382   1.090  16.028  0.9268  0.4729  2.4854
  824MPD2    H212126   2.106   1.379  16.126  0.2094  0.5141  1.2781
  824MPD2    H312127   2.162   1.171  16.047 -0.3254  1.4606 -2.0383
  824MPD2     N12128   2.610   1.248  16.077  0.3116  0.5144  0.0484
  824MPD2    H512129   2.677   1.324  16.085  0.0138  0.5794  1.8274
  824MPD2    N112130   2.294   1.578  16.194 -0.1492  0.5308  0.0535
  824MPD2    H712131   2.376   1.634  16.216 -0.4143  1.5792 -1.6218
  825MPD2     C12132   3.240   1.380  15.511  0.3382 -0.3796 -0.1962
  825MPD2    C112133   3.123   1.418  15.573 -1.1370  0.1947  0.5672
  825MPD2    C212134   3.054   1.526  15.523 -0.0358  0.5462  0.0530
  825MPD2    C312135   3.107   1.592  15.409  0.0751  0.0871 -0.1780
  825MPD2    C412136   3.227   1.555  15.354 -0.2355 -0.0581  0.1780
  825MPD2    C512137   3.298   1.450  15.410 -0.0867 -0.4977  0.4265
  825MPD2     H12138   2.964   1.562  15.571 -0.9937 -0.2356 -1.1514
  825MPD2    H112139   3.268   1.607  15.269  0.4488  0.6639  0.9457
  825MPD2    H212140   3.286   1.287  15.542  1.1155  0.0219 -0.1429
  825MPD2    H312141   3.380   1.407  15.354  0.7315  0.0814  1.1592
  825MPD2     N12142   3.040   1.690  15.338 -1.0398  0.3792 -0.5984
  825MPD2    H512143   3.101   1.715  15.261  0.4691  0.5869  0.6612
  825MPD2    N112144   3.076   1.342  15.683  0.4321  0.1954  0.1788
  825MPD2    H712145   3.130   1.259  15.707 -0.2158  0.1097  1.3601
  826MPD2     C12146   2.687   1.467  13.968 -0.4581 -0.0174 -0.7076
  826MPD2    C112147   2.668   1.530  13.847 -0.7168 -0.1041  0.1343
  826MPD2    C212148   2.564   1.620  13.831  0.2522 -0.0831 -0.2748
  826MPD2    C312149   2.486   1.662  13.935 -0.1139 -0.0406  0.0737
  826MPD2    C412150   2.502   1.603  14.058  0.6897 -0.6654  0.3193
  826MPD2    C512151   2.600   1.505  14.070  1.1819 -0.2220  0.2050
  826MPD2     H12152   2.539   1.662  13.734  0.9007 -0.9805 -0.8303
  826MPD2    H112153   2.435   1.629  14.139  0.0563  0.7211 -0.6588
  826MPD2    H212154   2.758   1.387  13.982  0.1608  0.5925 -0.3849
  826MPD2    H312155   2.601   1.456  14.167  1.2805 -0.6781 -0.0264
  826MPD2     N12156   2.386   1.763  13.918  0.4597 -0.1079  0.2301
  826MPD2    H512157   2.319   1.774  13.994  1.2830  1.2254  0.7651
  826MPD2    N112158   2.757   1.493  13.740  0.6270 -0.3079  0.1258
  826MPD2    H712159   2.815   1.412  13.759  0.5316 -0.1440  1.1332
  827MPD2     C12160   3.416   3.063  10.145 -0.1255 -0.5670 -0.1171
  827MPD2    C112161   3.376   2.957  10.233 -0.5408 -0.3723  0.3899
  827MPD2    C212162   3.278   2.868  10.184  1.2126 -0.2744  0.4694
  827MPD2    C312163   3.230   2.872  10.053  0.6499 -0.0101  0.0443
  827MPD2    C412164   3.277   2.977   9.972  0.1426  0.4285  0.1940
  827MPD2    C512165   3.358   3.075  10.021 -0.3903 -0.3613  0.3338
  827MPD2     H12166   3.246   2.784  10.243  0.6419 -0.2714  0.1680
  827MPD2    H112167   3.259   2.974   9.865  1.1959 -0.0964  0.0277
  827MPD2    H212168   3.491   3.136  10.176 -0.3235  0.2005 -1.4810
  827MPD2    H312169   3.381   3.150   9.946 -0.0652 -1.4995 -0.7052
  827MPD2     N12170   3.140   2.771  10.009  0.1403 -0.2203  0.0965
  827MPD2    H512171   3.124   2.705  10.084  0.2861  1.0248  1.2416
  827MPD2    N112172   3.436   2.955  10.358 -0.2189  0.3041 -0.0129
  827MPD2    H712173   3.493   3.038  10.373  0.2356 -0.1308  0.6894
  828MPD2     C12174   2.073   2.485  12.718  0.0460  0.0645 -0.5494
  828MPD2    C112175   2.071   2.512  12.581 -0.0914 -0.3706 -0.3758
  828MPD2    C212176   2.180   2.482  12.504  0.1957 -0.1413  1.2706
  828MPD2    C312177   2.279   2.402  12.554  0.1983 -0.4925  1.6009
  828MPD2    C412178   2.288   2.379  12.686  0.1971 -0.0341  0.0016
  828MPD2    C512179   2.194   2.440  12.770  0.3374  0.0514 -1.0579
  828MPD2     H12180   2.176   2.516  12.401  1.5881 -0.6281  1.0520
  828MPD2    H112181   2.376   2.330  12.727 -0.0581  0.2613  0.9096
  828MPD2    H212182   2.005   2.528  12.790 -0.8221  0.7137 -1.7500
  828MPD2    H312183   2.207   2.447  12.877  1.7851  0.4886 -1.2625
  828MPD2     N12184   2.392   2.361  12.479 -0.0899 -0.1597 -0.3686
  828MPD2    H512185   2.457   2.303  12.530  0.1783 -0.8316 -1.4734
  828MPD2    N112186   1.949   2.570  12.520  0.0260  0.2450  0.0399
  828MPD2    H712187   1.960   2.588  12.421  2.7835 -2.0671 -0.0891
  829MPD2     C12188   1.927   2.992  11.775 -0.5752  0.6541  0.0970
  829MPD2    C112189   1.814   3.046  11.840  0.8005 -0.2713 -0.3131
  829MPD2    C212190   1.774   2.992  11.955  0.0506 -0.3464  0.3391
  829MPD2    C312191   1.843   2.891  12.016 -0.3877 -0.0597 -0.2562
  829MPD2    C412192   1.951   2.827  11.950 -0.2882 -0.3360  0.0312
  829MPD2    C512193   1.990   2.887  11.836  0.9273 -0.3939 -0.0733
  829MPD2     H12194   1.687   3.035  12.002  0.1476  1.5584 -1.2394
  829MPD2    H112195   2.015   2.748  11.987  1.5894  1.5689  0.7755
  829MPD2    H212196   1.960   3.041  11.684 -1.1847  0.0616 -0.4449
  829MPD2    H312197   2.072   2.845  11.779  1.6359  1.8977 -0.7291
  829MPD2     N12198   1.804   2.843  12.141  0.2728 -0.6826 -0.2083
  829MPD2    H512199   1.854   2.757  12.163  0.3291 -0.9646 -1.4457
  829MPD2    N112200   1.741   3.150  11.775  0.1210 -0.2759 -0.5560
  829MPD2    H712201   1.772   3.179  11.683  0.9911  1.0524  0.1728
  830MPD2     C12202   2.283   0.638  16.223  0.0680  0.1009  0.1219
  830MPD2    C112203   2.220   0.613  16.104  0.2959 -0.1440  1.1825
  830MPD2    C212204   2.267   0.680  15.993  1.0052 -0.7030  0.7902
  830MPD2    C312205   2.387   0.748  15.999  0.5539  0.1740 -0.7007
  830MPD2    C412206   2.467   0.737  16.112  0.3563 -0.5962  0.5771
  830MPD2    C512207   2.408   0.678  16.225  0.0007 -0.5175  0.3480
  830MPD2     H12208   2.209   0.663  15.903 -2.1523  1.6415  2.3736
  830MPD2    H112209   2.564   0.785  16.119 -1.7404  3.5347  1.2897
  830MPD2    H212210   2.234   0.608  16.315  2.3312 -2.3823  0.5198
  830MPD2    H312211   2.462   0.671  16.318 -1.3951  2.8028  1.4021
  830MPD2     N12212   2.425   0.840  15.895  0.0503 -0.3225 -0.4682
  830MPD2    H512213   2.504   0.900  15.917  1.2190 -1.9071 -0.3027
  830MPD2    N112214   2.087   0.560  16.123 -0.1079 -0.2117 -0.2099
  830MPD2    H712215   2.064   0.524  16.216  1.5007 -2.1883 -0.5749
  831MPD2     C12216   2.184   2.745  16.617  0.6275  0.6830  0.1969
  831MPD2    C112217   2.159   2.619  16.572 -0.0850  0.0499  0.4477
  831MPD2    C212218   2.070   2.539  16.641  0.0619 -0.1803 -0.0031
  831MPD2    C312219   2.017   2.582  16.761  0.7145  0.2556  0.9105
  831MPD2    C412220   2.050   2.705  16.816  0.6777  0.0796 -0.1023
  831MPD2    C512221   2.133   2.790  16.740  0.1086  0.3667  0.6397
  831MPD2     H12222   2.053   2.438  16.604  1.1091 -0.5462  0.5125
  831MPD2    H112223   2.004   2.748  16.904  0.6637 -0.0814 -0.0306
  831MPD2    H212224   2.248   2.811  16.559 -0.3136  0.9111 -0.5789
  831MPD2    H312225   2.171   2.888  16.767 -2.1340  1.7262 -1.2010
  831MPD2     N12226   1.918   2.504  16.828  0.2782 -0.5739  0.0484
  831MPD2    H512227   1.887   2.523  16.923  2.1208  0.2103  0.4771
  831MPD2    N112228   2.211   2.579  16.448  0.3543  0.6953  0.4104
  831MPD2    H712229   2.251   2.656  16.395  0.6338 -0.2138 -0.7130
  832MPD2     C12230   0.778   3.669  17.462 -0.9117 -0.3401 -0.2655
  832MPD2    C112231   0.758   3.807  17.460 -0.3128 -0.0066 -0.9053
  832MPD2    C212232   0.646   3.846  17.388  0.5304 -0.1155 -0.4210
  832MPD2    C312233   0.556   3.762  17.323  0.4883  0.4684  0.2130
  832MPD2    C412234   0.583   3.628  17.328  0.0488 -0.1274 -0.1983
  832MPD2    C512235   0.691   3.589  17.397 -0.1035 -0.3448 -0.6651
  832MPD2     H12236   0.612   3.949  17.388  0.5294 -0.1150  0.5692
  832MPD2    H112237   0.518   3.559  17.276  3.3595 -2.1991 -1.5416
  832MPD2    H212238   0.864   3.623  17.509 -0.6687 -1.0492 -1.4169
  832MPD2    H312239   0.733   3.490  17.394  1.3955  0.2816 -0.3335
  832MPD2     N12240   0.446   3.808  17.250 -0.1640 -0.0200  0.3643
  832MPD2    H512241   0.381   3.737  17.218 -0.8176  0.6823  0.1131
  832MPD2    N112242   0.826   3.889  17.547  0.4661  0.6922 -0.3500
  832MPD2    H712243   0.906   3.850  17.596 -0.7084  0.2076  1.1893
  833MPD2     C12244   3.026   0.339  13.048  0.5482  0.0947  0.7535
  833MPD2    C112245   3.029   0.377  12.916  0.3853 -0.1839  0.7560
  833MPD2    C212246   3.076   0.284  12.816  0.1958  0.3894  0.4025
  833MPD2    C312247   3.112   0.154  12.858 -0.1276  0.1307  0.4660
  833MPD2    C412248   3.118   0.116  12.989 -0.4367  0.0945 -0.2411
  833MPD2    C512249   3.068   0.211  13.083  0.5320  0.0636 -0.3322
  833MPD2     H12250   3.076   0.300  12.709 -0.5364  0.7939  0.4639
  833MPD2    H112251   3.145   0.016  13.021  0.5738  1.4418  3.1522
  833MPD2    H212252   2.995   0.396  13.135  0.8506  0.7426  0.4400
  833MPD2    H312253   3.063   0.187  13.188  0.6856 -2.2561 -0.8676
  833MPD2     N12254   3.152   0.066  12.758 -0.1640 -0.0627 -0.1488
  833MPD2    H512255   3.122   0.095  12.666 -0.2687  0.0419 -0.0821
  833MPD2    N112256   2.990   0.508  12.884 -0.2531  0.2536  0.0220
  833MPD2    H712257   2.972   0.564  12.966 -0.0041 -0.2218  0.4049
  834MPD2     C12258   3.093   3.907  12.169 -0.2514  0.7713 -0.7668
  834MPD2    C112259   3.068   4.015  12.081 -0.5500 -0.0757 -0.2613
  834MPD2    C212260   3.046   4.141  12.140  0.1343  0.7579 -0.7641
  834MPD2    C312261   3.060   4.158  12.279  0.1146 -0.8763  0.1699
  834MPD2    C412262   3.090   4.046  12.361  0.1418 -0.4173  0.5240
  834MPD2    C512263   3.102   3.925  12.303  0.0628 -0.3472 -0.0268
  834MPD2     H12264   3.023   4.224  12.074 -1.0217  0.2289 -1.0294
  834MPD2    H112265   3.110   4.070  12.465  0.1206  1.9403 -0.0080
  834MPD2    H212266   3.120   3.809  12.132  2.6800  0.5726  1.8556
  834MPD2    H312267   3.131   3.843  12.366 -0.4237 -1.2805 -1.0207
  834MPD2     N12268   3.063   4.286  12.329  0.4277 -0.3336  0.0780
  834MPD2    H512269   3.058   4.361  12.261  1.7447  0.7506  1.1781
  834MPD2    N112270   3.052   3.983  11.946 -0.4387  0.0339  0.4786
  834MPD2    H712271   3.057   3.882  11.930 -0.6224  0.1759 -0.4801
  835MPD2     C12272   2.934   2.797  10.904  0.7903 -0.1966 -0.1054
  835MPD2    C112273   2.825   2.713  10.897  1.2520  0.1877 -1.9086
  835MPD2    C212274   2.797   2.639  11.012 -1.1226 -0.1512 -0.1957
  835MPD2    C312275   2.875   2.655  11.124 -0.6470 -0.4607 -0.7627
  835MPD2    C412276   2.988   2.727  11.118 -1.0176  0.1365 -0.0873
  835MPD2    C512277   3.016   2.796  11.010  0.1113 -0.2913 -0.2454
  835MPD2     H12278   2.705   2.581  11.016  0.0388 -1.8610  1.9387
  835MPD2    H112279   3.064   2.739  11.194  0.9942  0.6450 -2.1708
  835MPD2    H212280   2.972   2.837  10.810 -1.8340 -1.5429 -1.7475
  835MPD2    H312281   3.109   2.852  11.013 -1.1307  1.6934  1.5395
  835MPD2     N12282   2.836   2.591  11.249 -0.2613 -0.0217  0.1037
  835MPD2    H512283   2.883   2.633  11.328  3.9925 -0.5833 -2.0708
  835MPD2    N112284   2.745   2.707  10.786  0.4497  0.7867  0.0626
  835MPD2    H712285   2.667   2.642  10.776 -1.6628  3.3946 -0.2822
  836MPD2     C12286   2.388   3.096  11.481 -0.0637  0.0098 -0.0774
  836MPD2    C112287   2.385   3.004  11.582 -0.8316 -0.4628 -0.5089
  836MPD2    C212288   2.319   3.033  11.705 -0.1115  0.7201 -0.3421
  836MPD2    C312289   2.262   3.161  11.718  0.6314  0.3133  0.3887
  836MPD2    C412290   2.268   3.246  11.607  0.0272 -0.1977 -0.2024
  836MPD2    C512291   2.334   3.215  11.495 -1.1070  0.3961  0.0771
  836MPD2     H12292   2.320   2.963  11.787 -1.3132  1.5585  0.4068
  836MPD2    H112293   2.223   3.345  11.610 -0.3616 -0.3572 -0.7666
  836MPD2    H212294   2.441   3.073  11.389  1.1802 -0.5127  0.7679
  836MPD2    H312295   2.336   3.284  11.411  2.0522 -1.5590 -1.4462
  836MPD2     N12296   2.200   3.216  11.829 -0.1033 -0.9182 -0.1651
  836MPD2    H512297   2.151   3.305  11.821 -0.1810 -1.1670 -2.2444
  836MPD2    N112298   2.456   2.886  11.543  0.1059 -0.9843 -0.2453
  836MPD2    H712299   2.499   2.888  11.451  0.7964 -0.3332  0.0817
  837MPD2     C12300   0.624   2.780  10.007  0.2453 -0.4736 -0.0999
  837MPD2    C112301   0.507   2.849  10.036  0.7324  0.2498 -0.1934
  837MPD2    C212302   0.510   2.972  10.096  0.2386  0.0254 -0.1086
  837MPD2    C312303   0.632   3.035  10.125 -0.3615  0.5717 -0.6097
  837MPD2    C412304   0.746   2.960  10.094  0.3327  0.7966  0.1692
  837MPD2    C512305   0.743   2.832  10.054 -0.4626 -0.7613  0.0766
  837MPD2     H12306   0.417   3.026  10.101 -0.6973 -1.3813 -2.2118
  837MPD2    H112307   0.843   2.997  10.127  0.8536 -1.3750  1.0220
  837MPD2    H212308   0.622   2.685   9.954 -0.3695  0.2918 -1.4321
  837MPD2    H312309   0.842   2.788  10.048 -1.0561 -2.2140  0.7991
  837MPD2     N12310   0.625   3.171  10.175 -0.2007  0.4926  0.4484
  837MPD2    H512311   0.530   3.194  10.203 -0.0612  2.0754 -0.4373
  837MPD2    N112312   0.377   2.802  10.010  0.0382 -0.2498 -0.8169
  837MPD2    H712313   0.309   2.876  10.022 -0.1923 -0.5890 -0.0463
  838MPD2     C12314   3.799   1.078  12.139  0.9537  0.5516  1.0571
  838MPD2    C112315   3.836   0.950  12.190 -0.0928 -0.7081 -0.0253
  838MPD2    C212316   3.738   0.871  12.240 -0.0460 -0.8436 -0.3558
  838MPD2    C312317   3.605   0.901  12.227  0.2899 -0.4179 -0.3588
  838MPD2    C412318   3.572   1.022  12.176 -0.0143 -0.1605  0.4580
  838MPD2    C512319   3.664   1.110  12.129  0.5519 -0.4242 -0.1899
  838MPD2     H12320   3.768   0.771  12.269  1.8501  0.1963  1.3048
  838MPD2    H112321   3.469   1.053  12.164  0.8031  2.4804  0.4009
  838MPD2    H212322   3.874   1.133  12.084  0.5582  0.2577  0.2232
  838MPD2    H312323   3.626   1.202  12.086  2.1439 -0.1451 -0.9903
  838MPD2     N12324   3.512   0.804  12.264  0.2118  0.3462  0.6446
  838MPD2    H512325   3.552   0.719  12.302  0.2866  0.7680  1.5229
  838MPD2    N112326   3.968   0.898  12.196 -0.7448 -0.1484 -0.5918
  838MPD2    H712327   3.981   0.805  12.233 -0.5512 -1.1186 -3.0840
  839MPD2     C12328   3.783   0.188  12.119  0.1613 -0.1974 -0.2413
  839MPD2    C112329   3.831   0.247  12.006 -0.2668  0.0496  0.0246
  839MPD2    C212330   3.943   0.333  12.016  0.0706  0.7428 -0.2124
  839MPD2    C312331   3.990   0.362  12.150  0.5545 -0.1242 -0.9738
  839MPD2    C412332   3.938   0.306  12.264  0.1171  0.7462  0.1849
  839MPD2    C512333   3.840   0.215  12.242 -0.7062  0.1323 -0.0873
  839MPD2     H12334   3.985   0.383  11.930 -1.8730  0.1051 -1.5358
  839MPD2    H112335   3.990   0.318  12.358  0.0327  0.9435  0.2062
  839MPD2    H212336   3.703   0.114  12.121  0.8039 -0.8749  0.7792
  839MPD2    H312337   3.793   0.160  12.323 -1.2053  1.2886  0.4046
  839MPD2     N12338   4.101   0.447  12.171  0.2835  0.2271  0.0849
  839MPD2    H512339   4.106   0.484  12.266 -1.1000  0.8113 -0.0545
  839MPD2    N112340   3.781   0.223  11.880 -0.1007  0.0922 -0.2855
  839MPD2    H712341   3.832   0.247  11.796  0.8939 -0.6735  0.1049
  840MPD2     C12342   4.024   3.104  10.413  1.0953 -0.3236 -0.0206
  840MPD2    C112343   3.982   3.116  10.543  0.7481  0.1383  0.2448
  840MPD2    C212344   4.047   3.203  10.633 -0.6613 -0.5880  0.5957
  840MPD2    C312345   4.159   3.272  10.590 -0.7107 -0.2779 -0.5853
  840MPD2    C412346   4.204   3.254  10.459 -0.1952  0.2920  0.0438
  840MPD2    C512347   4.138   3.174  10.370 -0.1736 -0.3878 -0.2952
  840MPD2     H12348   3.992   3.230  10.722 -0.1442  1.8707  0.1654
  840MPD2    H112349   4.293   3.302  10.421  0.0418 -1.5257 -1.7408
  840MPD2    H212350   3.974   3.036  10.345  0.4442  1.3099 -1.1989
  840MPD2    H312351   4.175   3.165  10.269  1.6615  0.5749  0.3026
  840MPD2     N12352   4.234   3.353  10.676  0.5730 -0.6126  0.3974
  840MPD2    H512353   4.292   3.417  10.622  0.1814  0.7110  1.5204
  840MPD2    N112354   3.860   3.049  10.578 -0.1370  0.6309  0.6993
  840MPD2    H712355   3.812   3.004  10.501 -1.4153  1.0053  1.2695
  841MPD2     C12356   3.589   2.773  14.894  0.0409  0.2726 -1.4032
  841MPD2    C112357   3.586   2.792  14.756 -0.5623  0.0137  0.1444
  841MPD2    C212358   3.570   2.915  14.704  0.2800 -0.2347 -0.3300
  841MPD2    C312359   3.560   3.023  14.787 -0.0242 -0.4132  0.7392
  841MPD2    C412360   3.543   3.006  14.923 -0.2705 -0.4930  0.4913
  841MPD2    C512361   3.558   2.877  14.975 -0.6122  0.0381 -0.0771
  841MPD2     H12362   3.573   2.926  14.597  0.6701  0.6029 -0.2362
  841MPD2    H112363   3.516   3.094  14.981 -2.7416  0.8257 -2.6373
  841MPD2    H212364   3.613   2.676  14.937  2.5722 -0.0184 -3.4568
  841MPD2    H312365   3.540   2.849  15.078 -1.5523  0.1565 -0.2055
  841MPD2     N12366   3.553   3.152  14.724 -0.4043 -0.2541  0.2419
  841MPD2    H512367   3.563   3.150  14.623 -1.8500  1.9146  0.0693
  841MPD2    N112368   3.598   2.684  14.669  0.2048  0.3854 -0.3720
  841MPD2    H712369   3.600   2.718  14.573  1.6795  1.5231  0.0513
  842MPD2     C12370   4.532   4.229  17.071  0.3766  0.2604 -0.4746
  842MPD2    C112371   4.409   4.186  17.027 -0.3569 -0.6951  0.2879
  842MPD2    C212372   4.318   4.131  17.123  0.1104 -0.4353 -0.2108
  842MPD2    C312373   4.358   4.138  17.254 -0.1526 -0.4183 -0.1019
  842MPD2    C412374   4.480   4.190  17.297  0.7780  0.0818 -0.8796
  842MPD2    C512375   4.571   4.231  17.203  0.4525 -0.4228 -0.2561
  842MPD2     H12376   4.216   4.111  17.093  0.5517 -0.3261 -1.8213
  842MPD2    H112377   4.503   4.193  17.403  0.9496 -0.7833 -0.8914
  842MPD2    H212378   4.602   4.276  17.002  0.0970 -0.4876 -1.2734
  842MPD2    H312379   4.669   4.271  17.229  0.2639 -0.7805  1.0322
  842MPD2     N12380   4.267   4.122  17.356 -0.7518  0.0019  0.4929
  842MPD2    H512381   4.310   4.158  17.440  0.7864 -1.7452  0.4568
  842MPD2    N112382   4.381   4.195  16.888  0.0290  0.1470  0.8881
  842MPD2    H712383   4.440   4.247  16.823  0.7152 -1.6325  0.0866
  843MPD2     C12384   1.573   0.127   0.473  0.2180 -0.6880  0.6701
  843MPD2    C112385   1.633   0.043   0.377 -0.0205 -0.0579 -0.2957
  843MPD2    C212386   1.762   0.074   0.335  0.0546  0.1887  0.1046
  843MPD2    C312387   1.824   0.191   0.377 -0.0591  0.4710 -0.5471
  843MPD2    C412388   1.754   0.278   0.457  0.1619  0.0120 -0.2731
  843MPD2    C512389   1.630   0.251   0.502  0.1533  0.0039  0.1202
  843MPD2     H12390   1.809   0.007   0.263  0.5069  0.6580 -0.0407
  843MPD2    H112391   1.795   0.372   0.491 -1.5876  0.5142  0.4248
  843MPD2    H212392   1.481   0.101   0.523 -0.6271 -0.2959 -0.6564
  843MPD2    H312393   1.580   0.321   0.569 -0.2839 -1.3479  1.2115
  843MPD2     N12394   1.952   0.226   0.331 -0.2959 -0.1482 -0.1065
  843MPD2    H512395   1.986   0.315   0.366  0.0229  0.0889 -1.0207
  843MPD2    N112396   1.563   4.647   0.338 -0.6183  0.0323  0.0159
  843MPD2    H712397   1.468   4.638   0.372 -0.1486  0.0080  1.3125
  844MPD2     C12398   0.005   3.647  16.549 -0.5790 -0.8033 -0.2495
  844MPD2    C112399   0.074   3.558  16.622  0.0538 -0.0878  0.0635
  844MPD2    C212400   0.192   3.601  16.682 -0.6100 -0.0732  0.1692
  844MPD2    C312401   0.233   3.734  16.670  0.1015  0.2812 -0.7495
  844MPD2    C412402   0.157   3.823  16.596 -0.4082  0.0151 -0.3338
  844MPD2    C512403   0.047   3.774  16.533  0.1352 -0.4663 -0.5145
  844MPD2     H12404   0.248   3.546  16.757  1.3800  0.3944 -0.9625
  844MPD2    H112405   0.171   3.930  16.604 -2.2033  0.1859  0.5123
  844MPD2    H212406   4.646   3.613  16.487 -0.4773  1.0046 -1.4100
  844MPD2    H312407   4.702   3.840  16.480 -0.7251 -1.1340 -0.2351
  844MPD2     N12408   0.341   3.783  16.744 -0.4086 -0.0716 -0.4315
  844MPD2    H512409   0.375   3.718  16.815  1.1633 -0.2615 -1.3463
  844MPD2    N112410   0.037   3.423  16.649  0.5163 -0.3073 -0.2201
  844MPD2    H712411   0.081   3.374  16.726  0.2363  0.4658  0.4281
  845MPD2     C12412   1.034   4.602  16.988  0.5760  0.1750  0.0698
  845MPD2    C112413   0.966   4.586  17.102  0.0185 -0.6358  0.3538
  845MPD2    C212414   0.877   4.478  17.113  0.4347  0.5476 -0.1729
  845MPD2    C312415   0.851   4.402  17.002 -0.6998  0.5260 -0.2536
  845MPD2    C412416   0.914   4.429  16.884 -0.4661 -0.6509  0.7464
  845MPD2    C512417   1.003   4.531  16.878  0.7152 -0.5101  0.4131
  845MPD2     H12418   0.833   4.440  17.204 -0.3150  1.4675 -0.1541
  845MPD2    H112419   0.910   4.370  16.793 -2.3463  0.8717 -0.1580
  845MPD2    H212420   1.106   4.683  16.983  1.2383 -0.3742  0.9287
  845MPD2    H312421   1.056   4.546  16.785 -1.4727 -0.4931 -0.8191
  845MPD2     N12422   0.770   4.288  17.010  0.4049 -0.2924 -0.0261
  845MPD2    H512423   0.735   4.270  17.103 -2.4352  0.5991 -0.9200
  845MPD2    N112424   0.995   4.674  17.204  0.6159  0.0417  0.8601
  845MPD2    H712425   1.063   0.024  17.186  2.4882 -1.4219  1.9087
  846MPD2     C12426   2.231   4.611  13.915  0.5951 -0.0065  0.2605
  846MPD2    C112427   2.111   4.680  13.909  0.1383 -0.2465  0.1726
  846MPD2    C212428   2.036   4.684  14.024  0.1033  0.3019  0.2441
  846MPD2    C312429   2.082   4.624  14.141  0.1369 -0.0835 -0.3858
  846MPD2    C412430   2.206   4.557  14.144 -0.1811 -0.0374 -0.0068
  846MPD2    C512431   2.285   4.554  14.031  0.2462  0.0199 -0.2788
  846MPD2     H12432   1.946   0.020  14.034  0.1567  0.6625 -1.4149
  846MPD2    H112433   2.255   4.501  14.222 -0.8376  1.1084  1.2304
  846MPD2    H212434   2.292   4.606  13.826  1.8979  2.3941  1.0246
  846MPD2    H312435   2.383   4.508  14.025  0.1561 -0.1289 -0.6486
  846MPD2     N12436   1.993   4.615  14.259 -0.4892 -0.3164  0.7951
  846MPD2    H512437   1.897   4.647  14.246 -0.1695 -0.1145 -1.2015
  846MPD2    N112438   2.060   0.020  13.792  0.4251 -0.3290  0.1122
  846MPD2    H712439   1.975   0.073  13.807 -1.1624 -3.0619  0.6847
  847MPD2     C12440   1.964   0.750  14.537 -0.2847  0.2950 -0.5033
  847MPD2    C112441   2.053   0.819  14.613  0.3467  0.5468  0.0774
  847MPD2    C212442   2.112   0.761  14.717  0.4597  0.2364  0.0380
  847MPD2    C312443   2.087   0.633  14.751  0.2629 -0.6084 -0.1598
  847MPD2    C412444   1.990   0.567  14.688  0.6462  0.3082  0.2932
  847MPD2    C512445   1.932   0.621  14.576  0.3612 -0.0060 -0.4100
  847MPD2     H12446   2.171   0.831  14.775  1.1892 -0.0460 -0.3587
  847MPD2    H112447   1.967   0.461  14.699  0.4459  0.2028 -1.0919
  847MPD2    H212448   1.909   0.789  14.452  0.7061  0.1994 -1.1806
  847MPD2    H312449   1.857   0.573  14.513 -0.1623 -0.8056  0.8199
  847MPD2     N12450   2.135   0.575  14.868 -0.2877  0.2380 -0.0971
  847MPD2    H512451   2.078   0.500  14.905 -1.7426  0.5508 -1.7231
  847MPD2    N112452   2.091   0.952  14.575 -0.0647  0.3347  0.2217
  847MPD2    H712453   2.157   0.996  14.638  0.0627  0.5314 -0.0535
  848MPD2     C12454   0.218   4.291  16.629 -0.5343 -0.3726 -0.1802
  848MPD2    C112455   0.228   4.341  16.756 -0.1592  0.6095 -0.3425
  848MPD2    C212456   0.243   4.473  16.782 -0.1937  0.2827 -0.0599
  848MPD2    C312457   0.226   4.561  16.673 -0.3781 -0.0792  0.0658
  848MPD2    C412458   0.217   4.510  16.542 -0.4043 -0.3389 -0.4452
  848MPD2    C512459   0.213   4.373  16.530  0.4960  0.2521  0.3636
  848MPD2     H12460   0.259   4.503  16.885 -0.4244 -3.1718  0.9538
  848MPD2    H112461   0.198   4.575  16.457 -0.1496 -0.0717 -0.2996
  848MPD2    H212462   0.204   4.184  16.612 -1.6417 -0.6097  2.2905
  848MPD2    H312463   0.196   4.326  16.435  1.4475 -1.4267  1.0293
  848MPD2     N12464   0.220   4.704  16.695 -0.9265 -0.4221  0.2169
  848MPD2    H512465   0.202   0.035  16.612  0.6304 -0.5371 -0.1890
  848MPD2    N112466   0.208   4.260  16.870  0.3898 -0.0720 -0.3235
  848MPD2    H712467   0.239   4.284  16.964  1.2815 -0.3465 -0.5411
  849MPD2     C12468   4.550   4.053  13.989  0.1964  0.0640  0.3417
  849MPD2    C112469   4.587   3.945  14.059  0.5614 -0.3096  0.2668
  849MPD2    C212470   4.494   3.892  14.155 -0.3401 -0.2588 -0.1173
  849MPD2    C312471   4.365   3.944  14.159 -0.1053  0.0308 -0.0983
  849MPD2    C412472   4.331   4.055  14.081  0.3527 -0.2823 -0.1560
  849MPD2    C512473   4.426   4.110  13.995  0.4540 -0.4675  0.2864
  849MPD2     H12474   4.528   3.814  14.223 -1.6516 -1.5989 -1.0011
  849MPD2    H112475   4.240   4.113  14.091 -0.0622 -0.5467 -2.5027
  849MPD2    H212476   4.615   4.101  13.917 -1.9174  0.9247 -0.9853
  849MPD2    H312477   4.394   4.196  13.938  1.1392 -0.8083 -0.6075
  849MPD2     N12478   4.274   3.893  14.257 -0.7368 -0.0620  0.5208
  849MPD2    H512479   4.308   3.816  14.313 -0.1018 -1.0424 -1.1989
  849MPD2    N112480   4.708   3.874  14.048  0.0222 -0.0701 -0.6800
  849MPD2    H712481   0.001   3.807  14.123  0.5350  1.8136  0.8943
  850MPD2     C12482   1.674   1.450  15.040 -0.7069  0.4846 -0.6074
  850MPD2    C112483   1.686   1.571  15.105 -1.0009 -0.0062  0.1612
  850MPD2    C212484   1.815   1.629  15.112 -0.1267  0.1324  0.3190
  850MPD2    C312485   1.927   1.549  15.089 -0.3914  0.2956 -0.4472
  850MPD2    C412486   1.909   1.433  15.017  0.6157 -1.1807  0.3984
  850MPD2    C512487   1.786   1.393  14.987  0.4279  0.1602 -0.8590
  850MPD2     H12488   1.834   1.726  15.158 -1.0956 -0.7055  2.4798
  850MPD2    H112489   1.994   1.378  14.978  0.4691 -0.0166 -1.5422
  850MPD2    H212490   1.577   1.404  15.021 -0.8523  0.6242 -0.2101
  850MPD2    H312491   1.776   1.302  14.929  1.4319 -0.5252  0.0427
  850MPD2     N12492   2.058   1.576  15.130 -1.2270  0.3634 -0.0789
  850MPD2    H512493   2.124   1.500  15.115 -0.2313  1.1412  0.2972
  850MPD2    N112494   1.571   1.640  15.147  0.1811 -0.6069  0.1103
  850MPD2    H712495   1.491   1.603  15.097 -2.0722  1.8465  1.8698
  851MPD2     C12496   2.163   1.756  15.804  0.6207  0.0804 -0.7866
  851MPD2    C112497   2.102   1.683  15.705 -0.5656  0.5881 -0.8239
  851MPD2    C212498   2.148   1.561  15.676  0.2203 -0.1099 -0.5862
  851MPD2    C312499   2.272   1.515  15.720 -0.0556  0.5201 -0.4031
  851MPD2    C412500   2.331   1.587  15.821 -0.2782 -0.1040  0.4280
  851MPD2    C512501   2.275   1.705  15.862 -0.7322 -0.3654  0.4605
  851MPD2     H12502   2.091   1.497  15.610 -1.4811 -0.8139  1.5578
  851MPD2    H112503   2.418   1.557  15.877 -0.4195 -0.4152  0.4848
  851MPD2    H212504   2.125   1.853  15.835 -0.1218 -0.7572  0.9668
  851MPD2    H312505   2.324   1.759  15.941 -2.4521  2.1205 -0.1799
  851MPD2     N12506   2.311   1.390  15.678 -0.7677 -0.1862  0.3668
  851MPD2    H512507   2.242   1.348  15.617  0.1330 -0.4959 -0.4453
  851MPD2    N112508   1.983   1.745  15.652 -0.0301 -0.6730  0.2430
  851MPD2    H712509   1.954   1.833  15.693  2.8452  1.2757 -1.8802
  852MPD2     C12510   1.780   0.336   9.661 -0.5121 -0.4875  0.1412
  852MPD2    C112511   1.781   0.345   9.799  0.9658 -0.3384  0.1487
  852MPD2    C212512   1.867   0.428   9.863 -0.6212  0.1278  0.1967
  852MPD2    C312513   1.965   0.491   9.786 -0.5307  0.0591 -0.9582
  852MPD2    C412514   1.952   0.492   9.650  0.3535  0.3837 -0.2033
  852MPD2    C512515   1.857   0.420   9.581 -0.7337 -0.5477 -0.6969
  852MPD2     H12516   1.859   0.438   9.970  2.2842  1.6665  0.2734
  852MPD2    H112517   2.021   0.532   9.576  1.7790  1.1313  1.5339
  852MPD2    H212518   1.693   0.288   9.617 -0.1435  0.1680 -1.3163
  852MPD2    H312519   1.833   0.417   9.476  0.6605 -0.5498 -1.0076
  852MPD2     N12520   2.062   0.562   9.858 -0.8097 -0.0394  0.0142
  852MPD2    H512521   2.058   0.568   9.960  0.5555 -0.7015  0.1079
  852MPD2    N112522   1.695   0.265   9.884  0.3498 -0.0828  0.3164
  852MPD2    H712523   1.691   0.287   9.983  2.0219 -1.1992  0.6326
  853MPD2     C12524   3.563   3.798  12.684 -0.4702 -0.9543  0.4696
  853MPD2    C112525   3.473   3.891  12.645  0.0795 -0.4106  0.0436
  853MPD2    C212526   3.473   3.934  12.514 -0.2526  0.1750 -0.0343
  853MPD2    C312527   3.576   3.888  12.429 -0.0360 -0.2555  0.4828
  853MPD2    C412528   3.661   3.786  12.468 -0.1100 -0.4024  0.2749
  853MPD2    C512529   3.654   3.740  12.598  0.6044 -1.0031 -0.2276
  853MPD2     H12530   3.405   4.009  12.476  1.8900  2.6038  0.9507
  853MPD2    H112531   3.730   3.745  12.395  0.8457 -0.3323  1.1472
  853MPD2    H212532   3.562   3.759  12.785  0.0950  0.3886  0.9998
  853MPD2    H312533   3.719   3.665  12.640 -0.9018 -1.7528  0.7495
  853MPD2     N12534   3.588   3.939  12.294 -0.0157 -0.2122  0.4858
  853MPD2    H512535   3.672   3.910  12.245  0.2407 -0.3973  1.0379
  853MPD2    N112536   3.386   3.950  12.741 -0.5491  0.6177  0.3729
  853MPD2    H712537   3.383   3.916  12.837  1.3471  1.2221  0.6512
  854MPD2     C12538   0.020   4.111  12.644 -0.0413 -0.5839  0.5782
  854MPD2    C112539   0.147   4.168  12.657 -0.4207 -0.5319 -0.6170
  854MPD2    C212540   0.258   4.083  12.655 -0.6360 -0.5257 -0.3226
  854MPD2    C312541   0.245   3.951  12.643  0.4314 -0.2866 -0.4744
  854MPD2    C412542   0.123   3.893  12.622 -0.5812  0.2560  1.0235
  854MPD2    C512543   0.014   3.976  12.621  0.0481  0.3622  0.4640
  854MPD2     H12544   0.350   4.137  12.671 -1.9655  1.1623  1.5725
  854MPD2    H112545   0.121   3.785  12.616 -0.1587  0.3000  0.0610
  854MPD2    H212546   4.653   4.172  12.655  0.3902  0.4010 -1.2488
  854MPD2    H312547   4.639   3.930  12.610 -0.7743  2.3752 -0.5400
  854MPD2     N12548   0.348   3.862  12.668  0.2001 -0.2835 -0.4572
  854MPD2    H512549   0.318   3.765  12.667  1.2834 -0.6422  3.0036
  854MPD2    N112550   0.163   4.307  12.664  0.3807 -0.0620  0.3431
  854MPD2    H712551   0.077   4.359  12.644 -0.5632 -1.9004 -0.4099
  855MPD2     C12552   1.209   3.770  13.240 -0.4010 -0.3071  0.3961
  855MPD2    C112553   1.076   3.782  13.282  0.4566  0.0807  0.1428
  855MPD2    C212554   0.980   3.776  13.179 -0.3028  0.2340  0.4518
  855MPD2    C312555   1.010   3.762  13.048 -1.0674  0.5053 -1.0886
  855MPD2    C412556   1.143   3.753  13.011 -0.1424  1.1453 -0.8360
  855MPD2    C512557   1.239   3.756  13.107 -0.0144  0.0092 -0.2468
  855MPD2     H12558   0.874   3.780  13.202  0.1109 -0.0424  2.4191
  855MPD2    H112559   1.178   3.742  12.909 -0.4449 -0.0802 -0.8079
  855MPD2    H212560   1.292   3.771  13.309 -0.3797 -1.8667  0.3928
  855MPD2    H312561   1.343   3.737  13.084 -0.2898 -1.8012 -0.0297
  855MPD2     N12562   0.900   3.747  12.958  0.1607  0.1438  0.2006
  855MPD2    H512563   0.812   3.783  12.993  0.1324  0.6041 -0.3556
  855MPD2    N112564   1.035   3.802  13.418  0.2932 -0.0965 -0.0686
  855MPD2    H712565   0.935   3.816  13.425  0.6690  2.5513  0.0705
  856MPD2     C12566   2.502   0.230  14.341 -1.0129 -0.2731 -0.4582
  856MPD2    C112567   2.608   0.314  14.377 -0.2108 -0.3509 -0.6677
  856MPD2    C212568   2.625   0.433  14.309 -0.6236 -0.1828  0.6713
  856MPD2    C312569   2.526   0.482  14.223 -0.2185 -0.4260  0.4513
  856MPD2    C412570   2.417   0.402  14.186 -0.0630  0.7516 -0.7523
  856MPD2    C512571   2.423   0.277  14.241  0.0300 -0.2134  0.0075
  856MPD2     H12572   2.709   0.498  14.327  0.3289 -1.7148  1.7974
  856MPD2    H112573   2.349   0.439  14.110  1.9450 -1.3606 -3.5553
  856MPD2    H212574   2.493   0.124  14.366 -0.8349  0.9177  4.5378
  856MPD2    H312575   2.373   0.199  14.185 -2.4311  1.6635 -0.3991
  856MPD2     N12576   2.532   0.607  14.163  0.3010  0.2951 -0.8422
  856MPD2    H512577   2.462   0.632  14.095 -1.0254  1.8256  1.0766
  856MPD2    N112578   2.718   0.279  14.459  0.2342  0.1912  0.0759
  856MPD2    H712579   2.796   0.343  14.460 -1.5458  2.3395  1.5564
  857MPD2     C12580   4.223   2.245  12.996 -0.1448 -0.1269  0.1648
  857MPD2    C112581   4.355   2.226  13.013 -0.8484 -0.0657  0.7018
  857MPD2    C212582   4.431   2.323  13.079  0.1177 -0.2025  0.9728
  857MPD2    C312583   4.373   2.439  13.122  0.1844 -0.4789 -0.1815
  857MPD2    C412584   4.237   2.453  13.108 -0.2535 -0.0409 -0.3138
  857MPD2    C512585   4.163   2.355  13.050 -0.4873 -0.4527 -0.0542
  857MPD2     H12586   4.536   2.309  13.102  0.1618  0.3773  1.1418
  857MPD2    H112587   4.187   2.544  13.136 -1.6295 -0.9818  0.2989
  857MPD2    H212588   4.166   2.172  12.938  0.2439  0.4352 -0.9326
  857MPD2    H312589   4.060   2.373  13.022 -1.2767 -2.1519  1.7331
  857MPD2     N12590   4.452   2.543  13.181 -0.1328  0.2885 -0.2544
  857MPD2    H512591   4.551   2.525  13.199 -0.3223  0.5380  1.0633
  857MPD2    N112592   4.410   2.104  12.979  0.2352  0.6379  0.2154
  857MPD2    H712593   4.333   2.044  12.952  1.2087 -0.3193 -0.4454
  858MPD2     C12594   0.352   1.469  16.794  0.2133 -0.0650  0.0241
  858MPD2    C112595   0.492   1.467  16.814  0.2105  0.3246 -0.5887
  858MPD2    C212596   0.557   1.576  16.861 -0.4450 -0.3880 -0.0570
  858MPD2    C312597   0.482   1.683  16.908  0.1102  0.2087 -0.2492
  858MPD2    C412598   0.345   1.688  16.881 -0.2498  0.0900  0.0139
  858MPD2    C512599   0.278   1.574  16.839  0.1876  0.0402 -0.7346
  858MPD2     H12600   0.665   1.578  16.867 -0.4936 -1.5941  1.1037
  858MPD2    H112601   0.288   1.777  16.903 -1.2821 -0.5771  0.0464
  858MPD2    H212602   0.294   1.382  16.764 -0.9653  0.4675  0.7607
  858MPD2    H312603   0.170   1.570  16.834  0.1787  1.6285 -1.9563
  858MPD2     N12604   0.539   1.790  16.990 -0.2658  0.5781 -0.2871
  858MPD2    H512605   0.475   1.862  17.021  0.8477  0.1203  3.1603
  858MPD2    N112606   0.553   1.344  16.781 -0.0803  0.3190  0.0643
  858MPD2    H712607   0.489   1.271  16.750  0.3753  0.9510 -2.3273
  859MPD2     C12608   3.665   2.995  15.314  0.5200  0.6095  0.5447
  859MPD2    C112609   3.763   3.049  15.232  0.3124 -0.2167  0.0461
  859MPD2    C212610   3.852   2.961  15.165  0.6908  0.5129 -0.1669
  859MPD2    C312611   3.840   2.823  15.183 -0.7299  0.6620 -0.1664
  859MPD2    C412612   3.741   2.773  15.265  0.0131 -0.2117 -0.7841
  859MPD2    C512613   3.656   2.857  15.327  1.0062 -0.7728  0.1467
  859MPD2     H12614   3.933   3.004  15.107  2.5961 -1.4021  1.0813
  859MPD2    H112615   3.727   2.667  15.279 -0.8763  0.2495  1.7726
  859MPD2    H212616   3.590   3.052  15.369  0.4043  0.1222  0.8927
  859MPD2    H312617   3.569   2.812  15.375  0.8322 -0.1560  0.4102
  859MPD2     N12618   3.909   2.725  15.114  1.2174  0.2429 -0.3643
  859MPD2    H512619   3.891   2.626  15.127 -0.1655  0.5109 -0.3018
  859MPD2    N112620   3.773   3.189  15.231 -0.3522  0.3865  0.5670
  859MPD2    H712621   3.706   3.238  15.289 -0.4909 -2.0320  2.4608
  860MPD2     C12622   2.018   3.879  11.512 -0.5640  0.0031 -0.0519
  860MPD2    C112623   2.066   3.812  11.616  0.0005  0.2423  0.3689
  860MPD2    C212624   1.976   3.753  11.707  0.4578  0.2434 -0.0010
  860MPD2    C312625   1.833   3.769  11.693  0.4964  0.0496  0.2020
  860MPD2    C412626   1.788   3.849  11.589 -0.3567 -0.7513  0.1664
  860MPD2    C512627   1.881   3.908  11.501  0.6099  0.6212  0.1069
  860MPD2     H12628   2.015   3.692  11.788  2.4668  0.3770 -0.8699
  860MPD2    H112629   1.686   3.875  11.563 -0.6200 -1.8510  0.0828
  860MPD2    H212630   2.082   3.943  11.452 -3.4916  1.3431 -1.7631
  860MPD2    H312631   1.843   3.971  11.422  0.1204  0.0756 -0.0906
  860MPD2     N12632   1.750   3.720  11.789  0.2450  0.4532 -0.5025
  860MPD2    H512633   1.787   3.670  11.869 -1.1862  0.0843 -0.0601
  860MPD2    N112634   2.204   3.772  11.637 -0.0514 -0.0267 -0.5563
  860MPD2    H712635   2.226   3.719  11.720  1.6447 -0.6488 -1.4160
  861MPD2     C12636   0.750   2.469  11.224 -0.1417 -0.0051  1.0668
  861MPD2    C112637   0.634   2.495  11.299  0.3922 -0.1739  0.1906
  861MPD2    C212638   0.522   2.555  11.243  0.2122  0.1432  0.1231
  861MPD2    C312639   0.517   2.585  11.112 -0.0898 -0.0114 -0.0365
  861MPD2    C412640   0.630   2.552  11.035  0.0687 -0.2427 -0.1774
  861MPD2    C512641   0.742   2.503  11.091 -0.2543  0.1128  0.1351
  861MPD2     H12642   0.452   2.588  11.318 -0.5247 -1.7249  0.2650
  861MPD2    H112643   0.622   2.568  10.928 -0.6786  1.1069  0.0755
  861MPD2    H212644   0.843   2.431  11.266  0.1010  0.9404  1.3895
  861MPD2    H312645   0.823   2.476  11.024 -0.9059  0.4291 -0.7748
  861MPD2     N12646   0.408   2.639  11.048 -0.1631 -0.9341 -0.5291
  861MPD2    H512647   0.415   2.650  10.947 -2.3711  2.3904 -0.3121
  861MPD2    N112648   0.644   2.472  11.439 -0.4164 -0.9676  0.2436
  861MPD2    H712649   0.564   2.492  11.497 -0.0697 -1.8654  1.0186
  862MPD2     C12650   0.001   2.814  10.482  0.0924 -0.0619 -0.5064
  862MPD2    C112651   0.054   2.734  10.584 -0.0013 -0.4340 -0.1648
  862MPD2    C212652   0.030   2.597  10.576 -0.4877 -0.5029 -0.4305
  862MPD2    C312653   4.687   2.546  10.466 -0.5418  0.5860  0.5982
  862MPD2    C412654   4.641   2.627  10.366 -0.3273 -0.5476  0.3104
  862MPD2    C512655   4.668   2.759  10.372  0.2978 -0.3275 -0.4388
  862MPD2     H12656   0.081   2.533  10.647 -0.3007  0.3869  0.2428
  862MPD2    H112657   4.603   2.584  10.275 -0.3160 -2.2374  1.0976
  862MPD2    H212658   0.016   2.921  10.482  0.5999 -0.1281  1.1758
  862MPD2    H312659   4.652   2.817  10.281  0.3877 -0.1517 -0.3433
  862MPD2     N12660   4.669   2.404  10.452  0.5637  0.6213 -0.1732
  862MPD2    H512661   4.593   2.369  10.394  0.6368  1.0196 -0.5095
  862MPD2    N112662   0.121   2.780  10.700  0.0337 -0.4309  0.0788
  862MPD2    H712663   0.143   2.708  10.768  0.8448 -0.0303  0.2337
  863MPD2     C12664   3.580   0.815  16.665  0.9951 -0.0295  0.0925
  863MPD2    C112665   3.531   0.918  16.736 -0.4932  0.3901  0.1733
  863MPD2    C212666   3.564   0.936  16.870  0.7486  0.2495 -0.3888
  863MPD2    C312667   3.634   0.837  16.937  0.0600  0.1776  0.3347
  863MPD2    C412668   3.688   0.733  16.864  0.3593  0.3138 -0.4347
  863MPD2    C512669   3.651   0.726  16.733  0.6286 -0.0887 -0.1219
  863MPD2     H12670   3.525   1.018  16.930 -0.8457 -1.5940  1.1035
  863MPD2    H112671   3.750   0.659  16.914 -1.7829  0.1710  1.9777
  863MPD2    H212672   3.562   0.796  16.560 -0.7809  1.8718  0.0417
  863MPD2    H312673   3.682   0.642  16.672  1.3875  0.4209 -0.4306
  863MPD2     N12674   3.657   0.829  17.072 -0.4290  0.4215 -0.0861
  863MPD2    H512675   3.720   0.758  17.108  0.3428  1.5965  0.8774
  863MPD2    N112676   3.467   1.010  16.653  0.1785  0.0639  0.3748
  863MPD2    H712677   3.451   0.975  16.559  0.4623  1.3213 -0.1452
  864MPD2     C12678   3.827   2.516  17.303 -0.0169 -0.4589 -0.2590
  864MPD2    C112679   3.921   2.411  17.300 -0.4200  0.0434  0.6994
  864MPD2    C212680   4.034   2.430  17.216 -1.2686  0.4354 -0.4181
  864MPD2    C312681   4.060   2.544  17.143 -0.4142  0.0192 -0.4587
  864MPD2    C412682   3.961   2.641  17.150  0.2169 -1.1556 -0.7743
  864MPD2    C512683   3.849   2.622  17.219  0.6349  0.6611  0.1866
  864MPD2     H12684   4.107   2.350  17.209 -0.5419  1.1085 -0.5398
  864MPD2    H112685   3.973   2.731  17.090 -1.5287  0.5736  1.4427
  864MPD2    H212686   3.737   2.509  17.364 -0.3013 -2.0945 -0.8635
  864MPD2    H312687   3.765   2.692  17.214  0.4797  0.4676  0.1019
  864MPD2     N12688   4.171   2.566  17.059  0.4056  0.7408  0.4703
  864MPD2    H512689   4.184   2.659  17.020  0.5609  0.8813  0.8540
  864MPD2    N112690   3.890   2.296  17.376  0.6276 -0.7169  0.1909
  864MPD2    H712691   3.815   2.304  17.444  0.6869  0.3639  0.1337
  865MPD2     C12692   4.029   2.179  16.208 -0.4536 -0.2333 -0.5393
  865MPD2    C112693   4.050   2.152  16.344  0.1594  0.1479  0.8264
  865MPD2    C212694   4.087   2.257  16.423 -0.1298 -0.7999  0.1427
  865MPD2    C312695   4.134   2.377  16.367 -0.3392  0.2435 -0.0095
  865MPD2    C412696   4.114   2.397  16.233 -0.2212 -0.2080  0.5172
  865MPD2    C512697   4.075   2.293  16.152 -0.0326 -0.4893 -0.3839
  865MPD2     H12698   4.096   2.230  16.527 -1.7316 -1.9798 -0.0237
  865MPD2    H112699   4.145   2.484  16.176  1.0185 -0.8808  0.1714
  865MPD2    H212700   3.983   2.109  16.140  1.6836 -2.1847  0.0290
  865MPD2    H312701   4.085   2.301  16.044 -1.6495  1.7961 -0.3651
  865MPD2     N12702   4.187   2.481  16.446 -0.3142  0.1438 -0.7064
  865MPD2    H512703   4.248   2.550  16.405  1.8295 -0.2999  1.7244
  865MPD2    N112704   4.034   2.017  16.386  0.1851  0.3488  0.0883
  865MPD2    H712705   4.004   1.955  16.311  2.0308 -0.4007 -0.0198
  866MPD2     C12706   1.144   2.640  11.695  0.0895 -0.4331 -0.4184
  866MPD2    C112707   1.129   2.669  11.558 -0.7228 -0.5062  0.4161
  866MPD2    C212708   1.005   2.725  11.516 -0.0002  0.2894 -0.7118
  866MPD2    C312709   0.900   2.737  11.601  1.3144 -0.1038 -0.4026
  866MPD2    C412710   0.915   2.701  11.733 -0.1091 -0.2755  0.2010
  866MPD2    C512711   1.035   2.654  11.779 -0.0202 -0.2324 -0.5475
  866MPD2     H12712   1.001   2.758  11.413  0.7281 -1.0479 -1.1714
  866MPD2    H112713   0.828   2.697  11.798 -0.2565 -0.7177 -0.0226
  866MPD2    H212714   1.238   2.622  11.745  0.3795 -0.6338 -1.0258
  866MPD2    H312715   1.050   2.633  11.884 -3.2040 -1.3624 -0.3420
  866MPD2     N12716   0.774   2.793  11.567 -0.2772 -0.0512 -0.3648
  866MPD2    H512717   0.706   2.795  11.643  0.1296  1.7622 -0.0337
  866MPD2    N112718   1.241   2.657  11.474 -0.3196 -0.3496 -0.1906
  866MPD2    H712719   1.220   2.701  11.385 -0.6273 -0.3109 -0.0994
  867MPD2     C12720   3.258   2.468  16.971  0.1875 -0.2919  0.2149
  867MPD2    C112721   3.220   2.412  17.088  0.1172  0.4515  0.1588
  867MPD2    C212722   3.175   2.487  17.195 -0.8255 -0.4909 -0.1953
  867MPD2    C312723   3.185   2.623  17.193 -0.0615  0.2093  0.1589
  867MPD2    C412724   3.229   2.684  17.076 -0.0799  0.1334  0.0837
  867MPD2    C512725   3.255   2.608  16.966  0.5332 -0.0601 -0.0263
  867MPD2     H12726   3.134   2.436  17.282  0.5900  0.1773  0.8757
  867MPD2    H112727   3.245   2.791  17.072 -0.2552  0.0815 -2.0757
  867MPD2    H212728   3.293   2.398  16.896  1.1244  2.0704 -1.5321
  867MPD2    H312729   3.282   2.668  16.880  1.7088 -2.1884 -1.1213
  867MPD2     N12730   3.159   2.706  17.309  0.5531 -0.4865  0.5359
  867MPD2    H512731   3.159   2.806  17.290  1.3024 -0.2090  1.9598
  867MPD2    N112732   3.231   2.270  17.092 -0.2643 -0.1843  0.1206
  867MPD2    H712733   3.258   2.216  17.011 -1.5216 -1.5292  0.5943
  868MPD2     C12734   0.157   4.554  13.070  0.7207  0.1607  0.8061
  868MPD2    C112735   0.238   4.667  13.088 -0.5432  0.5277  0.5771
  868MPD2    C212736   0.182   0.060  13.125  0.2416 -0.0963  0.4300
  868MPD2    C312737   0.047   0.066  13.162 -0.2968 -0.2291 -0.5842
  868MPD2    C412738   4.688   4.678  13.126  0.0758 -0.2567  0.6520
  868MPD2    C512739   0.022   4.567  13.079  0.4592  0.1745 -0.2402
  868MPD2     H12740   0.240   0.149  13.148 -1.1479  0.4703  1.7955
  868MPD2    H112741   4.582   4.681  13.152 -0.6490 -1.2515 -2.2088
  868MPD2    H212742   0.202   4.465  13.029  1.1885  0.9707 -0.4713
  868MPD2    H312743   4.675   4.486  13.059  1.0870 -0.5070  0.3826
  868MPD2     N12744   0.001   0.176  13.234  0.4220  0.2446  0.3669
  868MPD2    H512745   0.065   0.253  13.252  2.2996 -1.0743 -0.7623
  868MPD2    N112746   0.375   4.660  13.054  0.1739 -0.3717  0.4079
  868MPD2    H712747   0.418   4.569  13.045 -1.3242 -1.1427  1.1316
  869MPD2     C12748   1.584   3.527   1.488  0.1971  0.7930  0.5023
  869MPD2    C112749   1.456   3.534   1.535  0.9172 -0.1618  0.1280
  869MPD2    C212750   1.366   3.620   1.469 -0.7211 -0.3182 -0.4578
  869MPD2    C312751   1.398   3.694   1.355  0.4583  0.0823  1.1454
  869MPD2    C412752   1.531   3.690   1.319  0.0302  0.4580 -0.0829
  869MPD2    C512753   1.620   3.605   1.382 -0.6709  0.2204  0.2436
  869MPD2     H12754   1.263   3.614   1.502 -0.3498 -2.3720  0.3047
  869MPD2    H112755   1.570   3.746   1.235 -2.1796  0.6128 -1.0027
  869MPD2    H212756   1.663   3.468   1.532  0.6194  0.8158 -0.2264
  869MPD2    H312757   1.724   3.600   1.350 -0.2422  0.4454  1.5790
  869MPD2     N12758   1.307   3.766   1.279 -0.3037 -0.3546 -0.2030
  869MPD2    H512759   1.344   3.811   1.196 -1.4790 -0.1386 -0.6050
  869MPD2    N112760   1.431   3.458   1.650  0.4862 -0.4350 -0.4780
  869MPD2    H712761   1.514   3.407   1.678 -0.0708 -1.4096 -0.6324
  870MPD2     C12762   4.628   2.576   1.769  0.4574  0.3343  0.3341
  870MPD2    C112763   0.015   2.595   1.691  0.0218  0.5841 -0.6466
  870MPD2    C212764   0.016   2.704   1.606  0.2762 -0.3577  0.4128
  870MPD2    C312765   4.647   2.803   1.609 -0.3029  0.2831 -0.0936
  870MPD2    C412766   4.538   2.790   1.690 -0.0809  0.0709 -0.2934
  870MPD2    C512767   4.532   2.677   1.769  0.0899  1.1627  0.3361
  870MPD2     H12768   0.096   2.725   1.535 -1.7031  0.5668 -1.5523
  870MPD2    H112769   4.458   2.863   1.703 -0.3083 -0.3658  0.7801
  870MPD2    H212770   4.623   2.495   1.840 -3.6541 -0.6267 -1.0583
  870MPD2    H312771   4.442   2.667   1.829  0.3547 -0.6520  0.4061
  870MPD2     N12772   4.661   2.912   1.514 -1.0624 -0.8179 -0.3568
  870MPD2    H512773   0.031   2.933   1.478 -0.2187 -0.7892  1.8452
  870MPD2    N112774   0.119   2.497   1.698  0.3053  0.2693 -0.7574
  870MPD2    H712775   0.108   2.425   1.770 -0.5185  3.8533  2.7212
  871MPD2     C12776   2.025   2.192  16.820  0.0026  0.7071  0.8274
  871MPD2    C112777   2.039   2.125  16.941 -0.1472 -0.0537  0.1376
  871MPD2    C212778   1.995   1.996  16.946  0.4972 -0.6184  0.2344
  871MPD2    C312779   1.946   1.931  16.841  0.5407  0.0340  0.2730
  871MPD2    C412780   1.935   2.000  16.715 -0.5517 -0.4858 -0.0104
  871MPD2    C512781   1.976   2.128  16.712  0.0783 -0.0185  0.5573
  871MPD2     H12782   2.015   1.939  17.036  0.7856 -3.3228 -1.5267
  871MPD2    H112783   1.904   1.952  16.623  0.4496 -1.3277  0.1016
  871MPD2    H212784   2.060   2.292  16.798  3.2691 -0.1774  2.0218
  871MPD2    H312785   1.980   2.177  16.616 -1.5662  0.5214  0.7650
  871MPD2     N12786   1.914   1.795  16.869 -0.2540  0.6165  0.3437
  871MPD2    H512787   1.895   1.771  16.966  2.7205 -1.0597  0.5178
  871MPD2    N112788   2.098   2.193  17.052  0.3002  0.1402  0.0094
  871MPD2    H712789   2.135   2.285  17.032  1.7088 -0.3596  0.3488
  872MPD2     C12790   2.822   4.644  14.062 -0.1528 -0.2487  0.0391
  872MPD2    C112791   2.874   4.514  14.084 -0.3288  0.6568  0.6266
  872MPD2    C212792   2.801   4.415  14.147  0.0331 -0.5114  0.5996
  872MPD2    C312793   2.691   4.459  14.224 -0.1129  0.0707  0.7725
  872MPD2    C412794   2.645   4.592  14.213  0.9548 -0.0929  0.0204
  872MPD2    C512795   2.706   4.682  14.128  0.0411 -0.2753  0.2233
  872MPD2     H12796   2.829   4.311  14.152 -3.0314 -1.4379 -1.1136
  872MPD2    H112797   2.555   4.633  14.258  2.2733  2.0721  0.6796
  872MPD2    H212798   2.867   4.715  13.994 -1.1414  0.4462  0.1181
  872MPD2    H312799   2.666   0.059  14.111  1.8035  0.4616  0.4323
  872MPD2     N12800   2.622   4.369  14.307  0.3316 -0.5825  0.1628
  872MPD2    H512801   2.534   4.390  14.353  0.6737  1.0795  0.0668
  872MPD2    N112802   2.997   4.476  14.028  0.2397  0.1465 -0.3708
  872MPD2    H712803   3.020   4.379  14.005  1.0028 -0.4918  3.0280
  873MPD2     C12804   4.442   4.406   1.429 -0.2652  0.5870 -0.2206
  873MPD2    C112805   4.551   4.467   1.497  0.0299 -0.5372 -0.6969
  873MPD2    C212806   4.677   4.412   1.480 -0.1951 -0.3341  0.3442
  873MPD2    C312807   4.700   4.299   1.399  0.2400 -0.0152  0.2022
  873MPD2    C412808   4.591   4.233   1.346 -0.4319 -0.2825 -0.4768
  873MPD2    C512809   4.472   4.291   1.360 -0.0767 -0.1907 -1.2813
  873MPD2     H12810   0.036   4.454   1.538 -1.7951  1.8986  0.9716
  873MPD2    H112811   4.602   4.146   1.282  4.1201 -0.3292  0.3688
  873MPD2    H212812   4.346   4.456   1.425 -0.7620 -0.3476  0.0464
  873MPD2    H312813   4.391   4.247   1.303 -0.5603  0.3555 -1.0178
  873MPD2     N12814   0.110   4.262   1.359  0.1062  0.5004 -0.3717
  873MPD2    H512815   0.119   4.180   1.299 -0.6314  0.2723 -0.1661
  873MPD2    N112816   4.530   4.593   1.558 -0.2989  0.3025 -0.0224
  873MPD2    H712817   4.442   4.639   1.537 -0.5796  0.1840  0.8709
  874MPD2     C12818   4.160   0.140  16.550  0.4320 -0.1756 -0.8434
  874MPD2    C112819   4.246   0.034  16.580 -0.8243 -0.4089  0.2615
  874MPD2    C212820   4.367   0.073  16.647 -0.3094  0.4190 -0.8629
  874MPD2    C312821   4.401   0.203  16.665  0.5109  0.2127  0.1727
  874MPD2    C412822   4.317   0.307  16.622 -0.2983  0.2477  0.5577
  874MPD2    C512823   4.196   0.268  16.571  0.4733 -0.4589  0.1998
  874MPD2     H12824   4.438   0.002  16.687 -1.8759 -0.6338  0.0664
  874MPD2    H112825   4.334   0.412  16.642 -1.6598  0.4341  0.7589
  874MPD2    H212826   4.059   0.121  16.515  0.1587  0.7816 -0.5691
  874MPD2    H312827   4.125   0.345  16.543  1.2365 -0.7414 -2.5226
  874MPD2     N12828   4.535   0.224  16.712 -0.2775  0.1741  0.3046
  874MPD2    H512829   4.591   0.148  16.749 -0.3394 -0.7392 -1.4684
  874MPD2    N112830   4.216   4.620  16.559  0.3774  0.4506 -0.5338
  874MPD2    H712831   4.123   4.600  16.522  0.2710 -0.6223  0.3181
  875MPD2     C12832   0.879   2.821  14.788 -0.8174 -0.5931 -0.4304
  875MPD2    C112833   0.750   2.810  14.835 -0.3045  0.0901 -0.4837
  875MPD2    C212834   0.722   2.850  14.961 -0.0124 -0.4280  0.2403
  875MPD2    C312835   0.815   2.921  15.037  0.2101 -0.1473  0.5279
  875MPD2    C412836   0.937   2.947  14.985 -0.3755 -0.0889 -0.3052
  875MPD2    C512837   0.969   2.887  14.863 -0.0468 -0.0414  0.1289
  875MPD2     H12838   0.616   2.845  14.985  0.2383 -0.0136  1.4307
  875MPD2    H112839   1.016   3.000  15.037  0.8597 -3.5996  1.3947
  875MPD2    H212840   0.909   2.800  14.686 -2.1546 -1.3319 -0.6649
  875MPD2    H312841   1.067   2.900  14.818 -1.1419 -0.3687 -2.3562
  875MPD2     N12842   0.770   2.989  15.155 -0.7531  0.1834  0.8006
  875MPD2    H512843   0.819   3.071  15.189 -2.7959  1.8352 -0.3145
  875MPD2    N112844   0.648   2.762  14.759  0.3073 -0.0846 -0.2620
  875MPD2    H712845   0.555   2.767  14.801  1.0971  2.3417  1.2420
  876MPD2     C12846   4.589   4.184  16.345 -0.5116  0.1820 -0.5922
  876MPD2    C112847   4.499   4.127  16.262 -0.1100 -0.4560 -0.1118
  876MPD2    C212848   4.430   4.017  16.312  0.4854  0.2560  1.2613
  876MPD2    C312849   4.451   3.963  16.434 -0.5841 -0.4467  0.0354
  876MPD2    C412850   4.534   4.032  16.516 -0.7866 -0.5293 -0.1143
  876MPD2    C512851   4.603   4.145  16.471  0.0192  0.4042  0.2634
  876MPD2     H12852   4.368   3.960  16.244  2.7049  1.4677 -1.7662
  876MPD2    H112853   4.565   4.000  16.614 -0.9892 -1.4766 -0.3556
  876MPD2    H212854   4.646   4.272  16.320  0.0412  0.0455  0.1713
  876MPD2    H312855   4.680   4.184  16.536  0.3988  0.0978 -0.0055
  876MPD2     N12856   4.389   3.837  16.459  0.1297 -0.1082 -0.1200
  876MPD2    H512857   4.342   3.800  16.377  0.9420 -0.9429 -0.2097
  876MPD2    N112858   4.487   4.174  16.124  1.0139  0.4309  0.4472
  876MPD2    H712859   4.562   4.230  16.087  0.5879 -1.1173 -2.7320
  877MPD2     C12860   4.602   0.005  15.591  0.3378 -1.0992  0.1146
  877MPD2    C112861   4.503   4.638  15.543 -0.6969  0.3904 -0.2557
  877MPD2    C212862   4.444   4.660  15.413  0.5602 -0.2952 -0.6055
  877MPD2    C312863   4.480   0.036  15.326 -0.3047  0.1336 -0.0002
  877MPD2    C412864   4.571   0.131  15.379 -0.5254  0.0202  0.1387
  877MPD2    C512865   4.628   0.115  15.507  0.0394  0.5412  0.2373
  877MPD2     H12866   4.354   4.603  15.392  1.7161 -1.9264 -1.1626
  877MPD2    H112867   4.595   0.217  15.317  0.2295  0.6607  1.3143
  877MPD2    H212868   4.653   4.721  15.686 -0.0314  1.5581  0.4914
  877MPD2    H312869   4.692   0.197  15.541  2.0938 -1.0929  0.3017
  877MPD2     N12870   4.422   0.038  15.198 -0.4763 -0.0542  0.1474
  877MPD2    H512871   4.364   4.683  15.170 -0.1165 -0.2189 -0.1454
  877MPD2    N112872   4.461   4.519  15.605  0.1292  0.1431 -0.1964
  877MPD2    H712873   4.398   4.459  15.554 -2.8248  1.5710  1.7530
  878MPD2     C12874   4.484   3.375  13.371 -0.0406  0.6262  0.1280
  878MPD2    C112875   4.510   3.509  13.378 -0.0871  0.7080  0.1739
  878MPD2    C212876   4.588   3.565  13.484 -0.1158 -0.2839  0.0443
  878MPD2    C312877   4.643   3.478  13.580 -0.1207  0.9584  1.1915
  878MPD2    C412878   4.612   3.342  13.570  0.1697  0.2075 -0.4060
  878MPD2    C512879   4.537   3.294  13.466  0.7451 -0.6409  0.7773
  878MPD2     H12880   4.603   3.673  13.491 -0.7680 -0.0718 -1.6841
  878MPD2    H112881   4.672   3.272  13.629 -2.1728  0.9445  2.8559
  878MPD2    H212882   4.420   3.335  13.294 -1.7416 -1.0787  2.4481
  878MPD2    H312883   4.526   3.188  13.448 -0.7633 -0.2475 -0.6480
  878MPD2     N12884   4.717   3.537  13.683  0.2268  0.2010 -0.0295
  878MPD2    H512885   4.718   3.638  13.683 -0.6716  0.2058 -1.3344
  878MPD2    N112886   4.443   3.585  13.278  0.1609  0.0210  0.1339
  878MPD2    H712887   4.396   3.527  13.209  1.0137  0.7374 -1.0673
  879MPD2     C12888   4.577   0.102  17.405  0.2465 -0.0577  0.1592
  879MPD2    C112889   4.560   0.229  17.347  0.4879 -0.1703 -0.4074
  879MPD2    C212890   4.449   0.253  17.267  0.1630 -0.1686 -0.2192
  879MPD2    C312891   4.355   0.149  17.255 -0.4619 -0.2218  0.5731
  879MPD2    C412892   4.363   0.026  17.317 -0.5621  0.2670  0.2040
  879MPD2    C512893   4.480   0.002  17.392  0.0540 -0.0756 -0.4633
  879MPD2     H12894   4.435   0.348  17.216 -2.3242 -1.1916 -1.4657
  879MPD2    H112895   4.290   4.669  17.307  0.4282 -0.6776  0.5282
  879MPD2    H212896   4.662   0.081  17.469  0.0376 -1.0760  0.1128
  879MPD2    H312897   4.492   4.635  17.451 -1.8908  0.9194  1.4490
  879MPD2     N12898   4.240   0.157  17.177  0.2200  0.0506  0.6326
  879MPD2    H512899   4.181   0.074  17.182  1.3992 -0.8087  0.3666
  879MPD2    N112900   4.671   0.319  17.374 -0.0212 -0.0686  0.4871
  879MPD2    H712901   0.003   0.298  17.457  0.1730  0.1659  0.4163
  880MPD2     C12902   0.261   2.173   0.604 -0.5913  0.2378  0.4391
  880MPD2    C112903   0.366   2.222   0.685  0.2870  0.1265 -0.0860
  880MPD2    C212904   0.417   2.145   0.790  0.2046 -0.3864 -0.1879
  880MPD2    C312905   0.381   2.011   0.799 -0.3738  0.4095 -0.0026
  880MPD2    C412906   0.297   1.960   0.703 -0.0372  0.3675  0.0555
  880MPD2    C512907   0.235   2.038   0.616 -0.4772 -0.3238  0.1389
  880MPD2     H12908   0.484   2.179   0.868  1.2928 -1.1170 -0.7926
  880MPD2    H112909   0.265   1.857   0.715  1.0126 -0.3153 -3.1314
  880MPD2    H212910   0.213   2.233   0.528  0.8061 -2.5671 -2.6444
  880MPD2    H312911   0.154   1.993   0.558  0.0148 -0.4202 -0.4784
  880MPD2     N12912   0.415   1.920   0.907 -0.2124  0.8854 -0.9703
  880MPD2    H512913   0.387   1.822   0.908 -0.0397  0.8218 -2.5021
  880MPD2    N112914   0.407   2.353   0.658 -0.0092  0.4794 -0.1365
  880MPD2    H712915   0.357   2.397   0.581 -0.6024  1.4829  0.8310
  881MPD2     C12916   1.066   3.152   0.364  0.1794 -0.6475  0.0951
  881MPD2    C112917   1.077   3.013   0.368  0.8871 -0.3457  0.0365
  881MPD2    C212918   0.971   2.938   0.412  0.8977  0.1131  0.3854
  881MPD2    C312919   0.874   2.994   0.493  0.1431  0.2694 -0.3163
  881MPD2    C412920   0.863   3.130   0.488 -0.4126  0.0752 -0.1224
  881MPD2    C512921   0.961   3.210   0.427  0.2200  0.5353  0.1037
  881MPD2     H12922   0.977   2.830   0.401 -0.4205  0.0539  0.2900
  881MPD2    H112923   0.780   3.185   0.530 -1.6655 -2.0016  0.1330
  881MPD2    H212924   1.149   3.211   0.327 -0.8145  0.0215 -1.0636
  881MPD2    H312925   0.951   3.318   0.424 -0.1538  0.5382  1.2295
  881MPD2     N12926   0.761   2.935   0.563  0.4834 -0.2471  0.3117
  881MPD2    H512927   0.701   3.004   0.608  2.3022  2.0675 -0.7890
  881MPD2    N112928   1.175   2.955   0.280 -0.9772  0.6439 -0.0686
  881MPD2    H712929   1.245   3.016   0.240 -2.6230  3.0621  0.7573
  882MPD2     C12930   4.002   0.330  14.534  0.0714 -0.5194 -0.1137
  882MPD2    C112931   3.989   0.219  14.614  0.5745 -0.5600 -0.6684
  882MPD2    C212932   3.857   0.166  14.620  0.4289 -0.5984 -0.4340
  882MPD2    C312933   3.751   0.214  14.547  0.8430  1.1173 -0.1696
  882MPD2    C412934   3.770   0.325  14.471 -0.1460 -0.4070  0.0630
  882MPD2    C512935   3.897   0.381  14.464  0.8544  0.1011 -0.0844
  882MPD2     H12936   3.850   0.073  14.676  2.2543 -0.9085 -0.7158
  882MPD2    H112937   3.690   0.363  14.409  0.6214  2.1032  0.6123
  882MPD2    H212938   4.100   0.363  14.499  0.2375 -0.1852  0.6566
  882MPD2    H312939   3.915   0.457  14.389  0.1427  0.4621  0.1137
  882MPD2     N12940   3.626   0.148  14.545 -0.2106  0.4949  0.2077
  882MPD2    H512941   3.553   0.190  14.489 -0.9968  0.9534  1.5844
  882MPD2    N112942   4.088   0.151  14.689 -0.4886 -0.5503 -0.6075
  882MPD2    H712943   4.058   0.070  14.742 -1.5844  0.1453 -0.1667
  883MPD2     C12944   1.675   4.352  16.733  0.1389  0.6955 -0.0430
  883MPD2    C112945   1.753   4.391  16.624 -0.3147 -0.7729 -0.2145
  883MPD2    C212946   1.861   4.469  16.638  0.7378 -1.2242  0.5497
  883MPD2    C312947   1.888   4.522  16.765  0.2414  0.7553 -0.3375
  883MPD2    C412948   1.802   4.502  16.870 -0.1292  0.4203 -0.1407
  883MPD2    C512949   1.691   4.414  16.854 -0.2856 -0.4604 -0.1293
  883MPD2     H12950   1.929   4.496  16.558  0.1020 -1.1641  0.0361
  883MPD2    H112951   1.829   4.527  16.972 -1.8540  2.8585 -0.2869
  883MPD2    H212952   1.589   4.286  16.731  1.6406 -1.2362 -1.2558
  883MPD2    H312953   1.622   4.394  16.935  1.5828  1.2060  1.8668
  883MPD2     N12954   2.009   4.590  16.766  0.0148  0.2651 -0.1274
  883MPD2    H512955   2.068   4.589  16.683  1.3994  1.5869  0.8459
  883MPD2    N112956   1.712   4.355  16.497 -0.2564 -0.0445 -0.4075
  883MPD2    H712957   1.777   4.379  16.423 -0.8338 -0.6403 -1.1123
  884MPD2     C12958   3.174   0.239  15.908  0.1465  0.0864 -0.6764
  884MPD2    C112959   3.076   0.204  15.820  0.2980  0.2994  0.4868
  884MPD2    C212960   2.953   0.258  15.838  0.2654  0.5405  0.4696
  884MPD2    C312961   2.923   0.350  15.933  0.5929  0.1946 -0.3746
  884MPD2    C412962   3.020   0.369  16.030  0.3954  0.0836 -0.9222
  884MPD2    C512963   3.140   0.310  16.019 -0.5452  0.5230 -0.5668
  884MPD2     H12964   2.879   0.227  15.764  0.3891 -0.3541  0.7217
  884MPD2    H112965   3.011   0.445  16.107  0.8860  2.6514 -3.3713
  884MPD2    H212966   3.277   0.209  15.890  0.2635 -1.2933  2.3021
  884MPD2    H312967   3.218   0.338  16.089 -0.5796 -1.0974  0.1151
  884MPD2     N12968   2.793   0.411  15.917  0.5062 -0.1297 -0.6401
  884MPD2    H512969   2.750   0.371  15.834  0.2376 -2.2146  0.5124
  884MPD2    N112970   3.091   0.138  15.699 -0.7786 -0.7809  0.3270
  884MPD2    H712971   3.007   0.124  15.644 -0.5364 -0.3838 -0.1458
  885MPD2     C12972   1.914   0.829   0.650 -0.2085  0.5380 -0.0021
  885MPD2    C112973   1.937   0.714   0.576  0.1384  0.3548 -0.0555
  885MPD2    C212974   1.910   0.728   0.443 -0.3732 -0.1635 -0.4522
  885MPD2    C312975   1.858   0.841   0.384  1.4098  0.6377 -0.2243
  885MPD2    C412976   1.838   0.947   0.465  0.3872  0.3173  0.4779
  885MPD2    C512977   1.866   0.940   0.595  0.5577 -0.4255  0.4153
  885MPD2     H12978   1.916   0.645   0.374 -0.5761 -2.1917  1.9790
  885MPD2    H112979   1.794   1.041   0.433 -2.4933 -1.1408  0.1507
  885MPD2    H212980   1.957   0.825   0.750  1.4900 -1.1415 -0.7965
  885MPD2    H312981   1.844   1.032   0.646 -0.9944 -0.5481 -0.0180
  885MPD2     N12982   1.842   0.841   0.245  0.0231 -0.0732  0.0563
  885MPD2    H512983   1.861   0.761   0.187 -1.7171 -0.5589  0.1651
  885MPD2    N112984   2.004   0.610   0.636  0.2342 -0.0915 -0.0072
  885MPD2    H712985   2.020   0.628   0.735 -0.4831 -1.0928  0.2980
  886MPD2     C12986   2.854   3.512  16.072 -0.3183 -0.3093 -0.4251
  886MPD2    C112987   2.878   3.471  15.946  0.3793  0.1857 -0.4897
  886MPD2    C212988   2.834   3.545  15.836  0.1666 -0.3222 -0.6432
  886MPD2    C312989   2.772   3.670  15.856  0.1506  0.0592 -0.0890
  886MPD2    C412990   2.740   3.705  15.987  0.5360  0.3186 -0.7860
  886MPD2    C512991   2.781   3.624  16.097 -0.2816  0.0428  0.4155
  886MPD2     H12992   2.870   3.519  15.737 -0.3978 -0.8489 -0.7110
  886MPD2    H112993   2.689   3.799  16.008  1.4514  0.3651  1.1667
  886MPD2    H212994   2.919   3.478  16.152 -0.2105  2.6357  0.7373
  886MPD2    H312995   2.772   3.656  16.200  0.3924  1.4987  0.0216
  886MPD2     N12996   2.737   3.758  15.748 -0.2688  0.0773 -0.2245
  886MPD2    H512997   2.712   3.854  15.772 -0.4511  0.4108 -1.7933
  886MPD2    N112998   2.956   3.356  15.915  0.2120  0.6265  0.1371
  886MPD2    H712999   2.964   3.337  15.816  0.0622 -0.8374  0.4084
  887MPD2     C13000   3.454   3.584  15.575 -0.1950 -0.0531  0.0479
  887MPD2    C113001   3.442   3.586  15.712 -0.7122 -0.3582  0.1675
  887MPD2    C213002   3.479   3.700  15.790 -0.4914  0.4610  0.1858
  887MPD2    C313003   3.525   3.818  15.728  0.2565 -0.2513  0.7873
  887MPD2    C413004   3.536   3.820  15.588 -0.0113 -0.8161 -0.5569
  887MPD2    C513005   3.499   3.706  15.517 -1.0572  1.1762  0.1780
  887MPD2     H13006   3.469   3.692  15.897 -0.6357  1.3075  0.2273
  887MPD2    H113007   3.560   3.914  15.539  1.0278 -0.3965  0.7616
  887MPD2    H213008   3.446   3.494  15.515 -0.8872  1.5303 -2.2340
  887MPD2    H313009   3.503   3.715  15.409 -1.7409  0.6062  0.1065
  887MPD2     N13010   3.566   3.927  15.807 -0.3549  1.0213  0.2072
  887MPD2    H513011   3.553   3.919  15.907  0.1941 -1.8718  0.0447
  887MPD2    N113012   3.388   3.474  15.776  0.0242 -1.2739 -0.5701
  887MPD2    H713013   3.365   3.480  15.874 -0.4849  0.0226 -0.7761
  888MPD2     C13014   0.346   3.976  14.974  0.2655 -0.3571  0.0517
  888MPD2    C113015   0.416   3.975  15.099 -0.3032 -0.2148 -0.5688
  888MPD2    C213016   0.525   4.072  15.104  0.7887 -0.3332  0.6394
  888MPD2    C313017   0.545   4.164  15.002 -0.3993  0.1455 -0.8077
  888MPD2    C413018   0.479   4.153  14.879  0.4809 -0.1919  0.3102
  888MPD2    C513019   0.384   4.058  14.861 -0.4055  0.3167  0.4269
  888MPD2     H13020   0.575   4.092  15.198  1.4781  2.5698 -0.3273
  888MPD2    H113021   0.491   4.222  14.795 -0.5067  0.9793  1.1237
  888MPD2    H213022   0.277   3.894  14.966  0.4386 -0.2893 -2.0338
  888MPD2    H313023   0.341   4.033  14.765  1.1575  0.7665 -0.3937
  888MPD2     N13024   0.632   4.273  15.027  0.3501  0.2930  0.0678
  888MPD2    H513025   0.661   4.287  15.124  1.2726  0.3410 -0.2184
  888MPD2    N113026   0.385   3.899  15.215  0.0150 -0.4107  0.2536
  888MPD2    H713027   0.459   3.903  15.285 -0.7463 -1.0281  1.0917
  889MPD2     C13028   4.606   3.321  12.932 -0.1927 -0.1641 -0.4170
  889MPD2    C113029   4.656   3.321  13.059 -0.0494  0.2300 -0.2257
  889MPD2    C213030   0.017   3.418  13.100  0.1392 -0.4667  0.4403
  889MPD2    C313031   0.013   3.542  13.043  0.0060 -0.5269 -0.1163
  889MPD2    C413032   4.682   3.550  12.911  0.0797  0.6301  0.5893
  889MPD2    C513033   4.618   3.438  12.865 -0.1882 -0.2304 -0.5630
  889MPD2     H13034   0.059   3.422  13.199  2.1226 -1.5399 -0.3649
  889MPD2    H113035   4.688   3.632  12.839  0.2259  0.2271  0.1390
  889MPD2    H213036   4.544   3.249  12.879  0.6368 -1.0454 -0.1980
  889MPD2    H313037   4.572   3.451  12.768 -1.0519 -0.9473 -0.2537
  889MPD2     N13038   0.084   3.646  13.108 -0.5149  0.6175 -0.3370
  889MPD2    H513039   0.115   3.624  13.202 -0.8597  2.4806  0.2048
  889MPD2    N113040   4.657   3.206  13.145  0.3670 -0.1436 -0.0855
  889MPD2    H713041   0.003   3.199  13.219 -0.2665  1.7066  0.6695
  890MPD2     C13042   4.098   0.468  15.131  0.9086  0.0588  0.3679
  890MPD2    C113043   4.178   0.555  15.188  0.2242  0.6916 -0.0898
  890MPD2    C213044   4.250   0.520  15.306  0.6983  0.4200 -0.5609
  890MPD2    C313045   4.231   0.388  15.357  0.6458 -0.0486 -0.5028
  890MPD2    C413046   4.156   0.298  15.282  0.8107  0.2512  0.2746
  890MPD2    C513047   4.081   0.341  15.185 -0.7797  0.0057  0.2342
  890MPD2     H13048   4.321   0.582  15.360 -0.5155  1.1738  0.1620
  890MPD2    H113049   4.126   0.202  15.323 -0.3243 -0.3242 -1.8971
  890MPD2    H213050   4.046   0.504  15.043  0.1939  2.6834  1.8846
  890MPD2    H313051   4.008   0.284  15.130 -0.4111  0.8736 -1.1521
  890MPD2     N13052   4.280   0.366  15.493 -0.2168 -0.0855 -0.0237
  890MPD2    H513053   4.325   0.450  15.527 -1.4761  0.3285  0.5917
  890MPD2    N113054   4.183   0.688  15.131  0.1892  0.3376  0.3845
  890MPD2    H713055   4.109   0.708  15.065  1.4774  2.7703 -0.3324
  891MPD2     C13056   2.195   3.530  16.482 -0.3765  0.1952 -0.5878
  891MPD2    C113057   2.144   3.608  16.579 -0.0234 -0.3301  1.3768
  891MPD2    C213058   2.221   3.649  16.689 -0.4224  0.2635 -0.6492
  891MPD2    C313059   2.349   3.607  16.707  0.8952  0.6149  0.1230
  891MPD2    C413060   2.404   3.538  16.602  0.0311  0.2327 -0.7164
  891MPD2    C513061   2.328   3.494  16.495  0.0576 -0.7845  0.2119
  891MPD2     H13062   2.177   3.706  16.771  1.5562  2.6440 -1.2517
  891MPD2    H113063   2.511   3.529  16.590 -0.0269 -0.5360 -0.6896
  891MPD2    H213064   2.148   3.500  16.389 -0.1848  0.1801 -0.6806
  891MPD2    H313065   2.384   3.461  16.408  0.5937  3.1740 -0.9113
  891MPD2     N13066   2.424   3.652  16.814 -0.1340  0.4791 -0.2862
  891MPD2    H513067   2.365   3.695  16.885  0.6229 -2.1775  1.9383
  891MPD2    N113068   2.011   3.653  16.551  0.0986 -0.1030 -0.5296
  891MPD2    H713069   1.975   3.633  16.458  0.7366 -0.2862 -0.7450
  892MPD2     C13070   3.141   4.487  15.308  0.1367 -0.6546  0.4034
  892MPD2    C113071   3.049   4.541  15.218 -0.1354  0.1059  0.0903
  892MPD2    C213072   3.088   4.555  15.086 -0.0347 -0.2865  0.3787
  892MPD2    C313073   3.208   4.507  15.036 -0.1840  0.0884  0.3637
  892MPD2    C413074   3.297   4.453  15.127 -0.1130 -0.2223 -0.0658
  892MPD2    C513075   3.262   4.444  15.258  0.5050  0.0069  0.1549
  892MPD2     H13076   3.010   4.589  15.018  1.4729  1.5404 -0.4348
  892MPD2    H113077   3.393   4.410  15.102  0.2458  1.0680 -0.8723
  892MPD2    H213078   3.124   4.491  15.415  2.5821 -0.4719  0.7917
  892MPD2    H313079   3.333   4.402  15.329  0.6021  1.7829  1.1063
  892MPD2     N13080   3.257   4.524  14.905 -0.0504  0.2178  0.1643
  892MPD2    H513081   3.353   4.505  14.878 -0.3964  2.6651 -2.7446
  892MPD2    N113082   2.922   4.584  15.257  0.4162  0.0598 -0.2017
  892MPD2    H713083   2.877   4.648  15.193  0.0704 -2.3190 -2.3521
  893MPD2     C13084   4.643   3.074   1.877 -0.6142 -0.0470 -0.3693
  893MPD2    C113085   4.655   3.180   1.789 -0.4033 -0.1552  0.1460
  893MPD2    C213086   4.539   3.250   1.756 -0.0411  0.7057 -0.5737
  893MPD2    C313087   4.418   3.203   1.800  0.1715  0.1714 -0.0957
  893MPD2    C413088   4.404   3.094   1.885 -0.0813 -0.3796  0.6538
  893MPD2    C513089   4.520   3.034   1.921 -0.0261 -0.0753 -0.4272
  893MPD2     H13090   4.537   3.335   1.687 -0.2974  1.4118  0.3106
  893MPD2    H113091   4.303   3.067   1.917 -0.1517  1.2570  1.8106
  893MPD2    H213092   0.002   3.008   1.905 -0.6359  0.5427  1.0760
  893MPD2    H313093   4.510   2.948   1.986  0.6299 -1.3144 -2.0033
  893MPD2     N13094   4.296   3.264   1.769 -0.6394 -0.2419 -0.1489
  893MPD2    H513095   4.219   3.204   1.797 -0.7868  1.2250  2.5289
  893MPD2    N113096   0.055   3.217   1.742 -0.1220 -0.3775  0.2989
  893MPD2    H713097   0.133   3.164   1.780 -0.8112 -1.7667 -0.2347
  894MPD2     C13098   2.535   1.418   1.143 -0.7702  0.3631  0.0372
  894MPD2    C113099   2.648   1.476   1.087  0.2725  0.8238 -0.7291
  894MPD2    C213100   2.772   1.411   1.088  0.2382  0.1165 -0.4050
  894MPD2    C313101   2.780   1.284   1.143  0.1474 -0.8502  0.0745
  894MPD2    C413102   2.670   1.223   1.197 -0.0090  0.4402 -0.1273
  894MPD2    C513103   2.550   1.292   1.199 -0.2084 -0.3786  0.3110
  894MPD2     H13104   2.851   1.464   1.036  0.2744 -0.7662 -1.2408
  894MPD2    H113105   2.673   1.128   1.250  0.0792 -0.0127 -0.9530
  894MPD2    H213106   2.436   1.464   1.145 -1.2519 -0.6920  0.5899
  894MPD2    H313107   2.463   1.242   1.239  0.1618  0.0237  1.6266
  894MPD2     N13108   2.908   1.223   1.138  0.7836  0.3319 -0.0667
  894MPD2    H513109   2.988   1.266   1.093  0.7652 -0.3080 -0.7121
  894MPD2    N113110   2.652   1.606   1.033  0.2511 -0.3355 -0.0873
  894MPD2    H713111   2.743   1.639   1.003  0.1637  0.9880  1.1236
  895MPD2     C13112   2.183   4.018  13.613 -0.4734 -0.0918 -0.8757
  895MPD2    C113113   2.126   3.947  13.512  0.5739 -0.8221 -0.0638
  895MPD2    C213114   2.179   3.829  13.472  0.2894  0.5245 -0.1682
  895MPD2    C313115   2.292   3.783  13.543 -0.1589 -0.6250 -0.2840
  895MPD2    C413116   2.346   3.853  13.642 -0.5386  0.0136  0.1335
  895MPD2    C513117   2.294   3.973  13.681 -1.0323 -0.0698  0.1069
  895MPD2     H13118   2.133   3.785  13.384  2.1245 -0.9686 -0.3888
  895MPD2    H113119   2.443   3.828  13.683 -0.1241  0.9850 -0.2606
  895MPD2    H213120   2.156   4.117  13.647  2.5306  0.4117  0.0150
  895MPD2    H313121   2.350   4.034  13.752 -0.4875 -1.3441  0.7814
  895MPD2     N13122   2.350   3.661  13.507  0.6717  0.1187 -0.0423
  895MPD2    H513123   2.307   3.612  13.428  1.0953 -0.1668 -0.0967
  895MPD2    N113124   2.017   3.996  13.438 -0.4658 -0.2848  0.3355
  895MPD2    H713125   1.988   3.938  13.359 -2.2471  2.1721 -0.8299
  896MPD2     C13126   0.052   0.887   1.131  0.1512  0.0756 -0.4210
  896MPD2    C113127   4.686   0.992   1.147 -0.9233  0.5513  0.0938
  896MPD2    C213128   4.547   0.964   1.139 -0.1023  0.3756  0.0349
  896MPD2    C313129   4.495   0.836   1.118 -0.7899  0.2049 -0.4668
  896MPD2    C413130   4.583   0.734   1.097  0.1182  0.7567 -0.8959
  896MPD2    C513131   4.719   0.766   1.101 -0.0105  0.8190  0.0141
  896MPD2     H13132   4.475   1.044   1.142 -0.8545 -0.4676  3.4709
  896MPD2    H113133   4.561   0.629   1.080  1.8891  0.7123 -2.8293
  896MPD2    H213134   0.159   0.898   1.146  0.3288 -1.2948 -0.7256
  896MPD2    H313135   0.062   0.681   1.083 -0.7105  0.2851 -0.0027
  896MPD2     N13136   4.360   0.806   1.106  0.1925 -0.4720 -0.1690
  896MPD2    H513137   4.341   0.712   1.072 -1.9262  0.6250 -2.0860
  896MPD2    N113138   0.015   1.126   1.154  0.0078 -0.3258 -0.8270
  896MPD2    H713139   0.108   1.143   1.118 -0.5029  0.8560 -1.5842
  897MPD2     C13140   1.368   3.406  10.734  0.1307 -0.8321  0.1739
  897MPD2    C113141   1.251   3.425  10.664 -0.2681 -0.5411  0.4689
  897MPD2    C213142   1.127   3.415  10.728 -0.4160 -0.5556  0.1706
  897MPD2    C313143   1.107   3.395  10.861  0.3695 -0.3070  0.3546
  897MPD2    C413144   1.228   3.362  10.928 -0.0705 -0.2147 -0.1127
  897MPD2    C513145   1.354   3.366  10.866  0.0178  0.2346 -0.3776
  897MPD2     H13146   1.038   3.422  10.666 -1.6704 -0.2515  1.9793
  897MPD2    H113147   1.222   3.335  11.033 -1.0660  0.3792 -0.0113
  897MPD2    H213148   1.465   3.406  10.686 -0.5822  0.3109 -1.2453
  897MPD2    H313149   1.440   3.356  10.931 -0.2601  1.9367  0.2471
  897MPD2     N13150   0.987   3.389  10.930  0.0611  0.2716 -0.1221
  897MPD2    H513151   0.995   3.371  11.029 -3.9438 -0.2166  0.1093
  897MPD2    N113152   1.275   3.464  10.533 -0.0923  0.0462 -0.2402
  897MPD2    H713153   1.369   3.463  10.495 -0.1268 -3.4123 -0.2648
  898MPD2     C13154   3.033   3.857   0.170 -0.7513 -0.6793  0.9549
  898MPD2    C113155   3.140   3.910   0.096 -0.8462  0.0639  0.3449
  898MPD2    C213156   3.113   3.968  17.668 -0.4681 -0.2113 -0.6942
  898MPD2    C313157   2.988   4.001  17.622 -0.0014  0.3730  0.1522
  898MPD2    C413158   2.886   3.951   0.003  0.8058  1.0632 -0.3553
  898MPD2    C513159   2.905   3.887   0.119  0.3451  0.1314 -0.3074
  898MPD2     H13160   3.193   4.003  17.603 -1.1569  1.0450 -0.8803
  898MPD2    H113161   2.785   3.965  17.659  0.6288  0.6802 -0.0160
  898MPD2    H213162   3.038   3.809   0.267 -1.4406  0.6142  1.6343
  898MPD2    H313163   2.818   3.868   0.181  2.3411 -2.8147  1.5716
  898MPD2     N13164   2.971   4.060  17.495  0.6839  1.0084  0.1718
  898MPD2    H513165   3.053   4.064  17.436  0.6733 -0.3289  0.0801
  898MPD2    N113166   3.272   3.904   0.147  0.0504  1.3610 -0.5558
  898MPD2    H713167   3.346   3.943   0.090  3.1787 -1.0832  1.8729
  899MPD2     C13168   3.509   0.333  17.442 -0.0990  0.3424  0.3684
  899MPD2    C113169   3.533   0.424  17.539 -0.2515  0.8078 -0.0590
  899MPD2    C213170   3.527   0.390  17.670  0.2597 -0.3255 -0.4961
  899MPD2    C313171   3.513   0.253   0.020 -0.2538  0.5777  0.3521
  899MPD2    C413172   3.493   0.158  17.610  0.1392 -0.3646 -0.1223
  899MPD2    C513173   3.488   0.199  17.473  0.8179 -0.2902 -0.0210
  899MPD2     H13174   3.536   0.474   0.045  0.7620 -0.0910 -0.8549
  899MPD2    H113175   3.492   0.052  17.633 -0.1648  0.2409  2.6733
  899MPD2    H213176   3.511   0.355  17.336  2.1744  0.8595  0.5259
  899MPD2    H313177   3.484   0.121  17.398  0.2903 -1.4080  1.1654
  899MPD2     N13178   3.519   0.211   0.157  0.0947  0.1367 -0.2840
  899MPD2    H513179   3.521   0.111   0.173  3.3767 -0.2837 -3.1834
  899MPD2    N113180   3.565   0.553  17.494 -0.0148  0.0996 -0.0152
  899MPD2    H713181   3.536   0.587  17.403 -1.4113  0.2852  0.5041
  900MPD2     C13182   3.707   1.774  12.746 -0.0809  0.0036  0.6811
  900MPD2    C113183   3.650   1.653  12.715 -0.5157 -0.0797 -0.9603
  900MPD2    C213184   3.528   1.665  12.651  0.4733 -0.1909  0.2285
  900MPD2    C313185   3.466   1.778  12.610 -0.3543 -0.2884  0.2197
  900MPD2    C413186   3.519   1.898  12.655 -0.3277 -0.2548  0.1784
  900MPD2    C513187   3.639   1.890  12.727 -0.3356 -0.0258  0.0634
  900MPD2     H13188   3.491   1.570  12.614 -0.3626  0.2485 -0.0605
  900MPD2    H113189   3.474   1.995  12.639  0.2093  0.0694  0.6362
  900MPD2    H213190   3.793   1.781  12.811 -0.3218  0.6402  0.9282
  900MPD2    H313191   3.690   1.978  12.765 -1.0248  1.9198 -3.4390
  900MPD2     N13192   3.347   1.765  12.532  0.2331  0.1844 -0.4303
  900MPD2    H513193   3.316   1.672  12.506  1.8017 -0.1038 -1.2950
  900MPD2    N113194   3.709   1.530  12.758 -0.5181  0.9388  0.6224
  900MPD2    H713195   3.809   1.529  12.769 -0.2701 -2.0615 -1.6830
  901MPD2     C13196   3.776   0.605  13.338  0.7447  0.3934  0.2820
  901MPD2    C113197   3.775   0.562  13.205  0.3504  0.3088  0.0004
  901MPD2    C213198   3.759   0.664  13.105  0.3198  0.3134 -0.3977
  901MPD2    C313199   3.730   0.797  13.135  0.6522  0.1994 -0.5756
  901MPD2    C413200   3.740   0.835  13.267 -0.2135  1.0271  0.3006
  901MPD2    C513201   3.766   0.739  13.366 -0.3324 -0.0452  0.2995
  901MPD2     H13202   3.766   0.636  13.000  0.2234 -1.4314  0.0694
  901MPD2    H113203   3.710   0.932  13.304  0.7384  1.5351 -0.2641
  901MPD2    H213204   3.778   0.535  13.421 -2.3950 -0.0566 -0.0381
  901MPD2    H313205   3.747   0.772  13.468 -0.3843 -1.2588  0.6884
  901MPD2     N13206   3.716   0.884  13.029  0.3915 -0.4725  0.4936
  901MPD2    H513207   3.701   0.850  12.934 -0.7638  1.5802 -0.0457
  901MPD2    N113208   3.776   0.419  13.182 -0.3425  0.3227 -0.9153
  901MPD2    H713209   3.763   0.357  13.261 -0.0105 -1.2854 -2.1060
  902MPD2     C13210   2.561   4.055  13.424 -0.0833 -0.5449 -0.6306
  902MPD2    C113211   2.520   4.112  13.305 -0.5723 -0.5594  0.2969
  902MPD2    C213212   2.582   4.076  13.187 -0.0107 -0.2363 -0.5274
  902MPD2    C313213   2.683   3.984  13.189 -0.1346  0.1696  0.3209
  902MPD2    C413214   2.733   3.937  13.303  0.1611 -0.1860  0.3638
  902MPD2    C513215   2.664   3.973  13.420  0.2028 -0.4538 -0.2395
  902MPD2     H13216   2.550   4.128  13.098 -1.3983  2.4076  1.5342
  902MPD2    H113217   2.810   3.861  13.313  1.5564  1.6511  3.4297
  902MPD2    H213218   2.519   4.078  13.521  0.9145  0.9844 -0.5519
  902MPD2    H313219   2.678   3.935  13.521  0.7272  2.7100  0.8900
  902MPD2     N13220   2.759   3.955  13.069  0.0080 -0.0929  0.5667
  902MPD2    H513221   2.844   3.899  13.075  0.2916  0.0254 -2.1201
  902MPD2    N113222   2.419   4.209  13.295 -0.0320  0.0090 -0.6945
  902MPD2    H713223   2.392   4.232  13.200 -1.4918 -1.1123 -0.5496
  903MPD2     C13224   2.610   4.172  12.314  0.7719  0.1853 -0.0531
  903MPD2    C113225   2.660   4.047  12.331 -0.0094  0.6519  0.5239
  903MPD2    C213226   2.677   3.972  12.217  0.6744 -0.3589  0.2879
  903MPD2    C313227   2.637   4.010  12.089 -0.2783 -1.0340 -0.0768
  903MPD2    C413228   2.590   4.142  12.079  0.0555  0.6055  0.5304
  903MPD2    C513229   2.572   4.217  12.190 -0.0993  0.4078 -0.1944
  903MPD2     H13230   2.721   3.873  12.225 -0.0678 -0.5940  1.4537
  903MPD2    H113231   2.572   4.191  11.985 -1.0497 -0.4919  0.1696
  903MPD2    H213232   2.589   4.233  12.401  0.7867 -2.0377  1.4986
  903MPD2    H313233   2.546   4.322  12.179  0.0091  0.5948  1.3177
  903MPD2     N13234   2.656   3.926  11.973  0.7019 -0.1375 -0.3760
  903MPD2    H513235   2.696   3.833  11.985 -0.4955 -0.1382  3.4793
  903MPD2    N113236   2.702   4.002  12.459  0.0799  0.3841  0.3242
  903MPD2    H713237   2.707   4.077  12.528 -1.1988 -0.8124  1.7375
  904MPD2     C13238   2.190   3.501  13.903 -0.3716  0.2105 -0.0111
  904MPD2    C113239   2.165   3.551  14.026  0.7014 -0.0006 -1.1119
  904MPD2    C213240   2.243   3.503  14.134  0.4818  0.0708  0.5698
  904MPD2    C313241   2.357   3.434  14.107  0.4610  0.0470 -0.6763
  904MPD2    C413242   2.389   3.400  13.976  0.1000  0.0142  0.3830
  904MPD2    C513243   2.301   3.428  13.877 -0.0892  0.1026 -0.4558
  904MPD2     H13244   2.224   3.533  14.236  0.0632 -2.2937  1.1991
  904MPD2    H113245   2.478   3.350  13.939 -0.7359 -0.8105 -0.5234
  904MPD2    H213246   2.137   3.531  13.813 -2.7756 -0.6060  1.1415
  904MPD2    H313247   2.329   3.393  13.778  1.0824  0.9059 -0.4151
  904MPD2     N13248   2.447   3.403  14.210  1.3687 -0.2290  0.2067
  904MPD2    H513249   2.419   3.433  14.303  1.1063 -2.9594  0.9980
  904MPD2    N113250   2.057   3.631  14.055 -0.4721 -0.0440  0.1799
  904MPD2    H713251   2.059   3.685  14.141  2.5331 -1.3086  0.9216
  905MPD2     C13252   1.838   3.674  13.394 -0.3978 -0.1852 -0.1463
  905MPD2    C113253   1.900   3.620  13.505 -0.5366  0.0792  0.2094
  905MPD2    C213254   2.006   3.531  13.489 -0.3587  0.2594 -1.3377
  905MPD2    C313255   2.045   3.498  13.366  0.6125  0.3254  0.0876
  905MPD2    C413256   1.988   3.560  13.253 -0.0768  0.3160  0.6191
  905MPD2    C513257   1.900   3.659  13.275 -0.0205 -0.0357  0.9583
  905MPD2     H13258   2.058   3.485  13.572 -2.3157  0.0682 -0.2083
  905MPD2    H113259   2.007   3.528  13.151 -1.2945 -0.1233  0.5418
  905MPD2    H213260   1.746   3.729  13.400  0.1291  0.5981  0.6542
  905MPD2    H313261   1.854   3.712  13.193  0.9391 -0.5440  0.1055
  905MPD2     N13262   2.144   3.406  13.334  0.2304  0.1496  0.4915
  905MPD2    H513263   2.178   3.401  13.238  0.3909  0.3400  0.5362
  905MPD2    N113264   1.846   3.657  13.626 -0.5898  0.1109  0.6599
  905MPD2    H713265   1.879   3.597  13.702  2.5856 -0.0891 -0.8830
  906MPD2     C13266   4.303   3.536  11.500 -0.3983  0.0724  0.1567
  906MPD2    C113267   4.255   3.448  11.397  0.1410  0.1402 -0.7862
  906MPD2    C213268   4.211   3.334  11.436  0.2391  0.0933 -0.5836
  906MPD2    C313269   4.195   3.296  11.570 -1.3337  0.0578 -0.1914
  906MPD2    C413270   4.231   3.381  11.666  0.3216 -0.8154  0.2985
  906MPD2    C513271   4.287   3.499  11.630 -0.0750  0.7491  0.2004
  906MPD2     H13272   4.200   3.262  11.355 -2.2313 -0.2633  0.0931
  906MPD2    H113273   4.234   3.350  11.770 -2.6573 -0.8597  0.3701
  906MPD2    H213274   4.352   3.630  11.479  2.1576 -1.4398 -0.7570
  906MPD2    H313275   4.324   3.562  11.709  1.5194  0.8633 -0.6407
  906MPD2     N13276   4.133   3.169  11.606  0.3341 -0.6319 -0.0700
  906MPD2    H513277   4.121   3.155  11.706 -0.4682  0.1667 -0.0510
  906MPD2    N113278   4.272   3.477  11.258  0.0449 -0.1409  0.4979
  906MPD2    H713279   4.254   3.398  11.197  0.0866  0.3631 -0.1774
  907MPD2     C13280   2.609   2.388  15.358  0.0040  0.4749 -0.5319
  907MPD2    C113281   2.717   2.306  15.385 -0.7810  0.0314 -0.1551
  907MPD2    C213282   2.818   2.366  15.460  0.4482 -0.0604  0.1762
  907MPD2    C313283   2.806   2.496  15.509 -0.1853  0.1416 -0.9945
  907MPD2    C413284   2.700   2.573  15.478 -0.7519  0.1683 -0.6058
  907MPD2    C513285   2.600   2.521  15.402  0.1471  0.5654 -0.3015
  907MPD2     H13286   2.911   2.314  15.484  0.4111 -0.1060  0.2216
  907MPD2    H113287   2.686   2.673  15.517  1.3895  0.3171 -0.2327
  907MPD2    H213288   2.517   2.363  15.307 -0.8071 -0.8195  1.5543
  907MPD2    H313289   2.517   2.585  15.378  0.3476  1.1265  0.5048
  907MPD2     N13290   2.909   2.547  15.587  0.2350  0.4928 -0.2060
  907MPD2    H513291   2.988   2.484  15.598 -0.6617 -0.5806  0.0866
  907MPD2    N113292   2.735   2.174  15.339  0.7292 -0.1440 -0.7861
  907MPD2    H713293   2.821   2.129  15.367  1.5362  0.6003 -2.0925
  908MPD2     C13294   0.671   3.561   9.751  0.0859 -0.1375  0.4004
  908MPD2    C113295   0.751   3.446   9.783 -0.2796  0.0327 -0.1706
  908MPD2    C213296   0.882   3.468   9.834 -0.2628 -0.2643  0.0374
  908MPD2    C313297   0.916   3.597   9.875 -0.2551  0.2827 -0.8159
  908MPD2    C413298   0.830   3.703   9.854 -0.5724  0.5304 -0.3102
  908MPD2    C513299   0.723   3.682   9.780 -0.4743 -0.2392  1.0593
  908MPD2     H13300   0.953   3.388   9.848 -1.0314 -0.7732  0.9855
  908MPD2    H113301   0.852   3.799   9.899  2.1012  0.5299 -1.6119
  908MPD2    H213302   0.584   3.562   9.686  2.5929 -1.5998 -2.9673
  908MPD2    H313303   0.669   3.773   9.762  1.4551  1.3992  3.5011
  908MPD2     N13304   1.021   3.609   9.966 -0.4879 -0.2471  0.5087
  908MPD2    H513305   1.088   3.533   9.977 -0.3340 -0.3951 -1.3162
  908MPD2    N113306   0.711   3.318   9.756  0.4859 -0.0330  0.5759
  908MPD2    H713307   0.778   3.246   9.779  0.3720  0.2388  1.7659
  909MPD2     C13308   1.456   1.178  12.081  0.6611 -0.0253  0.4157
  909MPD2    C113309   1.438   1.304  12.029 -0.4105  0.2918 -0.7013
  909MPD2    C213310   1.362   1.394  12.098  0.8972  0.2502 -0.0074
  909MPD2    C313311   1.301   1.365  12.220 -0.4811 -0.5262  0.6455
  909MPD2    C413312   1.321   1.234  12.272  0.4652  0.1037 -0.2608
  909MPD2    C513313   1.398   1.145  12.200  0.6646 -0.0222 -0.0251
  909MPD2     H13314   1.348   1.490  12.048  2.3987 -0.2838 -1.4419
  909MPD2    H113315   1.282   1.204  12.369 -1.4940  0.0144 -1.0571
  909MPD2    H213316   1.534   1.110  12.047 -0.0487 -0.1050 -1.0235
  909MPD2    H313317   1.416   1.050  12.250 -1.8757 -0.7145 -0.3800
  909MPD2     N13318   1.226   1.468  12.278 -0.5696  0.4116  0.2899
  909MPD2    H513319   1.218   1.554  12.224  2.9659  0.6501  0.1083
  909MPD2    N113320   1.510   1.360  11.923  0.0742  0.3895  0.1321
  909MPD2    H713321   1.491   1.457  11.900  2.1805  0.7448 -0.0252
  910MPD2     C13322   2.315   2.823  15.830 -0.0322 -0.0648  0.2067
  910MPD2    C113323   2.421   2.782  15.763  0.0962  0.4362 -0.9860
  910MPD2    C213324   2.448   2.818  15.628 -0.1544 -0.2259 -0.5385
  910MPD2    C313325   2.360   2.906  15.568 -0.2903 -0.8987  0.3622
  910MPD2    C413326   2.252   2.950  15.640  0.0291 -1.0100 -0.0251
  910MPD2    C513327   2.237   2.913  15.767  0.1664 -0.4028  0.6194
  910MPD2     H13328   2.538   2.784  15.579 -0.7393 -1.1483 -0.9787
  910MPD2    H113329   2.181   3.020  15.597  0.6378 -0.0615  0.5115
  910MPD2    H213330   2.287   2.809  15.934  0.3524  2.2477  0.6032
  910MPD2    H313331   2.151   2.946  15.824 -0.6642 -0.4890 -0.5738
  910MPD2     N13332   2.366   2.960  15.439 -0.2395 -0.3388  0.1398
  910MPD2    H513333   2.283   3.011  15.411 -0.7325 -1.4769 -0.4868
  910MPD2    N113334   2.514   2.701  15.826 -0.5029  0.0191  0.5188
  910MPD2    H713335   2.588   2.658  15.771 -0.0753 -0.9664  1.8679
  911MPD2     C13336   0.330   3.399  16.388 -0.1899 -0.2919  0.4580
  911MPD2    C113337   0.390   3.521  16.411 -0.0493  0.0086 -0.4391
  911MPD2    C213338   0.333   3.634  16.353  0.1885  0.4109  0.6190
  911MPD2    C313339   0.223   3.623  16.266 -0.3435 -0.3458 -0.1716
  911MPD2    C413340   0.162   3.499  16.240 -0.3263  0.5015  0.0164
  911MPD2    C513341   0.220   3.393  16.303 -0.7946 -0.0523  0.6050
  911MPD2     H13342   0.376   3.731  16.379 -0.7886  1.1201 -0.4050
  911MPD2    H113343   0.076   3.489  16.175  2.2224 -2.9119 -2.8384
  911MPD2    H213344   0.364   3.303  16.424  0.2044  0.5723  2.4331
  911MPD2    H313345   0.168   3.298  16.302  1.0066 -1.0489  0.0942
  911MPD2     N13346   0.149   3.733  16.216  0.3441 -0.6201 -0.2181
  911MPD2    H513347   0.056   3.715  16.180 -0.7326 -0.3491  2.3970
  911MPD2    N113348   0.498   3.522  16.502  0.4769  0.2432 -0.6603
  911MPD2    H713349   0.508   3.432  16.548 -0.3691 -0.2606 -1.4715
  912MPD2     C13350   4.517   3.453  15.877  0.6082  0.8301 -0.2702
  912MPD2    C113351   4.527   3.517  15.995 -0.4571  0.5885  0.2885
  912MPD2    C213352   4.527   3.455  16.116  0.7566  0.0164  0.7045
  912MPD2    C313353   4.549   3.316  16.121 -0.0147 -0.9204 -0.1461
  912MPD2    C413354   4.562   3.255  16.007 -0.7720 -0.1332  0.2271
  912MPD2    C513355   4.540   3.321  15.886 -0.0784  0.0781  0.1230
  912MPD2     H13356   4.527   3.506  16.211 -1.5503  0.0131  0.7005
  912MPD2    H113357   4.583   3.149  16.005 -0.7718 -0.1502  1.2024
  912MPD2    H213358   4.507   3.493  15.777 -1.9575 -4.4384 -2.1488
  912MPD2    H313359   4.534   3.250  15.804 -0.7247 -0.9979  1.0977
  912MPD2     N13360   4.566   3.249  16.245  0.7981  0.1439 -0.0623
  912MPD2    H513361   4.550   3.310  16.324 -2.1280 -0.0805 -0.4917
  912MPD2    N113362   4.524   3.656  15.985 -0.8728  0.3310 -0.2927
  912MPD2    H713363   4.519   3.695  15.891  0.6170  1.3098  0.0263
  913MPD2     C13364   0.954   0.311  10.551 -1.0062  1.1571 -0.3260
  913MPD2    C113365   1.063   0.391  10.588 -0.0466  0.1173  0.1499
  913MPD2    C213366   1.099   0.509  10.517  0.4207 -0.2611 -0.1953
  913MPD2    C313367   1.017   0.547  10.410  0.3978  0.0349 -0.1748
  913MPD2    C413368   0.915   0.460  10.370 -0.0399 -1.0203 -0.6041
  913MPD2    C513369   0.874   0.349  10.446  0.1241 -0.1815  0.1614
  913MPD2     H13370   1.185   0.569  10.546  1.8493 -2.6245  0.3774
  913MPD2    H113371   0.854   0.482  10.283  0.8974 -1.7246 -1.4463
  913MPD2    H213372   0.932   0.223  10.612 -0.2110  0.6139 -0.8227
  913MPD2    H313373   0.782   0.296  10.422 -0.3334  0.6379  0.0983
  913MPD2     N13374   1.050   0.650  10.327 -0.9053 -0.2415  0.0318
  913MPD2    H513375   0.999   0.650  10.239  1.0802  0.3188 -1.1206
  913MPD2    N113376   1.135   0.346  10.703  0.0128 -0.0805 -0.1927
  913MPD2    H713377   1.118   0.249  10.728 -0.3658 -0.3598 -1.5611
  914MPD2     C13378   3.510   4.710  12.349  0.4787  1.0105  1.0348
  914MPD2    C113379   3.529   0.113  12.395 -0.5105 -0.6924  0.0629
  914MPD2    C213380   3.604   0.133  12.510  0.3134  0.2626  0.1148
  914MPD2    C313381   3.649   0.027  12.584  0.4093  0.2366 -1.3507
  914MPD2    C413382   3.621   4.623  12.543  1.3381  0.8395 -0.9348
  914MPD2    C513383   3.556   4.605  12.424  0.0655 -0.3875  0.5120
  914MPD2     H13384   3.642   0.227  12.549  3.4054 -0.4944 -1.0763
  914MPD2    H113385   3.658   4.531  12.587 -2.0984  0.5013  1.1721
  914MPD2    H213386   3.450   4.691  12.260  2.3522  0.8010 -0.1764
  914MPD2    H313387   3.532   4.503  12.394  0.4290 -0.8155  1.6734
  914MPD2     N13388   3.726   0.050  12.693 -0.0723  0.4699  0.3487
  914MPD2    H513389   3.750   0.148  12.708  1.4356  0.0610  0.5785
  914MPD2    N113390   3.483   0.224  12.322 -0.3620 -0.2651  0.1514
  914MPD2    H713391   3.441   0.208  12.231 -0.4318 -2.8812  0.6596
  915MPD2     C13392   1.845   0.054  15.621  0.6004 -0.7199 -0.1994
  915MPD2    C113393   1.708   0.068  15.606  0.3964 -0.1891 -0.4336
  915MPD2    C213394   1.634   0.141  15.698 -0.6354 -0.3117  0.4533
  915MPD2    C313395   1.696   0.191  15.813 -0.5506  0.8881 -0.7900
  915MPD2    C413396   1.835   0.177  15.817  0.0386  0.2147 -0.7274
  915MPD2    C513397   1.908   0.102  15.729 -0.1956 -0.2732 -0.1712
  915MPD2     H13398   1.528   0.157  15.680 -0.4734 -0.5082 -0.6385
  915MPD2    H113399   1.888   0.220  15.901 -1.8372  3.1985 -1.1055
  915MPD2    H213400   1.892   4.719  15.542 -1.1447  0.8454 -2.3669
  915MPD2    H313401   2.016   0.099  15.738 -0.0857  1.7661 -0.8683
  915MPD2     N13402   1.623   0.246  15.918  0.7440  0.4324  0.0155
  915MPD2    H513403   1.524   0.261  15.902  0.2700 -1.0321  1.4824
  915MPD2    N113404   1.650   0.008  15.485 -0.2873 -0.6412 -0.3672
  915MPD2    H713405   1.715   4.693  15.417 -0.8564 -0.9655 -0.7228
  916MPD2     C13406   4.140   3.458  15.994 -0.6169  0.6251 -0.3227
  916MPD2    C113407   4.186   3.381  16.097 -0.3624  0.0433 -0.1673
  916MPD2    C213408   4.223   3.252  16.069 -0.8765  0.0919 -0.7379
  916MPD2    C313409   4.212   3.197  15.938  0.3866 -0.2115 -0.4203
  916MPD2    C413410   4.158   3.276  15.844  0.4183  0.3967 -0.5645
  916MPD2    C513411   4.125   3.403  15.876 -0.1255 -0.3661 -0.6122
  916MPD2     H13412   4.274   3.192  16.144 -0.7158  1.9520  0.6282
  916MPD2    H113413   4.136   3.235  15.746 -0.1134 -1.8093  0.4971
  916MPD2    H213414   4.116   3.562  16.011  0.0661  0.9050 -1.0370
  916MPD2    H313415   4.079   3.462  15.798  1.2662 -0.6787 -1.6795
  916MPD2     N13416   4.271   3.070  15.908 -0.4676 -0.0826 -0.5350
  916MPD2    H513417   4.306   3.015  15.985 -1.2186  1.3284  0.8043
  916MPD2    N113418   4.196   3.441  16.226  0.3141 -0.0438 -0.0541
  916MPD2    H713419   4.187   3.542  16.232 -0.2706 -0.2632  2.9313
  917MPD2     C13420   0.290   0.924  11.249 -0.3053  0.1623 -0.7809
  917MPD2    C113421   0.309   0.974  11.381 -0.2667 -0.1746  0.1910
  917MPD2    C213422   0.371   1.097  11.396  0.0104 -0.1592  0.0336
  917MPD2    C313423   0.398   1.175  11.279  0.5672  0.1583  0.4753
  917MPD2    C413424   0.384   1.123  11.155  0.5033  0.4998 -0.5797
  917MPD2    C513425   0.332   0.995  11.141 -0.3122  0.3173 -0.5504
  917MPD2     H13426   0.378   1.151  11.490  0.1745 -0.6488  0.3040
  917MPD2    H113427   0.428   1.173  11.070 -0.3011  1.1596 -0.6100
  917MPD2    H213428   0.257   0.823  11.227  1.7173 -0.8095  0.5523
  917MPD2    H313429   0.311   0.955  11.042 -0.4895 -1.6675  0.2857
  917MPD2     N13430   0.436   1.311  11.273 -0.0124  0.2244  0.4662
  917MPD2    H513431   0.436   1.346  11.178 -0.0109  0.1324  0.4319
  917MPD2    N113432   0.276   0.891  11.488 -0.3208 -0.3106 -1.8842
  917MPD2    H713433   0.210   0.820  11.457  0.8593 -2.8412  1.4427
  918MPD2     C13434   0.553   0.899  12.476  0.7823  0.5905  0.2551
  918MPD2    C113435   0.629   0.837  12.377  0.2422 -0.1148 -1.0549
  918MPD2    C213436   0.567   0.822  12.252  0.0426 -0.3799 -0.4023
  918MPD2    C313437   0.430   0.851  12.238  0.1862  0.7286  0.6031
  918MPD2    C413438   0.354   0.908  12.343 -0.5214 -0.1451  0.9687
  918MPD2    C513439   0.422   0.929  12.459  0.5077  0.3696 -0.5584
  918MPD2     H13440   0.619   0.783  12.165  0.4502 -0.0931 -0.2852
  918MPD2    H113441   0.248   0.927  12.347 -0.8093 -1.8949  1.5196
  918MPD2    H213442   0.588   0.925  12.575  0.3096 -2.9599  1.3376
  918MPD2    H313443   0.371   0.967  12.547  1.0427 -0.0480 -0.0712
  918MPD2     N13444   0.374   0.811  12.114 -0.3459  0.0707  0.2490
  918MPD2    H513445   0.441   0.772  12.049 -0.7155  0.4428 -0.3585
  918MPD2    N113446   0.766   0.808  12.413 -0.2616  0.5437  0.0246
  918MPD2    H713447   0.780   0.846  12.506 -1.5621  0.1006  0.4055
  919MPD2     C13448   1.076   0.144  11.992 -1.6672 -0.2471  0.5336
  919MPD2    C113449   1.093   0.030  11.914 -0.5724  0.6645 -0.1390
  919MPD2    C213450   1.088   0.036  11.776  0.0924  0.6894  0.5272
  919MPD2    C313451   1.054   0.154  11.714  0.1525 -0.5958 -0.3448
  919MPD2    C413452   1.028   0.266  11.791 -0.2384 -0.2970  0.2805
  919MPD2    C513453   1.048   0.260  11.926 -0.4056  0.0404  0.6170
  919MPD2     H13454   1.098   4.671  11.713 -0.3286  1.2754 -0.3490
  919MPD2    H113455   0.996   0.360  11.746 -1.5232 -0.5424  0.7025
  919MPD2    H213456   1.068   0.139  12.100 -3.0803 -1.0673  0.3842
  919MPD2    H313457   1.035   0.347  11.989 -3.6114 -1.4794  2.0684
  919MPD2     N13458   1.037   0.167  11.571 -0.2779 -0.4402 -0.8382
  919MPD2    H513459   1.009   0.259  11.538 -0.9166 -1.3862 -2.9222
  919MPD2    N113460   1.118   4.625  11.965 -0.8646  0.4330  0.6401
  919MPD2    H713461   1.129   4.552  11.895 -0.7427  1.7866 -0.7584
  920MPD2     C13462   0.769   0.613  10.725 -0.2491  0.2650 -0.0073
  920MPD2    C113463   0.715   0.489  10.731 -0.7351  0.4695  0.4690
  920MPD2    C213464   0.765   0.405  10.832 -0.5243  0.4723 -0.5168
  920MPD2    C313465   0.873   0.441  10.909  0.1277  0.6745 -0.1723
  920MPD2    C413466   0.929   0.569  10.894 -0.3614  0.7095  0.1670
  920MPD2    C513467   0.869   0.655  10.810  0.1784  0.4840  0.7353
  920MPD2     H13468   0.734   0.301  10.838 -1.5910  0.7154 -1.7414
  920MPD2    H113469   1.009   0.613  10.952  1.5750 -1.2441 -1.0683
  920MPD2    H213470   0.737   0.687  10.652 -1.9309  2.1334  2.6536
  920MPD2    H313471   0.905   0.758  10.814 -1.7521  1.1730  0.5269
  920MPD2     N13472   0.918   0.346  11.005  0.4454 -0.2344  0.5334
  920MPD2    H513473   0.877   0.253  11.010  0.5401 -0.2735  0.5933
  920MPD2    N113474   0.624   0.441  10.634 -0.5542 -0.2085 -0.5258
  920MPD2    H713475   0.581   0.352  10.657  1.8266 -0.7520  1.8354
  921MPD2     C13476   1.244   4.166  16.667 -0.4994  0.3162 -0.3235
  921MPD2    C113477   1.285   4.038  16.680 -0.1649 -1.8026  0.0018
  921MPD2    C213478   1.198   3.938  16.698  0.0964 -0.6295  0.5405
  921MPD2    C313479   1.062   3.965  16.711 -0.2126  0.5588 -0.0387
  921MPD2    C413480   1.022   4.097  16.705  0.3532  0.3685 -0.0334
  921MPD2    C513481   1.116   4.199  16.691 -0.4476  0.3894  0.1385
  921MPD2     H13482   1.229   3.834  16.688 -1.0832 -0.8671 -0.6636
  921MPD2    H113483   0.920   4.132  16.717  0.2460  0.3574 -0.8665
  921MPD2    H213484   1.313   4.249  16.652 -0.7501  0.5816 -0.0128
  921MPD2    H313485   1.084   4.302  16.682 -2.3903 -0.1348  1.0430
  921MPD2     N13486   0.957   3.865  16.727  0.2842 -0.4994 -0.1713
  921MPD2    H513487   0.858   3.888  16.728 -0.1032 -2.0966 -0.6363
  921MPD2    N113488   1.421   4.013  16.644 -0.4746  0.2968 -0.1943
  921MPD2    H713489   1.463   4.096  16.603  0.0074  0.2717  0.2589
  922MPD2     C13490   2.447   1.519  17.138  1.0167 -0.4353 -0.5046
  922MPD2    C113491   2.482   1.583  17.248 -0.3393 -0.7263  0.0425
  922MPD2    C213492   2.426   1.540  17.367  0.9839  0.3656 -0.3456
  922MPD2    C313493   2.331   1.442  17.376  0.1111 -0.5151  0.0472
  922MPD2    C413494   2.302   1.377  17.262 -0.8348 -0.1812  0.9350
  922MPD2    C513495   2.357   1.416  17.147  0.1816  0.3750  0.6377
  922MPD2     H13496   2.457   1.585  17.460 -1.0623 -0.2146  0.6324
  922MPD2    H113497   2.225   1.301  17.261  2.0160 -3.0797 -1.3687
  922MPD2    H213498   2.484   1.542  17.039 -0.6843  2.2606 -0.5218
  922MPD2    H313499   2.318   1.357  17.064 -0.3137 -0.5759  1.5450
  922MPD2     N13500   2.272   1.410  17.502 -0.3139  0.0567 -0.3526
  922MPD2    H513501   2.307   1.468  17.578 -2.3702 -2.5599  2.5978
  922MPD2    N113502   2.588   1.669  17.245  0.0088  0.1731 -0.1543
  922MPD2    H713503   2.608   1.721  17.330  2.1053  1.1264 -1.2310
  923MPD2     C13504   3.623   3.865   8.944  0.1590  0.2938  0.3828
  923MPD2    C113505   3.635   3.963   9.040 -1.0212 -0.3323  0.1955
  923MPD2    C213506   3.733   3.949   9.130 -0.0811  0.6392  0.2306
  923MPD2    C313507   3.813   3.833   9.133  0.5903 -0.0917 -0.1259
  923MPD2    C413508   3.805   3.740   9.038  0.2932  0.8967 -0.1347
  923MPD2    C513509   3.705   3.751   8.944 -0.5937  0.4074  0.5456
  923MPD2     H13510   3.740   4.031   9.201  1.6154 -0.4904  1.3620
  923MPD2    H113511   3.866   3.650   9.036 -0.5340  0.3317  0.3231
  923MPD2    H213512   3.538   3.874   8.877  1.0828  0.4359 -0.7640
  923MPD2    H313513   3.687   3.681   8.864 -0.7865 -0.7337  1.5914
  923MPD2     N13514   3.918   3.823   9.219  0.7330 -0.0512 -0.3430
  923MPD2    H513515   3.975   3.741   9.203  0.2212 -0.4267 -0.2485
  923MPD2    N113516   3.546   4.077   9.034 -0.1562 -0.3897  0.3875
  923MPD2    H713517   3.465   4.070   8.974 -1.6477  1.4377  2.1959
  924MPD2     C13518   3.794   2.376  15.926  0.0815  0.7056  0.5676
  924MPD2    C113519   3.673   2.315  15.909 -0.5228 -0.2892  0.0209
  924MPD2    C213520   3.565   2.398  15.884  0.3964  0.0415 -0.1398
  924MPD2    C313521   3.584   2.532  15.863 -0.7133  1.0610 -0.1281
  924MPD2    C413522   3.698   2.593  15.897  0.4233  0.2361  0.2631
  924MPD2    C513523   3.807   2.512  15.924 -0.4938  0.1645 -0.1280
  924MPD2     H13524   3.468   2.352  15.872  0.8268 -1.3443  1.6264
  924MPD2    H113525   3.710   2.700  15.907 -0.4491  0.5025 -1.6396
  924MPD2    H213526   3.882   2.314  15.932  0.4152  1.2728  1.5519
  924MPD2    H313527   3.903   2.555  15.948  0.3385 -2.1889  0.8198
  924MPD2     N13528   3.464   2.610  15.837 -0.2619 -0.0794  0.0610
  924MPD2    H513529   3.477   2.709  15.855 -0.4960  0.3897 -2.3858
  924MPD2    N113530   3.649   2.175  15.920 -0.8569  0.5926  0.5579
  924MPD2    H713531   3.554   2.140  15.921 -0.7656  0.3672  1.3106
  925MPD2     C13532   2.691   3.825  14.994  0.3270 -0.7502 -0.3413
  925MPD2    C113533   2.571   3.894  14.985 -0.3862  0.0631 -0.1970
  925MPD2    C213534   2.471   3.862  15.067 -0.2239  0.0823  0.9103
  925MPD2    C313535   2.477   3.761  15.164 -0.6862 -0.0622 -0.0956
  925MPD2    C413536   2.607   3.710  15.183  0.3885  0.1121 -0.0223
  925MPD2    C513537   2.709   3.738  15.096  0.4588 -0.0199  0.1037
  925MPD2     H13538   2.375   3.909  15.048 -0.3452 -0.6453 -0.2985
  925MPD2    H113539   2.635   3.656  15.274 -0.6308  0.6848  0.6244
  925MPD2    H213540   2.776   3.833  14.927  0.5516  0.1938  0.0524
  925MPD2    H313541   2.809   3.696  15.101 -0.0404 -1.3018 -0.5808
  925MPD2     N13542   2.367   3.722  15.246  0.0911  0.7201 -0.7863
  925MPD2    H513543   2.390   3.671  15.331 -1.9182  1.3164  0.0924
  925MPD2    N113544   2.547   3.977  14.877 -0.3127 -0.4234 -0.3880
  925MPD2    H713545   2.454   4.010  14.855 -0.0716  0.5421 -0.0023
  926MPD2     C13546   1.140   2.879  13.961  0.6302 -0.2139  0.3202
  926MPD2    C113547   1.035   2.914  13.889  0.2215  1.0095  0.3230
  926MPD2    C213548   1.050   2.929  13.746 -0.1512 -0.5591  0.1476
  926MPD2    C313549   1.177   2.912  13.686  0.3557  0.2174  0.7291
  926MPD2    C413550   1.280   2.879  13.768  0.9020 -0.1166 -0.7731
  926MPD2    C513551   1.267   2.864  13.905 -0.6689  0.1617 -0.1620
  926MPD2     H13552   0.958   2.951  13.693  0.2741 -1.4480 -0.9545
  926MPD2    H113553   1.377   2.866  13.720 -0.0662 -0.8482 -2.5402
  926MPD2    H213554   1.135   2.852  14.065  0.5230 -1.4441 -0.0106
  926MPD2    H313555   1.357   2.844  13.962 -1.5113 -0.8922  0.8086
  926MPD2     N13556   1.209   2.945  13.555 -0.1231 -0.2598 -0.5770
  926MPD2    H513557   1.306   2.940  13.526  0.0842  0.5696 -0.0408
  926MPD2    N113558   0.913   2.945  13.953  0.2228 -0.3225 -0.3886
  926MPD2    H713559   0.848   2.970  13.879 -1.6222 -1.7670  0.7499
  927MPD2     C13560   1.389   0.895   0.059 -0.1014  0.2046  0.6959
  927MPD2    C113561   1.454   0.785   0.122  0.6909 -0.9206 -0.3135
  927MPD2    C213562   1.500   0.684   0.039  0.2319  0.2499  0.6433
  927MPD2    C313563   1.474   0.684  17.601  0.6537  0.7915  0.5223
  927MPD2    C413564   1.407   0.782  17.539  0.5395  0.2080 -0.1607
  927MPD2    C513565   1.372   0.890  17.616 -0.2515 -0.1422  0.2844
  927MPD2     H13566   1.556   0.602   0.084  0.0351 -0.0514  0.3453
  927MPD2    H113567   1.381   0.797  17.435 -2.2292  1.2269  0.6891
  927MPD2    H213568   1.360   0.985   0.112 -1.9572 -0.9609  1.6782
  927MPD2    H313569   1.319   0.969  17.565  3.3021  0.4443 -2.4964
  927MPD2     N13570   1.527   0.573  17.528 -0.2637  0.4836  0.0018
  927MPD2    H513571   1.589   0.517  17.585  0.6515  0.6438 -0.8418
  927MPD2    N113572   1.471   0.790   0.262 -0.2251 -0.0786  0.1448
  927MPD2    H713573   1.439   0.876   0.306  0.2332 -0.5868  1.4922
  928MPD2     C13574   4.490   3.831   1.285  0.1890 -0.4252 -0.6138
  928MPD2    C113575   4.378   3.857   1.359 -0.4020  0.4688  0.4101
  928MPD2    C213576   4.285   3.947   1.303  0.2485 -0.0337  0.0505
  928MPD2    C313577   4.313   4.011   1.178 -0.9406 -0.1906 -0.5558
  928MPD2    C413578   4.431   3.979   1.110  0.1428 -0.2480 -0.1161
  928MPD2    C513579   4.520   3.886   1.166  0.6696 -0.0463  0.5610
  928MPD2     H13580   4.202   3.989   1.360  0.0900  2.3237 -1.8927
  928MPD2    H113581   4.447   4.022   1.012  2.0361 -1.1686 -0.1912
  928MPD2    H213582   4.569   3.770   1.326 -1.2851 -0.8517  1.5715
  928MPD2    H313583   4.611   3.863   1.113 -1.3980 -3.0615 -1.6788
  928MPD2     N13584   4.243   4.119   1.119  0.0377  0.0095 -0.1472
  928MPD2    H513585   4.282   4.150   1.031 -1.7482  1.3692 -0.4725
  928MPD2    N113586   4.367   3.797   1.486  0.1734 -0.1897 -0.3808
  928MPD2    H713587   4.442   3.737   1.520  1.3242  3.1563  2.9540
  929MPD2     C13588   2.738   3.260   9.705 -0.2780 -0.0756  0.1912
  929MPD2    C113589   2.783   3.368   9.782 -0.0772  0.5072  0.1913
  929MPD2    C213590   2.740   3.497   9.754 -0.2156  0.6844  0.0450
  929MPD2    C313591   2.640   3.517   9.662 -0.0538 -0.5335 -0.3191
  929MPD2    C413592   2.593   3.412   9.595 -0.0314 -1.1776  0.2414
  929MPD2    C513593   2.648   3.288   9.615  0.3629  0.4061  0.0490
  929MPD2     H13594   2.769   3.576   9.822  0.2982 -0.2469  0.9139
  929MPD2    H113595   2.523   3.431   9.515  1.5252 -0.8276 -1.0315
  929MPD2    H213596   2.777   3.159   9.714  1.4555  0.6453  0.6083
  929MPD2    H313597   2.631   3.208   9.543  0.8015 -1.2643  1.8240
  929MPD2     N13598   2.582   3.642   9.635  0.0469  0.7768  0.0313
  929MPD2    H513599   2.506   3.663   9.572  0.8081 -0.9201 -1.4491
  929MPD2    N113600   2.881   3.353   9.892 -0.0901  0.1708  0.1882
  929MPD2    H713601   2.916   3.266   9.929 -0.0287  0.8317  1.6934
  930MPD2     C13602   0.521   0.504  13.982 -0.0808  0.1550  0.0059
  930MPD2    C113603   0.551   0.559  13.860 -0.2865 -0.5458  0.2821
  930MPD2    C213604   0.552   0.478  13.748  1.0242 -0.0427  0.2820
  930MPD2    C313605   0.524   0.345  13.763 -0.3342  0.2396  0.2475
  930MPD2    C413606   0.500   0.286  13.882 -0.1386 -0.0194  0.5659
  930MPD2    C513607   0.496   0.368  13.998 -0.5197 -0.9929  0.4023
  930MPD2     H13608   0.580   0.528  13.656  0.0095  1.0247  0.5485
  930MPD2    H113609   0.481   0.180  13.887 -1.6069  0.1769 -0.8381
  930MPD2    H213610   0.527   0.572  14.066  1.3414  2.2053 -1.7549
  930MPD2    H313611   0.484   0.314  14.091  0.2839  0.4049  1.3057
  930MPD2     N13612   0.540   0.258  13.653 -0.5164 -0.3021  0.2220
  930MPD2    H513613   0.545   0.158  13.671  2.6705  0.0930  1.5960
  930MPD2    N113614   0.595   0.696  13.855 -0.2075 -0.1387  0.2202
  930MPD2    H713615   0.573   0.756  13.934 -0.7802 -1.0383  0.7505
  931MPD2     C13616   1.503   0.245   0.826 -0.0858  0.2338  0.1141
  931MPD2    C113617   1.412   0.338   0.833  0.6870  0.8690  0.3837
  931MPD2    C213618   1.311   0.324   0.921  0.1437 -0.6721 -0.0885
  931MPD2    C313619   1.294   0.218   1.006 -0.0213 -0.1605  0.0048
  931MPD2    C413620   1.394   0.125   0.999 -0.2469 -0.0380 -1.0729
  931MPD2    C513621   1.500   0.142   0.913 -0.3465 -0.1768  0.3121
  931MPD2     H13622   1.219   0.379   0.907  1.2937  1.0655 -0.8019
  931MPD2    H113623   1.398   0.044   1.070 -0.9032 -1.1808 -2.3503
  931MPD2    H213624   1.588   0.239   0.758  1.5404 -2.2487  2.3645
  931MPD2    H313625   1.572   0.062   0.925  1.0592  0.8744 -1.2133
  931MPD2     N13626   1.186   0.197   1.089  0.3841  0.4056 -0.1638
  931MPD2    H513627   1.205   0.112   1.141 -0.7086  0.7957  0.8706
  931MPD2    N113628   1.418   0.442   0.745  0.0472  0.5445  0.1041
  931MPD2    H713629   1.508   0.462   0.702 -1.2481  1.7812 -1.9973
  932MPD2     C13630   2.940   3.379  11.609 -0.5457 -0.6657  0.4707
  932MPD2    C113631   3.025   3.470  11.666 -0.4181 -0.4964  0.1343
  932MPD2    C213632   3.140   3.440  11.731 -0.1609  0.1884 -0.1120
  932MPD2    C313633   3.172   3.303  11.739 -0.9048  0.0527 -0.8811
  932MPD2    C413634   3.093   3.215  11.673  0.0331 -0.0155 -0.4349
  932MPD2    C513635   2.982   3.248  11.610 -0.0466 -0.3794  0.2899
  932MPD2     H13636   3.194   3.525  11.770 -1.2361  1.4761 -1.4454
  932MPD2    H113637   3.113   3.109  11.670  1.4518  0.2101  0.9337
  932MPD2    H213638   2.847   3.398  11.557 -0.3523 -2.3074 -0.4752
  932MPD2    H313639   2.915   3.174  11.566  2.3795 -1.0833 -2.1912
  932MPD2     N13640   3.275   3.255  11.823  0.4880 -0.2497 -0.4564
  932MPD2    H513641   3.267   3.159  11.856 -0.1110 -0.5361 -1.4082
  932MPD2    N113642   2.997   3.605  11.667 -0.4581  0.0056 -0.5424
  932MPD2    H713643   3.060   3.659  11.725 -0.5144 -0.3187 -0.1812
  933MPD2     C13644   4.048   3.499   2.307 -0.3636 -0.2278 -0.4105
  933MPD2    C113645   4.001   3.581   2.209  0.4632  0.5153 -0.2666
  933MPD2    C213646   3.876   3.637   2.214  1.1272  0.6803  0.9018
  933MPD2    C313647   3.797   3.618   2.326  0.6926 -0.8248  0.6142
  933MPD2    C413648   3.848   3.556   2.437 -0.2851  0.1793  0.1376
  933MPD2    C513649   3.973   3.498   2.423  0.3501 -0.1414  0.0255
  933MPD2     H13650   3.843   3.706   2.137 -0.2903  0.9480  1.7453
  933MPD2    H113651   3.789   3.536   2.526 -3.6002  1.0111 -1.8616
  933MPD2    H213652   4.148   3.459   2.310 -0.4263 -0.3660 -0.1019
  933MPD2    H313653   4.024   3.458   2.510  0.6919 -0.8021 -0.4801
  933MPD2     N13654   3.672   3.694   2.332  0.4394  0.3226  0.1971
  933MPD2    H513655   3.646   3.753   2.254  0.8985  0.9234  0.5031
  933MPD2    N113656   4.095   3.601   2.110  0.0938 -0.2722  0.4674
  933MPD2    H713657   4.169   3.532   2.104  1.2156  1.0802 -1.0790
  934MPD2     C13658   4.338   1.366   1.894  0.2174 -0.3537 -1.1675
  934MPD2    C113659   4.431   1.267   1.877 -0.1196 -0.4287  0.1481
  934MPD2    C213660   4.395   1.157   1.802  0.2105  0.0875 -0.5824
  934MPD2    C313661   4.270   1.145   1.742  0.7990  0.0245  0.5605
  934MPD2    C413662   4.181   1.245   1.764 -0.4009 -0.3567 -0.6251
  934MPD2    C513663   4.214   1.349   1.847  0.0215  0.8690 -0.3654
  934MPD2     H13664   4.467   1.076   1.804 -0.3626 -0.4261 -0.9001
  934MPD2    H113665   4.076   1.231   1.740 -0.4134 -2.5944  0.8323
  934MPD2    H213666   4.367   1.463   1.933  1.5208 -0.6119 -1.5186
  934MPD2    H313667   4.145   1.433   1.852  0.2613  1.0959 -0.8520
  934MPD2     N13668   4.234   1.039   1.654  0.0391 -0.0446  0.1640
  934MPD2    H513669   4.134   1.038   1.637  0.7110 -1.4625 -3.6727
  934MPD2    N113670   4.564   1.268   1.936  0.1900  0.1967  0.2280
  934MPD2    H713671   4.609   1.183   1.904 -0.1968 -0.2548  0.8714
  935MPD2     C13672   0.089   0.271   1.261 -0.8472  0.3949  0.2357
  935MPD2    C113673   4.679   0.236   1.269 -0.2515 -0.8569 -0.3844
  935MPD2    C213674   4.591   0.327   1.316 -0.0690  0.4626  0.7049
  935MPD2    C313675   4.619   0.462   1.338  0.2306 -0.0383  0.7222
  935MPD2    C413676   0.030   0.498   1.334 -0.5480  0.4540 -0.6581
  935MPD2    C513677   0.122   0.400   1.291  0.0882 -0.3609  0.0671
  935MPD2     H13678   4.490   0.289   1.324 -0.3175  0.9952  0.0476
  935MPD2    H113679   0.069   0.598   1.351  1.2038 -0.2818 -0.2946
  935MPD2    H213680   0.172   0.210   1.228 -0.6714  1.4607 -1.2975
  935MPD2    H313681   0.227   0.422   1.285 -0.1581  1.1000  1.3774
  935MPD2     N13682   4.519   0.563   1.356 -0.0772  1.0208 -0.9837
  935MPD2    H513683   4.548   0.656   1.384  0.0982  1.0557 -1.2886
  935MPD2    N113684   4.618   0.112   1.236  0.2473 -0.1368  0.0939
  935MPD2    H713685   4.518   0.109   1.257  0.7502  1.2385  2.6863
  936MPD2     C13686   2.771   2.320  13.069 -0.1161  0.3228 -0.1853
  936MPD2    C113687   2.717   2.445  13.055 -0.2053  0.3006  0.5515
  936MPD2    C213688   2.689   2.487  12.926  0.0488 -0.2749  0.0925
  936MPD2    C313689   2.717   2.408  12.810 -0.3388  0.8888  0.5055
  936MPD2    C413690   2.776   2.282  12.831 -0.2690  0.1204 -0.5094
  936MPD2    C513691   2.792   2.236  12.962  0.1356 -0.3211 -0.6123
  936MPD2     H13692   2.652   2.588  12.915 -0.3669 -0.6076 -1.6807
  936MPD2    H113693   2.793   2.210  12.752 -1.6262 -1.1180  0.3186
  936MPD2    H213694   2.793   2.287  13.170 -2.0659 -2.4759 -0.6520
  936MPD2    H313695   2.847   2.145  12.986 -0.5690 -1.1269 -2.0738
  936MPD2     N13696   2.712   2.461  12.674  0.1014  0.1638 -0.1097
  936MPD2    H513697   2.754   2.401  12.604  1.0666 -0.3464  0.8877
  936MPD2    N113698   2.693   2.533  13.163  0.3128  0.2276  0.0604
  936MPD2    H713699   2.633   2.613  13.141 -1.7015 -1.5483 -0.9535
  937MPD2     C13700   1.152   3.969  11.685 -0.1907 -0.3177 -0.3382
  937MPD2    C113701   1.169   4.105  11.704 -0.0704 -0.3646  0.4182
  937MPD2    C213702   1.250   4.172  11.619 -0.2168  0.3846 -0.4734
  937MPD2    C313703   1.305   4.107  11.508 -0.3201  0.2688 -0.7361
  937MPD2    C413704   1.284   3.973  11.488 -0.5961 -0.3388  0.0043
  937MPD2    C513705   1.209   3.903  11.584  0.3823 -0.0788  0.8185
  937MPD2     H13706   1.280   4.273  11.646  1.1696 -0.2841  0.4265
  937MPD2    H113707   1.338   3.918  11.412  1.0462  1.7691 -0.3621
  937MPD2    H213708   1.090   3.902  11.744 -2.0310  1.5794 -0.1170
  937MPD2    H313709   1.188   3.798  11.572  0.5665 -0.1243  0.8976
  937MPD2     N13710   1.385   4.186  11.420  0.6826  0.2004 -0.8082
  937MPD2    H513711   1.376   4.287  11.417 -0.4831  0.1201  0.2465
  937MPD2    N113712   1.125   4.174  11.819  0.0820 -0.4171  0.6217
  937MPD2    H713713   1.131   4.275  11.805  0.4996 -0.8188 -1.9379
  938MPD2     C13714   2.926   0.396   1.210 -0.5143  0.3353 -0.1966
  938MPD2    C113715   3.048   0.371   1.270 -0.2172 -0.3724 -0.0369
  938MPD2    C213716   3.094   0.461   1.363 -0.0978 -0.4586 -0.6069
  938MPD2    C313717   3.029   0.577   1.388 -0.2997 -0.4147 -0.2049
  938MPD2    C413718   2.908   0.606   1.324  0.7954 -0.1684 -0.1603
  938MPD2    C513719   2.863   0.511   1.241  0.5084  0.8291 -0.3229
  938MPD2     H13720   3.188   0.432   1.410  1.4415 -0.2086 -3.5383
  938MPD2    H113721   2.844   0.691   1.344 -2.0141 -2.2571 -0.2333
  938MPD2    H213722   2.871   0.343   1.133 -1.2935  0.0033  0.5972
  938MPD2    H313723   2.763   0.521   1.201 -0.1959 -1.9784  0.7349
  938MPD2     N13724   3.077   0.672   1.484  0.2180  0.7850 -0.4049
  938MPD2    H513725   3.019   0.755   1.494 -1.7734 -0.3680 -2.4101
  938MPD2    N113726   3.128   0.260   1.235 -0.3384  0.1318  0.8835
  938MPD2    H713727   3.216   0.251   1.285 -1.4018 -1.7753  2.4215
  939MPD2     C13728   4.319   1.061   0.837  0.2869  0.0728 -0.5111
  939MPD2    C113729   4.287   1.189   0.793  0.0440 -0.8220 -0.2749
  939MPD2    C213730   4.368   1.246   0.693  0.1020 -0.0151  0.6484
  939MPD2    C313731   4.464   1.166   0.632  0.6658  1.0805 -0.0525
  939MPD2    C413732   4.505   1.044   0.687  0.4850 -0.6388 -0.3994
  939MPD2    C513733   4.425   0.993   0.785  0.2045 -0.0217  0.0186
  939MPD2     H13734   4.342   1.334   0.635  0.8476 -0.7002 -0.7219
  939MPD2    H113735   4.570   0.971   0.641  0.9812 -0.9176  0.7333
  939MPD2    H213736   4.245   1.011   0.898  0.8865 -0.4886 -0.2465
  939MPD2    H313737   4.438   0.887   0.804 -1.8017 -0.5806 -1.7379
  939MPD2     N13738   4.526   1.227   0.525 -0.0976  0.6530  0.2989
  939MPD2    H513739   4.506   1.324   0.504  0.9860  1.1564  1.6034
  939MPD2    N113740   4.189   1.266   0.855 -0.0318 -0.4708 -0.3276
  939MPD2    H713741   4.153   1.230   0.942 -0.8785 -0.0038 -0.4893
  940MPD2     C13742   3.491   2.821  12.924  0.1730  0.6791  0.0201
  940MPD2    C113743   3.596   2.762  12.986 -0.4242 -0.1253  0.2890
  940MPD2    C213744   3.671   2.660  12.926 -0.6379 -0.5095  0.5103
  940MPD2    C313745   3.656   2.635  12.793 -0.7463 -0.3989  0.4065
  940MPD2    C413746   3.547   2.698  12.726 -0.3190 -0.2422 -0.0482
  940MPD2    C513747   3.468   2.787  12.789 -0.1089 -0.3317 -0.6517
  940MPD2     H13748   3.744   2.605  12.984 -0.0070 -2.4135 -2.0699
  940MPD2    H113749   3.532   2.675  12.621 -1.2762 -1.1929  0.2960
  940MPD2    H213750   3.428   2.892  12.977  1.6058  0.8775  1.4544
  940MPD2    H313751   3.389   2.827  12.726  1.9363  0.9884 -2.3548
  940MPD2     N13752   3.742   2.551  12.717  0.4208  0.8561  0.1145
  940MPD2    H513753   3.725   2.546  12.617  0.7452  1.0448  0.0485
  940MPD2    N113754   3.620   2.793  13.122  0.4682 -0.5868  0.6461
  940MPD2    H713755   3.703   2.749  13.160  1.7764  2.8170  1.7857
  941MPD2     C13756   3.059   2.371   9.494 -0.3337  0.3541  0.2371
  941MPD2    C113757   3.111   2.363   9.623  0.3660  0.5382 -0.0217
  941MPD2    C213758   3.068   2.264   9.709 -0.1670  0.1679 -0.0171
  941MPD2    C313759   2.949   2.199   9.679  0.3610 -0.5167 -0.0310
  941MPD2    C413760   2.887   2.221   9.561 -0.0659  0.1076 -0.1108
  941MPD2    C513761   2.944   2.300   9.470 -0.4512  0.3625  0.5149
  941MPD2     H13762   3.111   2.254   9.808  1.3894  2.3884 -0.4565
  941MPD2    H113763   2.799   2.165   9.534 -0.8004  1.2190 -0.0234
  941MPD2    H213764   3.101   2.438   9.420  1.1093  0.8013  1.4786
  941MPD2    H313765   2.896   2.298   9.373 -1.6280  1.3137  1.0801
  941MPD2     N13766   2.888   2.091   9.751  0.0337 -0.4011 -0.0681
  941MPD2    H513767   2.792   2.062   9.739 -0.4617  0.7330  1.2107
  941MPD2    N113768   3.225   2.436   9.666 -0.0372 -0.1045  0.1933
  941MPD2    H713769   3.250   2.420   9.763  0.5691  1.9397  0.3758
  942MPD2     C13770   2.048   4.186   9.114 -0.2189  0.3812  0.2155
  942MPD2    C113771   2.088   4.072   9.042  0.8522 -0.4982  1.1473
  942MPD2    C213772   2.223   4.060   9.007  0.8743 -0.1215  0.1158
  942MPD2    C313773   2.322   4.159   9.041  0.2197  1.2101 -0.0397
  942MPD2    C413774   2.281   4.272   9.108 -0.6140  0.1564 -0.5768
  942MPD2    C513775   2.145   4.282   9.149  0.0653  0.2597  0.2114
  942MPD2     H13776   2.256   3.971   8.956  0.2995 -0.1795 -0.1497
  942MPD2    H113777   2.348   4.348   9.145 -0.2451 -0.2594 -0.3970
  942MPD2    H213778   1.949   4.196   9.157 -0.1957 -1.5357  0.7027
  942MPD2    H313779   2.118   4.372   9.202 -2.4371 -0.7773  0.6606
  942MPD2     N13780   2.455   4.142   9.004  0.2775 -0.2449 -0.0772
  942MPD2    H513781   2.525   4.213   9.025 -2.3785  2.0721  0.8310
  942MPD2    N113782   2.005   3.963   9.008 -0.0459 -0.0863  0.5992
  942MPD2    H713783   2.054   3.883   8.971  0.6441 -0.0774  1.4765
  943MPD2     C13784   1.761   2.450  10.101 -0.6215  0.4143 -0.4090
  943MPD2    C113785   1.706   2.340  10.160 -0.0584 -0.0925  0.5105
  943MPD2    C213786   1.667   2.355  10.290  0.5570  0.0260  0.1512
  943MPD2    C313787   1.700   2.464  10.367 -0.1957 -0.3083 -0.1983
  943MPD2    C413788   1.759   2.568  10.306  0.1670 -0.3560 -0.5163
  943MPD2    C513789   1.788   2.568  10.167  0.0126  0.0209 -0.0159
  943MPD2     H13790   1.609   2.273  10.332  0.0589 -0.1052 -0.7972
  943MPD2    H113791   1.794   2.653  10.364  0.3475  0.3087 -1.5957
  943MPD2    H213792   1.796   2.443   9.999 -0.1669 -1.2877 -0.1300
  943MPD2    H313793   1.835   2.650  10.115 -0.7157  1.2169  1.2365
  943MPD2     N13794   1.667   2.480  10.508 -0.1649 -0.5174 -0.1202
  943MPD2    H513795   1.678   2.574  10.544 -0.0379 -0.4639 -0.2973
  943MPD2    N113796   1.664   2.231  10.083 -0.2431  0.1312  0.2455
  943MPD2    H713797   1.650   2.249   9.984 -0.4097 -1.4695 -0.0257
  944MPD2     C13798   1.454   1.012  10.916  0.2013 -0.2407  0.3107
  944MPD2    C113799   1.588   0.977  10.910  1.1250  0.2538  0.3541
  944MPD2    C213800   1.666   0.957  11.028  0.1248  0.4085  0.2262
  944MPD2    C313801   1.593   0.971  11.149 -0.7191  0.2323  0.4091
  944MPD2    C413802   1.459   0.999  11.147 -0.7387  0.0560  0.6928
  944MPD2    C513803   1.384   1.020  11.031 -0.1147  0.1870 -0.7112
  944MPD2     H13804   1.771   0.933  11.020 -0.3467 -1.7658  0.7206
  944MPD2    H113805   1.406   1.006  11.241 -0.8004 -0.0718  0.6684
  944MPD2    H213806   1.407   1.043  10.823 -0.0118  3.4672  1.6419
  944MPD2    H313807   1.278   1.043  11.030  0.0176  0.8383  1.0875
  944MPD2     N13808   1.669   0.945  11.262 -0.1886 -0.2926  0.3263
  944MPD2    H513809   1.770   0.941  11.254 -0.0013  0.1077  2.4141
  944MPD2    N113810   1.648   0.982  10.783  0.3897 -0.1555 -0.0769
  944MPD2    H713811   1.586   0.988  10.703 -0.2860 -2.2246  0.2819
    1TCq1    O113812   0.309   1.308  14.467 -0.5541  0.3348 -0.3035
    1TCq1    C113813   0.201   1.257  14.400  0.1102  0.3607 -0.9365
    1TCq1    O213814   0.157   1.146  14.407  0.2854 -0.0701  0.1313
    1TCq1    C213815   0.110   1.370  14.406 -0.0200  1.1118 -0.4564
    1TCq1    C313816   0.049   1.395  14.286 -0.4947  0.3199  0.0130
    1TCq1    C413817   4.709   1.515  14.270 -0.2928 -0.4776 -1.0441
    1TCq1    C513818   4.717   1.611  14.372  0.6144 -0.2742 -0.1075
    1TCq1    C613819   0.056   1.578  14.490  0.3362 -1.2534 -0.0867
    1TCq1    C713820   0.121   1.458  14.504 -1.0124  0.3206  0.4343
    1TCq1    C813821   0.045   1.658  14.615 -0.3695 -0.1885 -0.0265
    1TCq1    O413822   0.118   1.637  14.709 -0.8150 -0.1621  0.8892
    1TCq1    C913823   4.637   1.546  14.146  0.0463  0.0193  0.1909
    1TCq1    O513824   4.622   1.454  14.058  0.5449 -0.2293 -0.3478
    1TCq1    O613825   4.572   1.654  14.142 -0.0150 -0.1344 -0.1836
    1TCq1    H113826   0.333   1.399  14.439  0.4514 -0.1666 -1.0277
    1TCq1    H213827   0.042   1.326  14.203  0.6128  1.9556 -1.4417
    1TCq1    H313828   4.663   1.705  14.363  0.7855 -0.0249  1.4468
    1TCq1    H413829   0.170   1.436  14.599 -0.3290 -0.0610 -0.0043
    2MPD2     C13830   4.613   2.080  14.845  0.5136 -0.7298  0.3646
    2MPD2    C113831   4.560   2.085  14.721  0.8190  0.0369  0.1834
    2MPD2    C213832   4.582   1.970  14.642 -0.1021  0.0066  0.2121
    2MPD2    C313833   4.647   1.862  14.701 -0.4859 -0.3562 -0.1250
    2MPD2    C413834   4.689   1.855  14.835  0.2574  0.0700  0.4311
    2MPD2    C513835   4.667   1.969  14.907  0.0869  0.0898  0.1494
    2MPD2     H13836   4.544   1.963  14.541  1.6769 -0.9120 -0.3961
    2MPD2    H113837   0.028   1.778  14.880 -0.5930 -0.7379  0.2331
    2MPD2    H213838   4.594   2.160  14.916 -0.8640 -0.0412 -0.7804
    2MPD2    H313839   4.696   1.976  15.012 -1.9566  0.6410  0.6845
    2MPD2     N13840   4.679   1.758  14.604 -0.1852 -1.1481 -0.4859
    2MPD2    H513841   4.635   1.763  14.513 -0.7299 -2.4383 -0.2827
    2MPD2    N113842   4.496   2.203  14.675  0.0811  0.1884 -0.0122
    2MPD2    H713843   4.505   2.286  14.734  1.2897 -0.0432  0.1260
    3TMC2    C113844   4.391   2.353  14.530 -0.6486  0.0686 -0.3513
    3TMC2    C213845   4.418   2.460  14.607 -0.7191 -0.6632 -0.1495
    3TMC2    C313846   4.388   2.588  14.559 -0.3182  0.9732  0.1535
    3TMC2    C413847   4.346   2.375  14.405  0.8481  0.0289  1.3041
    3TMC2    C513848   4.309   2.503  14.362 -0.4104  0.4291  0.1668
    3TMC2    C613849   4.336   2.613  14.434 -0.4054  0.1000  0.2986
    3TMC2     C13850   4.432   2.220  14.562 -0.1049  1.0959 -0.2097
    3TMC2     O13851   4.395   2.131  14.488  0.4037  0.1261 -0.1481
    3TMC2     H13852   4.446   2.448  14.711 -0.9772  0.0251 -0.0044
    3TMC2    H113853   4.326   2.290  14.342  2.3648 -0.6505  1.7587
    3TMC2    H213854   4.316   2.717  14.410  0.8431  0.3051  0.1516
    3TMC2    C713855   4.246   2.513  14.235  0.0164  0.8771  0.7368
    3TMC2    C813856   4.404   2.693  14.652  0.2391 -0.2453  0.3436
    3TMC2    O113857   4.197   2.407  14.190  0.0129  0.5623  0.3733
    3TMC2    O213858   4.326   2.786  14.661 -0.0967  0.1350 -0.6596
    3TMC2    O513859   4.528   2.699  14.710  0.6323  1.0021  0.1798
    3TMC2    H513860   4.591   2.630  14.678 -0.6726 -0.0318 -0.1766
    4MPD2     C13861   3.293   3.198  13.933 -0.4486 -0.0847  0.2348
    4MPD2    C113862   3.352   3.135  13.829 -0.2220 -0.0470  0.4471
    4MPD2    C213863   3.494   3.155  13.820 -0.1938 -0.1633  0.2444
    4MPD2    C313864   3.563   3.230  13.904 -0.3797  0.3500  0.5325
    4MPD2    C413865   3.498   3.294  14.009  0.1421 -0.6499  0.6102
    4MPD2    C513866   3.366   3.265  14.022  0.2761 -0.5844  0.7471
    4MPD2     H13867   3.547   3.105  13.740 -1.0357 -0.5386 -0.0791
    4MPD2    H113868   3.541   3.365  14.078 -2.1324  1.0044  0.3205
    4MPD2    H213869   3.187   3.191  13.950 -0.4909  0.7306  0.3508
    4MPD2    H313870   3.323   3.318  14.106  3.4444  2.0622  0.6900
    4MPD2     N13871   3.693   3.256  13.873 -0.1438  0.0886 -0.1556
    4MPD2    H513872   3.737   3.195  13.805  0.7038  0.4610  0.0542
    4MPD2    N113873   3.275   3.054  13.747 -0.4733 -0.0275 -0.6323
    4MPD2    H713874   3.177   3.073  13.767  0.0944  1.2034  0.9727
    5TCq2    C113875   3.765   3.365  13.916  0.3201  0.2219 -0.9119
    5TCq2    O213876   3.728   3.475  13.953 -0.2509  0.3506 -0.5351
    5TCq2    C213877   3.895   3.356  13.875  0.2859  0.5986 -0.5403
    5TCq2    C313878   3.962   3.474  13.876  0.0210  0.2049  0.1460
    5TCq2    C413879   4.102   3.459  13.883 -0.1671 -0.3474 -0.0869
    5TCq2    C513880   4.165   3.338  13.893  0.3705  0.2149  0.1782
    5TCq2    C613881   4.098   3.223  13.895  0.0398  0.4013 -0.3931
    5TCq2    C713882   3.960   3.234  13.896  0.8370  0.1404 -0.3393
    5TCq2    C813883   4.156   3.096  13.937  0.8198  0.1883 -0.4976
    5TCq2    O413884   4.225   3.094  14.038  0.4543  0.0015 -0.2952
    5TCq2    C913885   4.183   3.582  13.880 -0.0622 -0.2963  0.3922
    5TCq2    O513886   4.127   3.696  13.872 -0.0673 -0.0398 -0.0169
    5TCq2    O613887   4.306   3.566  13.844  0.3772 -0.7842  0.1989
    5TCq2    H213888   3.916   3.570  13.857 -2.9269 -1.6893 -2.3763
    5TCq2    H313889   4.271   3.340  13.914 -0.0557  2.4745  2.1838
    5TCq2    H413890   3.906   3.141  13.912 -0.9163  1.3858  0.9689
    6MPD1     C13891   2.695   4.579  13.710 -0.2915 -0.4631 -0.6737
    6MPD1    C113892   2.830   4.575  13.664 -0.1011 -0.3673 -0.0189
    6MPD1    C213893   2.888   4.453  13.622 -0.1438  0.2233  0.1465
    6MPD1    C313894   2.815   4.335  13.627 -0.3557  0.5695  0.2467
    6MPD1    C413895   2.690   4.340  13.676 -0.0891 -0.1953 -0.1268
    6MPD1    C513896   2.628   4.461  13.711  0.7537 -1.1402 -0.7231
    6MPD1     H13897   2.989   4.458  13.582  0.0203 -2.1651  0.2550
    6MPD1    H113898   2.628   4.252  13.689 -0.0608 -0.1544  0.2783
    6MPD1    H213899   2.649   4.673  13.738 -2.1610 -2.0209  1.5229
    6MPD1    H313900   2.531   4.445  13.758  1.0847 -1.4303 -0.1356
    6MPD1     N13901   2.867   4.210  13.589  0.1678 -0.2050 -0.2060
    6MPD1    H513902   2.824   4.129  13.632 -0.3513  0.0217 -0.3032
    6MPD1    N113903   2.886   4.696  13.636  0.1170  1.0742  0.3144
    6MPD1    H613904   2.987   4.682  13.633 -0.1834 -1.3276  1.3242
    6MPD1    H713905   2.859   0.053  13.695 -1.8079  0.7389 -0.1099
    7MPD2     C13906   2.867   3.636  13.522  0.8683  0.0948 -0.6301
    7MPD2    C113907   2.955   3.571  13.593  0.5914 -0.1320  0.0943
    7MPD2    C213908   2.967   3.432  13.582 -0.3516  0.0505  0.6998
    7MPD2    C313909   2.894   3.362  13.492 -0.8947  0.1404  0.2367
    7MPD2    C413910   2.813   3.429  13.401 -0.7019  0.6172 -0.4398
    7MPD2    C513911   2.807   3.561  13.419  0.3417  0.1061 -0.5268
    7MPD2     H13912   3.043   3.378  13.638 -1.2708 -1.2505  0.6822
    7MPD2    H113913   2.754   3.384  13.322 -0.8272  0.1344 -0.0684
    7MPD2    H213914   2.829   3.737  13.538 -0.4325 -0.5227  0.1594
    7MPD2    H313915   2.738   3.613  13.354  0.7516  1.0517 -0.2062
    7MPD2     N13916   2.903   3.223  13.479 -0.3603 -0.4517  0.6861
    7MPD2    H513917   2.856   3.186  13.396 -1.8073 -2.1621  2.2791
    7MPD2    N113918   3.029   3.635  13.687  0.4745 -0.4896  0.6913
    7MPD2    H713919   3.081   3.588  13.760  1.3874 -2.7311 -1.3958
    8TMC3    C113920   3.003   3.016  13.512 -0.2544  0.0660 -0.4586
    8TMC3    C213921   3.094   2.958  13.588 -0.6797  0.0420 -1.1090
    8TMC3    C313922   3.219   2.935  13.541 -0.5085  0.7106 -0.0791
    8TMC3    C413923   3.035   3.039  13.379  0.6281 -0.2846  0.5894
    8TMC3    C513924   3.165   3.033  13.336  0.3501  0.0417 -0.0290
    8TMC3    C613925   3.254   2.974  13.418  0.1047 -0.6430 -0.1304
    8TMC3     C13926   2.951   3.138  13.576  0.0196 -0.1207  0.1887
    8TMC3     O13927   3.007   3.154  13.685  0.1880 -0.0735  0.6936
    8TMC3     H13928   3.053   2.920  13.681  0.6244  1.6769  0.1360
    8TMC3    H113929   2.962   3.074  13.306  1.7090  1.4990  0.3647
    8TMC3    H213930   3.358   2.968  13.389  0.4379  1.2200  0.7165
    8TMC3    C713931   3.210   3.148  13.269  0.0617  0.4024 -0.6911
    8TMC3    C813932   3.320   2.976  13.640 -0.5454 -0.2239 -0.4258
    8TMC3    O113933   3.297   3.209  13.335 -0.2893 -0.5527  0.1531
    8TMC3    O213934   3.432   2.929  13.616  0.7480 -0.0579 -0.0638
    9TMC3    C113935   3.020   4.052  13.500 -0.4984 -0.0494  0.6322
    9TMC3    C213936   3.055   3.996  13.380  0.3888 -0.0957 -0.4157
    9TMC3    C313937   3.112   3.871  13.378  0.2829 -0.4701 -0.8271
    9TMC3    C413938   3.012   3.979  13.621 -0.1603 -0.4944 -0.5571
    9TMC3    C513939   3.062   3.853  13.605 -0.1277 -0.0498  0.2474
    9TMC3    C613940   3.124   3.804  13.494 -0.7506 -0.1043  0.2936
    9TMC3     C13941   2.968   4.189  13.499  0.2189  0.2906  1.0764
    9TMC3     O13942   3.009   4.256  13.404  0.0366  0.4952 -0.1201
    9TMC3     H13943   3.033   4.046  13.286 -2.6888 -0.3153  0.1615
    9TMC3    H113944   2.991   4.017  13.720 -0.8101  1.4182 -1.4235
    9TMC3    H213945   3.182   3.713  13.507  3.4315  2.8690  2.4566
    9TMC3    C713946   3.036   3.761  13.719  0.2524 -0.1767 -0.3993
    9TMC3    C813947   3.086   3.784  13.263 -0.2511  0.4073 -0.2623
    9TMC3    O113948   3.072   3.804  13.829 -0.3286 -0.4545  0.1564
    9TMC3    O213949   3.017   3.839  13.174  0.0603 -0.0089  0.0643
   10MPD2     C13950   3.034   3.347  13.019 -0.3552 -0.0592  0.1033
   10MPD2    C113951   3.117   3.323  13.126 -0.2905  0.7687 -0.2385
   10MPD2    C213952   3.153   3.427  13.208 -0.1022 -0.1234  0.6162
   10MPD2    C313953   3.109   3.555  13.179  0.0949  0.1485 -0.6050
   10MPD2    C413954   3.036   3.573  13.060 -0.0829 -0.6701 -0.9108
   10MPD2    C513955   2.999   3.468  12.979  0.5544 -1.0880  0.1765
   10MPD2     H13956   3.191   3.416  13.309 -0.2912 -2.0876  0.4708
   10MPD2    H113957   3.001   3.672  13.032  0.5298  0.2426  1.5583
   10MPD2    H213958   3.001   3.263  12.959 -1.3355 -0.1467  0.7612
   10MPD2    H313959   2.935   3.489  12.894 -0.2954 -0.6934  0.9144
   10MPD2     N13960   3.132   3.654  13.269  0.3187 -0.4757  0.6266
   10MPD2    H513961   3.177   3.614  13.351  0.1562 -3.0598 -0.5274
   10MPD2    N113962   3.133   3.187  13.163 -0.5650  0.3067 -0.1883
   10MPD2    H713963   3.074   3.118  13.120 -1.2559  0.0661  1.1334
   11MPD2     C13964   4.090   2.589  13.998 -0.0272 -0.1780  0.2875
   11MPD2    C113965   4.174   2.679  14.066 -1.1560 -0.1581 -0.4134
   11MPD2    C213966   4.185   2.811  14.026 -0.2349  0.1611  0.4273
   11MPD2    C313967   4.100   2.858  13.925 -0.0483 -0.5264  1.1762
   11MPD2    C413968   4.018   2.769  13.860 -0.0626  0.3259  0.0979
   11MPD2    C513969   4.017   2.636  13.892  0.6857 -0.6583  0.2078
   11MPD2     H13970   4.255   2.876  14.077 -2.1958  0.7414  2.3897
   11MPD2    H113971   3.965   2.803  13.771  0.9029 -1.3902 -1.1403
   11MPD2    H213972   4.079   2.486  14.028 -1.0841  0.0014  0.5280
   11MPD2    H313973   3.964   2.564  13.830  2.7792 -0.5163 -1.7344
   11MPD2     N13974   4.084   2.993  13.890  0.1385  0.6678  0.1351
   11MPD2    H513975   4.018   3.018  13.816 -0.0092  0.3288  0.1540
   11MPD2    N113976   4.257   2.641  14.176 -0.2567 -0.0639  0.4353
   11MPD2    H713977   4.315   2.716  14.212 -1.6914 -0.4440  3.5051
    1MPD1     C13978   1.372   4.028  17.138  0.4915 -0.8900 -0.2406
    1MPD1    C113979   1.438   4.127  17.210  0.1709  0.0295 -0.1236
    1MPD1    C213980   1.571   4.154  17.177 -0.3996  0.5237 -0.2869
    1MPD1    C313981   1.634   4.075  17.078 -0.5147 -0.1361 -0.0166
    1MPD1    C413982   1.567   3.970  17.016 -0.3264  0.1578 -0.1436
    1MPD1    C513983   1.440   3.939  17.056 -0.4363  0.4409 -0.2198
    1MPD1     H13984   1.623   4.243  17.212 -1.1165  0.8818 -0.1237
    1MPD1    H113985   1.626   3.903  16.955  1.1247  0.2730  1.1313
    1MPD1    H213986   1.267   4.011  17.158  0.6644  0.0626  1.4835
    1MPD1    H313987   1.395   3.855  17.004 -0.1371 -0.0430  0.3024
    1MPD1     N13988   1.769   4.093  17.049  0.1936  0.7355 -0.3935
    1MPD1    H513989   1.814   4.016  17.001  0.6673 -0.0557  1.3026
    1MPD1    N113990   1.366   4.220  17.290 -0.0723 -0.6273  0.1334
    1MPD1    H613991   1.277   4.190  17.328  0.1581  0.7537  1.7787
    1MPD1    H713992   1.425   4.255  17.366 -1.6599  0.9723  0.6189
    2MPD1     C13993   2.468   0.077  17.198 -0.3494 -0.9722  0.2854
    2MPD1    C113994   2.348   0.040  17.255 -0.1994 -0.2322  0.1923
    2MPD1    C213995   2.272   4.663  17.204 -0.5704  0.3364  0.1665
    2MPD1    C313996   2.316   4.590  17.092  0.5165 -0.2111 -0.8258
    2MPD1    C413997   2.437   4.626  17.037  0.5586  0.1481  0.6902
    2MPD1    C513998   2.515   0.005  17.088  0.4577  0.1045 -0.3084
    2MPD1     H13999   2.179   4.630  17.249 -0.7290 -1.2986 -1.3504
    2MPD1    H114000   2.465   4.563  16.953 -0.0985  0.2160  0.4175
    2MPD1    H214001   2.515   0.169  17.232 -0.0635 -0.4430 -1.5349
    2MPD1    H314002   2.608   0.034  17.041 -0.2466  0.1437 -1.6682
    2MPD1     N14003   2.239   4.476  17.050 -0.1422 -0.2330 -0.3635
    2MPD1    H514004   2.150   4.474  17.099 -0.0066 -1.5906 -0.1540
    2MPD1    N114005   2.292   0.120  17.355 -0.1193 -0.0336 -0.1807
    2MPD1    H614006   2.236   0.075  17.426 -1.3756 -0.4931 -1.4759
    2MPD1    H714007   2.363   0.172  17.406  0.1253  0.5992 -1.1636
    3TMC3    C114008   2.176   4.275  16.947 -0.7671  0.7006  0.2442
    3TMC3    C214009   2.178   4.213  16.820  0.2237  0.7293  0.4049
    3TMC3    C314010   2.065   4.146  16.774  0.1353 -0.3266 -0.4250
    3TMC3    C414011   2.060   4.284  17.026 -0.5586 -0.0932 -0.1896
    3TMC3    C514012   1.951   4.213  16.976 -0.6630  0.3229  0.6504
    3TMC3    C614013   1.951   4.151  16.854  0.0964  0.5650  0.5472
    3TMC3     C14014   2.270   4.380  16.954 -1.1581 -0.6068  0.2375
    3TMC3     O14015   2.364   4.373  16.875  0.2034 -0.0511  0.4649
    3TMC3     H14016   2.267   4.222  16.758  2.5236  0.2685  3.6206
    3TMC3    H114017   2.061   4.340  17.119  0.8951 -0.0668 -0.2212
    3TMC3    H214018   1.857   4.113  16.814 -0.5960  0.9237  1.8211
    3TMC3    C714019   1.834   4.208  17.067  0.2164 -0.3052  0.3213
    3TMC3    C814020   2.051   4.088  16.643 -0.1648 -0.3560 -0.3490
    3TMC3    O114021   1.825   4.299  17.147 -0.4429  0.2152  0.5166
    3TMC3    O214022   1.944   4.088  16.587 -0.1923  0.3267 -0.6014
    4MPD1     C14023   2.268   3.837  16.257 -1.1276  0.3450  0.5492
    4MPD1    C114024   2.359   3.840  16.359  0.0502  0.2320  0.1470
    4MPD1    C214025   2.329   3.923  16.463  0.7319  0.4931  0.1218
    4MPD1    C314026   2.205   3.982  16.477 -0.3338  0.2199 -0.2058
    4MPD1    C414027   2.114   3.977  16.377 -0.4401 -0.4327 -0.8233
    4MPD1    C514028   2.148   3.900  16.267  0.1081 -0.1702 -0.7298
    4MPD1     H14029   2.394   3.916  16.550  1.9550  0.5307 -0.7842
    4MPD1    H114030   2.013   4.013  16.390  0.2645  0.4632  2.1913
    4MPD1    H214031   2.289   3.767  16.177 -3.1716 -0.8716  1.0690
    4MPD1    H314032   2.060   3.894  16.204 -0.3746 -0.9061  0.0064
    4MPD1     N14033   2.172   4.050  16.600 -0.1513  0.5655 -0.1825
    4MPD1    H514034   2.256   4.053  16.657 -0.1219 -1.4858 -0.1263
    4MPD1    N114035   2.479   3.773  16.347  0.0405 -0.0495  0.4000
    4MPD1    H614036   2.522   3.757  16.437  0.5587  0.6767  0.2836
    4MPD1    H714037   2.462   3.687  16.293  2.1630 -0.8381  1.0049
    1TCq1    O114038   4.433   2.304  12.375 -0.4512 -1.0138 -0.0874
    1TCq1    C114039   4.482   2.416  12.320 -0.2662 -0.3011 -0.2739
    1TCq1    O214040   4.519   2.514  12.382 -0.1756  0.6331 -0.3412
    1TCq1    C214041   4.435   2.431  12.186 -0.0069 -0.6958  0.0122
    1TCq1    C314042   4.425   2.326  12.100 -0.4121 -0.1540 -0.4520
    1TCq1    C414043   4.385   2.346  11.971 -0.0595 -0.2179  0.8739
    1TCq1    C514044   4.342   2.472  11.936  0.0669  0.5015 -0.1978
    1TCq1    C614045   4.365   2.584  12.023  0.2789 -0.0940  0.8295
    1TCq1    C714046   4.417   2.558  12.143 -1.0121  0.6271  0.3428
    1TCq1    C814047   4.352   2.720  11.983  0.1088  0.3082 -0.1972
    1TCq1    O414048   4.359   2.814  12.064  1.0193 -0.3824 -0.3024
    1TCq1    C914049   4.333   2.233  11.889 -0.2445 -0.2823  0.3769
    1TCq1    O514050   4.379   2.117  11.921 -0.8015 -0.1916 -0.3466
    1TCq1    O614051   4.247   2.253  11.803 -0.0455  0.1870  0.3648
    1TCq1    H114052   4.390   2.245  12.309 -2.0052  1.2388 -1.1269
    1TCq1    H214053   4.437   2.226  12.140 -0.1979 -0.1306 -0.4623
    1TCq1    H314054   4.292   2.487  11.841  1.1224  0.3387 -0.7799
    1TCq1    H414055   4.434   2.642  12.209  0.1169  0.2080  0.5844
    2MPD1     C14056   4.466   3.042  11.600  0.3843 -0.1538 -0.0870
    2MPD1    C114057   4.464   2.915  11.551 -0.1133 -0.0857  0.8015
    2MPD1    C214058   4.414   2.810  11.630 -0.2453 -0.2115  0.2733
    2MPD1    C314059   4.389   2.822  11.767  0.6915  1.0111 -0.1883
    2MPD1    C414060   4.408   2.949  11.812 -0.1375 -0.3423  0.3451
    2MPD1    C514061   4.442   3.055  11.733  0.0452  0.2417 -0.3530
    2MPD1     H14062   4.395   2.716  11.581  3.8537  0.4965 -2.6145
    2MPD1    H114063   4.396   2.966  11.918  2.8057 -0.4395  0.7045
    2MPD1    H214064   4.451   3.129  11.537  1.3893  0.7267  0.8823
    2MPD1    H314065   4.446   3.157  11.770  1.4114  0.2502 -0.5320
    2MPD1     N14066   4.350   2.715  11.849 -0.2655 -0.0071  0.3513
    2MPD1    H514067   4.344   2.627  11.799 -0.3072 -0.9478  2.0301
    2MPD1    N114068   4.476   2.897  11.414  0.0497  0.0427  0.6375
    2MPD1    H614069   4.507   2.801  11.402 -0.3457 -0.1263  0.9634
    2MPD1    H714070   4.549   2.957  11.377  1.1499 -0.8540  1.3756
    1TCq1    O114071   3.245   2.106   1.385 -0.2897  0.0613 -0.2190
    1TCq1    C114072   3.307   2.017   1.304 -0.7013  0.5487 -0.5115
    1TCq1    O214073   3.430   1.998   1.312 -0.5820 -0.5132 -0.1015
    1TCq1    C214074   3.215   1.912   1.294 -0.3143  0.7690 -0.0347
    1TCq1    C314075   3.109   1.928   1.204  0.4181  0.6310  1.0838
    1TCq1    C414076   3.022   1.830   1.186  0.0438 -0.3823  0.1801
    1TCq1    C514077   3.057   1.705   1.231  0.2761 -0.0703 -0.8702
    1TCq1    C614078   3.159   1.692   1.315 -0.2859 -0.4238  0.4077
    1TCq1    C714079   3.241   1.793   1.357 -0.3806 -0.2835 -0.5897
    1TCq1    C814080   3.178   1.568   1.391  0.6735  0.1107 -0.6649
    1TCq1    O414081   3.285   1.549   1.446 -0.6163  0.2533  0.8485
    1TCq1    C914082   2.928   1.834   1.073 -0.9675  0.7343 -0.1265
    1TCq1    O514083   2.904   1.728   1.007  0.5598 -0.1733 -0.4844
    1TCq1    O614084   2.897   1.947   1.024 -0.0913 -0.0652  0.2979
    1TCq1    H114085   3.147   2.106   1.392 -0.2065  1.3497  0.9499
    1TCq1    H214086   3.090   2.017   1.146  2.3180 -1.6400 -3.1261
    1TCq1    H314087   2.993   1.625   1.196 -1.3683  1.1759 -0.6977
    1TCq1    H414088   3.341   1.778   1.396 -0.6373 -2.0201 -0.6010
    2MPD1     C14089   2.946   1.182   1.635  0.4928 -0.2423  0.6321
    2MPD1    C114090   2.849   1.266   1.581 -0.3968  0.0033 -0.1652
    2MPD1    C214091   2.898   1.362   1.493 -0.0523  0.2604 -0.4081
    2MPD1    C314092   3.033   1.390   1.478  0.3688 -0.2161 -0.8048
    2MPD1    C414093   3.126   1.313   1.543 -0.3731 -0.0444 -0.0437
    2MPD1    C514094   3.079   1.202   1.611 -0.4748 -0.2510  0.2624
    2MPD1     H14095   2.828   1.410   1.425  0.2445  0.9579 -0.2149
    2MPD1    H114096   3.233   1.328   1.539 -0.3309 -0.4017 -0.2700
    2MPD1    H214097   2.918   1.092   1.689 -1.0350  0.6679  1.3710
    2MPD1    H314098   3.155   1.137   1.653  0.6448  1.3516  0.7171
    2MPD1     N14099   3.060   1.504   1.405 -0.3143 -0.7317 -0.1718
    2MPD1    H514100   2.985   1.538   1.346 -1.0975 -0.4920  0.9468
    2MPD1    N114101   2.716   1.231   1.589 -0.4734 -0.4087 -0.3241
    2MPD1    H614102   2.688   1.204   1.683 -1.4651 -0.8742 -0.7466
    2MPD1    H714103   2.667   1.317   1.567  0.4846  0.4891  1.0796
    1MPD1     C14104   0.151   4.266  11.840  0.4490  0.1191 -0.0116
    1MPD1    C114105   0.255   4.264  11.930 -0.2453 -0.4190 -0.4050
    1MPD1    C214106   0.308   4.381  11.969  0.1398  0.1337  0.6153
    1MPD1    C314107   0.270   4.501  11.915  0.5048  0.2549  0.3391
    1MPD1    C414108   0.156   4.505  11.838  0.2798 -0.4403 -0.3172
    1MPD1    C514109   0.098   4.387  11.803 -0.1910  0.1442  0.1683
    1MPD1     H14110   0.380   4.383  12.049  0.1888 -1.7795  0.6372
    1MPD1    H114111   0.123   4.596  11.789 -1.4209 -0.4440  0.8146
    1MPD1    H214112   0.095   4.183  11.799  0.1960 -0.4491  1.4854
    1MPD1    H314113   0.018   4.395  11.730 -0.7526 -1.1190  0.6530
    1MPD1     N14114   0.351   4.617  11.941  0.0565 -0.5759 -0.2715
    1MPD1    H514115   0.441   4.597  11.984 -0.6705 -0.5189  1.2834
    1MPD1    N114116   0.315   4.138  11.958  0.0659 -0.0707 -0.9035
    1MPD1    H614117   0.257   4.055  11.964  1.3636 -0.9346 -0.3700
    1MPD1    H714118   0.383   4.135  12.034 -0.1194  0.7301 -0.7017
    2MPD1     C14119   0.373   4.402  10.178  0.3982 -0.0570 -0.1532
    2MPD1    C114120   0.241   4.368  10.153 -0.8712 -0.3711  0.0184
    2MPD1    C214121   0.165   4.337  10.264  0.6079 -0.3583  1.2732
    2MPD1    C314122   0.226   4.315  10.389 -0.6558  0.3081  0.6792
    2MPD1    C414123   0.361   4.338  10.405  0.2279 -0.7786 -0.1481
    2MPD1    C514124   0.436   4.381  10.300  0.7720  0.0930 -0.4831
    2MPD1     H14125   0.058   4.325  10.252  0.5795  1.1358  0.0295
    2MPD1    H114126   0.418   4.330  10.497 -0.1245  1.7992  0.3045
    2MPD1    H214127   0.436   4.443  10.100  2.4372 -1.6238  0.6579
    2MPD1    H314128   0.544   4.388  10.309  0.5608  2.7785 -0.3169
    2MPD1     N14129   0.147   4.288  10.502 -0.3370 -0.5877 -0.4495
    2MPD1    H514130   0.192   4.304  10.591  1.6171 -0.1009 -1.5138
    2MPD1    N114131   0.178   4.418  10.036  0.3453  0.1167  0.4490
    2MPD1    H614132   0.096   4.366  10.008 -0.7453  1.9824  0.2231
    2MPD1    H714133   0.240   4.424   9.955 -0.9380  1.4141 -0.4165
    3MPD1     C14134   4.064   3.694  10.627  0.2993 -0.1563 -0.7669
    3MPD1    C114135   4.111   3.775  10.525  0.0505  0.7120 -0.5339
    3MPD1    C214136   4.197   3.877  10.556  0.4301  0.2141 -0.2357
    3MPD1    C314137   4.238   3.904  10.690  0.3974  0.0800 -0.6093
    3MPD1    C414138   4.194   3.821  10.794 -0.1356 -0.5088 -0.4627
    3MPD1    C514139   4.105   3.727  10.756  0.5459  1.0214  0.0380
    3MPD1     H14140   4.242   3.930  10.473  0.4827 -0.0397 -0.3699
    3MPD1    H114141   4.231   3.835  10.895 -1.2757 -0.7295 -0.0148
    3MPD1    H214142   3.996   3.610  10.613 -2.1331  2.0072 -1.8851
    3MPD1    H314143   4.048   3.678  10.834 -0.7418 -1.0676 -2.1999
    3MPD1     N14144   4.332   4.009  10.711 -0.3915  0.2185 -0.5609
    3MPD1    H514145   4.358   4.071  10.636 -0.8607 -0.3038 -1.1505
    3MPD1    N114146   4.097   3.730  10.391  0.0652  0.0121  0.0001
    3MPD1    H614147   4.114   3.802  10.321  1.0491  1.3213  1.5859
    3MPD1    H714148   4.000   3.703  10.384 -0.4815  1.4115  2.1188
    4MPD2     C14149   0.684   0.075  11.276 -0.0682  0.1215  0.7064
    4MPD2    C114150   0.704   4.708  11.378  0.0916  0.2326  0.2734
    4MPD2    C214151   0.744   4.580  11.355 -0.2108  0.4080  0.9702
    4MPD2    C314152   0.774   4.533  11.225 -0.7000  0.3064 -0.5442
    4MPD2    C414153   0.738   4.618  11.125  0.1330  0.4380  0.2903
    4MPD2    C514154   0.678   0.024  11.148 -0.3231  0.0245  0.1711
    4MPD2     H14155   0.766   4.526  11.446  2.5273  1.4183  0.9210
    4MPD2    H114156   0.754   4.580  11.024  0.4926 -0.0829  0.5469
    4MPD2    H214157   0.656   0.178  11.297  2.1253  0.7712  0.4478
    4MPD2    H314158   0.654   0.095  11.069 -0.3016 -1.1200 -0.8757
    4MPD2     N14159   0.834   4.407  11.197  0.0500  0.2698  0.2747
    4MPD2    H514160   0.818   4.364  11.107  3.7598 -1.6622  0.5673
    4MPD2    N114161   0.678   0.017  11.515 -0.2386 -0.0075  0.1401
    4MPD2    H714162   0.702   4.671  11.586 -1.3046 -0.2643  0.2405
    5TMC3    C114163   0.613   0.135  11.704 -0.7007  0.2430 -0.2052
    5TMC3    C214164   0.491   0.136  11.757 -0.5638 -0.1006  0.3620
    5TMC3    C314165   0.478   0.070  11.874 -0.0464  0.5228  0.6959
    5TMC3    C414166   0.721   0.074  11.757  0.7353  0.1518  0.8810
    5TMC3    C514167   0.700   4.712  11.863 -0.3104 -0.0544  0.3075
    5TMC3    C614168   0.579   4.717  11.922  0.7859  0.5490  0.4003
    5TMC3     C14169   0.622   0.133  11.559 -0.0625  0.0768 -0.0374
    5TMC3     O14170   0.544   0.206  11.497 -0.5042  0.8713 -0.1312
    5TMC3     H14171   0.415   0.194  11.706  1.9486  1.4583 -1.5726
    5TMC3    H114172   0.810   0.075  11.696  0.8540 -1.2475  1.0409
    5TMC3    H214173   0.573   4.696  12.029  0.7956 -1.8961 -0.0792
    5TMC3    C714174   0.758   4.578  11.832  0.6148 -0.6141  0.4594
    5TMC3    C814175   0.340   0.020  11.892  0.0038  0.3745  0.2403
    5TMC3    O114176   0.834   4.575  11.737  0.1847  0.6262 -0.0624
    5TMC3    O214177   0.251   0.064  11.815  0.5057  0.2625 -0.3694
    6TMC3    C114178   4.694   4.194  10.633 -0.1971  0.0761  0.1791
    6TMC3    C214179   4.564   4.158  10.658 -1.0964  0.4287 -0.1582
    6TMC3    C314180   4.533   4.093  10.779 -0.4966  0.5771 -0.2366
    6TMC3    C414181   0.070   4.170  10.727  0.3933 -0.4227  0.3716
    6TMC3    C514182   0.031   4.118  10.844  0.1772  0.0155  0.1584
    6TMC3    C614183   4.630   4.074  10.876  0.6361 -0.2012  0.4586
    6TMC3     C14184   0.013   4.251  10.508  0.2502  0.0412  0.9887
    6TMC3     O14185   4.646   4.240  10.420  0.3476 -0.1086 -0.7321
    6TMC3     H14186   4.495   4.185  10.579 -0.9261  2.2489  0.3211
    6TMC3    H114187   0.176   4.185  10.710  0.2679 -1.0333 -1.0093
    6TMC3    H214188   4.600   4.048  10.976 -0.9264  0.7593  0.2436
    6TMC3    C714189   0.141   4.077  10.929 -0.3525  1.1704 -0.2295
    6TMC3    C814190   4.412   4.025  10.817  1.0056 -0.0555  0.8145
    6TMC3    O114191   0.251   4.127  10.914  0.2198  0.1341 -0.3505
    6TMC3    O214192   4.405   3.972  10.925 -0.6930 -0.1243  0.0240
    7MPD2     C14193   0.744   4.062  11.839 -0.4716 -0.1186 -0.4212
    7MPD2    C114194   0.789   4.151  11.746  0.6822 -0.4855  0.8750
    7MPD2    C214195   0.768   4.286  11.760 -0.5244 -0.2964  0.4233
    7MPD2    C314196   0.714   4.334  11.878  0.0693 -0.3350 -0.2965
    7MPD2    C414197   0.668   4.241  11.971  0.2812  0.3755  0.5037
    7MPD2    C514198   0.684   4.107  11.955  0.3402 -0.2742  0.5179
    7MPD2     H14199   0.800   4.354  11.682 -0.0580  1.3343  2.0190
    7MPD2    H114200   0.633   4.278  12.066 -0.7075  0.9856 -0.1019
    7MPD2    H214201   0.747   3.954  11.827 -0.3039 -0.1965  0.3649
    7MPD2    H314202   0.649   4.036  12.030  0.4956 -1.0220 -0.1173
    7MPD2     N14203   0.697   4.471  11.906 -0.1272  0.4546  0.4706
    7MPD2    H514204   0.650   4.496  11.991 -1.7685 -0.5502 -0.1355
    7MPD2    N114205   0.841   4.113  11.620  0.3032  0.1182  0.2210
    7MPD2    H714206   0.863   4.188  11.556 -0.4666  0.6708  0.6173
    8TMC3    C114207   0.881   4.008  11.430  0.6246  0.3044  0.5518
    8TMC3    C214208   0.773   3.953  11.362 -0.5927  0.0755 -0.1241
    8TMC3    C314209   0.734   4.015  11.246  0.0625  0.4589 -0.1183
    8TMC3    C414210   0.944   4.122  11.382  0.8973 -0.2651 -0.2301
    8TMC3    C514211   0.902   4.184  11.264  0.3139  0.2648  0.0908
    8TMC3    C614212   0.798   4.131  11.191 -0.0073 -0.1332 -0.7888
    8TMC3     C14213   0.861   3.988  11.569 -0.2573  0.1533  0.0371
    8TMC3     O14214   0.829   3.877  11.608  0.3788 -0.1492  0.3726
    8TMC3     H14215   0.721   3.871  11.409 -2.2939  0.9215 -0.5267
    8TMC3    H114216   1.025   4.154  11.445 -0.5685 -1.5062  2.2665
    8TMC3    H214217   0.764   4.184  11.102 -2.0613  0.0524  0.1098
    8TMC3    C714218   0.888   4.324  11.294 -0.3751 -0.1693 -0.0935
    8TMC3    C814219   0.602   3.986  11.180 -0.2668  0.7302 -0.0055
    8TMC3    O114220   0.920   4.356  11.404 -0.3727  0.0302 -0.0268
    8TMC3    O214221   0.575   4.060  11.083 -0.8445 -0.1534 -0.0845
    9MPD2     C14222   0.321   3.759  11.272 -0.2080 -0.0829 -1.2183
    9MPD2    C114223   0.386   3.861  11.205 -0.0090  0.1196  0.1930
    9MPD2    C214224   0.305   3.940  11.123 -0.3125 -0.0405 -0.4237
    9MPD2    C314225   0.177   3.905  11.099  0.8162 -0.3311  0.5712
    9MPD2    C414226   0.113   3.811  11.172  0.4628 -0.7949  0.1425
    9MPD2    C514227   0.186   3.745  11.262 -0.7054  0.4092  0.0109
    9MPD2     H14228   0.351   4.023  11.070 -1.4812  1.0257  0.2347
    9MPD2    H114229   0.005   3.811  11.174  0.4667  0.2056  0.3381
    9MPD2    H214230   0.376   3.694  11.339  0.8005  2.8820  0.8331
    9MPD2    H314231   0.141   3.694  11.346  0.3408  0.4065  0.5655
    9MPD2     N14232   0.097   3.981  11.014  0.6726 -0.0607  0.3728
    9MPD2    H514233   0.000   3.951  11.012  1.4038 -2.4267  0.4143
    9MPD2    N114234   0.522   3.887  11.238  0.4206  0.7193 -0.3663
    9MPD2    H714235   0.569   3.834  11.311  0.6903 -2.0202 -2.5389
    1MPD1     C14236   0.913   2.633  17.180 -0.4786  0.0638  0.0014
    1MPD1    C114237   0.859   2.722  17.091  0.3320  0.6309  0.1528
    1MPD1    C214238   0.785   2.827  17.147 -0.3079  0.0840 -0.3848
    1MPD1    C314239   0.767   2.838  17.284 -0.8141 -0.7128 -0.4228
    1MPD1    C414240   0.814   2.742  17.366  0.0940  0.1896  1.0014
    1MPD1    C514241   0.884   2.644  17.311 -0.2395 -0.4192  0.2167
    1MPD1     H14242   0.738   2.896  17.077 -0.8905  1.3241  1.2430
    1MPD1    H114243   0.798   2.742  17.474 -1.0044 -0.7924  0.8328
    1MPD1    H214244   0.966   2.547  17.141 -0.4154  0.7874 -1.5004
    1MPD1    H314245   0.917   2.563  17.375  2.0996  0.6997  0.4268
    1MPD1     N14246   0.691   2.938  17.349  0.6847 -0.7393 -0.0395
    1MPD1    H514247   0.664   2.920  17.446  0.1404  0.5184  0.0374
    1MPD1    N114248   0.856   2.681  16.959 -0.1125  1.0329 -0.0226
    1MPD1    H614249   0.930   2.614  16.940 -1.4411 -1.1224  2.3769
    1MPD1    H714250   0.857   2.759  16.894 -2.1757  0.0417 -1.2215
    2MPD1     C14251   4.482   2.970  17.167  0.0956 -0.4998  0.9688
    2MPD1    C114252   4.594   2.909  17.113  0.5264  0.4777  0.5825
    2MPD1    C214253   4.722   2.940  17.163  0.1918  0.3999 -0.6045
    2MPD1    C314254   0.016   3.038  17.256  0.0539 -0.6652  0.2665
    2MPD1    C414255   4.629   3.100  17.298  0.1091  0.0256 -0.1601
    2MPD1    C514256   4.502   3.061  17.264  0.5234  0.4101  0.6833
    2MPD1     H14257   0.091   2.900  17.119 -0.6615  0.0779 -2.0690
    2MPD1    H114258   4.632   3.179  17.372 -1.1454  0.3641 -0.4825
    2MPD1    H214259   4.381   2.942  17.139 -0.5151  3.0521 -0.2581
    2MPD1    H314260   4.413   3.112  17.301 -1.3267 -1.7736 -0.7622
    2MPD1     N14261   0.149   3.068  17.299  0.4461  0.4261  0.0219
    2MPD1    H514262   0.226   3.015  17.260  0.1574 -2.0065  2.7781
    2MPD1    N114263   4.571   2.802  17.019  0.1628  0.0942  0.1695
    2MPD1    H614264   4.645   2.775  16.955 -0.3391 -0.8869  0.0149
    2MPD1    H714265   4.481   2.801  16.971 -0.5432  1.4095  1.4489
    3TCq2    C114266   0.174   3.166  17.395  0.0090 -0.3059 -1.4449
    3TCq2    O214267   0.104   3.222  17.480 -0.4205 -0.0018 -0.3115
    3TCq2    C214268   0.315   3.192  17.411  0.3728 -0.4663  0.5621
    3TCq2    C314269   0.355   3.243  17.535 -0.3612 -0.3230 -0.2987
    3TCq2    C414270   0.481   3.222  17.573 -0.2340 -0.0128 -0.0682
    3TCq2    C514271   0.571   3.144  17.503  0.0979  0.6137  0.5672
    3TCq2    C614272   0.530   3.109  17.378  0.4745 -0.1708 -0.4315
    3TCq2    C714273   0.409   3.134  17.325  0.1393  0.0216 -0.2861
    3TCq2    C814274   0.617   3.038  17.286 -0.5393 -0.3338 -0.0347
    3TCq2    O414275   0.598   3.053  17.165  0.3529  0.1309  0.1379
    3TCq2    C914276   0.515   3.287   0.011  0.7974  0.1079 -0.5207
    3TCq2    O514277   0.422   3.328   0.080 -0.3593 -0.1881 -0.3026
    3TCq2    O614278   0.636   3.286   0.045  1.0633  0.5619  0.1232
    3TCq2    H214279   0.300   3.311  17.599  0.8643 -0.6708  1.1140
    3TCq2    H314280   0.668   3.121  17.546  0.4548  0.6014 -0.2485
    3TCq2    H414281   0.382   3.114  17.222  1.3171 -0.5305 -0.4910
    1TCq1    O114282   2.399   2.403  13.341  0.1973  0.3552  0.2318
    1TCq1    C114283   2.333   2.408  13.221 -0.0680  0.2545  0.5173
    1TCq1    O214284   2.245   2.487  13.184  0.1771 -0.0316  0.2226
    1TCq1    C214285   2.342   2.276  13.157 -0.0811  0.1779  0.0494
    1TCq1    C314286   2.246   2.246  13.069 -0.2843 -0.0822  0.2628
    1TCq1    C414287   2.245   2.132  12.995  0.4073  0.0238 -0.0356
    1TCq1    C514288   2.344   2.041  13.019  0.1740  0.0552  0.3000
    1TCq1    C614289   2.451   2.084  13.106 -0.2314  1.0027  0.3821
    1TCq1    C714290   2.450   2.201  13.175 -0.5530 -0.4115 -0.0310
    1TCq1    C814291   2.572   2.004  13.101 -0.6798  0.2168 -0.6313
    1TCq1    O414292   2.583   1.930  13.001 -0.1209  0.2514 -0.4710
    1TCq1    C914293   2.128   2.093  12.921  0.2146 -0.0586 -0.0255
    1TCq1    O514294   2.120   1.968  12.900  0.0631 -0.4863  0.2603
    1TCq1    O614295   2.024   2.171  12.925 -0.6496  0.1123 -0.0669
    1TCq1    H114296   2.466   2.332  13.350  2.0458  2.0602 -0.2820
    1TCq1    H214297   2.168   2.319  13.053 -0.5535 -0.5637 -0.6369
    1TCq1    H314298   2.338   1.943  12.974  2.2268 -0.7369  1.7337
    1TCq1    H414299   2.536   2.248  13.221 -0.4044  0.7468 -1.4893
    2MPD2     C14300   2.850   1.911  13.150 -0.1570 -0.3086 -0.6313
    2MPD2    C114301   2.782   1.968  13.250  0.2620 -0.0550  0.8646
    2MPD2    C214302   2.824   1.960  13.386  0.7320 -0.1726  0.9582
    2MPD2    C314303   2.934   1.879  13.414 -0.0507 -0.5211 -0.0810
    2MPD2    C414304   3.000   1.819  13.311 -0.0898 -0.4959  0.2515
    2MPD2    C514305   2.966   1.842  13.180  0.2682  0.0410 -0.2561
    2MPD2     H14306   2.766   2.004  13.466  0.7318  2.9494 -0.7838
    2MPD2    H114307   3.088   1.757  13.322  0.9545  1.3420  2.3495
    2MPD2    H214308   2.804   1.906  13.052  1.0594 -1.7100 -1.1372
    2MPD2    H314309   3.026   1.795  13.102  0.5229  0.6979 -0.4550
    2MPD2     N14310   2.954   1.837  13.541 -0.0406  0.7197  0.1666
    2MPD2    H514311   2.882   1.875  13.603 -1.0296 -1.1282  0.1469
    2MPD2    N114312   2.651   2.022  13.222 -0.5282 -0.3133 -0.1532
    2MPD2    H714313   2.617   2.070  13.304 -1.2819 -0.6514 -0.2650
    3TCq1    O114314   2.833   1.764  14.145  0.3103 -0.3245 -0.0974
    3TCq1    C114315   2.859   1.836  14.033  0.2411  0.2603 -0.3489
    3TCq1    O214316   2.828   1.950  14.012 -0.3699 -0.2249  0.1152
    3TCq1    C214317   2.948   1.751  13.941 -0.6575 -0.1487  0.2126
    3TCq1    C314318   3.010   1.635  13.984 -0.0553 -0.8418  0.1379
    3TCq1    C414319   3.101   1.573  13.902 -0.5384 -0.1438  0.2735
    3TCq1    C514320   3.110   1.605  13.771  0.1811  0.4444  0.4568
    3TCq1    C614321   3.034   1.713  13.726  0.6139  0.2817  0.0764
    3TCq1    C714322   2.966   1.795  13.815 -0.2417 -0.8563  0.0819
    3TCq1    C814323   3.052   1.755  13.592  0.6596  0.4825  0.3265
    3TCq1    O414324   3.143   1.696  13.530  0.2527  0.1173  0.4323
    3TCq1    C914325   3.181   1.462  13.950 -0.1532  0.2019  0.1846
    3TCq1    O514326   3.273   1.426  13.876 -0.4606  0.9387  0.2690
    3TCq1    O614327   3.145   1.412  14.062  0.4428 -0.1377 -0.1011
    3TCq1    H114328   2.864   1.671  14.157 -2.0837 -1.3491 -1.9822
    3TCq1    H214329   3.001   1.605  14.088  0.3561  2.4585  1.1169
    3TCq1    H314330   3.172   1.544  13.706  2.4471 -0.1748  3.2266
    3TCq1    H414331   2.919   1.884  13.775  0.9933 -0.5641 -0.7282
    1MPD2     C14332   2.186   2.603  14.828  0.6656  0.3748  0.6419
    1MPD2    C114333   2.092   2.505  14.828  0.2309  0.8669 -0.7582
    1MPD2    C214334   2.111   2.391  14.747  0.1016 -0.2175  0.5146
    1MPD2    C314335   2.237   2.371  14.690  0.5447  0.0342 -0.4827
    1MPD2    C414336   2.338   2.459  14.723 -0.1370 -0.4869 -0.5446
    1MPD2    C514337   2.313   2.574  14.780 -0.2798  0.5096  0.0420
    1MPD2     H14338   2.045   2.306  14.751  0.1057 -0.2600 -0.4428
    1MPD2    H114339   2.441   2.430  14.709 -0.0990 -0.2398 -0.7772
    1MPD2    H214340   2.167   2.702  14.867 -1.2512 -0.0906  0.8895
    1MPD2    H314341   2.392   2.645  14.799  1.0719 -1.3091  1.2089
    1MPD2     N14342   2.275   2.249  14.629  0.4539  0.1181  0.3652
    1MPD2    H514343   2.374   2.236  14.613  0.4868  0.3919  0.3425
    1MPD2    N114344   1.975   2.530  14.906  0.0538 -0.2362 -0.1017
    1MPD2    H714345   1.974   2.620  14.954 -1.8508 -1.1266  1.4979
    2TMC3    C114346   1.781   2.467  15.031  0.0962 -0.3195  0.2888
    2TMC3    C214347   1.717   2.358  15.071  0.2638  0.2059  0.3296
    2TMC3    C314348   1.593   2.333  15.032 -0.1913  1.1703 -0.6302
    2TMC3    C414349   1.712   2.570  14.972 -0.2660  0.0708  0.3373
    2TMC3    C514350   1.578   2.552  14.952 -0.5249 -0.1195  0.0023
    2TMC3    C614351   1.515   2.432  14.983 -0.9275  0.2077  0.6503
    2TMC3     C14352   1.886   2.423  14.942  0.1984 -0.4335  0.4704
    2TMC3     O14353   1.891   2.303  14.911 -0.0655  1.0091  0.1801
    2TMC3     H14354   1.777   2.283  15.121 -0.0212  0.7673  1.5063
    2TMC3    H114355   1.762   2.656  14.930 -0.1278 -1.1217 -1.9396
    2TMC3    H214356   1.417   2.397  14.952 -0.8501  0.6156 -0.0596
    2TMC3    C714357   1.483   2.662  14.932 -0.7235  0.1494  0.5406
    2TMC3    C814358   1.557   2.196  15.005  0.8576  0.3091  0.4911
    2TMC3    O114359   1.366   2.652  14.974  0.0740 -0.3315 -1.0724
    2TMC3    O214360   1.447   2.169  14.964  0.6694 -0.5635  0.0806
    3TCq1    O114361   1.815   3.180  14.277 -0.4691  0.7463 -0.4949
    3TCq1    C114362   1.805   3.312  14.242 -0.4816  0.4125  0.3513
    3TCq1    O214363   1.817   3.371  14.134  0.1043  0.1022 -0.3056
    3TCq1    C214364   1.768   3.375  14.369 -0.0711  0.0235 -0.0071
    3TCq1    C314365   1.824   3.497  14.407  0.0437 -0.1074 -0.4907
    3TCq1    C414366   1.767   3.570  14.507  0.1049  0.5754 -0.2363
    3TCq1    C514367   1.658   3.524  14.569  0.7140 -0.4238 -0.6172
    3TCq1    C614368   1.607   3.398  14.533  0.0485 -0.5125  0.0993
    3TCq1    C714369   1.669   3.317  14.441  0.5182  0.0082 -0.2123
    3TCq1    C814370   1.522   3.335  14.645 -0.2224  0.1765 -0.1477
    3TCq1    O414371   1.448   3.402  14.710  0.0936 -0.1363  0.1949
    3TCq1    C914372   1.830   3.693  14.558  0.8659 -0.1565  0.4700
    3TCq1    O514373   1.942   3.732  14.514  0.1223  0.6785 -0.6370
    3TCq1    O614374   1.762   3.760  14.642 -0.0205 -0.0481 -0.5935
    3TCq1    H114375   1.813   3.166  14.374 -1.6192  1.8027 -0.3657
    3TCq1    H214376   1.907   3.538  14.351  0.5021 -0.6920 -0.2532
    3TCq1    H314377   1.599   3.579  14.641  1.7692 -0.2865  0.1425
    3TCq1    H414378   1.613   3.236  14.396 -0.2055  1.4264 -1.8535
    4MPD2     C14379   1.349   3.136  14.772 -0.1225 -0.3804  1.4260
    4MPD2    C114380   1.478   3.113  14.732  0.2953 -1.1013 -0.5821
    4MPD2    C214381   1.535   2.994  14.781 -0.3925  0.4615 -0.6534
    4MPD2    C314382   1.467   2.903  14.863 -0.2043  0.0951 -0.0270
    4MPD2    C414383   1.340   2.928  14.895  0.8963 -0.6377  0.2264
    4MPD2    C514384   1.286   3.052  14.860  0.0388 -0.1171  0.0815
    4MPD2     H14385   1.636   2.966  14.754  0.5340  1.5214  1.6789
    4MPD2    H114386   1.283   2.867  14.964  0.5044  0.2319  0.6861
    4MPD2    H214387   1.293   3.224  14.743  1.1017 -0.5048 -1.3805
    4MPD2    H314388   1.187   3.083  14.893  1.0016 -1.4180  4.2877
    4MPD2     N14389   1.537   2.777  14.885  0.2820 -0.2070  0.1095
    4MPD2    H514390   1.635   2.775  14.862 -0.1280 -0.2145 -1.6251
    4MPD2    N114391   1.553   3.204  14.652  0.6960 -0.8195 -0.0487
    4MPD2    H714392   1.646   3.176  14.620  0.6731 -2.0496  0.9129
    5TMC2    C114393   2.167   1.831  14.735  0.0837  0.2826 -0.0365
    5TMC2    C214394   2.282   1.830  14.812  0.5926 -0.1736 -0.7266
    5TMC2    C314395   2.385   1.901  14.762 -0.2069  0.0735  0.1166
    5TMC2    C414396   2.149   1.919  14.627  0.3257  0.1518  0.0133
    5TMC2    C514397   2.246   2.015  14.614 -0.2350 -0.1497  0.3495
    5TMC2    C614398   2.362   2.005  14.678  0.6466 -0.3474  0.3289
    5TMC2     C14399   2.049   1.821  14.823 -0.2390 -0.2096 -0.2878
    5TMC2     O14400   2.073   1.870  14.935 -0.2463  0.1918 -0.3649
    5TMC2     H14401   2.293   1.750  14.884  1.6317  0.2912 -0.3659
    5TMC2    H114402   2.057   1.924  14.569  0.2180  0.1212  0.1807
    5TMC2    H214403   2.446   2.070  14.661 -0.0787  0.3759 -0.4452
    5TMC2    C714404   2.186   2.146  14.599 -0.5086 -0.2946 -0.6787
    5TMC2    C814405   2.519   1.906  14.829  0.4603  0.4101  0.2966
    5TMC2    O114406   2.062   2.143  14.593 -0.2135 -0.1938 -0.8978
    5TMC2    O214407   2.624   1.931  14.769  0.8031 -0.1226  0.2675
    5TMC2    O514408   2.502   1.888  14.959 -0.0169 -0.2220  0.6288
    5TMC2    H514409   2.413   1.895  15.001 -0.9517  2.4272 -1.8613
    6MPD2     C14410   1.559   1.918  14.891 -0.3669 -0.1130  1.2996
    6MPD2    C114411   1.672   1.997  14.915 -0.2434  0.0888  0.7810
    6MPD2    C214412   1.796   1.956  14.876 -0.1440 -0.0797 -0.3893
    6MPD2    C314413   1.811   1.838  14.802  0.2265 -0.0556 -0.4066
    6MPD2    C414414   1.699   1.766  14.764  0.1613  0.5330 -0.6242
    6MPD2    C514415   1.575   1.805  14.817  0.0774 -0.1696 -0.0992
    6MPD2     H14416   1.879   2.019  14.906 -0.9751  1.4625 -1.3245
    6MPD2    H114417   1.701   1.673  14.709  1.8004 -0.9135  1.8922
    6MPD2    H214418   1.460   1.940  14.930 -0.3990  0.7228  0.7422
    6MPD2    H314419   1.484   1.750  14.798  1.6698 -2.1473 -1.9142
    6MPD2     N14420   1.933   1.800  14.749  0.1209  0.2471  0.1648
    6MPD2    H514421   1.935   1.738  14.669  2.1638  0.5002 -0.0013
    6MPD2    N114422   1.670   2.117  14.982  0.1647 -0.4451  0.2727
    6MPD2    H714423   1.759   2.162  14.998  0.5436 -1.7674  1.8285
  945NH3     N114424   3.582   1.766   8.388  0.1657  0.4504 -0.1383
  945NH3     H214425   3.510   1.772   8.459 -0.0072  0.1445 -0.2856
  945NH3     H314426   3.620   1.860   8.385 -0.8360  0.9630  2.9479
  945NH3     H414427   3.653   1.703   8.424 -0.7361 -0.5754 -0.1339
  946SOD     NA14428   1.450   0.822  15.055  0.2340 -0.0651  0.2257
  947SOD     NA14429   3.599   3.162  13.043 -0.0497  0.1277  0.0884
  948SOD     NA14430   3.714   1.970  14.283 -0.3650 -0.4533 -0.1869
  949SOD     NA14431   0.416   3.653  11.629  0.3021  0.0910 -0.5764
  950SOD     NA14432   3.454   4.217   0.997 -0.3254 -0.4211  0.2322
  951SOD     NA14433   1.682   1.379  16.312 -0.2886 -0.1181  0.7504
  952SOD     NA14434   3.002   0.261  10.588  0.0092  0.0736  0.0768
  953SOD     NA14435   0.806   0.762   0.947 -0.5157  0.3298  0.1931
  954SOD     NA14436   0.619   3.108  16.014 -0.1918 -0.1280  0.3274
  955SOD     NA14437   4.024   2.061  14.422  0.0816 -0.2203  0.3492
  956SOD     NA14438   0.119   0.727   2.148 -0.2302 -0.1982 -0.2039
  957SOD     NA14439   2.815   1.976  11.967 -0.3094 -0.4250  0.3036
  958SOD     NA14440   4.584   3.425   8.646 -0.1929  0.2586 -0.1297
  959SOD     NA14441   3.742   2.089  14.880 -0.0682  0.0192 -0.1334
  960SOD     NA14442   0.544   0.626   0.122 -0.0170  0.7937  0.0388
  961SOD     NA14443   2.998   3.839  11.123  0.1362  0.2969  0.7189
  962SOD     NA14444   2.814   1.362  11.891 -0.1650 -0.2593  0.2557
  963SOD     NA14445   1.918   0.758   1.788 -0.3867  0.3342  0.0602
  964SOD     NA14446   3.546   0.524  12.635 -0.1924 -0.5469  0.4253
  965SOD     NA14447   3.675   1.327   1.429 -0.0748  0.2675  0.5782
  966SOD     NA14448   2.083   3.825  14.657 -0.0288 -0.4585  0.0311
  967SOD     NA14449   3.824   0.752   3.359  0.0386 -0.1029 -0.1014
  968SOD     NA14450   1.126   2.095   8.131  0.3793 -0.3165  0.4563
  969SOD     NA14451   2.504   4.460  10.420 -0.1957 -0.2916 -0.4029
  970SOD     NA14452   4.510   2.003   0.444 -0.1156 -0.1848 -0.2552
  971SOD     NA14453   2.455   2.909  14.604 -0.2995  0.0293 -0.0422
  972SOD     NA14454   1.257   2.791  10.675  0.3368  0.3858 -0.2694
  973SOD     NA14455   4.654   3.250   7.235 -0.0243 -0.0439 -0.2150
  974SOD     NA14456   4.540   1.051   6.114  0.1635  0.6247  0.1787
  975SOD     NA14457   4.250   0.148  13.266  0.1814 -0.0538 -0.6894
  976SOD     NA14458   3.492   1.361  13.513 -0.0557  0.0830 -0.3119
  977SOD     NA14459   2.420   1.450  10.369  0.6994  0.5980  0.0841
  978SOD     NA14460   0.626   0.493   2.233  0.4152 -0.0393 -0.1260
  979SOD     NA14461   2.083   1.820  13.301  0.0126 -0.3329  0.0102
  980SOD     NA14462   0.480   0.317  15.184  0.0058  0.3401 -0.0668
  981SOD     NA14463   2.907   4.129   0.568  0.9021  0.3070 -0.4533
  982SOD     NA14464   2.171   4.064  15.879  0.4765 -0.6082  0.3047
  983SOD     NA14465   1.491   2.984   7.138  1.0985 -0.2561  0.0699
  984SOD     NA14466   2.486   2.456  10.042  0.3184  0.1372 -0.2217
  985SOD     NA14467   2.620   4.241  10.190 -0.2855  0.1923  0.1413
  986SOD     NA14468   3.567   2.390   3.912  0.2078  0.2801 -0.2731
  987SOD     NA14469   1.430   2.975  11.031  0.0984 -0.4774 -0.1367
  988SOD     NA14470   2.932   4.386   1.025 -0.1193 -0.1098 -0.1602
  989SOD     NA14471   3.749   1.360  17.531  0.3529  0.2690 -0.2429
  990SOD     NA14472   1.800   1.859  10.583 -0.0412 -0.2988  0.2518
  991SOD     NA14473   4.363   3.041  15.118 -0.0422  0.0469  0.1125
  992SOD     NA14474   2.340   2.188  15.087  0.0115  0.4371 -0.0138
  993SOD     NA14475   1.556   1.855  13.075  0.0113 -0.1091 -0.0927
  994SOD     NA14476   2.747   1.541  10.469  0.2050  0.1703  0.0704
  995SOD     NA14477   2.289   1.701  10.519 -0.6431 -0.3742 -0.0297
  996SOD     NA14478   0.970   1.901  11.555 -0.1702  0.2687  0.0706
  997SOD     NA14479   4.457   1.764   0.052  0.3120 -0.2485 -0.1047
  998SOD     NA14480   3.031   1.625   4.139  0.0620  0.2185 -0.3818
  999SOD     NA14481   2.922   4.455  13.323  0.2700 -0.0270  0.3038
 1000SOD     NA14482   1.953   3.314  13.957 -0.0694 -0.3385 -0.2668
 1001SOD     NA14483   2.958   0.957  11.881  0.3567  0.3364 -0.3239
 1002SOD     NA14484   4.172   1.849  14.205  0.1893 -0.5526  0.0807
 1003SOD     NA14485   2.757   1.669  11.976 -0.4143  0.1366  0.0154
 1004SOD     NA14486   0.843   1.074  11.887 -0.1133 -0.0747  0.2535
 1005SOD     NA14487   3.752   1.851  14.610  0.4511 -0.0196  0.0199
 1006SOD     NA14488   2.442   2.250   8.856 -0.0293  0.5571 -0.1411
 1007SOD     NA14489   1.374   0.407   2.739  0.1885 -0.2401 -0.7482
 1008SOD     NA14490   0.225   0.738  13.516 -0.8960 -0.1351 -0.1975
 1009SOD     NA14491   0.221   1.710  11.659  0.2385  0.3557  0.1738
 1010SOD     NA14492   3.247   0.944  17.159 -0.0341  0.2198  0.5484
 1011SOD     NA14493   1.946   2.039   9.351  0.6690 -0.3008 -0.3025
 1012SOL     OW14494   1.665   1.331   3.341 -0.4233  0.1493  0.0701
 1012SOL    HW114495   1.750   1.290   3.360 -0.2906 -0.0617 -0.9722
 1012SOL    HW214496   1.634   1.336   3.431  0.7911 -1.7374  0.6047
 1013SOL     OW14497   1.778   4.550   7.664 -0.5159  0.0481  0.6329
 1013SOL    HW114498   1.707   4.614   7.669  0.2727  0.9228  0.6795
 1013SOL    HW214499   1.840   4.610   7.705  1.0791  0.5527 -2.5293
 1014SOL     OW14500   2.483   2.233  14.883 -0.0090 -0.0942  0.6967
 1014SOL    HW114501   2.490   2.250  14.790  2.6849 -1.7574  0.5704
 1014SOL    HW214502   2.530   2.310  14.916 -0.9530  1.0113 -0.5669
 1015SOL     OW14503   1.031   2.301   9.644  0.0316 -0.7257  0.3122
 1015SOL    HW114504   1.075   2.308   9.729  1.7583  3.9912 -0.9312
 1015SOL    HW214505   1.103   2.268   9.590  0.8135 -0.8164  1.4026
 1016SOL     OW14506   2.812   0.565  14.001 -0.7781 -0.2162  0.1626
 1016SOL    HW114507   2.879   0.524  13.946 -1.5224 -0.1098 -0.8192
 1016SOL    HW214508   2.800   0.508  14.077 -0.4640  0.1608  0.4978
 1017SOL     OW14509   3.053   0.605   7.032 -0.0060 -0.0524  0.7717
 1017SOL    HW114510   3.085   0.686   6.991 -1.9867  1.2463  1.7677
 1017SOL    HW214511   2.973   0.639   7.073  0.0934 -0.1348  1.0307
 1018SOL     OW14512   3.164   1.805   6.340  0.0363  0.1620  0.3544
 1018SOL    HW114513   3.206   1.879   6.295 -2.2612  1.4459  0.3442
 1018SOL    HW214514   3.220   1.731   6.315  1.2917  0.6879  1.5807
 1019SOL     OW14515   2.166   0.115   7.532  0.6799 -0.6512 -0.3220
 1019SOL    HW114516   2.109   0.185   7.501  0.7642 -1.1711 -1.6821
 1019SOL    HW214517   2.107   0.043   7.508  0.8442 -1.0932  0.6178
 1020SOL     OW14518   3.624   4.190   4.491  0.1861  0.1075  0.2133
 1020SOL    HW114519   3.547   4.218   4.442  1.1842 -1.6405 -2.3732
 1020SOL    HW214520   3.595   4.208   4.581  0.1978  0.8093  0.0744
 1021SOL     OW14521   4.609   0.253   6.597 -0.1696  0.2084 -0.0617
 1021SOL    HW114522   4.637   0.330   6.547  1.3044 -0.9806 -1.0612
 1021SOL    HW214523   4.615   0.281   6.689  0.3069 -0.3519  0.0731
 1022SOL     OW14524   0.304   0.598  14.209  0.1214 -0.1917  0.5098
 1022SOL    HW114525   0.304   0.601  14.113 -0.9038 -0.2079  0.5050
 1022SOL    HW214526   0.225   0.645  14.235  0.2843  0.3022  0.1232
 1023SOL     OW14527   4.227   2.072   0.731 -0.1570  1.0434 -0.3105
 1023SOL    HW114528   4.174   2.000   0.765  0.7634  0.4421 -0.1636
 1023SOL    HW214529   4.176   2.145   0.766  0.3351  1.1710  0.1373
 1024SOL     OW14530   4.705   2.498   7.365  0.2044  0.3055 -0.2574
 1024SOL    HW114531   4.624   2.475   7.319  1.5372 -2.1341 -1.4026
 1024SOL    HW214532   4.666   2.563   7.424  0.1897 -0.8469  0.9887
 1025SOL     OW14533   3.752   3.101   0.861 -0.5013 -0.4193 -0.1503
 1025SOL    HW114534   3.779   3.193   0.859 -1.9612 -0.0369 -2.2771
 1025SOL    HW214535   3.695   3.099   0.784  1.6327 -2.6017 -1.6928
 1026SOL     OW14536   2.474   3.004  10.879 -0.1601 -0.0613  0.1190
 1026SOL    HW114537   2.434   2.929  10.922  0.1126 -0.6817 -0.6969
 1026SOL    HW214538   2.560   3.008  10.922  0.4697 -0.1288 -1.1071
 1027SOL     OW14539   0.851   3.968   8.463 -0.2423 -0.3957 -0.1693
 1027SOL    HW114540   0.800   3.968   8.382 -0.2059  1.9192 -0.1910
 1027SOL    HW214541   0.869   4.060   8.478  0.8469 -0.4099 -1.3136
 1028SOL     OW14542   2.500   0.191  12.580 -0.7481 -0.2146 -0.8424
 1028SOL    HW114543   2.444   0.267  12.593  0.7069  0.4131  1.6720
 1028SOL    HW214544   2.588   0.227  12.573 -0.5831 -0.8782 -2.2454
 1029SOL     OW14545   1.159   2.266   3.042 -0.4520  0.2689  0.5217
 1029SOL    HW114546   1.124   2.326   2.977  2.0104  1.8046  0.6319
 1029SOL    HW214547   1.159   2.191   2.983 -0.5408  1.7213 -1.3154
 1030SOL     OW14548   1.209   3.708   2.623 -0.4068 -0.1344 -0.3098
 1030SOL    HW114549   1.124   3.750   2.611  0.4398  0.8085 -3.1258
 1030SOL    HW214550   1.178   3.618   2.637  0.3629 -0.4167 -0.4259
 1031SOL     OW14551   1.461   4.622   2.841 -0.5915  0.3912  0.2380
 1031SOL    HW114552   1.528   4.637   2.774 -0.9135 -0.7341 -0.3426
 1031SOL    HW214553   1.418   4.545   2.805  1.0414 -0.7434  0.7039
 1032SOL     OW14554   4.151   2.505  11.608  0.3978 -0.2784 -0.4658
 1032SOL    HW114555   4.080   2.469  11.661 -0.8390 -0.7998 -2.4702
 1032SOL    HW214556   4.189   2.419  11.589 -1.4870 -0.8448 -1.5889
 1033SOL     OW14557   4.275   1.642   7.608  0.4527  0.0534  0.9756
 1033SOL    HW114558   4.238   1.650   7.696  0.9566 -1.6641  1.3527
 1033SOL    HW214559   4.236   1.555   7.600  1.5344 -0.2244 -1.2410
 1034SOL     OW14560   3.873   0.397  13.656  0.1916  0.3629 -0.2361
 1034SOL    HW114561   3.906   0.486  13.665  0.1029  0.3727 -0.0091
 1034SOL    HW214562   3.947   0.344  13.626  0.0226  1.1268 -1.9822
 1035SOL     OW14563   1.824   4.031   2.189  0.0156  0.6083  0.4545
 1035SOL    HW114564   1.815   4.126   2.203  1.1862  0.6260  1.1096
 1035SOL    HW214565   1.736   4.000   2.212 -0.5261  1.9341  0.2070
 1036SOL     OW14566   4.216   3.221   8.667  0.5214 -0.2546  0.0221
 1036SOL    HW114567   4.235   3.139   8.622  0.0707  0.8486 -2.2347
 1036SOL    HW214568   4.265   3.208   8.748  0.9907 -1.0807 -0.3922
 1037SOL     OW14569   1.318   0.882   3.692 -0.2687  0.2272 -0.0744
 1037SOL    HW114570   1.324   0.918   3.781 -1.8585  1.9390 -0.6610
 1037SOL    HW214571   1.320   0.960   3.638  2.9475 -0.2727 -0.7068
 1038SOL     OW14572   0.019   0.878  15.241 -0.0512  0.6003 -0.2798
 1038SOL    HW114573   0.016   0.974  15.235 -0.9325  0.6641  1.0347
 1038SOL    HW214574   0.018   0.855  15.148 -0.4277  0.3776 -0.2206
 1039SOL     OW14575   0.634   4.271   9.901  0.4350  0.2529  0.8607
 1039SOL    HW114576   0.714   4.289   9.852 -0.2761  1.2788  0.0668
 1039SOL    HW214577   0.638   4.176   9.916 -1.9856  0.2181  1.3606
 1040SOL     OW14578   0.365   1.338   5.866 -0.0039  0.7367 -0.1501
 1040SOL    HW114579   0.375   1.434   5.868  1.6525  0.5204  1.3822
 1040SOL    HW214580   0.305   1.332   5.791  1.3236 -0.5153 -1.1032
 1041SOL     OW14581   4.463   3.376   4.934 -0.2793 -0.1830 -0.0390
 1041SOL    HW114582   4.424   3.396   5.019 -0.9601 -0.3870 -0.2989
 1041SOL    HW214583   4.484   3.283   4.945 -2.3360 -0.6054  0.3856
 1042SOL     OW14584   2.656   2.349   3.462 -0.5434  0.1852 -0.2622
 1042SOL    HW114585   2.631   2.331   3.553  0.0314 -0.1291 -0.1703
 1042SOL    HW214586   2.695   2.435   3.479 -0.2904  0.3430 -1.6871
 1043SOL     OW14587   2.377   0.652   5.973 -0.7676 -0.2806 -0.0530
 1043SOL    HW114588   2.471   0.643   5.953 -0.8205 -0.1991 -0.3343
 1043SOL    HW214589   2.384   0.731   6.027  0.5178 -0.3986 -0.0406
 1044SOL     OW14590   3.432   3.882   7.521  0.0127  0.5065  0.1804
 1044SOL    HW114591   3.392   3.880   7.434  0.8233 -0.6519 -0.1779
 1044SOL    HW214592   3.446   3.787   7.522  0.7516  0.6538  2.6888
 1045SOL     OW14593   2.477   0.222   7.590  0.6764  0.1881 -0.6180
 1045SOL    HW114594   2.388   0.212   7.556  0.2467  0.3353  0.4762
 1045SOL    HW214595   2.506   0.306   7.554  2.2120 -0.7924 -1.6821
 1046SOL     OW14596   1.395   1.918  13.254 -0.1804 -0.6570 -0.0623
 1046SOL    HW114597   1.334   1.847  13.274  0.5957 -1.3729 -0.2410
 1046SOL    HW214598   1.338   1.993  13.237  0.7858  0.1651  0.2685
 1047SOL     OW14599   0.580   1.598   1.825  0.3888 -0.2101 -0.3214
 1047SOL    HW114600   0.608   1.573   1.737 -0.8298  3.8878 -1.8717
 1047SOL    HW214601   0.648   1.660   1.850  0.0270  1.0675 -2.4913
 1048SOL     OW14602   3.453   3.251   8.106  0.0519 -0.2374 -0.2599
 1048SOL    HW114603   3.453   3.174   8.049 -2.7204  0.1256 -0.7596
 1048SOL    HW214604   3.444   3.321   8.042  0.7134  0.1438  0.0695
 1049SOL     OW14605   0.983   3.857   8.852  0.1420 -0.2620 -1.0542
 1049SOL    HW114606   0.943   3.887   8.934 -0.2024 -1.2541 -0.8624
 1049SOL    HW214607   1.076   3.862   8.873  0.0001 -1.3061 -0.1868
 1050SOL     OW14608   1.429   2.271   1.313 -0.2126  0.9424  0.1262
 1050SOL    HW114609   1.446   2.182   1.344  0.6331  0.8113 -0.7187
 1050SOL    HW214610   1.341   2.281   1.351 -0.4035  1.4157 -0.4398
 1051SOL     OW14611   3.583   2.606  11.753  0.0650 -0.4505 -0.2174
 1051SOL    HW114612   3.558   2.594  11.845  0.3033 -2.0323 -0.3595
 1051SOL    HW214613   3.532   2.547  11.698 -1.1241  0.9183 -0.5940
 1052SOL     OW14614   1.728   3.205   3.406 -0.4001  0.2774 -0.8481
 1052SOL    HW114615   1.663   3.185   3.338 -1.0742  1.1777 -0.4643
 1052SOL    HW214616   1.802   3.146   3.394  0.2590  1.2179 -1.3548
 1053SOL     OW14617   2.566   3.997   7.667  0.5424 -0.3063 -0.1866
 1053SOL    HW114618   2.617   4.039   7.736 -0.6396  0.0937  0.4383
 1053SOL    HW214619   2.482   4.042   7.662  0.7699  0.0819 -0.4677
 1054SOL     OW14620   1.354   3.536   5.118 -0.0192 -0.5178  0.1629
 1054SOL    HW114621   1.355   3.444   5.091 -2.9305 -0.5060 -0.0470
 1054SOL    HW214622   1.349   3.577   5.032 -0.6257  0.8473  0.8493
 1055SOL     OW14623   3.145   0.359   1.713 -0.0433  0.0602  0.1363
 1055SOL    HW114624   3.051   0.343   1.706  0.4244 -2.8782  0.4975
 1055SOL    HW214625   3.156   0.427   1.647  0.6790  2.7470  3.0410
 1056SOL     OW14626   3.958   3.295   0.916 -0.6226 -0.2222  0.1665
 1056SOL    HW114627   3.892   3.333   0.974 -1.8650 -3.6875  1.0031
 1056SOL    HW214628   3.972   3.361   0.848 -5.9920 -0.6630 -1.3194
 1057SOL     OW14629   1.715   0.704   8.809 -0.4646 -0.0657  0.2074
 1057SOL    HW114630   1.671   0.699   8.894 -1.5208  1.8147 -0.2375
 1057SOL    HW214631   1.652   0.750   8.754  0.3634  2.1548  1.1087
 1058SOL     OW14632   1.873   0.178   8.852 -0.1587 -0.7652 -0.4776
 1058SOL    HW114633   1.838   0.129   8.778 -2.7282 -1.4503  1.1963
 1058SOL    HW214634   1.919   0.108   8.897 -2.2303 -1.0775  1.1253
 1059SOL     OW14635   3.312   3.079   5.089  0.6687  0.0029 -0.1442
 1059SOL    HW114636   3.296   3.163   5.132 -0.6677  0.9338 -2.4541
 1059SOL    HW214637   3.252   3.027   5.141  1.6197  0.9554  1.9241
 1060SOL     OW14638   4.400   0.989  16.442 -0.5226  0.2665 -0.1616
 1060SOL    HW114639   4.444   1.053  16.387  0.5381  0.7910  1.2988
 1060SOL    HW214640   4.462   0.977  16.514  0.2624  1.7245 -0.6108
 1061SOL     OW14641   2.883   1.734  11.313  0.5416 -0.2794  0.1690
 1061SOL    HW114642   2.979   1.727  11.315  0.3185 -3.0662 -0.3346
 1061SOL    HW214643   2.867   1.702  11.402 -0.9759  0.2368  0.0787
 1062SOL     OW14644   1.960   3.958   0.618 -0.0822  0.2965  0.5024
 1062SOL    HW114645   1.966   4.045   0.579 -2.2973  0.5342  0.7067
 1062SOL    HW214646   1.870   3.959   0.650 -1.5333 -1.0208 -3.5022
 1063SOL     OW14647   1.005   3.648  11.428  0.0098  0.2577  0.9058
 1063SOL    HW114648   1.072   3.579  11.429 -0.8196 -0.5654 -0.1352
 1063SOL    HW214649   0.975   3.649  11.519  0.9250  0.6041  1.2032
 1064SOL     OW14650   4.288   0.634   2.158  0.0632  0.3119  0.5015
 1064SOL    HW114651   4.277   0.687   2.080  0.5207 -1.6553 -0.8869
 1064SOL    HW214652   4.335   0.552   2.140  0.2774  0.6431 -0.4215
 1065SOL     OW14653   3.185   1.510  10.988 -0.1192  0.9128  0.1541
 1065SOL    HW114654   3.255   1.478  11.044  0.7800 -0.3927 -1.7069
 1065SOL    HW214655   3.111   1.506  11.049 -0.2019  2.8334  0.1833
 1066SOL     OW14656   3.779   2.165  12.877  0.0135  0.2550 -0.3496
 1066SOL    HW114657   3.702   2.180  12.931 -1.6722  0.2641 -2.7640
 1066SOL    HW214658   3.831   2.246  12.880 -0.2338  0.3721  0.8863
 1067SOL     OW14659   2.301   0.404   3.519 -0.0261  0.3283  0.2983
 1067SOL    HW114660   2.384   0.369   3.485 -1.3294 -1.5079 -1.0480
 1067SOL    HW214661   2.247   0.327   3.498 -0.3614  0.7701 -0.4667
 1068SOL     OW14662   3.202   2.365   8.721  0.2567  0.0764 -0.9091
 1068SOL    HW114663   3.297   2.365   8.711  0.3780 -0.0421  0.2955
 1068SOL    HW214664   3.206   2.296   8.787 -2.5178 -0.4896 -1.3632
 1069SOL     OW14665   1.454   0.039   3.187  0.1054 -0.3989  0.7336
 1069SOL    HW114666   1.372   0.087   3.186  0.1445 -0.3182  1.3809
 1069SOL    HW214667   1.425   4.675   3.216  0.8657 -0.4255  1.4281
 1070SOL     OW14668   0.958   0.803   1.672 -0.0002  0.0223  0.1303
 1070SOL    HW114669   0.919   0.750   1.742 -1.1089  1.5489  0.6576
 1070SOL    HW214670   1.052   0.803   1.689 -0.2182  1.7040  1.2977
 1071SOL     OW14671   2.361   1.139   4.070  0.5388 -0.4374  0.0609
 1071SOL    HW114672   2.452   1.119   4.050  0.5717  0.8424 -1.0621
 1071SOL    HW214673   2.312   1.110   3.993  0.8839  0.3635 -0.4667
 1072SOL     OW14674   4.116   4.488   3.010 -0.5442  0.8484 -0.6231
 1072SOL    HW114675   4.053   4.442   3.065 -0.1896  0.7368 -0.3084
 1072SOL    HW214676   4.128   4.564   3.067  1.3470 -0.6927  1.0019
 1073SOL     OW14677   1.474   4.065  12.016 -0.4849 -0.3326 -0.1619
 1073SOL    HW114678   1.501   4.077  11.925  4.4382  0.6225  1.4669
 1073SOL    HW214679   1.501   3.974  12.031  0.2524 -0.1697 -0.5274
 1074SOL     OW14680   2.780   1.722   5.182 -0.4036  0.5998 -0.4874
 1074SOL    HW114681   2.826   1.741   5.264  0.2594 -0.4577 -0.6173
 1074SOL    HW214682   2.853   1.719   5.119 -0.0554 -1.8830  0.0568
 1075SOL     OW14683   1.794   0.551   7.639  0.1933 -0.0635  0.1284
 1075SOL    HW114684   1.704   0.563   7.609  1.2545  1.7097 -2.4230
 1075SOL    HW214685   1.772   0.506   7.720 -0.4605 -0.4806 -0.2857
 1076SOL     OW14686   0.541   2.964   9.042 -0.2718 -0.1998 -0.1944
 1076SOL    HW114687   0.479   3.015   9.094 -2.2595 -1.3839 -1.3878
 1076SOL    HW214688   0.561   2.890   9.099 -0.6291  1.6330  2.2791
 1077SOL     OW14689   3.073   3.029   1.788  0.7690 -0.1120  0.2276
 1077SOL    HW114690   3.065   3.086   1.865 -1.2925 -1.8012  1.2926
 1077SOL    HW214691   3.003   3.055   1.728  0.6189 -0.3235  0.3069
 1078SOL     OW14692   2.267   2.657   9.005  0.0874 -0.5917  0.1615
 1078SOL    HW114693   2.219   2.712   8.943  1.8953 -0.2189 -0.8945
 1078SOL    HW214694   2.283   2.726   9.069 -1.0487  0.8072 -1.0878
 1079SOL     OW14695   1.647   3.599   8.415  0.1470 -0.0971  0.2802
 1079SOL    HW114696   1.579   3.557   8.362  0.7507  0.3646 -0.8661
 1079SOL    HW214697   1.699   3.524   8.444  0.6777  0.7470  1.4789
 1080SOL     OW14698   4.005   1.859   7.760 -0.4738 -0.5344  0.0083
 1080SOL    HW114699   3.997   1.930   7.824 -2.4746  0.7958 -1.7205
 1080SOL    HW214700   4.088   1.814   7.775  0.0755  0.7039  0.7154
 1081SOL     OW14701   2.669   3.265  10.718  0.2318 -0.3896  0.1707
 1081SOL    HW114702   2.584   3.230  10.689  0.3038  1.8735 -2.6822
 1081SOL    HW214703   2.728   3.206  10.670  1.2784  0.6399  0.2150
 1082SOL     OW14704   4.346   0.640   4.975  0.0945 -0.0907 -0.8503
 1082SOL    HW114705   4.259   0.627   4.937 -0.3982 -2.2221  1.0427
 1082SOL    HW214706   4.389   0.562   4.940  1.1599 -0.2806  0.8731
 1083SOL     OW14707   3.542   3.392  17.497  0.6532 -0.9112  0.0570
 1083SOL    HW114708   3.510   3.384  17.587 -1.8092 -0.4432 -0.7882
 1083SOL    HW214709   3.566   3.485  17.500 -2.3267 -0.1370 -0.3362
 1084SOL     OW14710   3.768   1.127   8.579  0.3130 -0.0379 -0.1784
 1084SOL    HW114711   3.747   1.196   8.642  2.5951 -0.2313  0.8249
 1084SOL    HW214712   3.859   1.153   8.563  0.0991  0.1074 -1.1424
 1085SOL     OW14713   1.056   1.280  15.641 -0.4632 -0.2781 -0.5752
 1085SOL    HW114714   1.053   1.376  15.648 -0.4930 -0.2680 -0.7433
 1085SOL    HW214715   1.040   1.267  15.548 -0.8200 -3.0786 -0.1166
 1086SOL     OW14716   1.685   3.446   3.822 -0.1455  0.1800  0.4829
 1086SOL    HW114717   1.770   3.417   3.854  0.0952 -0.6731 -0.9348
 1086SOL    HW214718   1.664   3.377   3.759  0.3634  0.5615 -0.1060
 1087SOL     OW14719   3.508   0.479   1.632 -0.3348 -0.3671 -0.1645
 1087SOL    HW114720   3.441   0.501   1.568  0.1724 -0.6811 -0.8082
 1087SOL    HW214721   3.548   0.566   1.646 -0.4976 -0.8059  2.8774
 1088SOL     OW14722   2.129   0.287   4.075  0.3019 -0.3898  0.5194
 1088SOL    HW114723   2.122   0.341   3.997 -0.7648  2.9570  2.9320
 1088SOL    HW214724   2.043   0.287   4.115 -0.0972  2.8716 -0.3476
 1089SOL     OW14725   2.798   2.229   8.360  0.0561  0.0330  0.3611
 1089SOL    HW114726   2.887   2.193   8.363  0.1875  0.5016  2.4583
 1089SOL    HW214727   2.779   2.234   8.454 -1.4350  0.5167  0.0429
 1090SOL     OW14728   0.289   1.565   5.155 -0.2430 -0.6237 -0.0642
 1090SOL    HW114729   0.347   1.490   5.147  0.8301  0.0906  1.0915
 1090SOL    HW214730   0.339   1.635   5.114  0.1308 -0.8168  0.0631
 1091SOL     OW14731   0.840   4.188   4.699  0.3605  0.4046 -0.2654
 1091SOL    HW114732   0.891   4.147   4.628  1.1688  0.3605  0.3344
 1091SOL    HW214733   0.845   4.276   4.661 -1.9543  0.1841 -1.0373
 1092SOL     OW14734   2.638   0.222   3.812  0.9183  0.2629  0.1552
 1092SOL    HW114735   2.614   0.179   3.730  1.4199  0.3202 -0.0215
 1092SOL    HW214736   2.556   0.270   3.830  2.8382  3.2346  0.9954
 1093SOL     OW14737   3.498   1.577  10.192  0.3731  0.0754 -0.4644
 1093SOL    HW114738   3.406   1.599  10.177  0.1400 -1.3352 -1.0523
 1093SOL    HW214739   3.515   1.629  10.271 -1.5595  0.7585 -0.4929
 1094SOL     OW14740   3.590   3.795   6.411 -0.1853 -0.2986 -0.4816
 1094SOL    HW114741   3.636   3.862   6.359 -0.1394 -1.0466 -1.4178
 1094SOL    HW214742   3.503   3.830   6.428  0.9666  1.5594  1.6784
 1095SOL     OW14743   3.837   1.055   8.134 -0.2640  0.1162  0.0392
 1095SOL    HW114744   3.829   0.968   8.175 -2.9445 -0.1707 -1.0667
 1095SOL    HW214745   3.806   1.107   8.209  1.2885 -0.9005  1.3734
 1096SOL     OW14746   2.812   3.354   7.087  0.5487 -0.7667  0.5694
 1096SOL    HW114747   2.738   3.317   7.135 -0.7619  3.0469  1.4533
 1096SOL    HW214748   2.848   3.406   7.158 -0.3312 -1.6082  1.6368
 1097SOL     OW14749   3.199   1.339   9.588  1.0350  0.1592  0.2673
 1097SOL    HW114750   3.259   1.271   9.618 -0.2309 -0.8346  0.4975
 1097SOL    HW214751   3.113   1.297   9.588  1.1431 -0.0337 -2.3239
 1098SOL     OW14752   2.418   4.325   3.324 -0.2124  0.1433  0.2088
 1098SOL    HW114753   2.385   4.386   3.259  0.7044  1.4609  0.9837
 1098SOL    HW214754   2.496   4.366   3.360 -0.1088 -0.2389  0.4282
 1099SOL     OW14755   3.933   0.910   2.439 -0.2106  0.0948 -0.1158
 1099SOL    HW114756   4.013   0.875   2.401 -0.0203  0.8139 -0.3855
 1099SOL    HW214757   3.899   0.825   2.467  1.2422  0.2309  2.0358
 1100SOL     OW14758   2.190   3.187   7.295 -0.3480  0.5741 -0.1884
 1100SOL    HW114759   2.175   3.276   7.327  0.4529 -0.2577  2.5199
 1100SOL    HW214760   2.268   3.163   7.345  0.1423 -0.3581 -1.4060
 1101SOL     OW14761   0.855   0.671   4.171  0.1474  0.0696 -0.3217
 1101SOL    HW114762   0.854   0.635   4.083  1.7341 -0.3005 -0.1933
 1101SOL    HW214763   0.847   0.588   4.219  2.4802 -0.2984 -0.5943
 1102SOL     OW14764   0.156   4.580   8.402  0.1908  0.0748 -0.2355
 1102SOL    HW114765   0.195   4.505   8.448  1.8496  0.1383 -1.5563
 1102SOL    HW214766   0.183   4.646   8.466 -0.7838  2.5400 -2.3616
 1103SOL     OW14767   4.491   3.403   8.243  0.5583  0.2615  0.5721
 1103SOL    HW114768   4.405   3.435   8.267  0.1746 -0.0170 -0.4384
 1103SOL    HW214769   4.463   3.343   8.173 -0.5740  0.8833  0.4941
 1104SOL     OW14770   0.224   1.225   9.999 -0.3063 -1.2295  0.4455
 1104SOL    HW114771   0.272   1.290  10.050 -1.8019  0.2842 -0.0704
 1104SOL    HW214772   0.164   1.277   9.946  0.8389 -1.1243 -0.7621
 1105SOL     OW14773   0.287   0.392  12.738  0.6278 -0.8972 -0.4298
 1105SOL    HW114774   0.293   0.464  12.675 -1.4974  0.7971  1.3325
 1105SOL    HW214775   0.380   0.377  12.755  0.4720 -2.1441 -0.6713
 1106SOL     OW14776   4.294   0.705   7.236  0.4634 -0.0460  0.0811
 1106SOL    HW114777   4.388   0.692   7.221  0.7181 -0.5785  2.1587
 1106SOL    HW214778   4.295   0.801   7.236  0.3532 -0.0396  0.6747
 1107SOL     OW14779   1.179   1.849  11.488 -0.4239  0.2557  0.3952
 1107SOL    HW114780   1.220   1.762  11.485  2.3416  1.5551  0.5830
 1107SOL    HW214781   1.256   1.904  11.503 -1.0127  1.3538 -0.6228
 1108SOL     OW14782   4.710   1.311   3.477 -0.1962  0.0462 -0.3190
 1108SOL    HW114783   4.657   1.368   3.421  0.0794 -1.0635 -1.7044
 1108SOL    HW214784   0.058   1.370   3.505  2.0103 -3.4070  1.3547
 1109SOL     OW14785   1.330   0.979   5.151  0.5468 -0.4524 -0.4108
 1109SOL    HW114786   1.369   0.955   5.067 -1.0696 -0.9258 -1.0283
 1109SOL    HW214787   1.395   0.934   5.204  1.4027  0.9757 -0.2551
 1110SOL     OW14788   2.871   0.566   3.711  0.6248  0.1395  0.6621
 1110SOL    HW114789   2.919   0.641   3.746 -2.2605  2.6987 -0.7980
 1110SOL    HW214790   2.851   0.519   3.792 -0.0846  0.5965  0.7508
 1111SOL     OW14791   3.736   3.051   7.540  0.0292  0.3096 -0.5061
 1111SOL    HW114792   3.787   2.995   7.481  1.1433 -1.9215  2.6234
 1111SOL    HW214793   3.681   3.098   7.477 -0.5657 -1.8088 -1.5759
 1112SOL     OW14794   0.605   2.173   3.131 -0.0713 -0.2741 -0.8378
 1112SOL    HW114795   0.545   2.104   3.160 -0.6485  0.6896  0.2705
 1112SOL    HW214796   0.547   2.228   3.078 -1.9828 -1.9201 -0.4585
 1113SOL     OW14797   2.904   3.110  10.558 -0.4437  0.4291 -0.3010
 1113SOL    HW114798   2.872   3.032  10.605 -1.5520  0.1843 -1.4517
 1113SOL    HW214799   2.986   3.077  10.523  0.1812 -2.0638  3.4859
 1114SOL     OW14800   3.238   1.151  17.066 -0.3593 -0.7304 -0.3023
 1114SOL    HW114801   3.287   1.164  16.986  1.0227 -0.3375  0.6096
 1114SOL    HW214802   3.179   1.227  17.067 -1.0515 -1.2597 -1.2850
 1115SOL     OW14803   1.393   2.516   8.232  0.3376 -0.1374 -0.1236
 1115SOL    HW114804   1.487   2.501   8.247 -0.0618  0.3019  2.7144
 1115SOL    HW214805   1.393   2.585   8.165  0.4723  1.3480  1.4098
 1116SOL     OW14806   1.178   2.267   3.322  0.1936 -0.1552  0.1774
 1116SOL    HW114807   1.266   2.305   3.318  0.3331 -0.3562  1.4438
 1116SOL    HW214808   1.134   2.283   3.238 -0.6954 -1.5195  0.3977
 1117SOL     OW14809   1.577   0.898   8.661  0.2490  0.0384  0.1029
 1117SOL    HW114810   1.503   0.895   8.600 -0.0283  2.2834  0.3307
 1117SOL    HW214811   1.521   0.928   8.733 -1.6344 -2.7495 -0.1763
 1118SOL     OW14812   1.190   2.131   2.626  0.4870 -0.5169 -0.3744
 1118SOL    HW114813   1.123   2.077   2.585 -0.6758  0.5415  0.1443
 1118SOL    HW214814   1.265   2.106   2.572  1.2213 -0.1090  0.4529
 1119SOL     OW14815   1.633   2.665   1.737 -0.0686  0.0794  0.0773
 1119SOL    HW114816   1.647   2.596   1.800 -0.0960 -0.2908 -0.3223
 1119SOL    HW214817   1.572   2.724   1.782  1.9915  1.6737  0.7705
 1120SOL     OW14818   3.451   0.164   5.126 -0.5656 -0.0902  0.7377
 1120SOL    HW114819   3.422   0.254   5.135  0.3829 -0.0538  3.4535
 1120SOL    HW214820   3.529   0.175   5.072 -0.0185  1.3212  1.8332
 1121SOL     OW14821   3.064   2.202  15.289 -0.1097 -0.2417  0.2953
 1121SOL    HW114822   3.097   2.280  15.334 -2.7461  0.4276  1.0543
 1121SOL    HW214823   3.020   2.246  15.216 -1.3405 -0.6478  0.8031
 1122SOL     OW14824   3.394   3.982   7.768  0.1204 -0.5234  0.0289
 1122SOL    HW114825   3.396   3.963   7.674 -2.3647 -3.8561  0.6550
 1122SOL    HW214826   3.327   4.049   7.773  1.5885  0.8982  0.5506
 1123SOL     OW14827   3.932   0.666  12.415  0.2762 -0.3629 -0.4935
 1123SOL    HW114828   3.960   0.736  12.474 -0.2457  0.0972 -0.7867
 1123SOL    HW214829   4.001   0.601  12.427 -0.1827 -0.9043 -0.7891
 1124SOL     OW14830   3.836   0.763   6.017 -0.2564 -0.2899  0.0846
 1124SOL    HW114831   3.768   0.720   5.965 -2.5159  0.8150  2.1158
 1124SOL    HW214832   3.913   0.727   5.974  0.2240  1.4493 -0.4927
 1125SOL     OW14833   2.807   3.539   3.837 -0.0852 -0.1066 -0.2872
 1125SOL    HW114834   2.779   3.618   3.792  2.3310  0.4900 -0.7588
 1125SOL    HW214835   2.731   3.530   3.893  1.3401  1.6004  1.9069
 1126SOL     OW14836   3.883   0.759  12.699 -0.2476 -0.2172 -0.4713
 1126SOL    HW114837   3.874   0.664  12.701 -1.9013 -0.0229  0.6147
 1126SOL    HW214838   3.979   0.756  12.694 -0.3384 -1.6656 -1.4996
 1127SOL     OW14839   0.884   3.062   1.260 -0.4539  0.5839 -0.2033
 1127SOL    HW114840   0.963   3.036   1.308 -1.0678 -1.4747 -0.3060
 1127SOL    HW214841   0.918   3.063   1.170  0.9581  1.8034  0.3460
 1128SOL     OW14842   4.580   4.258   5.256  0.2105  0.6995  0.1246
 1128SOL    HW114843   4.517   4.311   5.208  1.3676  1.4393 -0.5456
 1128SOL    HW214844   4.541   4.179   5.218  0.7824  0.0911  0.7897
 1129SOL     OW14845   4.285   3.026   5.636 -0.1970 -0.0490  0.6894
 1129SOL    HW114846   4.318   3.116   5.634  1.4272 -0.6832 -0.9578
 1129SOL    HW214847   4.358   2.968   5.616  0.3122  0.1450  1.9569
 1130SOL     OW14848   1.811   3.799   7.365 -0.8925  0.4295  0.0278
 1130SOL    HW114849   1.817   3.750   7.447  1.9006  3.5068  1.6447
 1130SOL    HW214850   1.716   3.807   7.356 -0.9413 -0.1024  0.0702
 1131SOL     OW14851   1.397   1.889  10.418  0.1046  0.2945 -0.1368
 1131SOL    HW114852   1.426   1.981  10.419 -1.3671  0.7876 -2.1372
 1131SOL    HW214853   1.399   1.878  10.513  1.2483 -1.3801 -0.3490
 1132SOL     OW14854   0.952   2.215   5.681 -0.1459  0.5666  0.0033
 1132SOL    HW114855   0.905   2.137   5.711 -0.2611  0.3927 -0.6166
 1132SOL    HW214856   0.918   2.218   5.592 -0.2135  1.6204  0.0660
 1133SOL     OW14857   0.081   1.207   3.183 -0.2406 -0.2891 -0.0901
 1133SOL    HW114858   0.047   1.118   3.189  1.3182 -0.8711  0.0027
 1133SOL    HW214859   0.007   1.254   3.144  0.1369  0.5998  0.2684
 1134SOL     OW14860   3.611   0.871   3.206 -0.1608  0.5438  0.1932
 1134SOL    HW114861   3.544   0.823   3.157  1.4691 -1.9071  0.3277
 1134SOL    HW214862   3.604   0.961   3.176  1.8678  0.2645 -1.1351
 1135SOL     OW14863   0.249   3.750   9.773  0.3680  0.3987  0.0247
 1135SOL    HW114864   0.289   3.676   9.818 -1.3364 -1.0851 -0.8841
 1135SOL    HW214865   0.168   3.758   9.824 -0.7562 -1.5877 -1.4732
 1136SOL     OW14866   2.193   3.101   7.042  0.0909 -0.5394 -0.1621
 1136SOL    HW114867   2.114   3.153   7.030 -0.6582 -1.4560  0.8903
 1136SOL    HW214868   2.198   3.113   7.137  1.7299 -1.2373 -0.1548
 1137SOL     OW14869   2.408   4.637   8.816  0.0143  0.3228 -0.5007
 1137SOL    HW114870   2.491   4.656   8.773  1.6542  1.9905  3.3636
 1137SOL    HW214871   2.379   4.720   8.853  0.4574  1.0440 -1.7759
 1138SOL     OW14872   2.428   4.673  10.824  0.5064  0.0880  0.2388
 1138SOL    HW114873   2.403   0.025  10.879  0.8217 -1.1439  2.0797
 1138SOL    HW214874   2.353   4.613  10.822  1.2847 -0.9480  2.0683
 1139SOL     OW14875   3.610   4.508   7.536 -0.0757  0.1206  0.5986
 1139SOL    HW114876   3.573   4.596   7.545 -0.4568  0.1924 -1.8644
 1139SOL    HW214877   3.699   4.538   7.515  0.2859 -0.7603  0.8788
 1140SOL     OW14878   0.692   3.838  15.273 -0.5022 -0.2235  0.6300
 1140SOL    HW114879   0.735   3.787  15.342 -0.2835 -2.0767 -0.8864
 1140SOL    HW214880   0.743   3.811  15.197 -2.9218  0.3297 -1.1923
 1141SOL     OW14881   0.367   2.809   4.552 -0.0518 -0.7913  0.2600
 1141SOL    HW114882   0.427   2.762   4.495 -1.6364 -0.0412 -2.0049
 1141SOL    HW214883   0.380   2.902   4.530 -1.3775 -0.7943 -0.4895
 1142SOL     OW14884   2.496   2.836   5.326  0.0995  0.4675 -0.0115
 1142SOL    HW114885   2.502   2.861   5.234 -1.6353 -0.0585 -0.2747
 1142SOL    HW214886   2.417   2.882   5.356  1.4850  1.7076  1.7351
 1143SOL     OW14887   3.715   0.969   9.792  0.1227  0.0944 -0.2215
 1143SOL    HW114888   3.795   0.998   9.748 -0.1160 -1.4046 -1.6696
 1143SOL    HW214889   3.714   1.015   9.876 -2.7919 -0.5627  0.0946
 1144SOL     OW14890   1.929   3.497  12.923  0.1507 -0.3807  0.2360
 1144SOL    HW114891   1.908   3.413  12.882  0.8293 -0.4215 -0.0412
 1144SOL    HW214892   1.876   3.482  13.000  1.3597 -1.5927  0.8405
 1145SOL     OW14893   4.718   2.437   9.179 -0.0055  0.6915 -0.1883
 1145SOL    HW114894   0.071   2.494   9.196  1.8066 -1.3512 -1.4252
 1145SOL    HW214895   4.664   2.442   9.257 -0.9031  1.5507 -0.8696
 1146SOL     OW14896   3.322   0.594  10.913  0.3395  0.1046 -0.2297
 1146SOL    HW114897   3.376   0.569  10.838 -0.8304  1.8588 -1.6662
 1146SOL    HW214898   3.234   0.570  10.884 -0.1919 -0.4537  1.9137
 1147SOL     OW14899   0.322   4.354   7.242 -0.0147  0.1469  0.0021
 1147SOL    HW114900   0.386   4.417   7.276  0.6135 -1.0702  1.0999
 1147SOL    HW214901   0.246   4.405   7.213 -0.9343 -1.6315 -0.7125
 1148SOL     OW14902   1.825   0.145   9.367  0.0473  0.4297 -0.3993
 1148SOL    HW114903   1.862   0.063   9.334 -1.9012 -0.7071  0.2303
 1148SOL    HW214904   1.735   0.117   9.382  0.8231 -2.0884 -0.4638
 1149SOL     OW14905   0.645   0.043  17.191 -0.1429  0.0308  0.0210
 1149SOL    HW114906   0.551   0.037  17.172 -0.5353 -0.3873  2.0845
 1149SOL    HW214907   0.666   4.695  17.252 -1.2416 -0.5790 -0.2991
 1150SOL     OW14908   1.088   1.876   8.167  0.1017  0.5102 -0.6636
 1150SOL    HW114909   1.109   1.822   8.090 -1.9691 -1.5683  0.2437
 1150SOL    HW214910   1.009   1.831   8.197 -0.2160  0.8117 -1.0582
 1151SOL     OW14911   1.004   4.322   2.827  0.6965  0.2067 -0.1602
 1151SOL    HW114912   1.051   4.313   2.744  2.6824  2.8193  0.6851
 1151SOL    HW214913   1.012   4.229   2.852  0.6824 -0.5398 -2.9592
 1152SOL     OW14914   0.341   2.849  12.474 -0.0812  0.0050  0.4124
 1152SOL    HW114915   0.251   2.881  12.470 -0.5824 -1.2741  1.3998
 1152SOL    HW214916   0.341   2.753  12.475 -0.2722 -0.0170 -2.1171
 1153SOL     OW14917   1.947   4.050   1.273 -0.3454  0.4178 -0.3504
 1153SOL    HW114918   1.980   4.107   1.343 -2.0623 -0.0928  0.8840
 1153SOL    HW214919   2.028   4.015   1.237 -0.8792  1.1958 -2.3206
 1154SOL     OW14920   0.198   2.271   8.104  0.3091 -0.5851  0.2624
 1154SOL    HW114921   0.200   2.313   8.018 -0.9898 -0.9588  0.0501
 1154SOL    HW214922   0.160   2.337   8.162 -2.3024 -1.4822 -0.4486
 1155SOL     OW14923   2.897   1.479   4.277  0.1962  0.0213  0.5733
 1155SOL    HW114924   2.812   1.522   4.277 -0.4573 -1.2855  0.0757
 1155SOL    HW214925   2.901   1.476   4.373 -2.0513 -2.6055  0.5598
 1156SOL     OW14926   2.449   2.687   1.866  0.4846 -0.0563 -0.4301
 1156SOL    HW114927   2.399   2.626   1.812 -0.8094 -1.0104  1.8486
 1156SOL    HW214928   2.475   2.621   1.930  2.8525 -0.1216 -1.4759
 1157SOL     OW14929   0.676   2.095   2.171  0.4810 -0.2218  0.1534
 1157SOL    HW114930   0.586   2.087   2.202 -0.0597  1.3957 -1.0147
 1157SOL    HW214931   0.681   2.190   2.180 -1.2414 -0.1975  0.8544
 1158SOL     OW14932   3.219   1.146   7.784  0.7329 -0.3610 -0.4739
 1158SOL    HW114933   3.221   1.178   7.694 -0.3986 -3.1061 -1.4452
 1158SOL    HW214934   3.296   1.090   7.780  1.9803  1.0872  2.6561
 1159SOL     OW14935   4.285   2.751   8.367 -0.8348  0.2334  0.5842
 1159SOL    HW114936   4.265   2.703   8.447 -0.0155  0.6441  1.0302
 1159SOL    HW214937   4.374   2.724   8.344 -0.5008  2.5367 -0.8539
 1160SOL     OW14938   3.498   2.690   5.143  0.6197  0.1314 -0.3740
 1160SOL    HW114939   3.579   2.739   5.156  0.9622  0.1381 -2.5651
 1160SOL    HW214940   3.444   2.728   5.212 -0.6539 -0.6151 -0.9780
 1161SOL     OW14941   3.188   1.238  14.906  0.4159  0.3973 -0.4663
 1161SOL    HW114942   3.254   1.304  14.925 -0.6862  0.7721  2.0612
 1161SOL    HW214943   3.246   1.166  14.880 -0.0580 -0.2175  0.1568
 1162SOL     OW14944   1.102   2.485   0.405 -0.5188  0.2299 -0.7343
 1162SOL    HW114945   1.193   2.484   0.435 -1.1429  0.2623  1.1848
 1162SOL    HW214946   1.103   2.574   0.370  0.6325  0.6323  0.3049
 1163SOL     OW14947   0.525   1.558  13.975  0.0640 -0.3221  0.1006
 1163SOL    HW114948   0.517   1.627  13.908  1.7122  0.3361  0.5873
 1163SOL    HW214949   0.580   1.498  13.925  0.5412 -0.8505  1.2644
 1164SOL     OW14950   1.039   2.313   5.088  0.4453 -0.4224 -0.1186
 1164SOL    HW114951   0.960   2.263   5.108  0.6364 -0.3477  0.8031
 1164SOL    HW214952   1.082   2.263   5.019  0.4140 -2.2817  1.2036
 1165SOL     OW14953   4.477   0.579   6.925  0.6117  0.4117  0.5122
 1165SOL    HW114954   4.539   0.634   6.878 -3.1855  2.2628 -2.2938
 1165SOL    HW214955   4.505   0.593   7.015 -0.1801 -1.1474  1.0051
 1166SOL     OW14956   2.309   1.984   6.053  0.1103 -0.1373  0.2357
 1166SOL    HW114957   2.376   1.915   6.061 -2.2669 -2.4859 -0.3083
 1166SOL    HW214958   2.359   2.057   6.017 -0.2596  0.6318  1.2896
 1167SOL     OW14959   4.376   2.403   2.736  0.5610  0.1113 -0.0115
 1167SOL    HW114960   4.375   2.407   2.641  3.1167  0.3440 -0.0520
 1167SOL    HW214961   4.311   2.472   2.747  0.0728 -0.8079  2.8445
 1168SOL     OW14962   1.075   2.721   6.248 -0.2561 -0.1602  0.3635
 1168SOL    HW114963   1.022   2.642   6.237 -0.0106 -0.4053  0.9380
 1168SOL    HW214964   1.136   2.698   6.318 -0.0805  2.1982  0.9629
 1169SOL     OW14965   2.422   3.326   6.380  0.0037  0.6299  0.4121
 1169SOL    HW114966   2.404   3.301   6.471  0.2120 -0.1886  0.2257
 1169SOL    HW214967   2.383   3.414   6.376  0.1930  0.7574  1.4537
 1170SOL     OW14968   0.078   1.866   9.725  0.5607 -0.0414 -0.4289
 1170SOL    HW114969   0.142   1.929   9.691  1.5133 -0.5673  0.3834
 1170SOL    HW214970   0.067   1.815   9.645  0.2668 -1.5551  0.5846
 1171SOL     OW14971   2.524   3.012   8.992 -0.1004 -0.3389 -0.7286
 1171SOL    HW114972   2.525   2.947   8.922  0.3724 -1.0165 -0.0986
 1171SOL    HW214973   2.478   3.081   8.945 -3.2607 -1.3980  0.8010
 1172SOL     OW14974   0.706   4.636   4.812  1.1991 -0.3982  0.2624
 1172SOL    HW114975   0.728   4.551   4.851  1.1291 -0.2195  0.6944
 1172SOL    HW214976   0.677   4.687   4.889  1.4659  0.6859 -0.3549
 1173SOL     OW14977   2.945   3.758   6.073  0.2403 -1.1654  0.3738
 1173SOL    HW114978   2.932   3.849   6.049 -1.2620 -1.2641  0.7719
 1173SOL    HW214979   2.966   3.768   6.166 -1.2192  1.4930  0.4155
 1174SOL     OW14980   3.750   2.604   4.217  0.2970  0.3818 -0.8058
 1174SOL    HW114981   3.707   2.659   4.152 -1.0727 -1.5469 -1.5111
 1174SOL    HW214982   3.842   2.627   4.232 -0.2380  1.1523  1.3744
 1175SOL     OW14983   3.168   3.362   1.815 -0.0594  0.3011  0.2921
 1175SOL    HW114984   3.256   3.325   1.824 -0.4627 -0.1526  2.4481
 1175SOL    HW214985   3.119   3.299   1.868 -0.6419  0.3441 -0.2073
 1176SOL     OW14986   3.299   2.150  15.055 -0.1629 -0.4610  0.0085
 1176SOL    HW114987   3.223   2.093  15.040 -0.8115  0.7620 -1.2575
 1176SOL    HW214988   3.271   2.223  15.110  0.6595  0.4533 -0.8033
 1177SOL     OW14989   0.467   4.120   5.322  0.2725 -0.6763  0.6368
 1177SOL    HW114990   0.513   4.167   5.392  1.2646  1.6212 -1.5426
 1177SOL    HW214991   0.378   4.114   5.355 -0.1519  1.2344 -0.1174
 1178SOL     OW14992   4.542   3.078   2.318 -0.1229 -0.4213  0.1270
 1178SOL    HW114993   4.596   3.080   2.397 -0.5622 -2.3742  0.4754
 1178SOL    HW214994   4.590   3.014   2.265  0.0389 -0.0068 -0.2222
 1179SOL     OW14995   0.004   2.448   6.861  0.1297 -0.1046  0.1335
 1179SOL    HW114996   0.053   2.473   6.939  1.4480  0.7069 -0.9636
 1179SOL    HW214997   4.687   2.372   6.904 -0.2214  0.3998  0.7141
 1180SOL     OW14998   4.274   1.964  14.746  0.1207  0.1403  0.1797
 1180SOL    HW114999   4.287   1.871  14.766  1.1666 -0.2716 -2.4430
 1180SOL    HW215000   4.317   1.964  14.661  0.2045 -0.0711  0.2214
 1181SOL     OW15001   2.181   2.619   5.179 -0.0694 -0.2710  0.1638
 1181SOL    HW115002   2.260   2.592   5.226 -0.2858 -1.0622  0.0767
 1181SOL    HW215003   2.180   2.711   5.203 -3.1853 -0.4394  0.7489
 1182SOL     OW15004   4.088   1.843   0.940 -0.2404 -0.5392 -0.0493
 1182SOL    HW115005   4.161   1.789   0.911  0.7117  0.7227 -0.0146
 1182SOL    HW215006   4.092   1.845   1.036  3.3323  0.6775 -0.2205
 1183SOL     OW15007   1.833   3.099  15.167 -0.3091 -0.1758  0.8658
 1183SOL    HW115008   1.904   3.062  15.115 -0.3465 -0.4043  0.9792
 1183SOL    HW215009   1.812   3.175  15.112 -3.9225 -1.1043  0.9610
 1184SOL     OW15010   4.349   1.347  17.482  0.1165  0.5407  0.0663
 1184SOL    HW115011   4.332   1.350  17.576  0.1404  2.6085  0.0044
 1184SOL    HW215012   4.270   1.303  17.451 -0.4660  0.3344  1.8544
 1185SOL     OW15013   0.342   2.059  16.242 -0.1190 -0.1915  0.5791
 1185SOL    HW115014   0.416   1.999  16.234 -0.0866 -0.0052 -0.4706
 1185SOL    HW215015   0.267   2.006  16.270 -0.9895  1.0823  0.6544
 1186SOL     OW15016   3.038   3.433   1.543 -0.3682  0.1676 -0.2690
 1186SOL    HW115017   3.044   3.524   1.570  1.3239 -0.1497  0.4160
 1186SOL    HW215018   3.083   3.384   1.612 -1.3392  0.2278  0.3925
 1187SOL     OW15019   0.807   2.417   0.153 -0.0037 -0.2682  0.2854
 1187SOL    HW115020   0.798   2.324   0.177  0.5984 -0.6994 -1.1213
 1187SOL    HW215021   0.847   2.454   0.231  0.4130 -1.1847  0.5047
 1188SOL     OW15022   1.908   1.084  14.115  0.2055 -0.1723  0.4948
 1188SOL    HW115023   1.865   1.000  14.106  0.0844  0.0904 -1.2795
 1188SOL    HW215024   1.981   1.060  14.173 -0.2092 -3.2745 -0.3148
 1189SOL     OW15025   2.691   1.519   6.739  0.3319  0.5373  0.3398
 1189SOL    HW115026   2.677   1.520   6.644  1.0335  1.4656  0.2454
 1189SOL    HW215027   2.697   1.425   6.759  0.5107  0.2931 -0.8027
 1190SOL     OW15028   0.007   0.561   5.044 -0.2491  0.6021 -0.1037
 1190SOL    HW115029   4.657   0.508   5.010  2.2812 -2.0284 -1.4780
 1190SOL    HW215030   4.715   0.554   5.138 -1.9463  2.7303 -0.2008
 1191SOL     OW15031   0.419   4.332   6.140  0.3873  0.3587 -0.1033
 1191SOL    HW115032   0.340   4.293   6.178  1.9383 -1.2659  1.4153
 1191SOL    HW215033   0.378   4.383   6.070 -0.3723  0.3984  0.3759
 1192SOL     OW15034   0.334   3.620  16.976  0.0974  0.0774 -0.2514
 1192SOL    HW115035   0.247   3.622  17.017 -0.1456  0.5238 -0.7867
 1192SOL    HW215036   0.341   3.524  16.984  1.8455  0.0694 -1.9338
 1193SOL     OW15037   4.535   2.393  15.293  0.0142 -0.0799 -0.0462
 1193SOL    HW115038   4.504   2.465  15.237  0.9663  0.0204 -0.4435
 1193SOL    HW215039   4.537   2.448  15.371 -0.9029 -0.8308  0.4997
 1194SOL     OW15040   1.763   1.513   0.428  0.0802 -0.7745 -0.1199
 1194SOL    HW115041   1.702   1.584   0.407  0.5738 -0.4902 -0.5900
 1194SOL    HW215042   1.704   1.454   0.475 -0.9648 -1.2741 -2.0700
 1195SOL     OW15043   2.437   2.710   3.501  0.2858  0.5866 -0.6510
 1195SOL    HW115044   2.396   2.626   3.522  1.7564  0.6149  2.3792
 1195SOL    HW215045   2.375   2.753   3.443 -1.3192  0.4667  0.9808
 1196SOL     OW15046   2.998   1.401   6.564  0.0851  0.9139  0.3986
 1196SOL    HW115047   2.908   1.391   6.533  0.6563 -1.7804 -0.4367
 1196SOL    HW215048   3.014   1.495   6.561 -0.6459  1.0623  1.3695
 1197SOL     OW15049   1.779   4.570   1.266 -0.5862  0.0293  0.3074
 1197SOL    HW115050   1.818   4.523   1.340  1.2906  1.4652  0.2473
 1197SOL    HW215051   1.830   4.651   1.261 -0.7883  0.2071  1.0607
 1198SOL     OW15052   0.909   0.316   7.038 -0.3918  0.0281  0.1190
 1198SOL    HW115053   1.000   0.299   7.012 -0.4772  1.0805 -0.8854
 1198SOL    HW215054   0.875   0.294   6.952 -1.3182  1.9983 -0.0128
 1199SOL     OW15055   1.907   0.141  17.130  0.4629 -0.0861 -0.0073
 1199SOL    HW115056   1.991   0.183  17.150  1.8897 -2.5917 -0.6920
 1199SOL    HW215057   1.930   0.083  17.057  0.2190 -0.7622  0.4551
 1200SOL     OW15058   0.087   1.147   6.952 -0.5469  0.3622 -0.3729
 1200SOL    HW115059   0.132   1.231   6.964  2.0031 -0.6102 -2.9043
 1200SOL    HW215060   0.163   1.093   6.972 -0.7890 -0.3523 -1.3466
 1201SOL     OW15061   1.022   1.717   2.871 -0.5248 -0.0456  0.6231
 1201SOL    HW115062   1.088   1.690   2.934  0.6553  0.7092 -0.2819
 1201SOL    HW215063   1.068   1.711   2.787 -0.2303 -0.2366  0.8028
 1202SOL     OW15064   0.783   2.875   7.799 -0.1406 -0.3622  0.8830
 1202SOL    HW115065   0.716   2.926   7.845  1.4928 -0.0317  2.9059
 1202SOL    HW215066   0.863   2.920   7.826  0.6267 -0.3992 -1.3022
 1203SOL     OW15067   3.434   3.752   5.287 -0.0367  0.2116 -0.1348
 1203SOL    HW115068   3.341   3.775   5.290  0.1636  0.9735  0.1965
 1203SOL    HW215069   3.446   3.744   5.193  2.5216  1.3322  0.1099
 1204SOL     OW15070   1.098   4.336   5.297  0.4432 -0.8101  0.0959
 1204SOL    HW115071   1.055   4.290   5.225 -0.8356  1.1402 -0.3735
 1204SOL    HW215072   1.029   4.366   5.357 -1.7122 -0.3952 -2.6064
 1205SOL     OW15073   4.663   3.057   6.808  0.0771  0.3860 -0.4288
 1205SOL    HW115074   4.629   3.035   6.721 -0.1064 -0.9135 -0.0327
 1205SOL    HW215075   0.033   3.069   6.789  0.2522 -0.5656 -0.1904
 1206SOL     OW15076   4.038   3.606   6.628 -0.0537 -0.0288 -0.1996
 1206SOL    HW115077   3.975   3.675   6.606  0.9528  0.5479 -1.2504
 1206SOL    HW215078   3.988   3.526   6.614  2.7732 -1.6286 -1.0315
 1207SOL     OW15079   2.306   0.433  12.579  0.4783 -0.0048 -0.3429
 1207SOL    HW115080   2.287   0.472  12.664 -4.0390 -1.6414 -0.6262
 1207SOL    HW215081   2.375   0.493  12.550 -0.5297  0.4972 -1.6513
 1208SOL     OW15082   0.345   3.520   8.365  0.5322 -0.0138 -0.6845
 1208SOL    HW115083   0.257   3.558   8.365  0.8375  0.6803  0.3133
 1208SOL    HW215084   0.351   3.454   8.434  0.0579  1.9982  1.2815
 1209SOL     OW15085   0.730   1.311   6.911  0.5110 -0.1764 -0.5893
 1209SOL    HW115086   0.740   1.257   6.989  1.4764 -1.0322 -1.2929
 1209SOL    HW215087   0.707   1.393   6.953 -0.5197 -0.5014 -0.5294
 1210SOL     OW15088   0.172   0.990   5.788  0.2998  0.4721  0.0224
 1210SOL    HW115089   0.204   0.973   5.700  2.3546  1.4584  0.5656
 1210SOL    HW215090   0.251   1.003   5.840  1.0533  1.1529 -1.3036
 1211SOL     OW15091   3.783   2.998   2.122 -0.5286  0.6924 -0.5336
 1211SOL    HW115092   3.697   3.016   2.083 -0.7281 -0.3348 -0.5718
 1211SOL    HW215093   3.834   3.077   2.107  1.1652 -0.6299 -1.6188
 1212SOL     OW15094   0.348   3.711   0.626 -0.1410 -0.0440  0.2153
 1212SOL    HW115095   0.404   3.777   0.667  0.9928  0.3914 -2.0451
 1212SOL    HW215096   0.411   3.657   0.578 -1.4620 -2.5399  1.2707
 1213SOL     OW15097   3.121   3.731   7.876 -0.1080 -0.5491 -0.0278
 1213SOL    HW115098   3.062   3.673   7.924 -0.4478  0.7929  1.1545
 1213SOL    HW215099   3.062   3.771   7.812 -0.5231 -0.6180  0.3133
 1214SOL     OW15100   0.199   2.171   9.635 -0.2548 -0.3277  0.0890
 1214SOL    HW115101   0.283   2.125   9.630 -0.5816 -1.1262  2.0026
 1214SOL    HW215102   0.225   2.245   9.691 -2.4591  0.8968 -0.4895
 1215SOL     OW15103   0.191   1.504   7.232  0.1587  0.1787  0.7107
 1215SOL    HW115104   0.193   1.573   7.166  0.6074  1.8433  2.4459
 1215SOL    HW215105   0.193   1.552   7.315  1.8322  0.6218  0.4203
 1216SOL     OW15106   2.050   3.422   5.461 -0.3361 -0.0689 -0.1162
 1216SOL    HW115107   2.009   3.346   5.503 -2.7992  0.4550 -1.5835
 1216SOL    HW215108   1.998   3.479   5.518 -0.4651 -0.7481  0.4480
 1217SOL     OW15109   3.434   0.236   1.482  0.0209 -0.0867  0.1797
 1217SOL    HW115110   3.470   0.294   1.548  0.9700 -0.5719  0.0942
 1217SOL    HW215111   3.507   0.208   1.426  1.3556 -1.4258  2.5820
 1218SOL     OW15112   1.732   3.691   6.320 -0.2336  0.0438  0.1372
 1218SOL    HW115113   1.731   3.598   6.298  0.2316  0.3727 -1.2645
 1218SOL    HW215114   1.694   3.737   6.246  0.2655 -0.9342 -0.7291
 1219SOL     OW15115   2.317   4.700   6.312 -0.5646  0.2724 -0.8202
 1219SOL    HW115116   2.374   4.718   6.238  1.0308 -1.4684 -0.0141
 1219SOL    HW215117   2.333   0.056   6.366  1.5491 -0.2502 -0.6881
 1220SOL     OW15118   0.344   2.036   4.893 -0.5587 -0.5165 -0.3882
 1220SOL    HW115119   0.359   1.953   4.847 -1.2846 -0.1164 -1.3479
 1220SOL    HW215120   0.332   2.096   4.819  0.5988  0.2784  0.0737
 1221SOL     OW15121   0.912   1.217   0.213  0.1668  0.4329  0.1127
 1221SOL    HW115122   0.961   1.266   0.147 -0.2358 -0.2376 -0.6892
 1221SOL    HW215123   0.959   1.134   0.217  0.2514  0.4631 -0.2604
 1222SOL     OW15124   1.608   4.158   1.408  0.0814 -0.1975  0.1442
 1222SOL    HW115125   1.661   4.127   1.482 -1.8413  0.1978  1.6700
 1222SOL    HW215126   1.650   4.136   1.325 -4.5733 -1.6090 -1.8403
 1223SOL     OW15127   2.091   0.680   2.136 -0.1774  0.5621  0.1472
 1223SOL    HW115128   2.176   0.701   2.175 -0.4018 -0.7247  1.3155
 1223SOL    HW215129   2.055   0.760   2.174  0.5491  0.8126  0.3166
 1224SOL     OW15130   1.134   0.413   4.845  0.3094 -0.1076  0.3687
 1224SOL    HW115131   1.161   0.494   4.888  1.3925 -1.4560  2.2098
 1224SOL    HW215132   1.068   0.377   4.905 -0.6885 -1.8581 -1.7724
 1225SOL     OW15133   3.052   2.448  17.680  0.2827 -0.2125  0.0957
 1225SOL    HW115134   2.959   2.465  17.668  0.1369 -1.7211 -0.8576
 1225SOL    HW215135   3.075   2.497  17.601 -0.2813  0.2781  0.2313
 1226SOL     OW15136   1.794   2.637   5.436  0.7920  0.3330  0.2773
 1226SOL    HW115137   1.714   2.678   5.402  0.3860 -0.1346  0.6675
 1226SOL    HW215138   1.845   2.709   5.473  0.0806 -0.2419  2.3286
 1227SOL     OW15139   0.185   3.793   2.914  0.1048 -0.0098  0.0784
 1227SOL    HW115140   0.096   3.828   2.910  0.2787  0.4704  0.3679
 1227SOL    HW215141   0.228   3.865   2.960 -1.5073  2.2388 -1.9577
 1228SOL     OW15142   2.116   1.621   8.830  1.0391 -0.2873 -0.1307
 1228SOL    HW115143   2.059   1.694   8.807 -1.0237 -0.8483  3.1847
 1228SOL    HW215144   2.119   1.573   8.747 -0.2914 -3.2838  1.5438
 1229SOL     OW15145   4.191   2.865   4.148  0.1979 -0.2240 -0.3255
 1229SOL    HW115146   4.097   2.862   4.135  0.1410  0.2715 -0.0404
 1229SOL    HW215147   4.216   2.950   4.113  1.6375 -0.2135  0.7043
 1230SOL     OW15148   4.422   1.348  15.999 -0.1322 -0.7759  0.1096
 1230SOL    HW115149   4.397   1.409  15.929 -0.0051 -2.6474 -1.5660
 1230SOL    HW215150   4.500   1.302  15.966 -0.5009 -1.1215 -0.2732
 1231SOL     OW15151   1.168   2.984  11.421 -0.2256  1.0208  0.1809
 1231SOL    HW115152   1.153   2.937  11.339  2.5613  2.2872 -1.0544
 1231SOL    HW215153   1.078   3.002  11.450 -0.8965 -1.4853 -0.2974
 1232SOL     OW15154   1.143   1.750   6.080  0.1921 -0.2884  0.4491
 1232SOL    HW115155   1.121   1.821   6.140 -1.5808  0.1447 -0.6878
 1232SOL    HW215156   1.217   1.793   6.037 -2.2616  2.9480 -0.5668
 1233SOL     OW15157   0.332   0.644   9.678  0.3228 -0.1490 -0.5182
 1233SOL    HW115158   0.242   0.635   9.709  0.3772 -0.1496 -0.3601
 1233SOL    HW215159   0.355   0.737   9.689 -0.2777 -0.2795  1.6857
 1234SOL     OW15160   4.343   3.224   9.148  0.4097  0.0208 -0.1098
 1234SOL    HW115161   4.400   3.283   9.197  0.2283  1.9663 -2.2766
 1234SOL    HW215162   4.284   3.196   9.218  0.0728 -1.1629 -0.8682
 1235SOL     OW15163   4.435   2.588   0.248  0.1780  0.1270 -0.6721
 1235SOL    HW115164   4.528   2.566   0.256 -0.3972 -1.3756  2.0480
 1235SOL    HW215165   4.443   2.678   0.215  0.0121  0.0235 -0.9877
 1236SOL     OW15166   2.156   3.061  17.524 -0.1711  0.3720 -0.4197
 1236SOL    HW115167   2.198   2.975  17.521  0.5945  0.7366 -0.1227
 1236SOL    HW215168   2.228   3.122  17.534 -2.0607  2.0914  2.7150
 1237SOL     OW15169   3.763   1.165   3.382  0.0209  0.3102 -0.3349
 1237SOL    HW115170   3.667   1.163   3.373 -0.0009 -1.9577  0.4893
 1237SOL    HW215171   3.760   1.168   3.478 -1.6142 -0.2529 -0.3584
 1238SOL     OW15172   4.295   1.903   3.459  0.4005  0.7029 -0.1576
 1238SOL    HW115173   4.303   1.934   3.550 -1.4784  0.5482  0.0453
 1238SOL    HW215174   4.200   1.901   3.449  0.2564  1.8096  0.9126
 1239SOL     OW15175   0.806   3.613   4.627 -0.0850  0.7961  0.1737
 1239SOL    HW115176   0.754   3.533   4.636 -1.2096  1.3960 -1.1407
 1239SOL    HW215177   0.825   3.618   4.534  0.4835 -0.1161  0.2351
 1240SOL     OW15178   0.869   0.972   7.719 -0.4994  0.4542 -0.9860
 1240SOL    HW115179   0.869   1.046   7.779  1.5349 -0.9361  0.7004
 1240SOL    HW215180   0.811   0.988   7.645  0.8800 -0.0717 -2.1839
 1241SOL     OW15181   4.307   0.343   4.463 -0.1066 -0.5262  0.1431
 1241SOL    HW115182   4.297   0.350   4.368 -0.0870 -1.4965  0.0698
 1241SOL    HW215183   4.219   0.346   4.501 -0.6523  0.0022 -1.1663
 1242SOL     OW15184   3.918   1.579  11.385 -0.3218 -0.5418  0.2721
 1242SOL    HW115185   3.940   1.658  11.337  3.9666 -1.9077  0.0216
 1242SOL    HW215186   3.983   1.581  11.455 -1.4935 -0.4481  1.3509
 1243SOL     OW15187   2.796   0.218   7.167  0.1898 -0.1466  0.3735
 1243SOL    HW115188   2.730   0.187   7.228 -0.5883 -3.6123 -2.1719
 1243SOL    HW215189   2.801   0.307   7.200  0.7959  0.1324 -0.4756
 1244SOL     OW15190   2.382   2.300  16.684 -0.1589  0.1059  0.1982
 1244SOL    HW115191   2.361   2.363  16.616 -0.2564 -2.1472 -1.8575
 1244SOL    HW215192   2.360   2.213  16.651 -0.5304  0.0520  0.5891
 1245SOL     OW15193   1.213   2.467   7.281 -0.0210 -0.1292 -0.3605
 1245SOL    HW115194   1.195   2.542   7.337 -1.4948 -1.1992  0.5901
 1245SOL    HW215195   1.131   2.420   7.293 -1.0343  0.9490 -2.9990
 1246SOL     OW15196   0.566   0.622   6.848  0.3750 -1.0344  0.5370
 1246SOL    HW115197   0.517   0.691   6.801 -0.6735 -0.1120  2.9978
 1246SOL    HW215198   0.500   0.587   6.907 -1.7924  0.2112 -1.1031
 1247SOL     OW15199   1.787   1.699   7.816  0.2589 -0.1088 -0.1772
 1247SOL    HW115200   1.769   1.621   7.868 -0.0441  0.1393  0.0890
 1247SOL    HW215201   1.837   1.657   7.746  2.9167  2.2669  0.2744
 1248SOL     OW15202   4.035   4.023   8.395 -0.1347 -0.5311  0.1086
 1248SOL    HW115203   3.966   4.011   8.330 -0.4151  1.4344  0.0513
 1248SOL    HW215204   4.028   3.949   8.456  1.3507 -0.7677  0.0054
 1249SOL     OW15205   4.151   1.337  13.878 -0.8468 -0.3945  0.4728
 1249SOL    HW115206   4.224   1.390  13.846  1.1887 -2.0272  2.3060
 1249SOL    HW215207   4.146   1.266  13.814 -0.1754 -1.2021  1.3149
 1250SOL     OW15208   4.264   1.580   0.363  0.5227 -0.5319 -0.3830
 1250SOL    HW115209   4.347   1.591   0.317  1.6946  1.0954  2.1006
 1250SOL    HW215210   4.203   1.609   0.296 -0.5323 -0.0087  0.8045
 1251SOL     OW15211   0.802   0.884  17.579 -0.2627  0.2487  0.2001
 1251SOL    HW115212   0.745   0.916  17.509 -0.1733  0.2080  0.1080
 1251SOL    HW215213   0.785   0.958  17.637  0.6430  0.4133  0.2577
 1252SOL     OW15214   3.478   1.184   3.458  0.4543  0.1126 -0.4076
 1252SOL    HW115215   3.445   1.193   3.368 -0.7220 -0.0971 -0.0007
 1252SOL    HW215216   3.391   1.194   3.498 -0.6777 -0.2329 -2.7845
 1253SOL     OW15217   0.206   4.599   3.127 -0.0537  0.2504  0.1339
 1253SOL    HW115218   0.221   4.609   3.221 -0.3071 -1.6052  0.3678
 1253SOL    HW215219   0.275   4.537   3.101 -0.6440 -0.4612  0.2803
 1254SOL     OW15220   2.573   3.935   7.259 -0.6122 -0.1801  0.7626
 1254SOL    HW115221   2.513   3.992   7.211 -0.0535 -1.9004 -2.0128
 1254SOL    HW215222   2.635   4.002   7.286 -0.6853 -0.4599  1.6215
 1255SOL     OW15223   4.547   1.111  14.626 -0.8410 -0.4486  0.9449
 1255SOL    HW115224   4.620   1.091  14.684 -0.7942 -1.0253  0.6891
 1255SOL    HW215225   4.478   1.072  14.680 -0.5828 -2.1063  0.0571
 1256SOL     OW15226   0.510   2.615   8.807  0.3854  0.0830 -0.2392
 1256SOL    HW115227   0.590   2.663   8.829 -0.3273  0.6519  1.0751
 1256SOL    HW215228   0.479   2.589   8.893 -0.4027  3.3258  0.4466
 1257SOL     OW15229   4.144   2.029   3.108  0.2210 -0.6030  0.5145
 1257SOL    HW115230   4.181   2.071   3.186 -0.4017  0.9240 -0.0134
 1257SOL    HW215231   4.188   2.081   3.041 -0.2787 -0.3632  0.3738
 1258SOL     OW15232   0.757   3.101  12.215  0.2640  0.1595  0.1383
 1258SOL    HW115233   0.698   3.063  12.280  1.7927 -0.0518  1.4129
 1258SOL    HW215234   0.760   3.182  12.264 -0.8859  0.7832 -0.8280
 1259SOL     OW15235   2.714   0.735   4.822 -0.0218 -0.4982  0.1232
 1259SOL    HW115236   2.721   0.650   4.866  1.1786 -0.7407 -0.5375
 1259SOL    HW215237   2.784   0.785   4.863  0.5861 -0.6118 -0.7769
 1260SOL     OW15238   3.681   3.259   5.490 -0.6364  0.3261  0.0399
 1260SOL    HW115239   3.749   3.298   5.434 -0.8426  1.3016  0.4731
 1260SOL    HW215240   3.621   3.220   5.426  0.5498 -0.9545 -0.3137
 1261SOL     OW15241   1.889   2.260   4.345  0.3951  0.4100 -0.3368
 1261SOL    HW115242   1.939   2.249   4.426 -0.0017 -0.8092 -0.2556
 1261SOL    HW215243   1.799   2.267   4.376 -0.2761 -1.2962 -1.8980
 1262SOL     OW15244   2.830   2.348   1.023 -0.4163  0.4306  0.0004
 1262SOL    HW115245   2.815   2.338   0.928 -1.3664  2.0094 -0.0044
 1262SOL    HW215246   2.922   2.375   1.027 -0.6836  0.7730  3.2045
 1263SOL     OW15247   3.707   4.196  14.804 -1.0867  0.2573 -0.0752
 1263SOL    HW115248   3.801   4.212  14.794 -1.0884  1.4620  1.7499
 1263SOL    HW215249   3.686   4.164  14.716 -1.7999 -0.1547  0.2408
 1264SOL     OW15250   3.151   1.427  17.394  0.1499  0.0763 -0.9577
 1264SOL    HW115251   3.134   1.441  17.301 -0.5343  2.3401 -0.4794
 1264SOL    HW215252   3.224   1.484  17.420 -0.6090  0.3665  0.5645
 1265SOL     OW15253   1.978   4.043   5.813 -0.4905  0.3580  0.3699
 1265SOL    HW115254   1.962   4.069   5.904  0.0494 -0.8223  0.8042
 1265SOL    HW215255   1.993   4.127   5.771  4.5783 -0.4722  0.5810
 1266SOL     OW15256   1.311   2.959   6.726  0.2481  0.7885  0.6456
 1266SOL    HW115257   1.276   2.875   6.754  3.4273 -0.7875 -0.1829
 1266SOL    HW215258   1.242   2.983   6.663 -1.8983 -0.2897  2.6081
 1267SOL     OW15259   2.106   0.788   9.218  0.0275 -0.1897  0.2355
 1267SOL    HW115260   2.150   0.723   9.273  1.3076  0.6462  0.2020
 1267SOL    HW215261   2.053   0.741   9.154 -0.0964 -0.4450  0.5230
 1268SOL     OW15262   3.681   3.520   4.797 -0.1777 -0.3789  0.6338
 1268SOL    HW115263   3.593   3.535   4.830 -1.0026 -1.9352 -0.8519
 1268SOL    HW215264   3.722   3.494   4.880 -1.4082 -0.7303  1.1251
 1269SOL     OW15265   4.229   3.093   4.062 -0.1391  0.1123 -0.4849
 1269SOL    HW115266   4.314   3.095   4.017 -1.1253  1.5799 -2.3424
 1269SOL    HW215267   4.171   3.154   4.014 -0.8857  0.4814  0.8963
 1270SOL     OW15268   0.941   3.779  11.061 -0.4313  0.4518 -0.3800
 1270SOL    HW115269   1.022   3.786  11.011 -0.7682 -0.3567 -1.0407
 1270SOL    HW215270   0.885   3.849  11.027 -0.6305  1.5237  2.1296
 1271SOL     OW15271   4.283   0.022   0.351  0.4888 -0.4113 -0.0666
 1271SOL    HW115272   4.356   4.705   0.303  0.3903  1.6394 -1.9314
 1271SOL    HW215273   4.330   0.084   0.407 -0.0614 -0.0931  0.0365
 1272SOL     OW15274   3.095   1.037  12.549  0.2256 -0.6979 -0.5335
 1272SOL    HW115275   3.021   1.022  12.608 -0.3907  1.5262 -0.7226
 1272SOL    HW215276   3.039   1.039  12.471 -0.1147  1.7612 -0.2363
 1273SOL     OW15277   2.334   4.075   0.615  0.1974 -0.2873  0.2048
 1273SOL    HW115278   2.348   4.165   0.645  0.1876 -0.6550  1.3047
 1273SOL    HW215279   2.304   4.099   0.527  2.1928  0.0098 -0.3946
 1274SOL     OW15280   3.922   0.703   6.486  0.3396  0.5309  0.2810
 1274SOL    HW115281   3.896   0.675   6.574  0.0826  0.7977  0.2906
 1274SOL    HW215282   4.017   0.708   6.492  0.6098 -1.3574 -2.2670
 1275SOL     OW15283   3.926   4.391   5.939  1.4043 -0.0546 -0.3713
 1275SOL    HW115284   4.021   4.390   5.951  1.3230  0.6370  0.3670
 1275SOL    HW215285   3.897   4.407   6.029 -0.1159  0.0023 -0.8734
 1276SOL     OW15286   4.463   3.396   5.218  0.1050 -0.4820  0.3208
 1276SOL    HW115287   4.389   3.409   5.277 -0.7409 -1.7403 -0.4579
 1276SOL    HW215288   4.534   3.379   5.280  1.1362 -1.6904 -1.1928
 1277SOL     OW15289   2.954   3.049   1.121  0.3187  0.0817  0.2082
 1277SOL    HW115290   2.901   3.115   1.167  1.8659  1.0851  0.5578
 1277SOL    HW215291   2.973   3.096   1.040  0.7045 -1.0999 -0.3946
 1278SOL     OW15292   0.137   4.131  11.320 -0.1632 -0.5277 -0.0380
 1278SOL    HW115293   0.149   4.072  11.245 -1.3306 -2.8236  1.6028
 1278SOL    HW215294   0.205   4.197  11.309  0.5656 -1.2743 -0.0378
 1279SOL     OW15295   0.366   2.179   4.093 -0.0314 -0.3410  0.3295
 1279SOL    HW115296   0.283   2.186   4.046 -1.1374 -0.4908  2.2592
 1279SOL    HW215297   0.403   2.268   4.099  1.0146 -0.6270 -1.8730
 1280SOL     OW15298   4.305   2.176   2.910 -0.3980  0.0193  0.0880
 1280SOL    HW115299   4.293   2.268   2.933 -0.4406 -0.2926  1.2968
 1280SOL    HW215300   4.315   2.192   2.816  1.0653  0.5826  0.3388
 1281SOL     OW15301   2.639   1.065   2.765 -0.2543  0.3532  0.1392
 1281SOL    HW115302   2.720   1.114   2.751 -0.0728 -0.2778 -0.9848
 1281SOL    HW215303   2.670   0.977   2.786 -0.4896 -0.0950 -1.3304
 1282SOL     OW15304   2.766   2.505   4.047 -0.4261 -0.2271 -0.2943
 1282SOL    HW115305   2.828   2.433   4.060  1.2367  1.2204 -0.1468
 1282SOL    HW215306   2.679   2.466   4.053  0.1516 -1.2911  1.1529
 1283SOL     OW15307   3.753   1.118   1.357 -0.7577  0.8421 -0.3704
 1283SOL    HW115308   3.812   1.183   1.318 -0.4440  0.4416 -0.5678
 1283SOL    HW215309   3.763   1.050   1.290 -1.6944 -0.4273  0.7806
 1284SOL     OW15310   0.714   0.704   5.965  0.0526 -0.3026  0.3128
 1284SOL    HW115311   0.795   0.738   5.927 -0.6576 -1.8860 -2.6846
 1284SOL    HW215312   0.736   0.657   6.045 -0.6737 -2.3482 -0.6782
 1285SOL     OW15313   4.627   1.677   6.181 -0.1163 -0.3825 -0.2690
 1285SOL    HW115314   4.546   1.717   6.212 -0.0324 -0.7162  0.3907
 1285SOL    HW215315   4.678   1.740   6.130  0.4369  1.4804  2.5877
 1286SOL     OW15316   3.952   3.425   3.971 -0.2318  0.6821 -0.4581
 1286SOL    HW115317   3.856   3.429   3.964 -0.3385 -0.6656  0.2672
 1286SOL    HW215318   3.955   3.419   4.066 -0.2318  0.4159 -0.4740
 1287SOL     OW15319   2.255   2.355   1.487 -0.5392  0.5307 -0.7543
 1287SOL    HW115320   2.164   2.346   1.459 -1.1156  4.0753 -0.0424
 1287SOL    HW215321   2.287   2.414   1.420  1.4991 -0.6635 -0.8408
 1288SOL     OW15322   0.007   0.472   5.343  0.3663 -0.1851  0.6115
 1288SOL    HW115323   0.080   0.413   5.325  0.3231  0.2536 -1.0006
 1288SOL    HW215324   4.719   0.461   5.437  0.6298 -2.3599  0.3754
 1289SOL     OW15325   2.842   2.697   7.550 -0.4606 -0.3972 -0.8453
 1289SOL    HW115326   2.781   2.629   7.522 -1.1741 -0.4627  0.8518
 1289SOL    HW215327   2.923   2.678   7.503  0.4522  0.4971  0.3615
 1290SOL     OW15328   1.344   2.133  10.606  0.5355 -0.3832 -0.0844
 1290SOL    HW115329   1.308   2.173  10.527  1.5949 -0.7864 -0.7764
 1290SOL    HW215330   1.433   2.165  10.590  1.1437 -1.0419  2.0168
 1291SOL     OW15331   4.296   0.247   5.083  0.0677  0.1902 -0.4568
 1291SOL    HW115332   4.339   0.303   5.148  1.6307 -1.0776 -0.4009
 1291SOL    HW215333   4.367   0.225   5.023 -0.0445 -1.9622  0.2198
 1292SOL     OW15334   1.140   2.665   7.464  0.1080  0.2799 -0.2273
 1292SOL    HW115335   1.045   2.676   7.469  0.3595  0.9572  3.2106
 1292SOL    HW215336   1.162   2.737   7.523  2.2360  1.1784 -2.1006
 1293SOL     OW15337   2.426   1.292   8.873  0.8030  0.1087 -0.0057
 1293SOL    HW115338   2.408   1.386   8.874  1.2348  0.1668  1.8879
 1293SOL    HW215339   2.353   1.265   8.818  0.1504 -0.3750  1.0987
 1294SOL     OW15340   0.143   3.513  12.027 -0.1210 -0.4085 -0.4087
 1294SOL    HW115341   0.171   3.537  12.116 -1.2171 -1.0311  0.1093
 1294SOL    HW215342   0.189   3.429  12.024 -1.1034 -0.9588 -0.0768
 1295SOL     OW15343   1.783   4.411   5.903 -0.0585  0.2711  0.2232
 1295SOL    HW115344   1.751   4.426   5.814  1.5591  1.6425 -0.1356
 1295SOL    HW215345   1.797   4.317   5.912 -0.3696  0.0027 -2.0314
 1296SOL     OW15346   2.378   1.823   6.512 -0.2007 -0.5459  0.1798
 1296SOL    HW115347   2.304   1.832   6.572  0.2120  1.5990  0.3648
 1296SOL    HW215348   2.353   1.882   6.441  2.2530  1.0236  0.5984
 1297SOL     OW15349   4.567   1.792  13.914  0.0179  0.8075  0.0945
 1297SOL    HW115350   4.662   1.780  13.917 -0.1087 -0.1651  0.3197
 1297SOL    HW215351   4.546   1.749  13.997  0.5069  0.4474  0.0360
 1298SOL     OW15352   4.624   4.371   2.800 -0.1707 -0.0647 -0.4208
 1298SOL    HW115353   4.663   4.389   2.715  0.3090 -0.3875 -0.2731
 1298SOL    HW215354   4.580   4.455   2.808  1.2343  0.6541 -0.2707
 1299SOL     OW15355   3.579   4.298  12.631 -0.2258  0.1429  0.5108
 1299SOL    HW115356   3.513   4.280  12.564  0.1600  0.3050  0.0925
 1299SOL    HW215357   3.521   4.336  12.698  1.8886  1.8306  1.3918
 1300SOL     OW15358   3.796   0.257  13.875  0.0730  0.2909 -0.2268
 1300SOL    HW115359   3.733   0.197  13.835  2.3651 -2.4349  0.2126
 1300SOL    HW215360   3.827   0.296  13.794 -0.2832  0.2726 -0.3703
 1301SOL     OW15361   4.460   3.948   2.396 -0.4340  0.4193  0.0129
 1301SOL    HW115362   4.453   4.011   2.324  2.2586 -0.4613 -0.9845
 1301SOL    HW215363   4.471   4.003   2.474  3.1345 -0.4183  0.0887
 1302SOL     OW15364   3.730   0.554  13.977  0.1026  0.4729  0.3460
 1302SOL    HW115365   3.752   0.461  13.966  0.6540  0.5676  0.6624
 1302SOL    HW215366   3.786   0.589  14.045 -0.1779  1.1704  0.2119
 1303SOL     OW15367   0.648   2.035   7.915 -0.0624  0.2599 -0.0426
 1303SOL    HW115368   0.668   1.941   7.914 -2.8989 -0.3398  0.6918
 1303SOL    HW215369   0.737   2.070   7.928  0.2390 -0.5314  0.0062
 1304SOL     OW15370   1.761   0.813   5.939  0.5648  0.1769 -0.1276
 1304SOL    HW115371   1.833   0.875   5.923  0.4704  0.7844  1.7940
 1304SOL    HW215372   1.711   0.835   5.860 -0.4652 -1.0125  0.1968
 1305SOL     OW15373   4.592   2.478   7.805  0.0175 -0.2719  0.4880
 1305SOL    HW115374   4.508   2.482   7.851 -0.2732 -0.2505 -0.0491
 1305SOL    HW215375   4.628   2.418   7.871  1.1893  1.5139  1.4553
 1306SOL     OW15376   2.005   2.768   9.045 -0.1383  0.4289  0.2827
 1306SOL    HW115377   2.049   2.698   9.092 -0.0070 -0.9847 -1.9290
 1306SOL    HW215378   2.047   2.769   8.958 -2.6608  1.7434 -0.9296
 1307SOL     OW15379   3.572   2.939   3.778  0.4417  0.1902 -0.6006
 1307SOL    HW115380   3.523   2.861   3.803  1.0116  0.1901  0.5344
 1307SOL    HW215381   3.500   2.987   3.738  0.0427  2.0770  2.3983
 1308SOL     OW15382   0.098   2.478   8.331 -0.3239 -0.0980  0.0658
 1308SOL    HW115383   0.192   2.491   8.334 -0.4786  1.3503 -1.1149
 1308SOL    HW215384   0.071   2.566   8.303 -0.3684  0.3025  1.3399
 1309SOL     OW15385   2.739   4.283  10.363 -0.7337 -0.5378  0.3336
 1309SOL    HW115386   2.795   4.355  10.393 -1.1427 -0.4177  0.7926
 1309SOL    HW215387   2.724   4.237  10.445 -1.0355  2.2338  1.8514
 1310SOL     OW15388   0.030   4.084   2.565 -0.7965 -0.0467  0.4986
 1310SOL    HW115389   0.095   4.015   2.550 -0.9900 -0.0641 -0.2716
 1310SOL    HW215390   0.095   4.142   2.603  0.4631  0.7428 -2.8531
 1311SOL     OW15391   0.816   0.623   2.178 -0.2722 -0.5984  0.7626
 1311SOL    HW115392   0.887   0.680   2.207 -1.5712  1.6595 -0.4565
 1311SOL    HW215393   0.868   0.564   2.124  0.3048  1.0523 -0.4902
 1312SOL     OW15394   2.638   1.602   3.906 -0.4568 -0.4108 -0.3336
 1312SOL    HW115395   2.679   1.650   3.834  0.7503  2.0634  2.0099
 1312SOL    HW215396   2.596   1.665   3.965 -0.2769  0.5351 -1.2332
 1313SOL     OW15397   2.284   1.725   6.170 -0.2930 -0.2380  0.4224
 1313SOL    HW115398   2.204   1.763   6.205 -0.2366 -0.4144  0.7321
 1313SOL    HW215399   2.333   1.726   6.252 -1.0901  0.5602  0.8860
 1314SOL     OW15400   4.619   0.023   8.277  0.2440  0.4119 -0.6723
 1314SOL    HW115401   4.699   4.718   8.322 -0.8580 -1.0198  0.4161
 1314SOL    HW215402   4.550   4.691   8.315 -0.9868  0.7672 -2.4586
 1315SOL     OW15403   0.452   0.668   3.564  0.2013 -0.1558 -0.0521
 1315SOL    HW115404   0.520   0.615   3.606  2.5804  1.5258 -1.8053
 1315SOL    HW215405   0.464   0.646   3.471 -0.4383  0.7452 -0.3350
 1316SOL     OW15406   1.794   3.073   7.577 -0.2392  0.1608 -0.4019
 1316SOL    HW115407   1.841   3.127   7.513  1.7319 -2.4243 -1.1162
 1316SOL    HW215408   1.706   3.077   7.540  0.7544  3.7572 -2.3966
 1317SOL     OW15409   0.271   2.341   7.848 -0.2519 -0.3220 -0.1630
 1317SOL    HW115410   0.342   2.289   7.809 -0.2928 -0.6420  0.1903
 1317SOL    HW215411   0.208   2.340   7.776  0.0222 -1.2362 -0.3970
 1318SOL     OW15412   2.170   4.244   8.485 -0.1810 -0.2636  0.6596
 1318SOL    HW115413   2.220   4.201   8.416 -1.5455  1.0141 -1.1213
 1318SOL    HW215414   2.099   4.274   8.427  0.6353  0.2606 -0.0615
 1319SOL     OW15415   3.913   3.729  13.646  0.3925  0.3563 -0.3743
 1319SOL    HW115416   3.925   3.640  13.613  1.4115  0.5101 -0.4216
 1319SOL    HW215417   3.990   3.729  13.703  0.9203  1.0133 -1.0884
 1320SOL     OW15418   2.231   1.504   5.715 -0.6877 -0.1696 -0.1803
 1320SOL    HW115419   2.232   1.583   5.768 -0.1210  0.5563 -1.2622
 1320SOL    HW215420   2.218   1.435   5.780  0.7080 -1.5042 -1.2942
 1321SOL     OW15421   1.342   0.600   6.044  0.0828  0.0194 -0.2208
 1321SOL    HW115422   1.375   0.564   6.126 -1.9929 -0.8797  0.2433
 1321SOL    HW215423   1.427   0.606   6.001  0.2457 -1.3632 -0.0908
 1322SOL     OW15424   4.705   4.169   8.411  0.6922 -0.0484 -0.1753
 1322SOL    HW115425   4.652   4.213   8.478  0.5188 -3.0447  1.6358
 1322SOL    HW215426   4.674   4.215   8.333  3.0829  0.6120 -0.7402
 1323SOL     OW15427   0.265   3.049   1.841  0.2191 -0.5639 -0.0529
 1323SOL    HW115428   0.257   2.964   1.800 -0.2378 -0.0981 -0.9217
 1323SOL    HW215429   0.231   3.031   1.929  0.6255  2.0192  0.6355
 1324SOL     OW15430   1.769   3.221   5.035 -0.0985  0.2672 -0.0435
 1324SOL    HW115431   1.688   3.204   5.084 -0.6493 -0.8846 -1.3240
 1324SOL    HW215432   1.784   3.140   4.985  1.7896  0.6251 -0.0407
 1325SOL     OW15433   2.387   0.286   3.183 -0.5627 -0.6203  0.9946
 1325SOL    HW115434   2.409   0.275   3.275 -1.6216 -0.3984  1.2656
 1325SOL    HW215435   2.346   0.202   3.164  1.1995 -1.1616 -0.5329
 1326SOL     OW15436   0.216   3.777  11.611 -0.2695  0.4233 -0.2533
 1326SOL    HW115437   0.124   3.754  11.598  0.1430 -0.9223 -0.7899
 1326SOL    HW215438   0.205   3.870  11.632  0.7748  0.4781  0.0571
 1327SOL     OW15439   3.994   2.414   8.678  0.2091  0.4799 -0.2606
 1327SOL    HW115440   3.973   2.354   8.606  2.6245  0.5768 -1.0727
 1327SOL    HW215441   3.928   2.483   8.666  0.0122  0.4360  0.6166
 1328SOL     OW15442   3.975   0.022  17.442  0.2339 -0.3860  0.0876
 1328SOL    HW115443   4.018   0.030  17.527  1.5098  3.0324 -0.8714
 1328SOL    HW215444   4.027   4.672  17.409 -0.1148 -0.7802  0.4090
 1329SOL     OW15445   4.393   0.432   3.482  0.3809 -0.4190  0.2944
 1329SOL    HW115446   4.340   0.487   3.539 -1.1504  0.1990 -1.6895
 1329SOL    HW215447   4.466   0.409   3.538 -0.6063  1.3766  2.3330
 1330SOL     OW15448   2.093   3.063  15.371  0.1072  0.0943 -0.1799
 1330SOL    HW115449   2.016   3.071  15.427 -0.3499  0.3925 -0.8472
 1330SOL    HW215450   2.054   3.038  15.287 -0.4805 -1.5859  0.5788
 1331SOL     OW15451   2.771   0.497   8.013 -0.0176  0.0177  0.0407
 1331SOL    HW115452   2.804   0.461   8.095  2.3359 -1.2834 -1.4871
 1331SOL    HW215453   2.819   0.579   8.000  1.3925 -0.6116  1.2896
 1332SOL     OW15454   0.690   0.533   8.039  0.0596  0.1365  0.1653
 1332SOL    HW115455   0.644   0.611   8.007 -1.2992 -0.7245  0.0072
 1332SOL    HW215456   0.773   0.568   8.070  0.2423  0.1501 -0.3510
 1333SOL     OW15457   3.307   0.177   2.534 -0.2894 -0.6965  0.0578
 1333SOL    HW115458   3.301   0.121   2.611 -2.1834 -1.5393 -0.7258
 1333SOL    HW215459   3.390   0.219   2.555 -1.6524  2.5993 -1.0641
 1334SOL     OW15460   3.306   4.414   3.234 -0.1178 -0.4743 -0.5485
 1334SOL    HW115461   3.302   4.358   3.312 -0.0817  1.3263  0.7705
 1334SOL    HW215462   3.348   4.497   3.258 -0.4119  0.4794 -3.4119
 1335SOL     OW15463   4.207   1.097   3.419 -0.1592 -0.6945  0.2214
 1335SOL    HW115464   4.282   1.071   3.366 -0.4480 -0.9652 -0.0528
 1335SOL    HW215465   4.223   1.192   3.425  4.2977 -1.4263 -0.2693
 1336SOL     OW15466   4.511   0.824   1.932  0.2062 -0.2209 -0.4722
 1336SOL    HW115467   4.429   0.843   1.888 -0.3121  2.2339  1.5376
 1336SOL    HW215468   4.486   0.851   2.021  0.3041  1.5755 -0.9911
 1337SOL     OW15469   2.691   0.323  12.945 -0.4212  0.0790  0.6219
 1337SOL    HW115470   2.735   0.273  13.014 -1.8520  1.0797  2.2880
 1337SOL    HW215471   2.615   0.357  12.993 -0.0214  2.3516 -0.3510
 1338SOL     OW15472   0.583   2.151   6.678 -0.0556  0.3168  0.0444
 1338SOL    HW115473   0.539   2.068   6.697 -0.7756  0.6820 -0.0445
 1338SOL    HW215474   0.673   2.120   6.692 -0.6424 -2.2123 -1.7441
 1339SOL     OW15475   2.525   0.277   1.145 -0.4184  0.3993 -0.1768
 1339SOL    HW115476   2.472   0.201   1.118  0.2296 -0.3085  0.5614
 1339SOL    HW215477   2.497   0.344   1.082  0.9898 -0.0071 -1.2315
 1340SOL     OW15478   1.318   2.293   9.679 -0.5344 -0.1522 -0.3353
 1340SOL    HW115479   1.350   2.358   9.616 -0.0041 -1.1948 -1.1551
 1340SOL    HW215480   1.391   2.231   9.677 -0.2580  0.1590  0.0856
 1341SOL     OW15481   0.195   0.893   3.275  0.7007 -0.5024  0.0809
 1341SOL    HW115482   0.157   0.812   3.244 -1.6605  0.9883 -0.8727
 1341SOL    HW215483   0.226   0.865   3.362  0.8223 -2.2323 -0.5345
 1342SOL     OW15484   0.053   4.644   4.610 -0.2192 -0.2064 -0.2195
 1342SOL    HW115485   0.023   4.553   4.610  0.9303 -0.5894 -1.2572
 1342SOL    HW215486   0.098   4.655   4.526 -1.4680 -3.1442 -1.2971
 1343SOL     OW15487   2.562   0.949   2.262 -0.4956 -0.0356 -0.1171
 1343SOL    HW115488   2.511   1.030   2.258 -0.0088  0.1809 -1.6205
 1343SOL    HW215489   2.627   0.990   2.319 -0.4049 -0.6809  0.2471
 1344SOL     OW15490   2.495   3.722   4.560  0.1540 -0.2697 -0.0619
 1344SOL    HW115491   2.522   3.794   4.503  0.9767  0.7387  1.6091
 1344SOL    HW215492   2.463   3.770   4.637  1.7743 -0.2964  0.6243
 1345SOL     OW15493   3.175   0.487   8.936  0.0139  0.2008 -0.0463
 1345SOL    HW115494   3.214   0.426   8.999 -1.9340 -1.4376 -0.4178
 1345SOL    HW215495   3.088   0.478   8.974  0.7584  0.2446  1.6625
 1346SOL     OW15496   3.574   0.666   4.309 -0.3642 -0.7979 -0.4712
 1346SOL    HW115497   3.619   0.587   4.280  0.2520 -0.1646 -1.2302
 1346SOL    HW215498   3.625   0.683   4.388 -0.6581 -0.3493 -0.3715
 1347SOL     OW15499   4.066   2.465   9.162  0.2529  0.2199 -0.0080
 1347SOL    HW115500   4.141   2.407   9.160 -0.2070 -0.3554 -0.6068
 1347SOL    HW215501   4.018   2.432   9.238  1.4898 -2.3472 -0.3471
 1348SOL     OW15502   3.719   3.953   7.949 -0.7031  0.1687 -0.4218
 1348SOL    HW115503   3.710   4.045   7.924 -2.6135  0.6513  2.0344
 1348SOL    HW215504   3.736   3.912   7.864  0.6416  0.2120 -0.1666
 1349SOL     OW15505   0.365   2.474   4.070  0.3518  0.4108  0.4602
 1349SOL    HW115506   0.389   2.560   4.036 -0.4537 -0.2255 -1.7574
 1349SOL    HW215507   0.302   2.492   4.140 -0.0728  2.1234 -0.3425
 1350SOL     OW15508   1.694   3.388  17.121 -0.2574 -0.2818 -0.3641
 1350SOL    HW115509   1.662   3.457  17.179  0.6851 -0.4188  0.3144
 1350SOL    HW215510   1.729   3.329  17.188 -0.4854  0.5659  0.4967
 1351SOL     OW15511   4.131   1.765  12.705  0.0749 -0.4054 -0.1900
 1351SOL    HW115512   4.108   1.676  12.680 -0.5370 -0.4744  0.6102
 1351SOL    HW215513   4.208   1.788  12.652  0.1033  0.5475  0.2634
 1352SOL     OW15514   4.091   1.081   1.387  0.2318 -0.0112 -0.3272
 1352SOL    HW115515   4.045   1.152   1.342 -0.2509  0.8702  1.5567
 1352SOL    HW215516   4.156   1.060   1.320 -0.5544 -1.0568 -0.7580
 1353SOL     OW15517   1.733   0.284   5.481  0.7162  0.3128  0.0862
 1353SOL    HW115518   1.758   0.209   5.427 -0.9759 -0.5773  0.5017
 1353SOL    HW215519   1.781   0.261   5.561  0.4569  0.3006  0.2405
 1354SOL     OW15520   3.546   2.180  15.351 -0.2435  0.3026  0.3971
 1354SOL    HW115521   3.515   2.265  15.382 -1.0887 -0.0033  0.3949
 1354SOL    HW215522   3.500   2.131  15.419 -1.0697 -0.9429 -1.0721
 1355SOL     OW15523   0.086   2.130   2.083 -0.9288 -0.1331  0.3628
 1355SOL    HW115524   0.135   2.077   2.020  1.6935  1.4845  1.0860
 1355SOL    HW215525   0.051   2.054   2.130  1.4114 -0.7020  1.1486
 1356SOL     OW15526   2.586   0.453   6.611 -0.2106  0.4270 -0.5643
 1356SOL    HW115527   2.491   0.464   6.604  0.0532  3.2632  0.1813
 1356SOL    HW215528   2.606   0.407   6.529 -1.7221  0.5401 -1.0004
 1357SOL     OW15529   2.777   0.070  10.889 -0.5994 -0.0683 -0.2357
 1357SOL    HW115530   2.858   0.083  10.937 -1.8814  1.8410  1.4055
 1357SOL    HW215531   2.800   4.721  10.829  0.1165 -0.7691  0.8773
 1358SOL     OW15532   4.260   2.482   7.384 -0.8770 -0.2095 -0.1733
 1358SOL    HW115533   4.312   2.412   7.346  0.9723  0.6733  0.7201
 1358SOL    HW215534   4.270   2.464   7.477 -0.3231 -0.8378 -0.3484
 1359SOL     OW15535   0.715   1.166  11.468 -0.3101  0.2672 -0.1902
 1359SOL    HW115536   0.646   1.205  11.521 -0.1477  1.2107 -0.6781
 1359SOL    HW215537   0.680   1.162  11.378  1.4241  0.1595 -0.8588
 1360SOL     OW15538   4.141   2.884   3.814  0.3771 -0.3460 -0.5854
 1360SOL    HW115539   4.063   2.925   3.777  0.4370 -1.2057 -1.6767
 1360SOL    HW215540   4.173   2.961   3.862  0.7728 -0.3096 -0.9022
 1361SOL     OW15541   0.736   1.292   8.863 -0.0800  0.2575  0.4441
 1361SOL    HW115542   0.669   1.282   8.930  0.3003  0.8771  0.9130
 1361SOL    HW215543   0.690   1.239   8.798  1.9288  1.5011 -2.0086
 1362SOL     OW15544   3.940   3.746  17.216 -0.1780  0.0482 -0.6891
 1362SOL    HW115545   3.916   3.837  17.234  1.5321  0.1825  0.8709
 1362SOL    HW215546   4.010   3.762  17.153 -2.1762  0.9322 -2.7069
 1363SOL     OW15547   3.559   2.392   4.143  0.2858  0.4063 -0.0130
 1363SOL    HW115548   3.477   2.420   4.185 -0.5351 -1.0358 -0.6474
 1363SOL    HW215549   3.624   2.426   4.204  0.0426 -0.1695  0.5668
 1364SOL     OW15550   4.517   2.690   8.199  0.7324  0.1504  0.1095
 1364SOL    HW115551   4.516   2.738   8.117  1.4976  1.0498  0.6174
 1364SOL    HW215552   4.601   2.724   8.229  1.3981  0.0229 -1.6613
 1365SOL     OW15553   4.223   4.686  10.210 -0.1628  0.0504  0.1564
 1365SOL    HW115554   4.142   4.702  10.162 -0.3575 -0.9921  0.1494
 1365SOL    HW215555   4.187   4.630  10.278  0.1879 -2.1675 -1.5125
 1366SOL     OW15556   2.969   2.953   9.102 -0.5200  0.9587 -0.3252
 1366SOL    HW115557   2.999   3.014   9.034 -1.1723  0.8534 -0.7141
 1366SOL    HW215558   2.974   2.872   9.051 -0.1739  0.1483  0.9951
 1367SOL     OW15559   4.289   2.014  13.639 -0.2784 -0.2889  0.9789
 1367SOL    HW115560   4.335   2.093  13.667  1.8598 -0.0346 -3.3620
 1367SOL    HW215561   4.294   2.014  13.544  2.4548 -1.0851  1.1480
 1368SOL     OW15562   2.466   0.405  13.085  0.6603 -0.1438 -0.2782
 1368SOL    HW115563   2.397   0.413  13.151  1.1914 -0.3308  0.2931
 1368SOL    HW215564   2.458   0.493  13.046 -1.8179 -0.6962 -1.0513
 1369SOL     OW15565   0.736   1.455  10.035  0.3133  0.1537  0.3929
 1369SOL    HW115566   0.704   1.513   9.966 -0.0835  1.0426  1.3200
 1369SOL    HW215567   0.685   1.488  10.109  0.4127 -0.1111  0.5836
 1370SOL     OW15568   2.240   1.797   7.199  0.1554 -0.1467 -0.0629
 1370SOL    HW115569   2.262   1.704   7.189 -0.5378 -0.0352 -2.8359
 1370SOL    HW215570   2.279   1.808   7.285 -1.0864  0.5420  0.4095
 1371SOL     OW15571   1.033   3.182  10.342  0.3203  0.0315  0.0457
 1371SOL    HW115572   0.940   3.197  10.325  1.1032  2.8193 -1.8054
 1371SOL    HW215573   1.057   3.259  10.394  0.1428  0.4672 -0.5174
 1372SOL     OW15574   2.204   1.391   7.717 -0.1317 -0.0608 -0.5389
 1372SOL    HW115575   2.194   1.469   7.772  0.6314  0.4607 -1.1352
 1372SOL    HW215576   2.128   1.336   7.734 -0.0179  0.9056  3.1149
 1373SOL     OW15577   1.125   4.370   8.995 -0.0444 -0.1796 -0.5446
 1373SOL    HW115578   1.154   4.453   8.958  3.5522 -0.6185  1.2434
 1373SOL    HW215579   1.142   4.395   9.086 -2.1974  0.1776 -0.2462
 1374SOL     OW15580   0.103   1.557   2.382 -0.1109  0.1152  0.1081
 1374SOL    HW115581   0.147   1.490   2.433  0.2671 -1.0583 -1.7631
 1374SOL    HW215582   0.161   1.574   2.307 -0.6335  1.0315 -0.0882
 1375SOL     OW15583   0.720   2.659   6.365 -0.1877  0.2214  0.2262
 1375SOL    HW115584   0.733   2.715   6.288 -0.1594 -0.1313 -0.0250
 1375SOL    HW215585   0.793   2.599   6.350  2.1800  3.4555 -1.2089
 1376SOL     OW15586   1.008   1.278   8.920  0.1048  0.5225 -0.4199
 1376SOL    HW115587   0.914   1.296   8.916  0.4058  1.9975 -0.9930
 1376SOL    HW215588   1.034   1.363   8.955 -2.9817  1.4002 -0.2915
 1377SOL     OW15589   1.250   2.035   2.883  0.6107  0.2808 -0.1445
 1377SOL    HW115590   1.228   2.054   2.792  0.3669  0.5245 -0.0380
 1377SOL    HW215591   1.336   2.076   2.884  0.8244 -0.1833  0.9111
 1378SOL     OW15592   3.397   3.773  11.935 -0.2070  0.3124 -0.0849
 1378SOL    HW115593   3.407   3.783  12.030 -1.4728  0.2720  0.0589
 1378SOL    HW215594   3.480   3.730  11.915  1.7102  3.3260  1.4958
 1379SOL     OW15595   4.221   1.497  14.963 -0.1054  0.4099  0.5186
 1379SOL    HW115596   4.263   1.412  14.951 -0.5355  0.2131  0.3955
 1379SOL    HW215597   4.301   1.543  14.988 -0.3500  1.4363 -0.6245
 1380SOL     OW15598   2.189   0.025  11.257 -0.8179  0.4350 -0.3738
 1380SOL    HW115599   2.220   4.697  11.182  1.1550 -1.7070  1.9093
 1380SOL    HW215600   2.129   0.085  11.213 -2.0990 -0.7913 -0.2945
 1381SOL     OW15601   3.273   0.488   1.943  0.1887  0.2964  0.4869
 1381SOL    HW115602   3.235   0.448   1.865 -2.0766  2.0192  0.7059
 1381SOL    HW215603   3.190   0.505   1.987 -0.6890 -1.2324 -0.5887
 1382SOL     OW15604   1.738   0.082   2.572 -0.2612  0.2409  0.3719
 1382SOL    HW115605   1.731   0.153   2.636  1.1140  0.4385  0.3135
 1382SOL    HW215606   1.734   0.140   2.496 -0.8284 -0.5210 -0.1831
 1383SOL     OW15607   3.062   2.840  14.436  0.5234  0.5040  0.1221
 1383SOL    HW115608   2.986   2.815  14.385 -0.0964  2.5747  0.0244
 1383SOL    HW215609   3.126   2.771  14.416  1.9271  1.6033  0.7804
 1384SOL     OW15610   1.810   2.331   5.956  0.1643 -0.1615  0.6539
 1384SOL    HW115611   1.788   2.290   6.040 -1.6752  2.1146  1.2683
 1384SOL    HW215612   1.752   2.406   5.964  0.1836 -0.1064  0.2535
 1385SOL     OW15613   0.687   3.715   9.069  0.2807  0.5114 -0.2020
 1385SOL    HW115614   0.594   3.733   9.086  0.1522 -1.3345  1.1075
 1385SOL    HW215615   0.691   3.644   9.005 -0.7667  2.9239 -2.9459
 1386SOL     OW15616   3.498   1.612   9.746 -0.3817 -0.3047 -0.2172
 1386SOL    HW115617   3.581   1.604   9.793 -0.1756  0.9156 -0.3759
 1386SOL    HW215618   3.444   1.568   9.811 -0.0896 -0.8292 -0.3308
 1387SOL     OW15619   2.527   1.739  16.155  0.0630 -0.3478 -0.2622
 1387SOL    HW115620   2.549   1.822  16.113 -2.6423  1.3866  1.7404
 1387SOL    HW215621   2.609   1.715  16.198  0.2522  1.9075  0.5891
 1388SOL     OW15622   0.675   3.322   6.451  0.1014 -0.2631 -0.8326
 1388SOL    HW115623   0.685   3.311   6.356  0.1020 -0.3045 -0.8275
 1388SOL    HW215624   0.629   3.242   6.475  1.5585 -1.3751 -1.7151
 1389SOL     OW15625   4.398   0.287   2.738 -0.3634  0.0224  0.5397
 1389SOL    HW115626   4.447   0.272   2.819 -0.5952 -2.2614  0.2387
 1389SOL    HW215627   4.457   0.347   2.692 -1.3638  1.1090  0.6808
 1390SOL     OW15628   1.509   1.465   1.394 -0.1996  0.1985 -0.4402
 1390SOL    HW115629   1.493   1.505   1.480 -1.6237 -0.5917 -0.3250
 1390SOL    HW215630   1.581   1.405   1.413 -0.6631 -0.4009 -0.5490
 1391SOL     OW15631   0.383   4.468   3.395 -0.2594  0.3744 -0.2849
 1391SOL    HW115632   0.477   4.474   3.377 -0.2050  4.2512  1.2425
 1391SOL    HW215633   0.375   4.514   3.479 -0.0168 -2.1959  1.1299
 1392SOL     OW15634   4.486   1.224   3.087  0.5587 -0.0063 -0.4279
 1392SOL    HW115635   4.425   1.298   3.089  1.8137  1.0642 -1.8913
 1392SOL    HW215636   4.455   1.170   3.160 -2.5407  0.8336 -1.1081
 1393SOL     OW15637   0.055   3.698   1.625 -0.0360  0.7038 -0.4480
 1393SOL    HW115638   0.009   3.701   1.709  3.6935  1.1275  1.5379
 1393SOL    HW215639   4.704   3.669   1.570  0.2659 -0.6585 -0.1450
 1394SOL     OW15640   4.174   4.159  13.798 -0.3187 -0.4950  0.2746
 1394SOL    HW115641   4.231   4.088  13.770 -0.0221 -0.1037 -0.1175
 1394SOL    HW215642   4.087   4.129  13.772 -0.6015  0.1353  0.5013
 1395SOL     OW15643   1.781   2.675   6.915  0.0428 -0.1219  0.2250
 1395SOL    HW115644   1.850   2.741   6.928 -0.2425  0.3747 -0.7326
 1395SOL    HW215645   1.828   2.613   6.859 -1.1038 -0.0801 -0.7836
 1396SOL     OW15646   0.112   1.950   5.465 -0.4172 -0.8029  0.5366
 1396SOL    HW115647   0.195   1.992   5.440 -0.6501 -1.2388 -1.0027
 1396SOL    HW215648   0.084   1.909   5.383  1.6496  1.1432 -1.1609
 1397SOL     OW15649   0.321   4.376  17.116 -0.1641 -0.1522  0.1683
 1397SOL    HW115650   0.361   4.460  17.093 -0.1717 -0.4950 -1.0839
 1397SOL    HW215651   0.379   4.350  17.187  1.6956  2.4582 -0.3928
 1398SOL     OW15652   3.469   3.372   6.935  0.0836  0.2376  0.8796
 1398SOL    HW115653   3.470   3.361   6.840 -0.9699  1.4296  0.7155
 1398SOL    HW215654   3.486   3.466   6.941  1.3839 -0.0965  2.2121
 1399SOL     OW15655   4.651   2.580   8.922  0.2039 -0.9918  0.2082
 1399SOL    HW115656   4.606   2.662   8.942  2.8438 -0.0910  2.5161
 1399SOL    HW215657   4.634   2.520   8.995  1.5423  2.0627  3.0524
 1400SOL     OW15658   0.282   0.004  10.765  0.0846 -0.2252 -0.4604
 1400SOL    HW115659   0.239   4.673  10.699  1.0355 -2.1847  0.5081
 1400SOL    HW215660   0.274   4.674  10.845 -2.1568  4.0700  2.1958
 1401SOL     OW15661   4.669   1.389   4.536  0.0734 -0.1347  0.1362
 1401SOL    HW115662   4.615   1.313   4.560  0.6331  0.4240  3.0743
 1401SOL    HW215663   4.619   1.422   4.461 -1.1085 -0.0852  0.9394
 1402SOL     OW15664   4.514   1.440   4.266 -0.1985  0.1575 -0.3712
 1402SOL    HW115665   4.543   1.519   4.219  2.6921 -0.4644  0.3655
 1402SOL    HW215666   4.559   1.373   4.215  0.7261  1.5066 -1.3378
 1403SOL     OW15667   0.100   3.693   8.425 -0.0023 -0.1144  0.3155
 1403SOL    HW115668   0.087   3.763   8.361  0.2443  1.1422  1.6589
 1403SOL    HW215669   0.079   3.737   8.507 -1.4396  1.2116 -0.7512
 1404SOL     OW15670   0.942   2.475   5.800 -0.2668 -0.1944  0.1172
 1404SOL    HW115671   0.862   2.516   5.764 -0.6271  0.8911  2.1804
 1404SOL    HW215672   0.923   2.382   5.790  0.4316 -0.3727  0.5171
 1405SOL     OW15673   3.578   0.489   2.335 -0.6928  0.7229 -0.1553
 1405SOL    HW115674   3.538   0.437   2.266 -1.4050  1.9605 -0.6667
 1405SOL    HW215675   3.541   0.577   2.331  0.5718  1.2532 -0.1472
 1406SOL     OW15676   3.439   4.002   5.667 -0.9888  0.7581 -0.7467
 1406SOL    HW115677   3.493   3.959   5.733 -0.5003  0.7177 -1.1704
 1406SOL    HW215678   3.477   3.968   5.586 -0.5127  0.6081 -0.4595
 1407SOL     OW15679   1.213   3.979   4.310  0.0537  0.5616 -0.0379
 1407SOL    HW115680   1.300   3.956   4.278  1.0752  4.4127  0.0415
 1407SOL    HW215681   1.233   4.066   4.343 -1.0985  0.9040 -0.2580
 1408SOL     OW15682   4.669   4.581   5.277 -0.0877 -0.0493 -0.2842
 1408SOL    HW115683   0.024   4.555   5.326  0.2237 -0.9230 -1.2533
 1408SOL    HW215684   4.640   4.496   5.244  1.8120 -0.9716  0.4361
 1409SOL     OW15685   0.298   0.379   6.974  0.3907 -0.0900  0.3812
 1409SOL    HW115686   0.345   0.439   7.031 -0.0383  1.1846 -0.6043
 1409SOL    HW215687   0.208   0.407   6.992 -0.2534 -1.9645  0.0702
 1410SOL     OW15688   1.606   2.629   9.501 -0.1617 -0.1711  0.2803
 1410SOL    HW115689   1.582   2.572   9.428 -0.9313  0.7498 -0.1908
 1410SOL    HW215690   1.701   2.624   9.491 -0.0413 -0.2646  1.4197
 1411SOL     OW15691   3.122   4.343   0.000  0.3915 -0.1632  0.2984
 1411SOL    HW115692   3.086   4.424   0.034 -1.6314 -1.4199  1.1657
 1411SOL    HW215693   3.096   4.290   0.076  0.4216  0.0222  0.4389
 1412SOL     OW15694   0.476   3.798   4.027  0.1667 -0.5576 -0.4593
 1412SOL    HW115695   0.387   3.815   3.996  0.2959  0.8013 -0.0909
 1412SOL    HW215696   0.520   3.851   3.961  1.9757  0.3084  1.4280
 1413SOL     OW15697   2.163   3.771   7.771 -0.2108 -0.1957 -0.1512
 1413SOL    HW115698   2.137   3.857   7.804 -0.9170 -0.5584  0.2410
 1413SOL    HW215699   2.253   3.766   7.804 -0.2174  0.2595 -0.0666
 1414SOL     OW15700   2.175   3.835   6.433 -0.2354 -0.2750  0.0678
 1414SOL    HW115701   2.105   3.801   6.377 -1.0487  0.0836  0.8669
 1414SOL    HW215702   2.251   3.802   6.386  0.3125  2.0263 -0.6594
 1415SOL     OW15703   0.389   1.799   8.331  0.1024  1.2057  0.0896
 1415SOL    HW115704   0.330   1.734   8.368 -1.8495  3.4785  0.9625
 1415SOL    HW215705   0.336   1.870   8.294 -0.5077  0.0402 -1.2723
 1416SOL     OW15706   1.619   3.866   2.865 -0.3003 -0.1993  0.9617
 1416SOL    HW115707   1.539   3.850   2.815 -0.2688 -1.3358  1.2770
 1416SOL    HW215708   1.670   3.925   2.810  0.0617 -2.8519 -1.5102
 1417SOL     OW15709   1.611   2.449   2.159 -0.4348 -0.1532  0.1318
 1417SOL    HW115710   1.663   2.483   2.087 -1.9900  0.4806 -0.6996
 1417SOL    HW215711   1.558   2.525   2.184  1.7449  1.5068 -0.3440
 1418SOL     OW15712   4.455   1.227   8.316  0.4247 -0.2468  0.3586
 1418SOL    HW115713   4.508   1.254   8.241  0.0866 -0.2581  0.1166
 1418SOL    HW215714   4.478   1.276   8.396  1.8336  0.5538 -0.5358
 1419SOL     OW15715   0.516   2.237  16.357 -0.0011  0.1694 -0.3056
 1419SOL    HW115716   0.545   2.178  16.427  2.7096  1.0252 -0.6909
 1419SOL    HW215717   0.429   2.200  16.342 -0.5577  0.8576  1.2590
 1420SOL     OW15718   3.966   2.189   9.213 -0.2227  0.9509 -0.2786
 1420SOL    HW115719   3.961   2.103   9.254  2.1201  1.9790  2.1655
 1420SOL    HW215720   4.041   2.194   9.155  1.2727  0.4395  1.6286
 1421SOL     OW15721   1.932   4.611   6.564  0.7488 -0.2741 -0.2685
 1421SOL    HW115722   1.979   4.630   6.484  0.2360 -1.0636 -0.7639
 1421SOL    HW215723   1.953   4.694   6.607 -2.3374  0.2630  0.2084
 1422SOL     OW15724   3.204   4.694   6.163  0.1353  0.0069  0.6320
 1422SOL    HW115725   3.176   4.637   6.235  0.0449  0.0575  0.6371
 1422SOL    HW215726   3.298   4.680   6.159  0.2681  0.7518  1.2000
 1423SOL     OW15727   0.663   3.828  10.862  0.0038  0.1977 -0.2181
 1423SOL    HW115728   0.754   3.834  10.833 -0.1009  0.5745 -0.4687
 1423SOL    HW215729   0.647   3.922  10.851 -1.1877 -0.2494 -2.2888
 1424SOL     OW15730   2.110   0.863   1.850 -0.3678  0.0747 -0.4907
 1424SOL    HW115731   2.089   0.952   1.824  0.1940  0.4228  0.2387
 1424SOL    HW215732   2.163   0.885   1.927 -0.8698  1.9292 -0.6864
 1425SOL     OW15733   2.772   4.691   8.504 -0.3343 -0.1270  0.0893
 1425SOL    HW115734   2.765   0.016   8.586  1.0890  1.4052 -0.6965
 1425SOL    HW215735   2.855   4.643   8.505 -0.3614 -0.1770 -0.0683
 1426SOL     OW15736   2.354   3.491  14.526  0.4599  0.1864 -0.2219
 1426SOL    HW115737   2.301   3.418  14.558  1.2446  0.6742  2.2456
 1426SOL    HW215738   2.440   3.480  14.567 -0.0012  0.9907  0.9579
 1427SOL     OW15739   0.573   4.711  16.748 -0.1290  0.6213 -0.1793
 1427SOL    HW115740   0.537   0.003  16.660  0.0095 -0.6063 -0.4442
 1427SOL    HW215741   0.625   4.638  16.714 -2.5677  0.4508 -3.5393
 1428SOL     OW15742   2.961   4.276   7.821  0.6616  0.4956  0.0013
 1428SOL    HW115743   2.933   4.226   7.745 -0.0875  0.4765  0.2942
 1428SOL    HW215744   2.881   4.302   7.866 -1.0397 -1.3886 -1.9529
 1429SOL     OW15745   1.537   1.300   9.133  0.4634 -0.1524  0.1101
 1429SOL    HW115746   1.588   1.250   9.069 -1.6438  1.1206 -2.5402
 1429SOL    HW215747   1.605   1.303   9.201 -0.9692 -1.4435  1.6186
 1430SOL     OW15748   1.176   0.926   0.896  0.2342  0.0371 -0.0372
 1430SOL    HW115749   1.159   0.935   0.802 -0.3527 -0.3191  0.0339
 1430SOL    HW215750   1.104   0.975   0.936  0.4359  0.4549 -0.1855
 1431SOL     OW15751   2.706   4.393   3.356 -0.3671  0.0737  0.8597
 1431SOL    HW115752   2.755   4.360   3.430  0.2270 -2.6883 -0.7461
 1431SOL    HW215753   2.735   4.332   3.287  0.9862 -1.1216  2.5030
 1432SOL     OW15754   0.497   4.037   2.714  0.1944 -0.0924  0.4986
 1432SOL    HW115755   0.555   4.106   2.684  0.9699  0.0175  2.2430
 1432SOL    HW215756   0.543   3.993   2.786 -1.0026  0.7066  1.7610
 1433SOL     OW15757   3.235   0.634   3.992  0.1133 -0.0048 -0.1705
 1433SOL    HW115758   3.287   0.591   3.924 -0.5422 -0.7012 -0.2343
 1433SOL    HW215759   3.174   0.563   4.016 -1.6898  0.6159 -2.9274
 1434SOL     OW15760   1.949   0.008   5.932  0.2087 -0.0878 -0.2062
 1434SOL    HW115761   1.949   4.672   6.007  2.3819 -1.2952 -1.1436
 1434SOL    HW215762   1.861   4.716   5.897  0.8919  0.5418 -2.2236
 1435SOL     OW15763   2.631   3.724   0.466  0.1451 -0.2088 -0.9142
 1435SOL    HW115764   2.694   3.694   0.400  0.0974 -2.0207 -0.1252
 1435SOL    HW215765   2.605   3.804   0.420 -0.8888 -0.8076 -1.3814
 1436SOL     OW15766   0.419   1.560  14.466 -0.1146  0.1912 -0.6203
 1436SOL    HW115767   0.422   1.645  14.421 -0.4377  0.7781  0.4507
 1436SOL    HW215768   0.414   1.589  14.557  2.0099 -1.5608  0.0384
 1437SOL     OW15769   2.337   0.089   9.644  0.0540  0.1571  0.0357
 1437SOL    HW115770   2.255   0.122   9.608 -0.3905  0.0124  0.9150
 1437SOL    HW215771   2.309   0.052   9.728 -0.3918 -1.5610 -0.8858
 1438SOL     OW15772   2.717   4.093   1.768  0.0944 -0.0344  0.2898
 1438SOL    HW115773   2.721   4.006   1.729  0.8959  0.5452 -0.9271
 1438SOL    HW215774   2.766   4.090   1.850  0.7041 -1.1434 -0.1188
 1439SOL     OW15775   0.261   3.976   8.418  0.0036 -0.0868 -0.7957
 1439SOL    HW115776   0.189   3.946   8.363 -0.2608 -1.9049  0.5284
 1439SOL    HW215777   0.216   3.988   8.501 -1.2434 -2.1101 -1.1860
 1440SOL     OW15778   0.100   0.869  13.687 -0.6244 -0.0184 -0.1437
 1440SOL    HW115779   0.075   0.820  13.766  3.8150  0.7876  1.7541
 1440SOL    HW215780   0.022   0.921  13.669 -1.4143 -0.9707  0.5217
 1441SOL     OW15781   0.465   0.809   2.209 -0.1295 -0.2611 -0.2538
 1441SOL    HW115782   0.377   0.837   2.181 -0.4557 -1.5715 -0.5143
 1441SOL    HW215783   0.456   0.717   2.188  2.6668 -0.5319 -0.2554
 1442SOL     OW15784   3.757   2.240  16.686  0.0428  0.1275  0.1160
 1442SOL    HW115785   3.826   2.252  16.751 -0.8125  0.1631  1.0210
 1442SOL    HW215786   3.741   2.328  16.652 -0.7909  0.1770  0.6204
 1443SOL     OW15787   0.983   3.440   7.924 -0.2200  0.0650 -0.0140
 1443SOL    HW115788   0.901   3.413   7.882  0.0672  1.2385 -1.3031
 1443SOL    HW215789   0.953   3.436   8.015 -1.1728  1.3912 -0.2755
 1444SOL     OW15790   2.039   3.302  10.935 -0.0015 -0.1321 -0.8734
 1444SOL    HW115791   2.096   3.378  10.944 -0.4161 -0.2176  2.6284
 1444SOL    HW215792   1.995   3.317  10.852  1.7935  1.1540 -1.5985
 1445SOL     OW15793   1.696   1.608   2.811 -0.2058  0.4070 -0.2132
 1445SOL    HW115794   1.684   1.699   2.835 -2.0771  0.1467 -0.1534
 1445SOL    HW215795   1.757   1.603   2.737 -0.5671 -0.0477 -0.4867
 1446SOL     OW15796   3.503   3.767   3.256 -0.1355 -0.0816  0.7491
 1446SOL    HW115797   3.504   3.857   3.288  3.0056  0.2456 -0.3031
 1446SOL    HW215798   3.444   3.774   3.180  0.7663  2.8161  0.3367
 1447SOL     OW15799   3.021   2.322   7.146  1.3239  0.7826  0.8203
 1447SOL    HW115800   3.100   2.377   7.148  2.2209 -0.4892  0.2991
 1447SOL    HW215801   2.955   2.386   7.118  0.1339 -1.0729 -0.5783
 1448SOL     OW15802   4.149   2.503  13.544 -0.0107 -0.2263 -0.2852
 1448SOL    HW115803   4.232   2.549  13.556  1.3994 -2.4847 -1.4471
 1448SOL    HW215804   4.116   2.561  13.476 -0.2951 -0.5568 -0.4297
 1449SOL     OW15805   0.089   1.451   9.442 -0.4122  0.2728  0.3668
 1449SOL    HW115806   0.044   1.368   9.457  0.2546  0.0434  1.0878
 1449SOL    HW215807   0.150   1.452   9.516 -0.5047 -0.1412  0.4459
 1450SOL     OW15808   2.304   3.273   3.355 -0.1801 -0.3604 -0.2332
 1450SOL    HW115809   2.246   3.252   3.428 -2.0779  1.5407 -1.2069
 1450SOL    HW215810   2.275   3.211   3.288 -1.3620 -0.4712  0.3931
 1451SOL     OW15811   3.770   2.382   2.872 -0.4337 -0.6081 -0.1554
 1451SOL    HW115812   3.762   2.425   2.958 -0.4352  1.9456 -1.4279
 1451SOL    HW215813   3.812   2.301   2.900 -2.2270 -0.3996  3.1412
 1452SOL     OW15814   0.210   4.401   7.572  0.7802  0.5644 -0.0391
 1452SOL    HW115815   0.256   4.404   7.655  1.4773  1.1957 -0.4424
 1452SOL    HW215816   0.277   4.442   7.518 -0.7981 -0.0402 -2.4688
 1453SOL     OW15817   3.120   4.594   4.715  0.0589  0.0534 -0.3928
 1453SOL    HW115818   3.031   4.571   4.744  0.2139 -0.0260  0.0148
 1453SOL    HW215819   3.146   4.633   4.798  2.1484 -5.9609  1.7547
 1454SOL     OW15820   0.593   1.146  12.305 -0.1251  0.9684 -0.2893
 1454SOL    HW115821   0.544   1.073  12.342  0.3000  1.3887  1.0907
 1454SOL    HW215822   0.649   1.165  12.380  0.5285  1.8743 -1.0013
 1455SOL     OW15823   1.936   0.153   8.296  0.5935  0.0595 -0.0539
 1455SOL    HW115824   1.899   0.073   8.333  0.2941 -0.0090 -0.4973
 1455SOL    HW215825   1.857   0.207   8.292 -0.5561 -1.5362  1.4173
 1456SOL     OW15826   1.860   3.497   5.201 -0.3588  0.5960  0.2291
 1456SOL    HW115827   1.771   3.485   5.169 -0.4127  2.2910 -0.2450
 1456SOL    HW215828   1.877   3.417   5.252 -0.4493  1.0059  0.8920
 1457SOL     OW15829   3.726   0.973   6.148  0.8121 -0.7824 -0.4091
 1457SOL    HW115830   3.672   0.999   6.074  1.8191 -2.1706 -1.6197
 1457SOL    HW215831   3.777   0.908   6.099  0.0480 -0.5562 -1.4935
 1458SOL     OW15832   3.381   1.845   5.464  0.2274  0.1021  0.0418
 1458SOL    HW115833   3.353   1.789   5.391  0.8052 -0.4480  0.2441
 1458SOL    HW215834   3.432   1.780   5.511 -0.7928 -0.5549  0.2371
 1459SOL     OW15835   2.939   0.064   3.213  0.5432 -0.1936  0.0543
 1459SOL    HW115836   2.868   0.023   3.163 -0.4443  1.2506  0.2818
 1459SOL    HW215837   2.999   4.715   3.236  3.1643  2.8041  2.5385
 1460SOL     OW15838   1.047   0.208   7.373  0.4180 -0.4988 -0.1006
 1460SOL    HW115839   1.055   0.205   7.468  0.8510 -0.7925 -0.1436
 1460SOL    HW215840   0.962   0.251   7.375  1.9719  2.6848 -1.2286
 1461SOL     OW15841   1.448   2.058   8.824  0.9699  0.7091  0.0325
 1461SOL    HW115842   1.430   1.976   8.869  0.5606  0.9015  0.2169
 1461SOL    HW215843   1.448   2.123   8.894 -4.9677 -0.0758  0.7097
 1462SOL     OW15844   4.656   0.871   6.205  0.3584 -0.0484 -0.4671
 1462SOL    HW115845   4.645   0.778   6.228 -2.1205  0.3229 -0.2405
 1462SOL    HW215846   0.024   0.887   6.231  0.6650 -0.1183 -1.4786
 1463SOL     OW15847   3.967   0.673   2.574  0.1151  0.1263  0.8512
 1463SOL    HW115848   3.924   0.590   2.551  0.7059 -0.0988  0.5525
 1463SOL    HW215849   4.058   0.645   2.580  0.1996  0.3249  0.5070
 1464SOL     OW15850   4.510   2.769   5.854  0.1396 -0.4660  0.4621
 1464SOL    HW115851   4.469   2.727   5.778 -0.1693  1.7652 -0.6030
 1464SOL    HW215852   4.430   2.773   5.906 -0.4779  1.2193 -0.6313
 1465SOL     OW15853   0.938   1.326   3.395  0.0603 -0.2286  0.0872
 1465SOL    HW115854   0.953   1.420   3.394 -1.3108 -0.0030  0.3586
 1465SOL    HW215855   0.910   1.313   3.485  1.1567  0.0887  0.4732
 1466SOL     OW15856   1.777   2.196   6.196 -0.0779  0.5183  0.0891
 1466SOL    HW115857   1.805   2.107   6.218  2.1652  1.3802  0.7083
 1466SOL    HW215858   1.704   2.200   6.258  1.4365 -1.7698  1.9950
 1467SOL     OW15859   4.194   1.809   6.949 -0.3321  0.2796 -0.6320
 1467SOL    HW115860   4.111   1.853   6.934 -0.9066 -0.3184  0.7957
 1467SOL    HW215861   4.246   1.882   6.982 -0.5138 -0.4582  1.2670
 1468SOL     OW15862   1.602   3.713   5.035  0.1665  0.1819 -0.1427
 1468SOL    HW115863   1.507   3.706   5.020 -0.0665 -1.0282  1.8444
 1468SOL    HW215864   1.614   3.619   5.035  1.9958  0.4293  0.3377
 1469SOL     OW15865   3.730   0.923   5.020 -0.1398  0.1063 -0.4561
 1469SOL    HW115866   3.655   0.960   4.973 -0.0201 -0.6181 -1.2165
 1469SOL    HW215867   3.703   0.836   5.049  1.6227 -0.0134  0.8057
 1470SOL     OW15868   1.591   4.534   6.917 -0.2953  0.3876  0.0265
 1470SOL    HW115869   1.632   4.560   6.999  1.3587  0.9104 -0.9619
 1470SOL    HW215870   1.501   4.526   6.949 -0.0717  1.3116  0.8947
 1471SOL     OW15871   1.785   3.078  14.550 -0.0371  0.6453 -0.1323
 1471SOL    HW115872   1.828   3.114  14.627  0.5229  2.2769 -1.1893
 1471SOL    HW215873   1.843   3.002  14.545 -1.4282 -0.4759  0.6905
 1472SOL     OW15874   1.909   4.560   3.526  0.0858 -0.2129  0.5104
 1472SOL    HW115875   1.858   4.586   3.450 -0.9756  0.5770  1.4892
 1472SOL    HW215876   2.002   4.553   3.503 -0.4613 -0.0807 -1.7569
 1473SOL     OW15877   3.047   0.568  11.442 -0.1596  0.1188  0.4248
 1473SOL    HW115878   3.031   0.662  11.447  3.3068  0.8195 -1.6219
 1473SOL    HW215879   3.143   0.567  11.448 -0.1207 -0.1319 -0.3524
 1474SOL     OW15880   2.325   1.431   1.426 -0.7166 -0.4237  0.7249
 1474SOL    HW115881   2.312   1.357   1.485  0.2552 -1.2276 -0.0729
 1474SOL    HW215882   2.412   1.456   1.456 -0.1055 -1.3516 -0.2738
 1475SOL     OW15883   4.547   0.734   3.222 -0.1106 -0.2270 -0.1060
 1475SOL    HW115884   4.567   0.641   3.209  1.0223 -0.4850  3.4895
 1475SOL    HW215885   4.569   0.778   3.140 -3.0485  1.1949 -0.1324
 1476SOL     OW15886   0.754   3.924   7.540  0.2098 -0.1377 -0.2843
 1476SOL    HW115887   0.687   3.969   7.488  1.7215  0.8881 -1.3451
 1476SOL    HW215888   0.729   3.833   7.526  3.2213 -0.8916 -0.6528
 1477SOL     OW15889   2.241   3.456   2.030  0.0225  0.0465 -0.5447
 1477SOL    HW115890   2.249   3.541   1.986  2.7242 -0.2110 -0.5987
 1477SOL    HW215891   2.287   3.398   1.970 -2.2777 -2.1728 -0.1494
 1478SOL     OW15892   4.107   4.267  12.384  0.2981  0.1233 -0.7843
 1478SOL    HW115893   4.063   4.183  12.374 -2.0213  1.5930 -2.8180
 1478SOL    HW215894   4.194   4.245  12.350  0.7540 -0.2898  0.6537
 1479SOL     OW15895   4.356   3.228   8.890 -1.3159  1.0111  0.0745
 1479SOL    HW115896   4.345   3.223   8.985  0.0679 -3.2978 -0.0203
 1479SOL    HW215897   4.431   3.286   8.899  0.8197 -1.7720  0.0286
 1480SOL     OW15898   3.750   0.913   6.499  0.4662 -0.1507  0.0857
 1480SOL    HW115899   3.679   0.924   6.562 -0.3653 -0.8250 -0.7415
 1480SOL    HW215900   3.776   0.821   6.508  1.7604  0.2657  0.7239
 1481SOL     OW15901   1.496   4.396  15.770 -0.5707 -0.1339 -0.1946
 1481SOL    HW115902   1.493   4.307  15.734 -1.1199  0.2932 -1.1845
 1481SOL    HW215903   1.574   4.429  15.725 -1.5558 -0.4612 -2.1647
 1482SOL     OW15904   0.425   0.411   5.576 -0.3590  0.2930 -0.5019
 1482SOL    HW115905   0.482   0.352   5.527 -1.4796 -0.5743 -0.7516
 1482SOL    HW215906   0.485   0.440   5.645 -2.7975  0.3716  1.5925
 1483SOL     OW15907   4.702   1.040   1.825 -0.0504 -0.4609  0.8095
 1483SOL    HW115908   4.673   0.950   1.842 -2.5401  0.8542  3.5846
 1483SOL    HW215909   0.067   1.030   1.788 -1.0253 -2.5105 -0.9713
 1484SOL     OW15910   3.542   4.159   6.499  0.0434 -0.1165  0.1742
 1484SOL    HW115911   3.516   4.244   6.462  0.3986 -0.1309 -0.1001
 1484SOL    HW215912   3.511   4.105   6.426  1.5784 -0.7908  0.0245
 1485SOL     OW15913   4.437   0.952   7.608  0.0012 -0.9008 -0.0638
 1485SOL    HW115914   4.414   0.946   7.516 -0.5179 -0.5746  0.0444
 1485SOL    HW215915   4.350   0.938   7.646  0.9195  2.1567  3.1319
 1486SOL     OW15916   2.042   3.433   2.216  0.3050  0.2679  0.1620
 1486SOL    HW115917   1.972   3.394   2.163  0.8815 -0.1587 -0.2877
 1486SOL    HW215918   2.117   3.434   2.156  2.2620 -1.0165  2.6046
 1487SOL     OW15919   1.028   0.871   4.254 -0.6284 -0.0432  0.0932
 1487SOL    HW115920   0.984   0.789   4.233  0.6045 -0.9180  0.9370
 1487SOL    HW215921   1.012   0.925   4.177 -0.6942 -2.7836 -1.8334
 1488SOL     OW15922   3.753   0.443   3.577  0.0128 -0.0843  0.2841
 1488SOL    HW115923   3.682   0.486   3.530  2.2513  1.8414 -1.3463
 1488SOL    HW215924   3.784   0.376   3.516 -0.6297 -0.7187  0.6474
 1489SOL     OW15925   2.714   1.192   3.350 -0.0736  0.0321  0.0910
 1489SOL    HW115926   2.643   1.221   3.294 -1.1905 -0.5109  1.2098
 1489SOL    HW215927   2.673   1.141   3.420 -1.9990  0.1319 -0.9969
 1490SOL     OW15928   4.082   3.637   3.811 -0.1952 -0.2728 -0.1278
 1490SOL    HW115929   4.164   3.655   3.857 -1.6930  3.0764  1.2356
 1490SOL    HW215930   4.070   3.547   3.842 -2.5614  0.6011  1.4476
 1491SOL     OW15931   3.447   1.535   4.949 -0.2819 -0.2327  0.1445
 1491SOL    HW115932   3.411   1.487   5.024 -1.2734 -0.5738 -0.5568
 1491SOL    HW215933   3.539   1.518   4.969  0.1148  0.9399 -0.6917
 1492SOL     OW15934   4.398   4.612  12.782 -0.4215  0.5253 -0.3959
 1492SOL    HW115935   4.408   4.599  12.688  2.7004  2.2828 -0.3308
 1492SOL    HW215936   4.459   4.683  12.799  1.3715 -1.1788  0.3240
 1493SOL     OW15937   2.463   4.704   1.619 -0.0694  0.1885  0.1841
 1493SOL    HW115938   2.488   4.688   1.528  4.3512 -0.3898  1.5184
 1493SOL    HW215939   2.513   4.637   1.666  0.0759 -0.0320 -0.2902
 1494SOL     OW15940   4.665   0.384  14.895 -0.3843  0.3697  0.1770
 1494SOL    HW115941   0.024   0.338  14.915 -0.3427 -0.3356 -1.6559
 1494SOL    HW215942   4.597   0.340  14.947 -0.0876  0.5101  0.6882
 1495SOL     OW15943   3.182   0.106   1.502  0.3107 -0.0631 -0.3186
 1495SOL    HW115944   3.130   0.142   1.574  1.4159  0.7920  0.0542
 1495SOL    HW215945   3.268   0.144   1.519  2.1341 -4.0719 -0.5509
 1496SOL     OW15946   4.260   0.364   4.181 -0.3049 -0.2802 -0.7335
 1496SOL    HW115947   4.273   0.308   4.104  1.2114  0.9392 -1.3489
 1496SOL    HW215948   4.204   0.435   4.149 -1.0511 -1.0294 -1.1033
 1497SOL     OW15949   4.222   0.556  14.738  0.4675  0.2585  0.2368
 1497SOL    HW115950   4.233   0.465  14.710 -0.4098 -0.3501  1.8870
 1497SOL    HW215951   4.272   0.561  14.820 -1.9604 -0.9173  1.7915
 1498SOL     OW15952   4.279   0.550   5.751  0.0109  0.4246  0.4062
 1498SOL    HW115953   4.216   0.505   5.695  0.4959 -0.2832  0.4307
 1498SOL    HW215954   4.333   0.478   5.783  1.7249  1.0482 -1.1186
 1499SOL     OW15955   2.079   3.699   4.709 -0.4261  0.0806 -0.1059
 1499SOL    HW115956   2.129   3.777   4.683  0.0823  0.2152  1.2331
 1499SOL    HW215957   2.079   3.700   4.805 -0.8752 -1.9558 -0.0854
 1500SOL     OW15958   3.933   2.943  16.368  0.1792  0.3007 -0.3694
 1500SOL    HW115959   3.962   2.956  16.459  1.2873  0.0629 -0.6897
 1500SOL    HW215960   3.854   2.995  16.378 -0.8059 -1.4212  0.9430
 1501SOL     OW15961   2.364   2.681   3.989  0.0630 -0.0146  0.6580
 1501SOL    HW115962   2.386   2.770   4.017 -0.9507  0.5175 -0.2378
 1501SOL    HW215963   2.269   2.683   4.004  0.0845  0.1468  0.7812
 1502SOL     OW15964   1.180   3.319  15.946  0.5512 -0.0284 -0.1608
 1502SOL    HW115965   1.230   3.399  15.962 -0.2328  0.6815 -1.2626
 1502SOL    HW215966   1.158   3.332  15.854 -0.5765  0.9193  0.2439
 1503SOL     OW15967   0.902   0.437  11.523 -0.2690  0.3851 -0.8021
 1503SOL    HW115968   0.953   0.517  11.536 -0.3780  0.1029  1.4180
 1503SOL    HW215969   0.818   0.468  11.556 -0.3057 -1.5368  0.9327
 1504SOL     OW15970   2.625   4.035   1.312  0.7740  0.1631  0.0967
 1504SOL    HW115971   2.637   4.026   1.217 -1.7534  0.5278 -0.2622
 1504SOL    HW215972   2.605   3.945   1.337 -0.5390  0.2071 -0.7553
 1505SOL     OW15973   2.233   1.006   2.046 -0.1602  0.2138 -0.3032
 1505SOL    HW115974   2.320   1.040   2.028  0.6966 -2.6852 -1.5042
 1505SOL    HW215975   2.221   1.039   2.136 -0.9610 -0.6761 -0.0879
 1506SOL     OW15976   3.919   1.839   2.905 -0.1341 -0.4974 -0.1350
 1506SOL    HW115977   3.923   1.793   2.821  3.3535  0.6348 -0.5773
 1506SOL    HW215978   4.010   1.821   2.929  1.1814  3.6066 -2.0109
 1507SOL     OW15979   0.513   1.959   6.391  0.2039  0.2111  0.1563
 1507SOL    HW115980   0.501   1.992   6.480 -0.8398 -0.6862  0.3468
 1507SOL    HW215981   0.578   1.891   6.412  0.2267 -0.0706 -0.8271
 1508SOL     OW15982   0.014   1.092   2.813  0.1430 -0.3161  0.1226
 1508SOL    HW115983   0.010   1.132   2.726 -1.3783 -0.3614  0.1747
 1508SOL    HW215984   0.045   1.165   2.868  0.6413  0.1576 -0.7898
 1509SOL     OW15985   3.557   3.961   5.429 -0.0722 -0.1765  0.4675
 1509SOL    HW115986   3.638   3.929   5.469  0.9432  0.5501 -1.0147
 1509SOL    HW215987   3.520   3.886   5.383 -0.7225  0.9928 -0.9008
 1510SOL     OW15988   4.231   4.573   4.131  0.3724 -0.3227  0.3114
 1510SOL    HW115989   4.298   4.627   4.172  0.4117 -0.1345  0.0032
 1510SOL    HW215990   4.277   4.490   4.131  0.0661 -0.4993 -1.2534
 1511SOL     OW15991   2.340   0.460   8.409  0.0220  0.0384  0.0022
 1511SOL    HW115992   2.268   0.425   8.356  0.9715 -0.5086 -0.9314
 1511SOL    HW215993   2.353   0.382   8.463 -0.6539 -0.7432 -0.9582
 1512SOL     OW15994   2.051   2.164   3.957 -0.2637  0.0595  0.2107
 1512SOL    HW115995   2.138   2.162   3.915 -1.2854 -0.6439 -1.8838
 1512SOL    HW215996   2.041   2.259   3.957  2.6158  0.3598 -0.5841
 1513SOL     OW15997   1.623   3.152   7.193 -0.6574  0.1949  0.5762
 1513SOL    HW115998   1.613   3.246   7.176 -2.3247  0.0667  0.8790
 1513SOL    HW215999   1.683   3.156   7.267  0.0312  1.0570 -0.0190
 1514SOL     OW16000   4.039   2.700   8.210  0.0962  0.0120  0.1428
 1514SOL    HW116001   3.958   2.689   8.259 -0.9017  0.3731 -1.4300
 1514SOL    HW216002   4.099   2.718   8.283  0.8299 -0.8889 -0.2432
 1515SOL     OW16003   0.262   3.751   8.159 -0.2151  0.1403 -0.2403
 1515SOL    HW116004   0.269   3.837   8.119  2.6186  0.5612  1.1165
 1515SOL    HW216005   0.339   3.757   8.216  0.3794 -1.0649 -0.9013
 1516SOL     OW16006   3.713   2.091   7.175  0.4727  0.3545 -0.0657
 1516SOL    HW116007   3.785   2.053   7.226 -0.6536 -0.8202  0.6319
 1516SOL    HW216008   3.735   2.183   7.187 -0.3222  0.7519 -1.7348
 1517SOL     OW16009   3.142   1.874   7.096  0.3057  0.7057 -0.1711
 1517SOL    HW116010   3.191   1.928   7.158  2.3542 -2.2051  0.7505
 1517SOL    HW216011   3.104   1.806   7.153  0.7406  1.1595  0.6528
 1518SOL     OW16012   1.530   0.569   5.237  0.4851 -0.2076  0.1238
 1518SOL    HW116013   1.615   0.556   5.279  0.2668  0.4719  0.7837
 1518SOL    HW216014   1.502   0.657   5.262 -2.0069 -0.8033 -0.6054
 1519SOL     OW16015   3.032   1.243   4.171 -0.5440 -0.8655  0.4128
 1519SOL    HW116016   2.998   1.331   4.164  0.5028 -0.6852 -2.5631
 1519SOL    HW216017   3.002   1.209   4.087  0.4483  1.1820 -0.7549
 1520SOL     OW16018   3.990   3.542   7.115  0.3024  0.5707  0.1085
 1520SOL    HW116019   4.006   3.497   7.033  0.2004 -0.7037  0.7940
 1520SOL    HW216020   3.895   3.532   7.125  0.4239 -0.3459  0.3240
 1521SOL     OW16021   0.446   4.155  16.200 -0.0769 -0.1773 -0.1759
 1521SOL    HW116022   0.483   4.133  16.286 -2.0567  0.1826  0.7667
 1521SOL    HW216023   0.396   4.073  16.197 -0.4384  0.0188  0.6268
 1522SOL     OW16024   2.309   2.430   3.480  0.1401 -0.0403  0.0609
 1522SOL    HW116025   2.245   2.500   3.468 -0.0545 -0.3470 -0.7254
 1522SOL    HW216026   2.254   2.354   3.460  2.0236 -2.0029  2.4089
 1523SOL     OW16027   1.432   1.525   5.676  0.1411  0.0580  0.1065
 1523SOL    HW116028   1.459   1.529   5.768 -1.2209  0.6428  0.4829
 1523SOL    HW216029   1.446   1.432   5.659 -1.4922  0.0575 -1.2697
 1524SOL     OW16030   0.618   2.758  16.282 -0.3853 -0.1914 -0.5700
 1524SOL    HW116031   0.572   2.675  16.269  0.8853 -0.8797 -0.6341
 1524SOL    HW216032   0.691   2.735  16.340  0.0234  0.1528 -0.9482
 1525SOL     OW16033   0.766   0.210   7.853  0.5384  0.2836 -0.5181
 1525SOL    HW116034   0.815   0.130   7.836  0.3139 -0.4581  2.1994
 1525SOL    HW216035   0.763   0.210   7.949 -1.6393 -1.1733 -0.5908
 1526SOL     OW16036   3.929   2.996   8.497  0.1250  0.2037  0.4982
 1526SOL    HW116037   3.915   3.053   8.572  1.9600 -0.3146  1.2460
 1526SOL    HW216038   3.845   3.018   8.458 -1.3575 -1.1796  2.9519
 1527SOL     OW16039   3.693   3.480   6.027 -0.1363  0.0796  0.2949
 1527SOL    HW116040   3.722   3.389   6.035  0.5587  0.2079 -0.6841
 1527SOL    HW216041   3.738   3.507   5.947 -0.4246  0.5555  0.2968
 1528SOL     OW16042   3.918   2.717   2.172 -0.3547  0.2612 -0.0503
 1528SOL    HW116043   3.886   2.799   2.135 -1.4016 -0.4699 -0.7777
 1528SOL    HW216044   3.848   2.661   2.140  0.4243 -0.2060 -0.9570
 1529SOL     OW16045   4.212   2.603  12.620 -0.0958  0.1563  0.2102
 1529SOL    HW116046   4.289   2.660  12.613  0.1752 -0.0482  1.5714
 1529SOL    HW216047   4.158   2.650  12.684  1.1351  1.7549  0.0776
 1530SOL     OW16048   0.927   1.887  15.358 -0.5931  0.5215  0.4793
 1530SOL    HW116049   0.912   1.958  15.295 -2.0669  0.4998  0.8040
 1530SOL    HW216050   0.979   1.933  15.424  2.6814 -2.7977  0.1891
 1531SOL     OW16051   3.160   4.509   6.363 -0.9841 -0.0345  0.1285
 1531SOL    HW116052   3.112   4.429   6.386 -0.4266 -0.1158  1.0201
 1531SOL    HW216053   3.249   4.481   6.386  0.1492  0.9213 -3.1479
 1532SOL     OW16054   2.233   3.161   3.106  0.0207  0.1251  0.4561
 1532SOL    HW116055   2.307   3.221   3.091 -0.7229  0.8035 -0.5019
 1532SOL    HW216056   2.213   3.142   3.014 -0.8887  1.9213  0.2886
 1533SOL     OW16057   2.845   4.554  10.419 -0.0973 -0.1543 -0.1076
 1533SOL    HW116058   2.780   4.582  10.354 -0.2376 -1.1237 -0.3763
 1533SOL    HW216059   2.915   4.619  10.421 -0.5436  0.3664 -0.9913
 1534SOL     OW16060   4.415   3.328   4.501  0.1001 -0.2174  0.1091
 1534SOL    HW116061   4.433   3.393   4.433  0.5606  0.7142  1.1244
 1534SOL    HW216062   4.503   3.299   4.526  0.2074  0.6984  0.8075
 1535SOL     OW16063   2.359   1.765   1.482  0.2419  0.1648 -0.4089
 1535SOL    HW116064   2.317   1.714   1.412  0.5576  0.5432 -0.8753
 1535SOL    HW216065   2.419   1.825   1.438 -0.3257  3.3554  3.2424
 1536SOL     OW16066   0.137   4.117   3.550  0.1320  0.5136 -0.5583
 1536SOL    HW116067   0.152   4.063   3.473  1.0575 -2.2258  1.5347
 1536SOL    HW216068   0.044   4.118   3.573  0.2843  3.6885 -0.0364
 1537SOL     OW16069   2.580   4.139   7.951  0.1445  0.1856 -0.4234
 1537SOL    HW116070   2.622   4.225   7.945  1.8052 -0.4780  1.6502
 1537SOL    HW216071   2.503   4.148   8.007  2.3942  0.5712  2.6455
 1538SOL     OW16072   0.060   4.357   9.067  0.8673 -0.1346  0.1257
 1538SOL    HW116073   0.079   4.420   9.136 -1.6682  0.9107 -0.1422
 1538SOL    HW216074   0.113   4.281   9.090 -0.4367 -1.0868 -0.0330
 1539SOL     OW16075   1.289   1.038  10.577  0.4189 -0.0133  0.3906
 1539SOL    HW116076   1.268   1.099  10.648 -3.8194 -1.2578  0.1979
 1539SOL    HW216077   1.222   0.973  10.594  0.0177  1.3816  4.0755
 1540SOL     OW16078   1.134   1.151  11.626 -0.4802  0.5944  0.0629
 1540SOL    HW116079   1.077   1.147  11.549  0.0856 -0.3375 -0.3089
 1540SOL    HW216080   1.200   1.089  11.597 -1.9373 -0.9891  0.1108
 1541SOL     OW16081   0.198   2.940   9.311 -0.0719  0.7329 -0.0507
 1541SOL    HW116082   0.145   2.861   9.295  0.1170  0.3665  1.1345
 1541SOL    HW216083   0.130   3.006   9.297 -2.6330 -1.6659  1.0000
 1542SOL     OW16084   4.279   3.477   5.386 -1.1802 -0.3710 -0.4716
 1542SOL    HW116085   4.211   3.416   5.416 -0.9393  0.3142  1.4659
 1542SOL    HW216086   4.255   3.563   5.420  0.4000  0.7481 -2.2593
 1543SOL     OW16087   1.841   0.617   1.127  0.7379  0.9614  0.2231
 1543SOL    HW116088   1.821   0.645   1.216  3.2313 -1.2450  1.4736
 1543SOL    HW216089   1.766   0.650   1.077  1.1816  1.9363  0.2016
 1544SOL     OW16090   2.689   2.340   4.287  0.0232 -0.3338  0.5039
 1544SOL    HW116091   2.671   2.262   4.234 -1.0814  0.8349 -0.8479
 1544SOL    HW216092   2.750   2.302   4.349 -0.8751  0.1341  1.6688
 1545SOL     OW16093   4.623   0.256   3.786  0.2322 -0.6083  0.8769
 1545SOL    HW116094   4.627   0.168   3.824 -0.0929  0.1854  2.7271
 1545SOL    HW216095   4.596   0.235   3.696  0.4855  2.0588  0.1811
 1546SOL     OW16096   2.222   4.564  11.049  0.3665 -0.3350 -0.1741
 1546SOL    HW116097   2.164   4.510  11.102 -0.2721  0.7981  0.2728
 1546SOL    HW216098   2.202   4.537  10.959  0.0034 -0.1670 -0.1415
 1547SOL     OW16099   2.608   1.151   4.957  0.3384 -0.1797 -0.2259
 1547SOL    HW116100   2.517   1.138   4.929  0.1546  0.5002  0.0653
 1547SOL    HW216101   2.598   1.157   5.052 -1.0491  2.0874 -0.5197
 1548SOL     OW16102   0.148   1.813  13.547 -0.1133 -0.1071  0.0167
 1548SOL    HW116103   0.098   1.843  13.470 -0.5279  1.2602  0.8140
 1548SOL    HW216104   0.195   1.894  13.566  1.7663 -0.9663 -0.9903
 1549SOL     OW16105   2.683   0.289  13.972  0.3673  0.4644 -0.3663
 1549SOL    HW116106   2.621   0.354  14.006 -0.2932 -0.3064 -0.0930
 1549SOL    HW216107   2.754   0.294  14.036  0.1459  1.2197 -0.1808
 1550SOL     OW16108   2.168   2.052   4.432  0.8145  0.9579 -0.5387
 1550SOL    HW116109   2.139   1.986   4.495  1.9714  1.8166  0.9164
 1550SOL    HW216110   2.130   2.019   4.351 -1.5120 -1.7145  1.6643
 1551SOL     OW16111   0.575   2.110  11.870 -0.5243 -0.0313 -0.1650
 1551SOL    HW116112   0.548   2.083  11.783 -1.3991 -0.5031  0.2568
 1551SOL    HW216113   0.510   2.171  11.906 -0.5101 -0.7857  1.1524
 1552SOL     OW16114   1.273   0.570  15.145  0.1466  0.1654  0.2191
 1552SOL    HW116115   1.219   0.522  15.082 -1.0916  1.0932  0.5833
 1552SOL    HW216116   1.272   0.654  15.098 -0.0638  0.6932  1.1738
 1553SOL     OW16117   2.421   2.870   8.601  0.8614  0.2170 -0.0607
 1553SOL    HW116118   2.358   2.909   8.662  0.1270 -3.3865  1.4886
 1553SOL    HW216119   2.445   2.796   8.656  0.0502  1.2819  1.7511
 1554SOL     OW16120   2.474   0.274   5.943 -0.2321  0.1474 -0.1091
 1554SOL    HW116121   2.390   0.319   5.952 -0.5007 -0.2591 -0.6355
 1554SOL    HW216122   2.503   0.325   5.867  2.8526  0.1872  1.0917
 1555SOL     OW16123   2.049   3.499  10.571 -0.3744  0.3120 -0.6968
 1555SOL    HW116124   1.955   3.483  10.566 -0.3701  0.3153 -0.7934
 1555SOL    HW216125   2.065   3.458  10.486 -2.7608 -1.2600 -0.3893
 1556SOL     OW16126   4.051   1.286  11.960  0.6523 -0.2675  0.4053
 1556SOL    HW116127   3.967   1.323  11.989  2.6244  1.0862  4.3179
 1556SOL    HW216128   4.058   1.214  12.023  0.2607  0.6807  1.5270
 1557SOL     OW16129   3.985   4.133   7.339 -0.1253 -0.1022  0.5776
 1557SOL    HW116130   3.956   4.171   7.422 -1.1088  1.7260 -0.5890
 1557SOL    HW216131   4.002   4.205   7.278  2.3372  0.0721  1.4821
 1558SOL     OW16132   1.296   3.744   5.950  0.1131 -0.3049  0.4135
 1558SOL    HW116133   1.213   3.791   5.960  0.2982  0.8834 -3.5767
 1558SOL    HW216134   1.340   3.805   5.891 -0.7021  0.0376  0.1530
 1559SOL     OW16135   4.422   2.806  14.999  0.2013  0.3668  0.0933
 1559SOL    HW116136   4.405   2.817  14.905  0.4633  0.1811  0.0227
 1559SOL    HW216137   4.514   2.777  15.000  0.3128  0.7359  0.4726
 1560SOL     OW16138   1.076   3.732   1.669  0.2179  0.4622 -0.1550
 1560SOL    HW116139   1.096   3.726   1.576 -1.7358  2.1108 -0.6888
 1560SOL    HW216140   1.125   3.663   1.713  0.7863  1.1451  0.2900
 1561SOL     OW16141   3.834   2.135   2.039  0.7488  0.9216 -0.3418
 1561SOL    HW116142   3.923   2.109   2.066  0.4234 -2.6495 -2.7390
 1561SOL    HW216143   3.844   2.123   1.945 -2.2179 -1.2286 -0.3493
 1562SOL     OW16144   4.126   1.388   7.599 -0.4895 -0.0786 -0.5256
 1562SOL    HW116145   4.048   1.345   7.635 -0.3974  0.0217 -0.2084
 1562SOL    HW216146   4.176   1.384   7.680 -0.4701  0.9749 -0.4912
 1563SOL     OW16147   0.218   2.707   0.339  0.1311  0.2738  0.6164
 1563SOL    HW116148   0.222   2.784   0.284 -0.4308  0.7226  1.2096
 1563SOL    HW216149   0.135   2.671   0.306  0.6329  0.7836 -1.1848
 1564SOL     OW16150   3.542   3.059   7.297 -0.2326 -0.4880  0.2017
 1564SOL    HW116151   3.628   3.093   7.273 -0.1850 -0.5113  0.3362
 1564SOL    HW216152   3.558   2.966   7.279 -1.0917 -0.8910  1.5206
 1565SOL     OW16153   0.072   1.104  14.096 -0.2140 -0.6875 -0.6114
 1565SOL    HW116154   4.717   1.084  14.148  0.8982 -0.3259  1.1713
 1565SOL    HW216155   0.136   1.038  14.121 -0.0351 -0.3792 -0.2589
 1566SOL     OW16156   1.847   2.119  13.095 -0.2629 -0.5472 -0.0349
 1566SOL    HW116157   1.901   2.128  13.017 -1.9497  0.3558 -1.1183
 1566SOL    HW216158   1.915   2.117  13.162 -0.7563 -3.0121  0.3820
 1567SOL     OW16159   4.596   0.373   7.564 -0.3627  0.0633  0.1326
 1567SOL    HW116160   4.535   0.314   7.519  0.2109  0.6538 -1.4378
 1567SOL    HW216161   4.610   0.334   7.650  0.7921 -1.1945 -0.6161
 1568SOL     OW16162   3.535   4.186   8.505 -0.4852 -0.0071 -0.5040
 1568SOL    HW116163   3.451   4.211   8.466 -0.4524 -0.3817 -0.8173
 1568SOL    HW216164   3.523   4.216   8.595  3.6538 -1.4943  0.5190
 1569SOL     OW16165   0.958   3.376   8.222  1.4634  0.6588  0.0310
 1569SOL    HW116166   0.960   3.320   8.300 -0.1493  0.7625  0.1357
 1569SOL    HW216167   0.885   3.433   8.241  0.1008 -0.6123 -1.3822
 1570SOL     OW16168   3.786   2.986   1.812 -0.2595 -0.3078  0.5962
 1570SOL    HW116169   3.749   3.034   1.737 -0.4558  2.0700  2.1953
 1570SOL    HW216170   3.719   2.997   1.879 -0.6305 -1.3209  0.3908
 1571SOL     OW16171   2.273   4.529   5.154  0.8692 -0.5126  0.2164
 1571SOL    HW116172   2.363   4.497   5.167  1.5337  1.4053  0.3686
 1571SOL    HW216173   2.224   4.448   5.142  2.2319 -1.2256 -0.5669
 1572SOL     OW16174   3.833   3.046  11.201 -0.0668 -0.5973  0.3881
 1572SOL    HW116175   3.903   3.074  11.259  0.3149  0.6506 -0.6754
 1572SOL    HW216176   3.887   3.049  11.122 -0.0143 -1.2027  0.4021
 1573SOL     OW16177   3.620   1.112   8.951  0.6207  0.2317 -0.3684
 1573SOL    HW116178   3.567   1.032   8.947  1.7042 -0.5060 -0.1601
 1573SOL    HW216179   3.575   1.161   8.882  1.5404  1.5347 -0.0457
 1574SOL     OW16180   1.297   0.895   9.544  0.2481 -0.1222 -0.2296
 1574SOL    HW116181   1.369   0.833   9.554  0.2280  0.0759  1.1595
 1574SOL    HW216182   1.243   0.873   9.620 -0.9525  1.0759 -0.7238
 1575SOL     OW16183   3.399   3.218   3.751 -0.0223  0.3581  0.4731
 1575SOL    HW116184   3.322   3.274   3.761  0.4150  1.2374 -1.2611
 1575SOL    HW216185   3.454   3.294   3.733 -0.5635  0.7626  0.5153
 1576SOL     OW16186   3.147   1.989  11.553 -0.2152  0.3010 -0.6741
 1576SOL    HW116187   3.177   1.898  11.557  2.7168  1.1660 -2.4898
 1576SOL    HW216188   3.053   1.980  11.568 -0.1444 -2.2937 -1.7519
 1577SOL     OW16189   1.380   1.610   2.789  0.0863 -0.1755 -0.3932
 1577SOL    HW116190   1.460   1.610   2.736 -0.4880 -0.4264 -1.2627
 1577SOL    HW216191   1.347   1.522   2.770 -0.7439  0.0409  0.0254
 1578SOL     OW16192   1.209   4.510  16.537  0.3152 -0.1086 -0.0529
 1578SOL    HW116193   1.250   4.515  16.450  2.2442 -2.3173  0.7141
 1578SOL    HW216194   1.133   4.566  16.524  0.5637  0.4075  0.7114
 1579SOL     OW16195   3.355   1.785   3.910 -0.5458 -0.2697 -0.3989
 1579SOL    HW116196   3.374   1.698   3.874  1.9531 -0.9583  2.5969
 1579SOL    HW216197   3.301   1.750   3.981 -1.1178 -0.9021 -1.1478
 1580SOL     OW16198   2.604   0.361   5.721 -0.5203  0.2417  0.4514
 1580SOL    HW116199   2.630   0.278   5.680  1.2639  2.7856 -3.5833
 1580SOL    HW216200   2.641   0.419   5.655  1.5901  1.3833  2.6219
 1581SOL     OW16201   3.070   3.077  12.039  0.1963  0.5981 -0.1189
 1581SOL    HW116202   3.061   3.120  12.124  2.3835 -2.5525  1.7212
 1581SOL    HW216203   3.116   3.003  12.078 -1.2967  0.0044  0.5127
 1582SOL     OW16204   0.268   3.214   4.318 -0.0219  0.4374  0.2673
 1582SOL    HW116205   0.330   3.172   4.377 -2.1470 -4.3708 -0.9823
 1582SOL    HW216206   0.185   3.209   4.364  1.1763 -0.8293  2.2929
 1583SOL     OW16207   4.084   1.898   8.101 -0.1321 -0.2867  0.5512
 1583SOL    HW116208   4.009   1.856   8.058 -0.7740 -1.3008  2.7066
 1583SOL    HW216209   4.047   1.877   8.186 -2.5589  0.1395 -0.3836
 1584SOL     OW16210   3.253   0.288   6.214  0.0601 -0.1052  0.2525
 1584SOL    HW116211   3.279   0.341   6.289  1.3108 -0.0828 -0.1840
 1584SOL    HW216212   3.248   0.205   6.261 -1.3692 -0.5765 -0.7465
 1585SOL     OW16213   3.855   1.772   4.880 -0.2099 -0.2248  0.2435
 1585SOL    HW116214   3.898   1.777   4.794  1.6359 -0.0193  1.1653
 1585SOL    HW216215   3.868   1.853   4.929  1.3949 -0.4615  0.2151
 1586SOL     OW16216   4.210   2.695   0.940 -0.0638 -0.1619  0.0264
 1586SOL    HW116217   4.137   2.689   1.002  2.4045  0.1158  2.8945
 1586SOL    HW216218   4.245   2.609   0.964 -0.0865 -0.6663 -1.7378
 1587SOL     OW16219   3.923   0.297   7.708 -0.1832  0.3366  0.0875
 1587SOL    HW116220   3.883   0.213   7.691 -0.1254  0.2903  0.1766
 1587SOL    HW216221   3.913   0.304   7.803 -0.8695  2.4114 -0.1354
 1588SOL     OW16222   0.457   1.070   1.478  0.3000 -0.3080  0.6438
 1588SOL    HW116223   0.433   1.161   1.498  1.4893  0.0627  0.3560
 1588SOL    HW216224   0.530   1.063   1.539  0.3988  1.4095  0.7411
 1589SOL     OW16225   3.394   1.085  14.801 -0.3146  0.6811  0.1345
 1589SOL    HW116226   3.396   0.998  14.839 -0.2759  1.0363  0.9418
 1589SOL    HW216227   3.343   1.061  14.724  0.0272  0.4936 -0.0318
 1590SOL     OW16228   3.700   1.860   5.874 -0.6998 -0.4884  0.4135
 1590SOL    HW116229   3.651   1.795   5.823 -0.8045 -0.1541  0.0880
 1590SOL    HW216230   3.773   1.879   5.814 -0.8470  1.3764  0.8237
 1591SOL     OW16231   2.926   1.027  11.198  0.0868 -0.1615  0.1287
 1591SOL    HW116232   3.006   0.980  11.221  0.1930 -0.0165  0.0578
 1591SOL    HW216233   2.904   0.983  11.116 -3.7728  1.0661  0.4664
 1592SOL     OW16234   3.230   0.968  15.203  0.2083  0.1492 -0.2815
 1592SOL    HW116235   3.249   1.009  15.119 -2.2208 -0.0215 -0.9249
 1592SOL    HW216236   3.269   1.024  15.269 -2.3824  2.2203 -0.5005
 1593SOL     OW16237   2.056   3.890  13.147  0.4067  0.4769  0.1926
 1593SOL    HW116238   2.100   3.956  13.094  0.5410 -0.0596 -0.3712
 1593SOL    HW216239   2.020   3.838  13.075 -1.3321  1.1698  0.5435
 1594SOL     OW16240   4.394   3.961  12.051 -1.1188 -0.6451 -0.2244
 1594SOL    HW116241   4.438   4.032  12.004  1.1861 -1.5632  0.5345
 1594SOL    HW216242   4.309   4.000  12.069  0.3638  2.0439  0.9811
 1595SOL     OW16243   2.317   0.052   4.081 -0.4782 -0.0957 -0.4198
 1595SOL    HW116244   2.345   0.005   4.002  0.9320  0.2458 -0.1256
 1595SOL    HW216245   2.285   0.137   4.051 -1.6801 -0.1007  0.8505
 1596SOL     OW16246   0.015   3.041   7.339  0.2180  0.0092  0.2109
 1596SOL    HW116247   0.071   3.050   7.416 -0.8062  2.1879  0.7198
 1596SOL    HW216248   4.669   2.988   7.380 -0.9363 -0.5432 -2.4475
 1597SOL     OW16249   3.530   2.739   2.350  0.5885 -0.4081  0.6886
 1597SOL    HW116250   3.524   2.644   2.360  2.4055 -0.2394  3.3875
 1597SOL    HW216251   3.509   2.742   2.256  3.4359 -2.4970 -0.0088
 1598SOL     OW16252   3.271   3.201   6.596 -0.0348 -0.0089  0.7927
 1598SOL    HW116253   3.212   3.269   6.628 -0.3850 -0.2517  0.6648
 1598SOL    HW216254   3.220   3.124   6.620  0.6081 -0.6909 -0.0023
 1599SOL     OW16255   1.555   0.708   5.002  0.1413 -0.2798  0.1575
 1599SOL    HW116256   1.562   0.669   5.090 -0.5883 -2.4338 -0.7353
 1599SOL    HW216257   1.471   0.753   5.014 -0.4661 -1.5103  0.5711
 1600SOL     OW16258   0.791   4.265   7.636 -0.3056  0.7012 -0.2740
 1600SOL    HW116259   0.750   4.187   7.599  0.1359  0.3485 -0.0130
 1600SOL    HW216260   0.798   4.242   7.729 -1.2839 -0.0559 -0.3872
 1601SOL     OW16261   2.516   2.172   3.064  0.5619 -0.0889 -0.4581
 1601SOL    HW116262   2.443   2.112   3.084  0.6031  0.6228  1.8650
 1601SOL    HW216263   2.587   2.135   3.117 -0.2577 -1.6492 -0.4528
 1602SOL     OW16264   4.639   0.119  11.210 -0.1590  0.7086  0.1657
 1602SOL    HW116265   4.548   0.094  11.193 -1.0596  2.0663  2.9223
 1602SOL    HW216266   4.639   0.135  11.305 -1.5320  0.9087  0.1275
 1603SOL     OW16267   2.102   1.703   9.706  0.4847  0.4237 -0.2066
 1603SOL    HW116268   2.120   1.738   9.794  0.7296 -1.6706  0.5695
 1603SOL    HW216269   2.077   1.612   9.720  1.4077  0.2015 -0.0261
 1604SOL     OW16270   4.017   3.009   6.719  0.0860 -0.0386 -0.0762
 1604SOL    HW116271   4.061   2.960   6.650 -1.8884  0.6610 -1.8503
 1604SOL    HW216272   3.937   3.035   6.672  0.3934  0.5246 -0.2937
 1605SOL     OW16273   3.363   4.261   6.862  0.2179 -0.0140 -0.1799
 1605SOL    HW116274   3.314   4.283   6.941  1.8057 -0.0048  0.8168
 1605SOL    HW216275   3.439   4.318   6.872  1.5772 -1.8503 -0.1115
 1606SOL     OW16276   0.261   1.821   5.849 -0.1984  0.5214 -0.7039
 1606SOL    HW116277   0.352   1.853   5.850  0.3031 -1.1366  3.6162
 1606SOL    HW216278   0.280   1.745   5.795  3.4835 -0.4061  1.8701
 1607SOL     OW16279   1.785   4.409   8.583 -0.4536 -0.0840  0.0395
 1607SOL    HW116280   1.708   4.352   8.571 -1.4439  1.4296 -0.8040
 1607SOL    HW216281   1.802   4.379   8.672 -1.1739 -0.6748 -0.0216
 1608SOL     OW16282   1.983   1.796   6.889 -0.1948  0.7645 -0.3782
 1608SOL    HW116283   1.953   1.772   6.977 -1.8303  0.4467 -1.0378
 1608SOL    HW216284   1.904   1.844   6.865 -1.9247 -1.6718  0.4716
 1609SOL     OW16285   1.717   0.914  16.805 -0.8623  0.5339  0.3065
 1609SOL    HW116286   1.734   0.937  16.897 -2.5717 -1.0322  1.0319
 1609SOL    HW216287   1.783   0.968  16.763 -0.9273  0.9163  0.6945
 1610SOL     OW16288   3.870   4.401  13.823 -0.0062  0.0988  0.3005
 1610SOL    HW116289   3.838   4.326  13.772  0.0405  0.1121  0.2515
 1610SOL    HW216290   3.793   4.458  13.821  0.8603  1.2510 -0.2780
 1611SOL     OW16291   4.580   3.307  13.992  0.0450 -0.0461 -0.0035
 1611SOL    HW116292   4.573   3.399  14.017 -2.5730 -0.7632  1.8455
 1611SOL    HW216293   4.639   3.307  13.916  1.4898 -0.1655  1.1233
 1612SOL     OW16294   4.429   3.673   7.886  0.0855  0.2001 -0.0324
 1612SOL    HW116295   4.493   3.604   7.871  3.7317  3.0777  2.1952
 1612SOL    HW216296   4.444   3.683   7.980 -1.1420 -1.6465  0.3558
 1613SOL     OW16297   3.951   1.654  16.904 -0.3047  0.6956 -0.6869
 1613SOL    HW116298   4.036   1.683  16.935 -0.7989  0.7168  0.6543
 1613SOL    HW216299   3.945   1.566  16.941  1.0301  0.9606  0.1559
 1614SOL     OW16300   3.412   2.359   8.160 -0.6455 -0.7092  0.1417
 1614SOL    HW116301   3.382   2.344   8.071 -2.6686 -0.0774  0.7208
 1614SOL    HW216302   3.336   2.398   8.203 -1.2332 -2.3726  0.5974
 1615SOL     OW16303   3.225   3.575   8.907  1.0440 -0.3299 -0.6501
 1615SOL    HW116304   3.192   3.638   8.971  0.4632 -1.0386 -0.2613
 1615SOL    HW216305   3.292   3.526   8.955 -0.7024 -0.5697  1.5475
 1616SOL     OW16306   1.492   3.188   4.773  0.1908 -0.3178  0.0639
 1616SOL    HW116307   1.575   3.155   4.736  1.1274  1.6023  0.4415
 1616SOL    HW216308   1.436   3.124   4.730 -1.9049 -0.3090  2.8053
 1617SOL     OW16309   1.134   2.900   2.499  0.0271  0.2012 -0.1876
 1617SOL    HW116310   1.222   2.863   2.499 -0.0938 -0.0770  1.1135
 1617SOL    HW216311   1.104   2.874   2.586  1.6395 -2.0498 -0.3030
 1618SOL     OW16312   2.659   1.039  16.661 -0.8561  0.3560 -0.0878
 1618SOL    HW116313   2.691   1.112  16.716  0.5486  0.7646 -1.4464
 1618SOL    HW216314   2.741   1.014  16.617  1.0996  2.4383  2.3416
 1619SOL     OW16315   3.055   0.835   5.970 -0.3964 -0.2474  0.2795
 1619SOL    HW116316   2.966   0.855   6.000 -0.0993 -0.7383  1.4893
 1619SOL    HW216317   3.044   0.742   5.949  1.1278  0.0037 -1.5851
 1620SOL     OW16318   3.918   0.105   6.782 -0.4843  0.0155  0.1239
 1620SOL    HW116319   3.996   0.150   6.749 -1.9884  0.9824 -2.0723
 1620SOL    HW216320   3.875   0.070   6.705  1.7899 -1.6877 -0.3924
 1621SOL     OW16321   2.833   4.689   6.824  0.0029 -0.3043 -0.3526
 1621SOL    HW116322   2.814   4.695   6.731  0.4495 -2.2313 -0.5644
 1621SOL    HW216323   2.835   0.055   6.859 -1.3102 -0.8943  1.2281
 1622SOL     OW16324   4.592   2.410   5.670 -0.1715  0.5960  0.0038
 1622SOL    HW116325   4.612   2.324   5.706 -1.2774 -0.3482 -1.6154
 1622SOL    HW216326   4.496   2.415   5.673 -0.1354 -0.1457  2.2245
 1623SOL     OW16327   0.623   0.679   1.924  0.2359 -0.2509  0.6382
 1623SOL    HW116328   0.550   0.739   1.912 -0.0932 -1.0244 -1.2831
 1623SOL    HW216329   0.578   0.638   1.998  1.2999  1.7313  2.3726
 1624SOL     OW16330   2.224   1.659   0.458  0.3260  0.4947 -0.1667
 1624SOL    HW116331   2.138   1.641   0.496 -0.0088  0.4451 -0.9529
 1624SOL    HW216332   2.254   1.731   0.514  4.5850 -0.5126 -1.1173
 1625SOL     OW16333   1.559   2.193   8.194  0.0753 -0.2810  0.3381
 1625SOL    HW116334   1.479   2.162   8.152 -0.8044  0.4962  1.4259
 1625SOL    HW216335   1.619   2.134   8.148 -0.3861 -0.3072 -0.2198
 1626SOL     OW16336   2.736   3.744  13.793  0.7003  0.8127 -0.3622
 1626SOL    HW116337   2.766   3.698  13.871  0.1640  0.0893 -0.5840
 1626SOL    HW216338   2.686   3.669  13.763  1.7254 -0.5680  1.4169
 1627SOL     OW16339   2.179   2.704  17.490  0.0050  0.5479  0.4190
 1627SOL    HW116340   2.232   2.627  17.512 -1.5566 -0.1904  1.6054
 1627SOL    HW216341   2.245   2.773  17.483 -1.5968  2.2220  2.1156
 1628SOL     OW16342   1.209   3.663   7.962 -0.3981  0.3204  0.5725
 1628SOL    HW116343   1.120   3.645   7.993 -0.6109  0.4075  0.0040
 1628SOL    HW216344   1.186   3.744   7.917 -2.8222 -0.6317  0.1233
 1629SOL     OW16345   0.111   3.820   6.805  0.4879 -0.3015  0.2967
 1629SOL    HW116346   0.118   3.911   6.776  1.8067 -0.4153  0.2527
 1629SOL    HW216347   0.055   3.783   6.737 -0.7302 -1.2283  1.8067
 1630SOL     OW16348   2.186   1.011   3.890  1.0477 -0.3403 -0.2921
 1630SOL    HW116349   2.205   0.947   3.959  1.4362 -0.8830 -0.8942
 1630SOL    HW216350   2.118   0.975   3.833  1.0247 -2.7377  1.2389
 1631SOL     OW16351   2.914   1.612   7.689  0.0979  0.0450 -0.7190
 1631SOL    HW116352   2.975   1.582   7.622 -0.9369  1.0094 -2.0765
 1631SOL    HW216353   2.881   1.533   7.732 -0.3955  0.7834  0.2792
 1632SOL     OW16354   2.293   1.219  12.316  0.2275  0.4178 -0.1384
 1632SOL    HW116355   2.266   1.129  12.300  0.9880 -0.0793  1.4052
 1632SOL    HW216356   2.334   1.227  12.402 -0.2959  1.2207  0.0371
 1633SOL     OW16357   3.210   3.081   7.181 -0.3463 -0.3138  0.5611
 1633SOL    HW116358   3.183   3.162   7.137  1.9722  0.3223  0.3572
 1633SOL    HW216359   3.296   3.062   7.144 -0.2953 -1.1361  1.1249
 1634SOL     OW16360   3.098   2.318  12.780 -0.3752  0.0877 -0.2978
 1634SOL    HW116361   3.014   2.361  12.790 -0.3331 -0.0616  0.6724
 1634SOL    HW216362   3.164   2.386  12.771  1.5892 -1.7715 -0.1856
 1635SOL     OW16363   2.626   2.397   1.594 -0.0785 -0.6781 -0.8243
 1635SOL    HW116364   2.536   2.430   1.594  0.3363  0.4707 -1.4420
 1635SOL    HW216365   2.616   2.304   1.575  0.5672 -1.4643  2.8458
 1636SOL     OW16366   4.440   3.087   2.708  0.3411  0.4530 -0.3093
 1636SOL    HW116367   4.490   3.093   2.627  1.2045 -1.8025  0.0586
 1636SOL    HW216368   4.359   3.135   2.692 -0.7603 -1.7552 -1.3596
 1637SOL     OW16369   2.116   0.695   5.393  0.6899  0.4602 -0.1060
 1637SOL    HW116370   2.086   0.604   5.394 -1.3745  1.1421  1.6393
 1637SOL    HW216371   2.171   0.698   5.316  0.8368 -0.0093 -0.0228
 1638SOL     OW16372   3.719   1.500  11.730  0.1825 -0.0284 -0.1459
 1638SOL    HW116373   3.811   1.481  11.748 -0.0203  0.1394  1.1041
 1638SOL    HW216374   3.676   1.447  11.797 -3.9769  2.1564 -1.0984
 1639SOL     OW16375   3.635   4.477   9.716 -0.6020 -0.1279  0.0387
 1639SOL    HW116376   3.611   4.503   9.627 -0.5534 -1.2567 -0.3049
 1639SOL    HW216377   3.580   4.400   9.731  0.4682 -1.1117 -1.0463
 1640SOL     OW16378   0.359   0.843   8.784 -0.1779  0.1960  0.3664
 1640SOL    HW116379   0.313   0.761   8.800 -0.0054  0.2822  1.3250
 1640SOL    HW216380   0.390   0.849   8.875  1.9457  1.6952 -0.4428
 1641SOL     OW16381   3.780   1.086   7.860  0.3790 -0.1955  0.0604
 1641SOL    HW116382   3.823   1.071   7.945 -0.8662  0.3009  0.7859
 1641SOL    HW216383   3.703   1.131   7.896  0.6053  0.1140  0.1564
 1642SOL     OW16384   0.871   0.300   5.825 -0.4601 -0.8172  0.1321
 1642SOL    HW116385   0.891   0.384   5.785 -1.3565 -0.2700  0.8244
 1642SOL    HW216386   0.914   0.308   5.910 -1.5996  1.4131  0.5012
 1643SOL     OW16387   3.855   3.079   4.224 -0.0215 -0.2188  0.2061
 1643SOL    HW116388   3.873   3.024   4.148  0.6804 -0.0582  0.2588
 1643SOL    HW216389   3.806   3.018   4.279 -0.9690 -1.2906 -1.8363
 1644SOL     OW16390   1.849   2.626   9.402  0.5049  0.0324 -0.4795
 1644SOL    HW116391   1.911   2.555   9.390  1.0889  0.5807 -0.6707
 1644SOL    HW216392   1.803   2.634   9.318 -0.1155 -0.3680 -0.1762
 1645SOL     OW16393   1.382   3.929   1.615  0.2866  0.9127 -0.1435
 1645SOL    HW116394   1.351   3.853   1.566 -1.0268  1.0584  0.4538
 1645SOL    HW216395   1.476   3.919   1.601 -0.1849 -1.9513 -1.1861
 1646SOL     OW16396   0.413   4.207   5.815  0.8667 -0.2770 -0.1044
 1646SOL    HW116397   0.336   4.155   5.838 -0.5689  0.2799 -3.7071
 1646SOL    HW216398   0.378   4.295   5.828 -0.1288 -1.0637  2.5653
 1647SOL     OW16399   0.648   2.911   3.755 -0.0658 -0.0034 -0.0357
 1647SOL    HW116400   0.698   2.861   3.690  1.5214  1.8938 -0.2627
 1647SOL    HW216401   0.673   2.871   3.838  0.3791  0.1379 -0.1015
 1648SOL     OW16402   1.310   4.567   3.277 -0.2746 -0.1655  0.2015
 1648SOL    HW116403   1.237   4.570   3.339 -1.1469 -2.7408 -0.7012
 1648SOL    HW216404   1.279   4.491   3.227 -0.1538 -0.1833  0.1545
 1649SOL     OW16405   2.990   2.564   8.397 -0.1152 -0.6773  0.4573
 1649SOL    HW116406   2.911   2.579   8.346  0.7324 -0.3222 -0.7493
 1649SOL    HW216407   3.063   2.559   8.335  0.1992 -0.9180  0.8469
 1650SOL     OW16408   1.214   3.757   7.595 -0.3360  0.3831 -0.5403
 1650SOL    HW116409   1.230   3.773   7.502 -0.6191  2.9690 -0.1257
 1650SOL    HW216410   1.120   3.736   7.591  0.0084 -1.1961 -0.4959
 1651SOL     OW16411   3.053   4.617  12.059  0.5195 -0.0907  0.1722
 1651SOL    HW116412   3.077   4.558  11.987 -1.2832 -1.0407  0.3707
 1651SOL    HW216413   2.960   4.636  12.048  0.6046  1.5375  2.3240
 1652SOL     OW16414   4.527   2.215   9.043 -0.1575  0.4745 -0.2826
 1652SOL    HW116415   4.599   2.163   9.006 -1.2022 -0.7307 -0.6114
 1652SOL    HW216416   4.580   2.289   9.073 -0.8536  2.0082 -2.7906
 1653SOL     OW16417   4.160   4.040  12.120 -0.3420  0.4274 -0.0480
 1653SOL    HW116418   4.083   4.030  12.064  0.8636 -0.1417 -1.6077
 1653SOL    HW216419   4.197   4.125  12.095  0.6058  0.4594  1.5131
 1654SOL     OW16420   0.878   2.052   1.049 -0.3252 -0.4302 -0.2691
 1654SOL    HW116421   0.918   1.992   0.986 -0.8549 -2.1702  1.0664
 1654SOL    HW216422   0.840   2.103   0.977 -1.5709 -0.0883  0.6333
 1655SOL     OW16423   2.302   0.132   3.665 -0.2087  0.3317 -0.2170
 1655SOL    HW116424   2.308   0.110   3.572 -0.1240  0.5639 -0.2683
 1655SOL    HW216425   2.207   0.137   3.671 -0.0685  1.9073  0.5747
 1656SOL     OW16426   3.778   4.397   9.453  0.4468 -0.3333  0.1143
 1656SOL    HW116427   3.856   4.420   9.502  0.3722  0.0440  0.0566
 1656SOL    HW216428   3.812   4.360   9.371  1.3480  1.0342 -0.1339
 1657SOL     OW16429   3.131   3.681   4.770 -0.3607  0.0449 -0.1125
 1657SOL    HW116430   3.207   3.653   4.718 -0.1272  1.2331 -0.4136
 1657SOL    HW216431   3.054   3.654   4.721 -0.5756  1.0640 -0.3401
 1658SOL     OW16432   1.042   1.121  13.075 -0.0237  0.1014  0.0513
 1658SOL    HW116433   1.018   1.129  12.983 -0.7717 -0.3902  0.2043
 1658SOL    HW216434   1.118   1.063  13.072  0.9737  1.3516  1.1710
 1659SOL     OW16435   1.762   1.538   8.952  0.2267 -0.2450  0.0987
 1659SOL    HW116436   1.766   1.497   8.865 -1.8209  1.7548 -0.9525
 1659SOL    HW216437   1.666   1.538   8.958  0.2666 -2.9674  0.8246
 1660SOL     OW16438   0.396   3.765   6.722  0.3444  0.1281 -0.3663
 1660SOL    HW116439   0.392   3.858   6.703  0.3889  0.5813  1.8573
 1660SOL    HW216440   0.350   3.739   6.642  2.9661 -4.7478 -0.2944
 1661SOL     OW16441   0.816   3.798   5.593  0.3113 -0.1416 -0.0629
 1661SOL    HW116442   0.808   3.708   5.559  0.4277  0.5550 -1.9451
 1661SOL    HW216443   0.861   3.776   5.674 -1.7231 -1.1372  0.7856
 1662SOL     OW16444   1.718   1.188   1.810 -0.3657  0.5401  0.2215
 1662SOL    HW116445   1.638   1.240   1.815 -1.5084 -1.2270  0.4703
 1662SOL    HW216446   1.680   1.117   1.863 -0.4409  0.3055 -0.1490
 1663SOL     OW16447   1.156   2.303   6.993  0.5914  0.2364 -0.2293
 1663SOL    HW116448   1.135   2.385   6.947  2.0279  1.8748  2.0495
 1663SOL    HW216449   1.160   2.323   7.086  0.2260 -2.1569  0.2930
 1664SOL     OW16450   3.105   0.198  13.920  0.0173 -0.0258  0.1939
 1664SOL    HW116451   3.173   0.161  13.864 -0.4711 -0.9032  0.1754
 1664SOL    HW216452   3.098   0.124  13.980  1.5677  0.7065  1.2725
 1665SOL     OW16453   4.236   3.754   6.806 -0.1070 -0.6305  0.2189
 1665SOL    HW116454   4.202   3.689   6.745 -1.0054  0.9675 -0.9966
 1665SOL    HW216455   4.150   3.795   6.822 -0.4388 -0.3802 -2.1753
 1666SOL     OW16456   0.746   3.601   3.679 -0.5421  0.3729  0.0373
 1666SOL    HW116457   0.721   3.679   3.630  0.9627  1.1165  0.4429
 1666SOL    HW216458   0.741   3.533   3.613 -0.2751  0.4205 -0.0310
 1667SOL     OW16459   2.095   2.257   9.767 -0.2695  0.3042  0.2936
 1667SOL    HW116460   1.999   2.252   9.768 -0.3283  0.9243 -2.8858
 1667SOL    HW216461   2.102   2.248   9.862 -2.1181 -2.9168  0.1220
 1668SOL     OW16462   3.020   1.175  17.376  0.3129 -0.6290 -0.4623
 1668SOL    HW116463   3.089   1.227  17.418 -0.8850  2.7638 -2.7096
 1668SOL    HW216464   3.076   1.101  17.350  0.7029 -0.4347 -0.1724
 1669SOL     OW16465   2.629   3.282   6.199 -0.7271 -0.5416 -0.1900
 1669SOL    HW116466   2.564   3.295   6.268 -0.0682 -0.7101  0.4684
 1669SOL    HW216467   2.695   3.233   6.249  2.0464  0.9913 -2.3424
 1670SOL     OW16468   2.007   3.056   8.284  0.4318 -0.0888  1.3839
 1670SOL    HW116469   1.997   3.031   8.192  3.3932 -0.5651  1.1871
 1670SOL    HW216470   2.018   2.968   8.318  1.5295 -0.9290 -1.1055
 1671SOL     OW16471   3.347   2.678   7.982  0.3890 -0.0124 -0.0351
 1671SOL    HW116472   3.351   2.583   7.974 -2.3053 -0.0837 -0.2656
 1671SOL    HW216473   3.412   2.711   7.919 -0.1523 -1.3047 -1.2582
 1672SOL     OW16474   4.411   4.154   7.627  0.6129  0.4914 -0.0398
 1672SOL    HW116475   4.417   4.143   7.532  0.2367 -1.7196  0.2032
 1672SOL    HW216476   4.359   4.075   7.640  0.5229  0.4645 -0.5807
 1673SOL     OW16477   4.172   0.845   4.147 -0.5667  0.4745  0.2252
 1673SOL    HW116478   4.092   0.866   4.196 -0.4209 -0.9366  1.0949
 1673SOL    HW216479   4.146   0.757   4.119  0.2734  0.1951  0.3215
 1674SOL     OW16480   1.949   3.334   7.538  0.5320 -0.0468  0.0221
 1674SOL    HW116481   2.005   3.319   7.615 -0.6711  1.2081  1.1468
 1674SOL    HW216482   1.976   3.421   7.509  0.6610 -0.9107 -2.4061
 1675SOL     OW16483   0.083   2.510   5.229 -0.1912  0.1182 -0.0925
 1675SOL    HW116484   0.166   2.556   5.219 -1.1107  1.8760  0.3690
 1675SOL    HW216485   0.065   2.551   5.313 -1.3670  0.2378 -0.3953
 1676SOL     OW16486   3.357   0.439   5.817  0.0290 -0.3229  0.0846
 1676SOL    HW116487   3.307   0.507   5.770 -0.6473 -1.1662 -0.4345
 1676SOL    HW216488   3.390   0.493   5.888  0.5467  1.7773 -1.7727
 1677SOL     OW16489   0.467   3.098   4.508  0.2418  0.9929  0.0706
 1677SOL    HW116490   0.452   3.150   4.587  0.3147 -1.0413  1.4192
 1677SOL    HW216491   0.558   3.112   4.480 -0.0973  1.0360 -1.0267
 1678SOL     OW16492   3.978   3.694   8.189 -0.4082  0.3321  0.6460
 1678SOL    HW116493   4.045   3.721   8.128 -0.3018  0.2900  0.7443
 1678SOL    HW216494   3.935   3.779   8.189  0.8900  0.9682 -0.9794
 1679SOL     OW16495   0.263   1.812  14.423  0.0404 -0.0034  0.1696
 1679SOL    HW116496   0.255   1.785  14.332  1.2939  0.9365 -0.2261
 1679SOL    HW216497   0.230   1.902  14.424 -2.1460 -0.8068 -0.4482
 1680SOL     OW16498   4.219   4.052   2.691  0.3207  0.6682 -0.4385
 1680SOL    HW116499   4.257   4.073   2.776 -0.3974 -0.1821  0.0970
 1680SOL    HW216500   4.198   3.959   2.705  0.5408  0.1724 -3.2508
 1681SOL     OW16501   1.218   3.569   2.120  0.0072 -0.6989 -0.1691
 1681SOL    HW116502   1.130   3.557   2.083 -0.8331 -0.0040  1.5987
 1681SOL    HW216503   1.213   3.502   2.187 -1.2716  1.3656  1.8147
 1682SOL     OW16504   1.026   2.469   5.466 -0.5808 -0.1384  0.8544
 1682SOL    HW116505   0.991   2.503   5.383  1.4247  0.6764  0.3544
 1682SOL    HW216506   0.990   2.380   5.462 -0.5086  0.0045 -3.6257
 1683SOL     OW16507   4.053   1.572  10.681  0.7189  0.3057 -0.2769
 1683SOL    HW116508   3.966   1.550  10.650  0.7382  1.1688 -0.9511
 1683SOL    HW216509   4.076   1.648  10.628 -2.9719  1.2568 -0.4906
 1684SOL     OW16510   4.091   2.296   4.342  0.1301  0.5491  0.3025
 1684SOL    HW116511   4.128   2.372   4.387 -0.4347 -0.3001  2.2079
 1684SOL    HW216512   4.174   2.252   4.320  1.9066  3.3637  1.4040
 1685SOL     OW16513   1.647   2.377   9.823  0.5453 -0.7325 -0.0548
 1685SOL    HW116514   1.717   2.436   9.793  0.7144 -1.8322 -1.8486
 1685SOL    HW216515   1.581   2.441   9.850  2.4563  0.9180  0.7092
 1686SOL     OW16516   0.376   2.667   7.623 -0.5500 -0.0023 -0.3605
 1686SOL    HW116517   0.326   2.629   7.551  0.7590  0.9975 -1.7825
 1686SOL    HW216518   0.319   2.734   7.660 -1.0214 -0.2967 -0.5518
 1687SOL     OW16519   3.754   2.626   7.598 -0.0070 -0.5483  0.1040
 1687SOL    HW116520   3.801   2.567   7.539  0.5681  0.9604 -0.9353
 1687SOL    HW216521   3.823   2.684   7.630  0.4672 -0.2367 -1.4998
 1688SOL     OW16522   0.688   2.389   6.487  0.0964  0.2144 -0.0476
 1688SOL    HW116523   0.629   2.331   6.439 -0.2441  1.2219 -0.8438
 1688SOL    HW216524   0.672   2.468   6.435 -2.5489  1.1028  2.1435
 1689SOL     OW16525   4.212   1.377   6.136  0.0548 -0.2737 -0.3332
 1689SOL    HW116526   4.251   1.292   6.157 -1.0197 -0.9119 -0.9669
 1689SOL    HW216527   4.172   1.409   6.217 -1.0871 -1.2826 -0.5030
 1690SOL     OW16528   1.269   4.533   9.771 -0.1768 -0.0302  0.2768
 1690SOL    HW116529   1.339   4.527   9.705 -0.4399 -1.2058  0.1105
 1690SOL    HW216530   1.193   4.549   9.716  0.1519  3.3479  0.7926
 1691SOL     OW16531   1.466   4.470   8.391 -0.1102  0.3446  0.1895
 1691SOL    HW116532   1.403   4.445   8.458 -1.6905  1.2517 -0.9716
 1691SOL    HW216533   1.522   4.392   8.396  0.3985  0.8362  1.9666
 1692SOL     OW16534   4.299   3.384   2.111  0.0682  0.5534  0.3165
 1692SOL    HW116535   4.343   3.359   2.192  2.5738  1.2048 -0.8619
 1692SOL    HW216536   4.226   3.322   2.102  1.8668 -1.8494  2.1050
 1693SOL     OW16537   4.031   2.244   4.069 -0.3571  0.1103 -0.0567
 1693SOL    HW116538   3.973   2.169   4.083  0.0535 -0.0858  0.6235
 1693SOL    HW216539   4.047   2.270   4.160  0.4946  0.3643 -0.2772
 1694SOL     OW16540   3.972   3.569   8.430 -0.6191 -0.2939  0.7531
 1694SOL    HW116541   3.968   3.615   8.346 -0.8428  0.7488  1.3414
 1694SOL    HW216542   3.978   3.476   8.407 -1.7956 -0.1085 -0.3425
 1695SOL     OW16543   3.033   2.160  13.264 -0.3550 -0.0663 -0.4804
 1695SOL    HW116544   3.047   2.067  13.247 -0.5201  0.0903 -1.4500
 1695SOL    HW216545   3.045   2.197  13.176  0.0598 -2.1272 -1.2795
 1696SOL     OW16546   0.756   0.322  14.707 -0.5797 -0.1861  0.0651
 1696SOL    HW116547   0.710   0.242  14.680  0.7060 -1.0783  0.5649
 1696SOL    HW216548   0.815   0.287  14.772  0.8540 -1.5498 -1.9646
 1697SOL     OW16549   1.560   0.881   1.126  0.3583 -0.0102 -0.2340
 1697SOL    HW116550   1.505   0.825   1.181 -0.6843 -1.6271 -2.9357
 1697SOL    HW216551   1.497   0.950   1.105  1.2380  0.2102 -2.0994
 1698SOL     OW16552   4.691   0.770  10.778 -0.0750 -0.1055  0.3028
 1698SOL    HW116553   0.025   0.699  10.749  0.1356 -0.5812  1.9451
 1698SOL    HW216554   4.659   0.802  10.693  1.6010 -0.2976 -0.4009
 1699SOL     OW16555   1.655   3.663   5.565 -0.4038  0.0786  0.4426
 1699SOL    HW116556   1.585   3.672   5.501  0.6809 -0.7746 -0.8813
 1699SOL    HW216557   1.725   3.691   5.506 -2.6148  0.8233 -1.8053
 1700SOL     OW16558   0.244   1.688  10.082 -0.2475 -0.0022 -0.1116
 1700SOL    HW116559   0.226   1.601  10.117  0.4570 -0.2990 -0.4815
 1700SOL    HW216560   0.166   1.709  10.031 -0.2142 -1.4307 -0.7512
 1701SOL     OW16561   2.404   4.715   2.918  0.9936  0.9615  0.4532
 1701SOL    HW116562   2.496   0.019   2.913  0.7561  2.0332  1.7818
 1701SOL    HW216563   2.354   0.053   2.862 -2.3313 -1.4211  0.8549
 1702SOL     OW16564   4.060   4.475  12.555 -0.2351 -0.0396 -0.2721
 1702SOL    HW116565   4.082   4.403  12.495 -1.7984  0.5367 -1.5298
 1702SOL    HW216566   4.013   4.430  12.625  0.0701  1.0800  0.6491
 1703SOL     OW16567   3.437   3.375   2.536  0.1638 -0.4138 -0.3970
 1703SOL    HW116568   3.488   3.455   2.544 -1.5387  0.4210  2.0549
 1703SOL    HW216569   3.502   3.316   2.575  0.5628 -0.6781 -1.4451
 1704SOL     OW16570   0.011   1.699   7.801 -0.4676  0.4053 -0.1402
 1704SOL    HW116571   0.074   1.670   7.867 -1.4119 -0.5305  0.3395
 1704SOL    HW216572   0.044   1.786   7.779  1.9128 -0.9850 -2.0662
 1705SOL     OW16573   3.895   2.822   5.807 -0.0145 -0.1897 -0.6255
 1705SOL    HW116574   3.841   2.746   5.830  0.8115  0.1151  2.3003
 1705SOL    HW216575   3.834   2.887   5.774 -2.6740 -1.8215  1.0628
 1706SOL     OW16576   0.396   4.279   2.412 -0.4090 -0.4874  0.5673
 1706SOL    HW116577   0.475   4.331   2.422  0.3023 -1.1660 -1.4581
 1706SOL    HW216578   0.352   4.320   2.487  0.8575 -0.3812  1.2401
 1707SOL     OW16579   1.911   0.076  12.442 -0.0837 -0.4851  0.0160
 1707SOL    HW116580   1.905   0.132  12.364 -0.9838 -2.6063 -1.4499
 1707SOL    HW216581   1.985   0.020  12.418 -0.3290  0.0646 -2.0669
 1708SOL     OW16582   3.860   1.487   4.678  0.8263  0.1057  0.0915
 1708SOL    HW116583   3.870   1.399   4.643  0.9706  0.2998 -0.3506
 1708SOL    HW216584   3.899   1.481   4.766 -0.6601  0.8836  0.7988
 1709SOL     OW16585   0.606   3.153   0.735 -0.2143 -0.0892  0.0389
 1709SOL    HW116586   0.635   3.140   0.826  1.4397 -1.9770 -0.7592
 1709SOL    HW216587   0.543   3.225   0.745  0.5570  0.5314  0.4393
 1710SOL     OW16588   4.455   0.392   2.129 -0.5702  0.0216 -1.1963
 1710SOL    HW116589   4.384   0.328   2.132 -1.0276  0.5874  0.2918
 1710SOL    HW216590   4.532   0.335   2.123 -1.1020 -0.5514 -2.6439
 1711SOL     OW16591   3.929   2.422   1.039  0.5568  0.5760  0.2777
 1711SOL    HW116592   3.895   2.476   0.968  2.1333 -0.1453 -1.0377
 1711SOL    HW216593   3.878   2.453   1.114 -1.3110 -0.7354 -0.4567
 1712SOL     OW16594   3.533   3.149   4.688 -0.0535  0.3404  0.1116
 1712SOL    HW116595   3.623   3.145   4.722 -0.2400 -0.9219  0.4693
 1712SOL    HW216596   3.500   3.065   4.720  0.3646  1.5833  3.7347
 1713SOL     OW16597   1.447   0.197   6.469  0.0478 -0.2541 -0.7926
 1713SOL    HW116598   1.528   0.235   6.435  0.5771  0.4066  1.2071
 1713SOL    HW216599   1.454   0.104   6.446  1.2007  0.0622 -1.7621
 1714SOL     OW16600   1.307   1.962   3.150  0.3197 -0.6763 -0.1322
 1714SOL    HW116601   1.244   1.910   3.200 -0.4169  1.5892  1.2991
 1714SOL    HW216602   1.267   1.972   3.064 -0.8920 -2.4236  0.2311
 1715SOL     OW16603   0.839   0.788   3.718 -0.4621 -0.2475 -0.1871
 1715SOL    HW116604   0.906   0.751   3.661 -1.7563  0.6095 -2.2914
 1715SOL    HW216605   0.770   0.810   3.654  1.2276 -0.7269 -2.1723
 1716SOL     OW16606   2.775   0.688   9.184 -0.3905  0.0279 -0.2741
 1716SOL    HW116607   2.695   0.665   9.137  0.1939 -0.6495 -0.9364
 1716SOL    HW216608   2.729   0.728   9.257 -0.4841  0.0982 -0.3708
 1717SOL     OW16609   0.214   0.936   0.425  0.3719 -0.5936 -0.6695
 1717SOL    HW116610   0.143   0.995   0.450  1.0104  0.3732 -1.1215
 1717SOL    HW216611   0.170   0.857   0.456  0.7991 -1.2458 -1.7190
 1718SOL     OW16612   2.252   2.647  15.355 -0.0383 -0.3565  0.1689
 1718SOL    HW116613   2.216   2.728  15.390  1.8250  0.4401  0.2469
 1718SOL    HW216614   2.290   2.616  15.437 -0.5804 -3.1488 -0.6434
 1719SOL     OW16615   2.840   3.469   3.214  0.3321  0.4063  0.3303
 1719SOL    HW116616   2.759   3.521   3.209 -1.1559 -1.9666 -0.3452
 1719SOL    HW216617   2.860   3.438   3.125 -1.1902 -1.8694  0.7783
 1720SOL     OW16618   4.461   0.018  10.069 -0.7343  0.2813  0.1042
 1720SOL    HW116619   4.383   4.712  10.115 -0.9610 -0.0434 -0.4819
 1720SOL    HW216620   4.526   4.719  10.136 -0.2677 -1.7920 -1.0060
 1721SOL     OW16621   2.592   4.008   9.361 -0.9769  0.1944  0.0919
 1721SOL    HW116622   2.661   3.950   9.329 -2.9645 -1.8718 -0.4035
 1721SOL    HW216623   2.531   3.939   9.385  0.5008 -1.2125 -0.1885
 1722SOL     OW16624   0.172   1.382   8.698  0.0415 -0.1811 -0.5784
 1722SOL    HW116625   0.120   1.377   8.618 -1.9295 -4.2811  0.9017
 1722SOL    HW216626   0.122   1.333   8.764  1.5585 -1.6340 -0.4929
 1723SOL     OW16627   2.395   0.339   3.863  0.0905  0.0168 -0.3884
 1723SOL    HW116628   2.341   0.418   3.862  1.1609  0.7457 -1.2726
 1723SOL    HW216629   2.328   0.284   3.823 -0.4122  1.4013 -1.4880
 1724SOL     OW16630   3.826   1.413  12.099 -0.0002 -0.0307 -0.1875
 1724SOL    HW116631   3.789   1.470  12.031 -0.2263 -1.0951 -0.9535
 1724SOL    HW216632   3.806   1.464  12.178 -1.4627 -1.2365  0.2259
 1725SOL     OW16633   0.016   3.113  15.218  0.0086  0.0842 -0.2085
 1725SOL    HW116634   4.687   3.149  15.291 -1.5236 -1.5635 -0.4762
 1725SOL    HW216635   0.027   3.019  15.231  2.0763  0.1079 -1.7726
 1726SOL     OW16636   1.155   1.382  11.329  0.7323 -0.1835  0.2260
 1726SOL    HW116637   1.232   1.325  11.333  1.7826  1.1462 -1.2541
 1726SOL    HW216638   1.086   1.317  11.318 -0.4401  0.8644  1.3076
 1727SOL     OW16639   4.500   3.278   6.666  0.5049  0.1517 -0.1236
 1727SOL    HW116640   4.516   3.329   6.746 -0.2591 -1.6907  1.2018
 1727SOL    HW216641   4.587   3.267   6.627  1.6807  1.4306  2.1190
 1728SOL     OW16642   2.051   3.472   3.312 -0.6814  0.9132  0.2973
 1728SOL    HW116643   2.016   3.492   3.225 -0.5050  2.1893  0.5153
 1728SOL    HW216644   2.143   3.459   3.289 -0.4746  0.8998  1.1364
 1729SOL     OW16645   2.207   0.339   1.830  0.1329  0.0262 -0.0300
 1729SOL    HW116646   2.234   0.251   1.803  0.8954  0.0797  0.5716
 1729SOL    HW216647   2.134   0.315   1.887  0.9459  0.5054  1.2009
 1730SOL     OW16648   4.722   2.099   4.571  0.0077 -0.3446 -0.1610
 1730SOL    HW116649   4.721   2.151   4.651 -0.8467 -1.4584  0.5436
 1730SOL    HW216650   0.080   2.126   4.528  0.5897  1.0193  1.7701
 1731SOL     OW16651   0.294   0.121   9.598  0.1327  0.2321  0.0529
 1731SOL    HW116652   0.237   0.146   9.671 -0.5494 -0.0970 -0.3730
 1731SOL    HW216653   0.353   0.056   9.637  0.1029  0.9308  1.2707
 1732SOL     OW16654   0.703   3.254   1.358 -0.0347  0.2253 -0.2832
 1732SOL    HW116655   0.753   3.277   1.436 -1.9003 -2.6834  1.7360
 1732SOL    HW216656   0.748   3.176   1.327  0.0222 -0.6489  2.0598
 1733SOL     OW16657   3.031   3.801   8.453  0.1443  0.0174 -0.0420
 1733SOL    HW116658   3.107   3.753   8.486 -1.0212 -0.6652  1.6727
 1733SOL    HW216659   3.028   3.870   8.519  0.1610 -0.4092  0.4033
 1734SOL     OW16660   1.391   3.680   7.102  0.3705 -0.2478 -0.0289
 1734SOL    HW116661   1.363   3.724   7.022 -0.5150  0.2573  0.5492
 1734SOL    HW216662   1.451   3.747   7.134 -1.9535  1.3756  0.9383
 1735SOL     OW16663   4.709   2.645   0.214 -0.5472  0.0958 -0.2136
 1735SOL    HW116664   4.664   2.729   0.202 -0.2536  0.3528  0.4786
 1735SOL    HW216665   4.718   2.617   0.123  0.7601 -0.8989  0.2231
 1736SOL     OW16666   2.144   0.223   9.947 -0.1145 -0.2229 -0.3653
 1736SOL    HW116667   2.151   0.262  10.034  2.5851 -0.2116 -0.5849
 1736SOL    HW216668   2.083   0.285   9.906  3.2144  2.5310 -1.1433
 1737SOL     OW16669   1.261   1.125   0.366 -0.3068  0.9838  0.6224
 1737SOL    HW116670   1.323   1.177   0.315  0.6294  0.1434  0.9088
 1737SOL    HW216671   1.234   1.189   0.432 -2.0958  1.0408 -0.1514
 1738SOL     OW16672   2.860   3.849   9.981  0.4684  0.1450  0.3118
 1738SOL    HW116673   2.951   3.828   9.999  0.1430 -1.4245  0.1253
 1738SOL    HW216674   2.846   3.816   9.892  2.1912  0.1675  0.0365
 1739SOL     OW16675   1.215   0.261   2.742 -0.2520  0.4038  1.0854
 1739SOL    HW116676   1.137   0.238   2.691  0.4388  0.7654 -0.1209
 1739SOL    HW216677   1.210   0.184   2.799 -0.7137  0.2045  0.7839
 1740SOL     OW16678   1.107   3.662  12.537 -0.9245 -0.2217  0.0692
 1740SOL    HW116679   1.089   3.756  12.539 -1.6561 -0.3698  0.4684
 1740SOL    HW216680   1.107   3.639  12.630 -0.7713 -1.5820 -0.2741
 1741SOL     OW16681   4.022   2.470   1.912  0.5382  0.4674  0.6237
 1741SOL    HW116682   4.008   2.522   1.833  0.4462 -1.3522 -0.5531
 1741SOL    HW216683   4.107   2.506   1.936  0.2538  0.8147  1.0936
 1742SOL     OW16684   2.419   3.418  11.143  0.3860  0.2296  0.6644
 1742SOL    HW116685   2.339   3.453  11.183 -1.5670 -1.4011 -1.8277
 1742SOL    HW216686   2.385   3.350  11.085 -1.4765  1.9928 -0.2997
 1743SOL     OW16687   3.331   1.755   9.328  0.5058 -0.2569 -0.8147
 1743SOL    HW116688   3.297   1.720   9.410  0.4244 -0.0869 -0.7752
 1743SOL    HW216689   3.417   1.786   9.358  0.0589  1.5036 -1.3544
 1744SOL     OW16690   0.489   1.006   6.909 -0.0121 -0.1014  0.1880
 1744SOL    HW116691   0.584   1.018   6.901  0.1441 -2.8185 -2.1375
 1744SOL    HW216692   0.469   1.036   6.820  0.1338 -0.3380  0.0764
 1745SOL     OW16693   1.129   1.332  13.929 -0.3534 -0.3660 -0.2583
 1745SOL    HW116694   1.073   1.345  14.006  0.6035 -0.9991  0.5642
 1745SOL    HW216695   1.198   1.274  13.962 -1.7415 -2.5394 -1.2056
 1746SOL     OW16696   0.411   2.957   3.443  0.1574 -0.0318  0.2690
 1746SOL    HW116697   0.332   2.929   3.397  1.3801  2.4358 -3.2709
 1746SOL    HW216698   0.442   3.021   3.380 -0.4263 -0.9133 -0.9063
 1747SOL     OW16699   3.473   0.033   1.884 -0.2308  0.2869 -0.0396
 1747SOL    HW116700   3.416   0.072   1.950 -0.0580 -0.6241  0.6452
 1747SOL    HW216701   3.479   0.103   1.819 -3.6679  1.0547  0.4911
 1748SOL     OW16702   4.544   0.602  16.443  0.1414 -0.1807  0.8236
 1748SOL    HW116703   4.544   0.654  16.523  2.5790  2.2093 -0.7393
 1748SOL    HW216704   4.624   0.628  16.397 -0.3072 -0.4260 -0.0881
 1749SOL     OW16705   0.042   2.868  12.960  0.9524  0.1545  0.3853
 1749SOL    HW116706   4.711   2.789  12.965 -1.1299  1.4706 -1.0632
 1749SOL    HW216707   0.126   2.845  13.000  0.3288 -0.0958  1.5471
 1750SOL     OW16708   3.919   0.751  15.689  0.8391 -0.2831  0.2219
 1750SOL    HW116709   3.982   0.762  15.619  1.7674 -1.7967  0.8258
 1750SOL    HW216710   3.946   0.803  15.764 -0.1317  1.1126 -0.3832
 1751SOL     OW16711   2.632   0.684  11.992 -0.1706  0.5436 -0.3382
 1751SOL    HW116712   2.699   0.655  11.930  0.1617  1.5592 -0.4479
 1751SOL    HW216713   2.609   0.600  12.031 -1.6209  0.7449 -0.7772
 1752SOL     OW16714   4.542   1.756   1.007 -0.1906  0.6180 -0.7615
 1752SOL    HW116715   4.449   1.740   1.025 -0.2050  0.6447 -0.8114
 1752SOL    HW216716   4.548   1.847   1.037  1.1380 -0.3674  1.9792
 1753SOL     OW16717   1.917   3.718   4.958  0.2813  0.4599  0.3288
 1753SOL    HW116718   1.867   3.723   5.039 -0.7750  0.3800 -0.3242
 1753SOL    HW216719   1.868   3.650   4.912 -0.7729  1.2147  0.3562
 1754SOL     OW16720   2.843   4.186   1.385 -0.2707 -0.2234  0.5557
 1754SOL    HW116721   2.762   4.137   1.372 -0.0998 -0.6899  1.2545
 1754SOL    HW216722   2.901   4.123   1.342 -1.4221 -1.7983  1.3026
 1755SOL     OW16723   1.988   3.946   0.293  0.9963  0.5559  0.0892
 1755SOL    HW116724   2.048   4.019   0.275  0.9864  0.5640  0.0894
 1755SOL    HW216725   1.914   3.996   0.327  2.0763  1.5259  0.9874
 1756SOL     OW16726   4.668   0.633   7.998  0.1647 -0.6060 -0.0775
 1756SOL    HW116727   4.686   0.715   7.952  1.3580 -1.4145 -1.0652
 1756SOL    HW216728   4.597   0.598   7.945  0.3814  0.8657 -1.3283
 1757SOL     OW16729   4.084   3.319   5.532 -0.3445  0.0362  0.1233
 1757SOL    HW116730   4.070   3.224   5.532  2.6461 -0.4091  0.9012
 1757SOL    HW216731   4.099   3.333   5.625 -0.4615 -2.2223  0.4943
 1758SOL     OW16732   2.405   0.857  11.497 -0.2041  0.0200  0.0088
 1758SOL    HW116733   2.354   0.907  11.434  0.3434  0.9341  0.2810
 1758SOL    HW216734   2.491   0.888  11.471  1.5608 -3.1245  2.1358
 1759SOL     OW16735   2.978   0.456   2.697 -0.6743  0.1688  0.3649
 1759SOL    HW116736   2.945   0.367   2.681  0.0225 -0.1518  0.7005
 1759SOL    HW216737   2.903   0.514   2.684 -0.8323 -0.5677 -1.9281
 1760SOL     OW16738   2.653   2.040  13.750 -0.1224  0.2075  0.1542
 1760SOL    HW116739   2.602   1.963  13.723  1.6194 -0.8081 -0.2500
 1760SOL    HW216740   2.626   2.056  13.840  0.6698  0.4668  0.3445
 1761SOL     OW16741   2.153   1.583   8.292 -0.0726  0.3105  0.0360
 1761SOL    HW116742   2.248   1.574   8.293 -0.0935  0.1043  0.4482
 1761SOL    HW216743   2.127   1.525   8.364 -1.3035  1.5284  0.5708
 1762SOL     OW16744   1.994   0.555   8.177 -0.1440  0.0465 -0.0496
 1762SOL    HW116745   2.056   0.487   8.206 -1.2295  0.3470  3.0353
 1762SOL    HW216746   2.057   0.626   8.163 -0.2611 -0.2537 -2.1180
 1763SOL     OW16747   1.356   2.475   6.210  0.3358  0.1357  0.0101
 1763SOL    HW116748   1.391   2.386   6.204 -0.2951 -0.1182  0.1133
 1763SOL    HW216749   1.437   2.526   6.199  0.8401 -0.8706 -0.9505
 1764SOL     OW16750   1.896   0.984   3.749  0.1533 -0.4929  0.2294
 1764SOL    HW116751   1.886   0.920   3.819 -1.0584 -1.1585 -0.5532
 1764SOL    HW216752   1.949   0.937   3.684 -0.2322 -2.2044  1.1440
 1765SOL     OW16753   3.810   3.410   8.947  0.9396 -0.4143  0.5910
 1765SOL    HW116754   3.866   3.384   8.874 -0.2078  0.5023 -0.6193
 1765SOL    HW216755   3.869   3.386   9.019 -0.1509 -0.9131  1.3102
 1766SOL     OW16756   1.650   0.374   7.824  0.0117  0.0712  0.1585
 1766SOL    HW116757   1.713   0.392   7.894 -2.6653  2.0651  2.0710
 1766SOL    HW216758   1.578   0.355   7.885 -0.7502  1.1763 -0.3902
 1767SOL     OW16759   0.747   2.637   5.423  0.2844 -0.4049  0.4734
 1767SOL    HW116760   0.818   2.627   5.359 -1.3121 -1.1516 -1.1581
 1767SOL    HW216761   0.727   2.730   5.415 -0.4869 -0.7441 -1.5680
 1768SOL     OW16762   1.838   4.376   6.470 -0.5871 -0.0330 -0.2432
 1768SOL    HW116763   1.858   4.467   6.494 -1.7674  0.0026  0.5709
 1768SOL    HW216764   1.914   4.326   6.500  0.1689  0.3109 -1.5533
 1769SOL     OW16765   1.207   4.456   8.134  0.5037 -0.1192 -0.2983
 1769SOL    HW116766   1.221   4.363   8.148  0.1863  0.0010  0.7520
 1769SOL    HW216767   1.112   4.466   8.131  0.6844  1.3783 -1.0248
 1770SOL     OW16768   1.959   0.888  13.789 -0.3569 -0.4988  0.3443
 1770SOL    HW116769   1.936   0.833  13.714  2.7588  0.6305 -1.4696
 1770SOL    HW216770   1.879   0.939  13.802 -0.9464 -1.7495  1.6169
 1771SOL     OW16771   0.003   4.616   5.986 -0.5279 -0.4599 -0.4104
 1771SOL    HW116772   0.055   4.536   6.000 -1.3814 -0.8656  0.4577
 1771SOL    HW216773   0.025   4.665   6.065 -1.3862 -1.1421  0.2587
 1772SOL     OW16774   0.048   1.385   7.673 -0.0592  0.2170 -0.2615
 1772SOL    HW116775   4.711   1.397   7.599 -1.0110  2.3914  0.8595
 1772SOL    HW216776   0.080   1.296   7.660  1.6477  0.9139 -0.8393
 1773SOL     OW16777   1.714   0.271   8.306 -0.5156 -0.0858 -0.2065
 1773SOL    HW116778   1.660   0.240   8.379  2.8955 -2.3285  1.3913
 1773SOL    HW216779   1.657   0.338   8.269  0.7463  0.9712 -0.2296
 1774SOL     OW16780   0.789   2.800   4.673 -0.9935 -0.6392 -0.1315
 1774SOL    HW116781   0.877   2.765   4.681  0.9339  4.1520 -0.5045
 1774SOL    HW216782   0.735   2.723   4.689  0.4438 -1.3312  1.4074
 1775SOL     OW16783   1.902   3.712  10.842 -0.2493 -0.2825 -0.0557
 1775SOL    HW116784   1.984   3.756  10.820 -1.3418  2.2500  0.9783
 1775SOL    HW216785   1.902   3.727  10.936 -0.4282  1.6968 -0.3678
 1776SOL     OW16786   3.463   1.715   6.395 -0.2176 -0.1510  0.0964
 1776SOL    HW116787   3.469   1.753   6.483  0.9034  0.9356 -0.4494
 1776SOL    HW216788   3.426   1.629   6.417 -0.6614  0.8231  3.2201
 1777SOL     OW16789   0.848   0.456   0.794  0.2999  0.5587 -0.2957
 1777SOL    HW116790   0.884   0.540   0.766  0.2063  0.0519 -1.9109
 1777SOL    HW216791   0.869   0.462   0.887  1.6576  2.7760 -0.7646
 1778SOL     OW16792   3.291   1.873   9.730  0.1638  0.1646  0.6126
 1778SOL    HW116793   3.296   1.843   9.821  1.1097  0.3864  0.6382
 1778SOL    HW216794   3.378   1.842   9.705 -1.0208 -1.9168 -0.8437
 1779SOL     OW16795   2.262   2.611   7.721  0.4070 -0.6499 -0.1272
 1779SOL    HW116796   2.258   2.637   7.629  0.2304 -1.7243 -0.4233
 1779SOL    HW216797   2.314   2.682   7.759 -0.8073  0.0871  0.1918
 1780SOL     OW16798   2.165   2.413   1.962  0.2286  0.4706  0.7408
 1780SOL    HW116799   2.170   2.364   2.044 -1.9056  1.3633  1.4145
 1780SOL    HW216800   2.251   2.401   1.923 -1.0375  0.6091 -2.0419
 1781SOL     OW16801   2.841   4.575   2.827  0.6021  0.6306 -0.0170
 1781SOL    HW116802   2.856   4.608   2.739  1.5233 -0.8614 -0.4239
 1781SOL    HW216803   2.870   4.484   2.829 -0.0532  0.4351  0.7868
 1782SOL     OW16804   2.341   2.842   1.636  0.0831  0.1609 -0.4072
 1782SOL    HW116805   2.407   2.779   1.666 -0.9885 -0.7560  0.0416
 1782SOL    HW216806   2.275   2.774   1.625  1.3379 -1.3629  1.3137
 1783SOL     OW16807   4.354   0.059   6.804 -0.0698 -0.0155  0.0046
 1783SOL    HW116808   4.434   0.094   6.844  0.4424 -1.6029  0.3544
 1783SOL    HW216809   4.384   4.702   6.760 -0.2457 -0.0926  0.0229
 1784SOL     OW16810   3.521   2.087  14.231  0.2976 -0.1789 -0.3417
 1784SOL    HW116811   3.476   2.139  14.297 -0.6366  0.2563 -1.3203
 1784SOL    HW216812   3.453   2.081  14.163 -1.2611 -2.3033  1.4319
 1785SOL     OW16813   0.506   0.140   6.205  0.6016  0.6458 -0.3023
 1785SOL    HW116814   0.417   0.120   6.177 -0.2153  1.6502  1.5441
 1785SOL    HW216815   0.536   0.053   6.228  0.0551  0.3671 -0.6511
 1786SOL     OW16816   0.527   0.987  12.804  0.6747  0.9308 -0.1029
 1786SOL    HW116817   0.562   1.067  12.844  1.6901  0.4463 -0.0189
 1786SOL    HW216818   0.438   0.984  12.838  0.6673 -0.9059 -0.3007
 1787SOL     OW16819   0.906   2.012   8.769 -0.1164  0.0754 -0.1721
 1787SOL    HW116820   0.912   2.087   8.828 -1.7208 -0.5891  0.8244
 1787SOL    HW216821   0.999   1.997   8.753 -0.6462 -0.1257 -3.1454
 1788SOL     OW16822   2.350   1.144   4.742  0.4932  0.0571 -0.6154
 1788SOL    HW116823   2.281   1.210   4.737  0.7481  0.4474  1.2674
 1788SOL    HW216824   2.428   1.194   4.718 -1.1653  1.7245 -2.6212
 1789SOL     OW16825   4.435   1.331  14.344 -0.4344  0.3146 -0.0278
 1789SOL    HW116826   4.372   1.388  14.298  1.4685  1.1977 -1.5546
 1789SOL    HW216827   4.468   1.281  14.270 -0.2321  0.9561 -0.3725
 1790SOL     OW16828   0.665   0.809   4.807 -0.0173  0.0741  0.2048
 1790SOL    HW116829   0.741   0.765   4.769 -0.2713  0.2245 -0.4786
 1790SOL    HW216830   0.605   0.744   4.844 -0.4467  0.0045 -0.6236
 1791SOL     OW16831   1.655   3.222  16.926  0.7333  0.6652  0.0827
 1791SOL    HW116832   1.680   3.270  16.847 -0.9744  0.9051 -0.3165
 1791SOL    HW216833   1.662   3.290  16.993 -2.8327  0.2983  0.8617
 1792SOL     OW16834   3.315   3.228   5.886  0.4440 -0.1863  0.3810
 1792SOL    HW116835   3.348   3.142   5.912  0.5749 -1.0216 -2.6254
 1792SOL    HW216836   3.389   3.273   5.845  0.1178  1.4200  1.5314
 1793SOL     OW16837   3.502   3.498   9.826 -0.8084 -0.2060 -0.5617
 1793SOL    HW116838   3.551   3.416   9.835 -4.0447 -2.3453 -2.4001
 1793SOL    HW216839   3.471   3.508   9.916 -2.7920 -1.7376 -1.0707
 1794SOL     OW16840   4.282   1.372   5.831 -0.3044  0.2672  0.2284
 1794SOL    HW116841   4.363   1.416   5.809 -0.9695  1.2364 -0.2894
 1794SOL    HW216842   4.270   1.412   5.917 -0.5897 -1.7574  1.1395
 1795SOL     OW16843   1.157   1.745   5.697  0.5107  0.6021  0.4242
 1795SOL    HW116844   1.063   1.749   5.681  0.4905 -1.8202 -0.0281
 1795SOL    HW216845   1.162   1.744   5.793 -1.0813  2.1994  0.5297
 1796SOL     OW16846   2.279   3.351  13.083 -0.7466  0.2785 -0.0128
 1796SOL    HW116847   2.269   3.385  12.994  1.8521  0.9157 -0.0715
 1796SOL    HW216848   2.330   3.273  13.060 -0.2789  0.9134 -1.1316
 1797SOL     OW16849   1.126   2.360  12.310 -0.0893 -0.4473  0.3526
 1797SOL    HW116850   1.089   2.284  12.264 -1.0995  1.6331 -2.2438
 1797SOL    HW216851   1.125   2.431  12.246 -1.7689 -0.5316  0.2916
 1798SOL     OW16852   1.184   0.797  11.707 -0.1351  0.1597  0.2771
 1798SOL    HW116853   1.213   0.848  11.782 -2.1314  0.6507  0.7111
 1798SOL    HW216854   1.202   0.857  11.635  3.8991 -0.4762  0.7425
 1799SOL     OW16855   4.534   0.527  15.135  0.0228 -0.0091  0.2066
 1799SOL    HW116856   4.628   0.520  15.119 -0.2066  2.2680 -2.2422
 1799SOL    HW216857   4.514   0.435  15.152 -2.8933  0.9355  2.0042
 1800SOL     OW16858   3.741   3.902   3.736 -0.3144  0.1499  0.1848
 1800SOL    HW116859   3.686   3.979   3.743 -0.7036 -0.0968 -0.1649
 1800SOL    HW216860   3.697   3.845   3.799 -0.3535 -0.4655 -0.4004
 1801SOL     OW16861   3.794   2.721  16.689 -0.0972  0.1277  0.5468
 1801SOL    HW116862   3.880   2.745  16.723 -0.2618  0.8283  0.4754
 1801SOL    HW216863   3.822   2.647  16.635 -4.2443  1.3231 -3.2902
 1802SOL     OW16864   1.718   3.523   3.115 -0.4009 -0.2704  0.2444
 1802SOL    HW116865   1.670   3.604   3.096 -0.8488 -0.3050  1.2454
 1802SOL    HW216866   1.726   3.520   3.211 -1.0353  0.1812  0.3126
 1803SOL     OW16867   0.178   4.563   5.470  0.0118 -0.1529 -0.0715
 1803SOL    HW116868   0.263   4.523   5.488 -0.1151 -1.7428 -3.0225
 1803SOL    HW216869   0.117   4.491   5.483  0.9537 -0.5759  2.0680
 1804SOL     OW16870   4.053   3.086   1.838  0.1648 -0.3130  0.0545
 1804SOL    HW116871   4.077   3.037   1.760  1.3434 -2.1024  1.5427
 1804SOL    HW216872   3.958   3.094   1.836  0.2233 -0.0597 -1.5132
 1805SOL     OW16873   3.577   1.893   7.954  0.0141  0.1814 -0.1375
 1805SOL    HW116874   3.510   1.928   8.013  0.3249  1.4256 -0.5265
 1805SOL    HW216875   3.632   1.972   7.947  0.3591  0.0359  0.8744
 1806SOL     OW16876   4.461   0.716  13.859  0.5601 -0.1284  0.1464
 1806SOL    HW116877   4.436   0.756  13.776  2.9829  1.4301  0.1792
 1806SOL    HW216878   4.471   0.624  13.835  1.0151 -0.2680  0.8761
 1807SOL     OW16879   3.588   0.014  15.737 -0.4755  0.2086 -0.0032
 1807SOL    HW116880   3.607   0.080  15.804  1.2054 -0.4451  0.1634
 1807SOL    HW216881   3.493   0.026  15.734 -0.0668  2.9028 -2.1504
 1808SOL     OW16882   2.297   1.034   3.059 -0.6363 -0.3681  0.1061
 1808SOL    HW116883   2.300   1.034   2.964  4.1172 -0.4633  0.2743
 1808SOL    HW216884   2.304   0.944   3.091  0.3948 -0.9973 -1.9141
 1809SOL     OW16885   2.026   3.321   2.467  0.6967  0.0401 -0.0841
 1809SOL    HW116886   2.036   3.347   2.375 -0.8381 -0.1218 -0.2925
 1809SOL    HW216887   2.091   3.373   2.514 -0.1704 -1.9102  3.2767
 1810SOL     OW16888   2.969   0.837   9.029  0.2696 -0.8471 -0.1248
 1810SOL    HW116889   2.897   0.791   9.071 -1.9121  1.1640 -1.6619
 1810SOL    HW216890   2.973   0.912   9.089 -1.8320 -0.5625 -0.3321
 1811SOL     OW16891   3.474   4.265   0.192  0.1364  0.0169  0.1880
 1811SOL    HW116892   3.409   4.211   0.147 -2.0473  0.0141  3.3626
 1811SOL    HW216893   3.460   4.350   0.150 -0.3257 -1.0860 -1.9105
 1812SOL     OW16894   4.188   0.732   0.750 -0.0063 -0.0640 -0.2373
 1812SOL    HW116895   4.255   0.746   0.683  2.4152 -0.5922  2.0561
 1812SOL    HW216896   4.210   0.644   0.781  1.7937  0.5715  0.3057
 1813SOL     OW16897   0.589   4.663   5.930 -0.7242 -0.3029 -0.5811
 1813SOL    HW116898   0.639   0.022   5.933  2.0075 -1.9454 -0.4395
 1813SOL    HW216899   0.530   4.679   5.856 -1.6284  1.5473  0.5646
 1814SOL     OW16900   4.166   3.909  11.226 -0.1711  0.2270 -0.2178
 1814SOL    HW116901   4.181   3.986  11.171  1.4259 -0.5400 -0.8413
 1814SOL    HW216902   4.213   3.836  11.186 -2.0008 -0.7742 -0.5787
 1815SOL     OW16903   0.769   0.043   7.523 -0.0551  0.3063  0.4310
 1815SOL    HW116904   0.732   4.677   7.517  2.9921 -0.9666  0.4073
 1815SOL    HW216905   0.856   0.030   7.561 -0.3852  0.6465  1.2926
 1816SOL     OW16906   0.909   0.878  11.959 -0.1566 -1.2932  0.2139
 1816SOL    HW116907   0.915   0.841  12.047  0.1129 -0.0552  0.7142
 1816SOL    HW216908   0.943   0.803  11.910 -0.3215 -0.3824 -1.2946
 1817SOL     OW16909   1.842   4.564  15.351  0.4281  0.5368 -0.1791
 1817SOL    HW116910   1.929   4.542  15.318  0.0939 -0.3818 -0.4397
 1817SOL    HW216911   1.787   4.518  15.288 -1.7574  0.1498  2.0405
 1818SOL     OW16912   3.095   0.433  14.169 -1.1557 -0.9786  0.3344
 1818SOL    HW116913   3.172   0.389  14.132  0.0839  1.2204  0.3262
 1818SOL    HW216914   3.115   0.525  14.152  2.2947 -2.2229 -2.3533
 1819SOL     OW16915   3.730   3.144  16.543 -0.0350 -0.4311  0.3296
 1819SOL    HW116916   3.648   3.180  16.509  1.2841  1.3343 -0.9387
 1819SOL    HW216917   3.688   3.099  16.617 -0.5789 -1.7808 -0.7871
 1820SOL     OW16918   0.330   4.407  13.701  0.9017 -0.1646  0.4553
 1820SOL    HW116919   0.261   4.425  13.765  1.5895  0.0974  1.1049
 1820SOL    HW216920   0.324   4.482  13.642  0.2623 -1.6950 -1.4313
 1821SOL     OW16921   0.299   1.525  13.803  0.2300 -0.4103  0.1885
 1821SOL    HW116922   0.323   1.593  13.866 -0.6415 -0.8077  0.9345
 1821SOL    HW216923   0.234   1.477  13.854  0.1603  0.1469  0.6199
 1822SOL     OW16924   1.137   0.810   0.447 -0.2766 -0.2973 -0.0726
 1822SOL    HW116925   1.094   0.865   0.382  0.1722  0.1170 -0.0146
 1822SOL    HW216926   1.185   0.744   0.397 -1.7873 -1.2577 -0.2678
 1823SOL     OW16927   0.048   3.647   7.785 -0.3188 -0.1452 -0.5996
 1823SOL    HW116928   0.039   3.629   7.878 -0.7651 -0.3363 -0.6808
 1823SOL    HW216929   0.109   3.719   7.800 -0.6889  0.4125 -1.7339
 1824SOL     OW16930   4.181   0.848   6.835  0.0053  0.3216 -0.3694
 1824SOL    HW116931   4.112   0.809   6.888 -0.4105  0.2710 -0.9429
 1824SOL    HW216932   4.207   0.913   6.901 -0.6567  0.5765 -0.3583
 1825SOL     OW16933   1.536   1.709   6.515 -0.4416 -0.2409  0.1611
 1825SOL    HW116934   1.466   1.687   6.453  2.0806 -1.8455 -2.1260
 1825SOL    HW216935   1.611   1.665   6.474  0.2921  1.6678 -0.5698
 1826SOL     OW16936   3.863   2.364   2.384  0.3776 -0.6936 -0.0917
 1826SOL    HW116937   3.787   2.336   2.331 -0.8993 -0.1889  1.4860
 1826SOL    HW216938   3.872   2.301   2.455 -2.4510 -2.5561 -1.3685
 1827SOL     OW16939   3.137   2.928   9.313  0.0320 -0.1485 -0.1512
 1827SOL    HW116940   3.075   2.954   9.245  0.5542 -1.5393 -1.1537
 1827SOL    HW216941   3.217   2.979   9.297 -0.6648  1.4121  1.3679
 1828SOL     OW16942   4.036   4.525   3.465 -0.4574 -0.2320 -0.4219
 1828SOL    HW116943   4.118   4.571   3.450  1.9878 -4.8973 -1.2767
 1828SOL    HW216944   4.026   4.482   3.550  0.6680  2.7506  1.2167
 1829SOL     OW16945   0.394   3.151  13.193  0.6120 -0.2868  0.1495
 1829SOL    HW116946   0.460   3.083  13.178 -0.1503 -1.0629  0.3180
 1829SOL    HW216947   0.332   3.114  13.132  0.6950  3.4054 -2.1564
 1830SOL     OW16948   3.676   3.636   4.555 -0.2066 -0.6764  0.7592
 1830SOL    HW116949   3.664   3.571   4.624 -1.1225  0.5601  1.7637
 1830SOL    HW216950   3.748   3.689   4.590 -0.5157  1.0572 -1.1983
 1831SOL     OW16951   1.201   3.388   5.338  0.1183  0.1073 -0.2364
 1831SOL    HW116952   1.255   3.309   5.351 -0.6488 -0.4800 -0.5965
 1831SOL    HW216953   1.266   3.449   5.305 -0.2054  1.1787  1.1279
 1832SOL     OW16954   2.540   0.379   5.261  0.3078  0.1295 -0.5119
 1832SOL    HW116955   2.613   0.359   5.202 -0.7708 -2.6365 -0.8982
 1832SOL    HW216956   2.582   0.441   5.320 -0.3181  0.4015 -0.3513
 1833SOL     OW16957   3.304   4.667   8.184  0.2988  0.0655  0.0776
 1833SOL    HW116958   3.327   4.671   8.091  2.9697  1.1028  0.7918
 1833SOL    HW216959   3.209   4.655   8.185 -0.2232  4.3995  0.9742
 1834SOL     OW16960   4.141   0.008   5.893 -0.2438  0.1267 -0.3225
 1834SOL    HW116961   4.112   4.712   5.803 -1.5581 -1.9666  0.5227
 1834SOL    HW216962   4.144   0.103   5.883 -2.0751  0.3305  1.0609
 1835SOL     OW16963   1.187   2.284   1.446 -0.2551  0.3559  0.0207
 1835SOL    HW116964   1.161   2.217   1.509  0.4990  0.7941  0.7889
 1835SOL    HW216965   1.124   2.250   1.382  1.6476 -0.8568 -1.2027
 1836SOL     OW16966   1.094   3.455   2.635 -0.1789  0.1075  0.0292
 1836SOL    HW116967   1.125   3.389   2.698  0.3663 -0.4987 -0.8631
 1836SOL    HW216968   1.006   3.423   2.613 -1.7457  2.5604  2.7511
 1837SOL     OW16969   0.506   4.381  16.076 -0.7436  0.4456  0.3441
 1837SOL    HW116970   0.475   4.301  16.118 -1.3036 -0.3032 -1.5133
 1837SOL    HW216971   0.601   4.372  16.076 -0.8066 -0.1873 -0.2675
 1838SOL     OW16972   3.369   1.985  10.361  0.0825 -0.2598 -0.0753
 1838SOL    HW116973   3.351   2.078  10.377  2.4128 -0.2968  2.7923
 1838SOL    HW216974   3.331   1.942  10.438  0.7090 -0.5711  0.0596
 1839SOL     OW16975   0.905   4.187   8.919  0.0933  0.2431  0.2363
 1839SOL    HW116976   0.896   4.108   8.973 -2.5597  0.9113  0.7447
 1839SOL    HW216977   0.971   4.240   8.964  0.5722  2.3266 -2.9369
 1840SOL     OW16978   2.548   4.668   1.360 -0.2450 -0.3290 -0.8838
 1840SOL    HW116979   2.500   0.008   1.305 -0.5747 -1.2594 -1.6515
 1840SOL    HW216980   2.629   4.673   1.309 -0.7792 -1.2439 -1.8286
 1841SOL     OW16981   4.484   2.677   4.466 -0.2022  0.0318 -1.0126
 1841SOL    HW116982   4.415   2.665   4.532 -0.9362  0.7354 -1.6455
 1841SOL    HW216983   4.504   2.770   4.477 -0.1198 -0.3600  2.0801
 1842SOL     OW16984   0.280   1.076  15.200 -0.4079  0.1024  0.7101
 1842SOL    HW116985   0.355   1.129  15.173  0.0495 -0.7618  0.2729
 1842SOL    HW216986   0.316   0.988  15.199 -1.1468 -0.2084  1.4920
 1843SOL     OW16987   0.073   2.498   8.699 -0.1877 -0.6163 -0.0516
 1843SOL    HW116988   0.051   2.535   8.784 -0.4406  1.6448 -1.0872
 1843SOL    HW216989   4.714   2.512   8.651 -0.8361 -1.5318  0.7863
 1844SOL     OW16990   0.812   0.864   3.048 -0.1980  0.4275 -0.1744
 1844SOL    HW116991   0.750   0.853   2.976  0.6495 -2.3928 -0.4663
 1844SOL    HW216992   0.836   0.772   3.064  1.3286  0.8806  0.0965
 1845SOL     OW16993   1.919   0.811   9.704  0.1373 -0.4689 -0.8615
 1845SOL    HW116994   1.930   0.822   9.798  1.9672  0.0071 -1.1504
 1845SOL    HW216995   1.967   0.730   9.688  2.0924  0.4926  0.2285
 1846SOL     OW16996   0.534   1.590   3.208  0.2166  0.2077 -0.3426
 1846SOL    HW116997   0.458   1.588   3.149 -0.0939 -2.3082  0.1683
 1846SOL    HW216998   0.499   1.550   3.287  1.0922  0.4055  0.1434
 1847SOL     OW16999   2.385   2.847  11.066 -0.0364  0.6134  0.0398
 1847SOL    HW117000   2.360   2.758  11.090 -0.1342  0.4523 -0.6739
 1847SOL    HW217001   2.321   2.893  11.120 -2.5474  0.4057 -2.7640
 1848SOL     OW17002   3.802   1.254   9.060 -0.7058 -0.5651  0.2949
 1848SOL    HW117003   3.737   1.188   9.035  0.2527 -1.8603  1.2535
 1848SOL    HW217004   3.848   1.287   8.983  0.9972 -0.6512  1.2913
 1849SOL     OW17005   3.856   4.072   4.378 -0.6623 -0.6596 -0.7366
 1849SOL    HW117006   3.766   4.104   4.388  0.1348  1.5454 -0.5400
 1849SOL    HW217007   3.899   4.138   4.325 -1.3779  2.3764  2.4360
 1850SOL     OW17008   1.059   4.353   9.561  0.2857  0.0660 -0.7237
 1850SOL    HW117009   1.027   4.431   9.515  2.6284  0.7731 -1.1696
 1850SOL    HW217010   1.152   4.374   9.570 -0.5413  2.4905  2.1446
 1851SOL     OW17011   2.616   1.101   3.926  0.9075 -0.3910  0.0671
 1851SOL    HW117012   2.608   1.187   3.965 -0.5947 -1.5206  2.2156
 1851SOL    HW217013   2.544   1.104   3.863  0.3212  1.5906  0.8434
 1852SOL     OW17014   4.507   4.083   3.559  0.3837 -0.0945 -0.6046
 1852SOL    HW117015   4.466   4.169   3.547 -0.0533 -0.4597 -1.6922
 1852SOL    HW217016   4.552   4.071   3.475  1.3159 -0.2692 -0.0814
 1853SOL     OW17017   1.923   4.626  13.260  0.3373  0.4654  0.4759
 1853SOL    HW117018   1.922   4.571  13.181 -0.3255 -1.2483  1.6675
 1853SOL    HW217019   1.957   4.575  13.333 -1.5594 -0.4809  0.7007
 1854SOL     OW17020   4.075   3.537   7.373  0.1608 -0.6695  0.3766
 1854SOL    HW117021   4.168   3.522   7.361 -0.1922 -1.6234 -1.1151
 1854SOL    HW217022   4.029   3.538   7.289  0.3225 -2.1686  0.2826
 1855SOL     OW17023   1.479   2.373   4.661  0.0214 -0.4145  0.4873
 1855SOL    HW117024   1.417   2.429   4.708 -1.6416  0.0186 -2.2163
 1855SOL    HW217025   1.462   2.292   4.709  0.6989 -1.1974 -0.6256
 1856SOL     OW17026   4.298   3.339   2.626 -0.0982 -0.2807  0.3534
 1856SOL    HW117027   4.365   3.343   2.694 -1.2462 -0.3926  1.5014
 1856SOL    HW217028   4.351   3.356   2.548 -0.5095  1.2679  0.4126
 1857SOL     OW17029   0.420   4.492   8.069 -0.3875 -0.2770  0.1914
 1857SOL    HW117030   0.334   4.506   8.108  1.0617 -0.0521  3.3147
 1857SOL    HW217031   0.446   4.582   8.049  1.0898 -0.1379  2.7840
 1858SOL     OW17032   0.679   0.616   0.602  0.2456  0.3496  0.0120
 1858SOL    HW117033   0.663   0.532   0.558  0.2306 -0.0578  0.7805
 1858SOL    HW217034   0.773   0.635   0.594 -0.0087  0.4925 -2.3573
 1859SOL     OW17035   0.895   1.407   7.262  0.0647 -0.5229  0.1771
 1859SOL    HW117036   0.985   1.416   7.230 -0.0080 -1.9381 -0.4143
 1859SOL    HW217037   0.860   1.334   7.211 -1.0693  1.3414 -1.6883
 1860SOL     OW17038   0.968   1.303   4.028 -0.0152 -0.3067 -0.1791
 1860SOL    HW117039   0.949   1.209   4.030 -1.0480 -0.1014 -0.0889
 1860SOL    HW217040   1.018   1.313   4.109  0.1945 -0.8891 -0.2394
 1861SOL     OW17041   1.324   3.852   2.082  0.1884 -0.0735  0.0969
 1861SOL    HW117042   1.357   3.817   1.999  2.7958 -1.8245  1.8820
 1861SOL    HW217043   1.285   3.769   2.109 -1.3546  0.2366 -1.0964
 1862SOL     OW17044   0.205   2.221   4.437  0.0682  0.3238  0.3317
 1862SOL    HW117045   0.158   2.237   4.355  1.6050 -1.2456 -0.8767
 1862SOL    HW217046   0.200   2.304   4.485  2.4031 -0.1675  1.4156
 1863SOL     OW17047   3.523   3.325   6.617  0.3680 -0.2034  0.7949
 1863SOL    HW117048   3.444   3.271   6.622 -0.7677  1.4812  1.0549
 1863SOL    HW217049   3.526   3.346   6.523  0.1685  0.2115  0.8814
 1864SOL     OW17050   2.544   3.747   8.503 -0.1075  0.9415  0.0188
 1864SOL    HW117051   2.570   3.836   8.480 -2.0873  1.9578  1.6616
 1864SOL    HW217052   2.603   3.699   8.444 -1.2028  1.3689 -1.4241
 1865SOL     OW17053   2.071   1.394   4.390 -0.1047 -0.5814 -0.7183
 1865SOL    HW117054   2.014   1.399   4.312 -0.5622  0.0754 -0.3451
 1865SOL    HW217055   2.148   1.351   4.354 -0.4334 -2.6948  1.1362
 1866SOL     OW17056   2.784   1.812   7.564  0.0359  0.3479  0.8239
 1866SOL    HW117057   2.843   1.874   7.521 -1.2141  0.3508 -0.9131
 1866SOL    HW217058   2.847   1.754   7.605 -0.4719 -1.6094 -1.1375
 1867SOL     OW17059   3.705   2.931  17.280  0.2140  0.2806  0.7553
 1867SOL    HW117060   3.648   2.859  17.306  1.3805 -0.7821  0.4038
 1867SOL    HW217061   3.715   2.963  17.369  1.9541 -2.4858  1.5510
 1868SOL     OW17062   1.344   0.430   3.228 -0.5621  0.0912 -0.2403
 1868SOL    HW117063   1.329   0.362   3.162 -1.1916  1.6103 -1.6427
 1868SOL    HW217064   1.354   0.368   3.301 -2.5490 -0.1852 -0.1995
 1869SOL     OW17065   4.226   4.306  12.078  0.3544 -0.6231 -0.1361
 1869SOL    HW117066   4.198   4.339  11.993 -0.7392 -2.3277 -0.4247
 1869SOL    HW217067   4.266   4.387  12.111 -1.1508  0.7727 -1.7758
 1870SOL     OW17068   2.153   4.708   8.709  0.4344 -0.3103  0.0837
 1870SOL    HW117069   2.238   4.704   8.752  1.9413 -2.7257 -3.2130
 1870SOL    HW217070   2.107   4.647   8.767 -0.0650 -1.3637 -1.4219
 1871SOL     OW17071   1.178   1.706   7.597  0.5703  0.4540  0.9130
 1871SOL    HW117072   1.261   1.748   7.575  0.3044  0.3069 -0.3639
 1871SOL    HW217073   1.133   1.774   7.648 -1.8411 -0.0549 -0.5388
 1872SOL     OW17074   1.594   4.033   6.402  0.3366  0.3721  0.7284
 1872SOL    HW117075   1.544   3.954   6.381 -0.3374  1.2267 -0.8827
 1872SOL    HW217076   1.530   4.101   6.382 -0.2545  0.3054  2.3964
 1873SOL     OW17077   0.677   3.924   6.570  0.2001 -0.0059  0.4001
 1873SOL    HW117078   0.723   3.871   6.505 -0.3755  2.2182 -1.8234
 1873SOL    HW217079   0.729   4.005   6.576 -0.5576  0.5172 -0.2342
 1874SOL     OW17080   4.670   1.013   3.413 -0.1389  0.1049 -0.0722
 1874SOL    HW117081   4.699   1.101   3.439 -0.3768  0.5876 -1.4714
 1874SOL    HW217082   0.026   0.970   3.380  0.3440 -1.1961  2.6945
 1875SOL     OW17083   2.082   1.064   6.496 -0.4752 -0.6974  0.2334
 1875SOL    HW117084   2.031   1.039   6.573 -2.1859 -0.3273 -0.7865
 1875SOL    HW217085   2.059   1.156   6.487 -0.3762 -0.3504  3.6091
 1876SOL     OW17086   3.091   1.664   3.272  0.2980  0.0021 -0.2726
 1876SOL    HW117087   3.105   1.743   3.219  2.3366  0.4297  0.8822
 1876SOL    HW217088   3.017   1.642   3.215 -1.3795  0.4416  1.7554
 1877SOL     OW17089   0.778   4.657   8.009  0.0848  0.7349 -0.3646
 1877SOL    HW117090   0.733   4.703   8.080  0.8062 -1.3188  1.4293
 1877SOL    HW217091   0.803   4.574   8.052  1.4310 -0.4241 -3.4165
 1878SOL     OW17092   1.313   4.194  10.202  0.3324  0.9493 -0.1079
 1878SOL    HW117093   1.376   4.261  10.174  2.0790 -1.4103 -1.7907
 1878SOL    HW217094   1.369   4.118  10.217 -1.6551 -0.5112 -0.0410
 1879SOL     OW17095   0.299   3.687   6.462 -0.2083 -0.1614  0.4032
 1879SOL    HW117096   0.209   3.657   6.462  0.5640 -2.4768 -0.5066
 1879SOL    HW217097   0.346   3.608   6.436  0.4354  0.3821 -0.1111
 1880SOL     OW17098   2.225   2.507   2.371  0.0506  0.0942 -0.1758
 1880SOL    HW117099   2.192   2.427   2.331  0.6383 -0.6688  0.8812
 1880SOL    HW217100   2.275   2.559   2.308  0.5082 -0.8733 -0.6116
 1881SOL     OW17101   1.191   4.601   1.135  1.1830  0.7140  0.0068
 1881SOL    HW117102   1.111   4.581   1.185  2.9367 -3.3391  1.2047
 1881SOL    HW217103   1.225   4.511   1.137  0.6558  0.4545 -2.0767
 1882SOL     OW17104   0.000   1.322   4.936 -1.0820  0.0179  0.0923
 1882SOL    HW117105   0.079   1.282   4.899 -1.2820 -0.9297  0.7105
 1882SOL    HW217106   4.716   1.260   5.008 -0.9529 -0.6126 -0.4390
 1883SOL     OW17107   1.112   3.942   5.971 -0.1702 -0.5164  0.6327
 1883SOL    HW117108   1.092   3.991   5.891  0.0797  0.4562  1.1723
 1883SOL    HW217109   1.166   4.011   6.009 -0.5720 -0.7833  1.6933
 1884SOL     OW17110   4.626   1.884  12.534 -0.0661  0.0218 -0.6234
 1884SOL    HW117111   4.687   1.909  12.603  0.3231 -0.5943 -0.7391
 1884SOL    HW217112   4.677   1.818  12.486  0.7313 -0.3019  0.6740
 1885SOL     OW17113   3.126   2.350   5.530  0.4783 -0.1283  0.1119
 1885SOL    HW117114   3.048   2.406   5.537 -0.8121 -1.6533 -2.3545
 1885SOL    HW217115   3.137   2.321   5.440 -1.6528  1.5424 -0.6798
 1886SOL     OW17116   1.165   0.971   8.933 -0.1280  0.2146 -0.2047
 1886SOL    HW117117   1.071   0.976   8.919  0.1322  1.0437 -1.6003
 1886SOL    HW217118   1.169   0.923   9.017  1.0685 -1.9365 -1.4858
 1887SOL     OW17119   0.113   4.445   0.284 -0.2614  0.2804 -0.8515
 1887SOL    HW117120   0.107   4.354   0.314  3.3585  0.2872 -0.0641
 1887SOL    HW217121   0.131   4.486   0.369 -2.1100 -2.1867  0.7024
 1888SOL     OW17122   2.046   4.636   5.269 -0.3614  0.8391  0.2490
 1888SOL    HW117123   2.135   4.626   5.235  0.1487 -0.7641  2.0741
 1888SOL    HW217124   2.058   4.602   5.358 -0.0229 -0.3565 -0.2585
 1889SOL     OW17125   1.932   2.531   5.200  0.3513  0.3948 -0.3424
 1889SOL    HW117126   1.888   2.569   5.276 -1.7101 -2.6828  0.0248
 1889SOL    HW217127   2.014   2.579   5.199  0.0962  0.8522  0.4457
 1890SOL     OW17128   0.382   2.592  10.756  0.0734 -0.0868  0.6674
 1890SOL    HW117129   0.303   2.540  10.773 -1.6539  2.0154 -0.7797
 1890SOL    HW217130   0.395   2.589  10.661 -1.7658 -1.0789  0.4351
 1891SOL     OW17131   2.033   4.345   9.474  0.4698 -0.2538 -0.0540
 1891SOL    HW117132   1.951   4.308   9.442 -0.7563 -0.0274  2.7677
 1891SOL    HW217133   2.095   4.273   9.468  0.8007 -0.1863  2.3854
 1892SOL     OW17134   2.423   1.292  16.530 -0.6196 -0.3664  0.0052
 1892SOL    HW117135   2.445   1.200  16.541  1.2157  0.0786  0.0700
 1892SOL    HW217136   2.423   1.294  16.434  0.3608 -1.4496 -0.0111
 1893SOL     OW17137   3.887   0.406  11.195 -0.3229  0.2216 -0.1877
 1893SOL    HW117138   3.971   0.453  11.190 -1.2680  1.9764  0.1725
 1893SOL    HW217139   3.874   0.355  11.115  0.6157  2.4759 -1.8124
 1894SOL     OW17140   0.106   0.031   9.029  0.1358 -0.0259 -0.1994
 1894SOL    HW117141   0.097   4.669   9.072 -1.3777 -0.0632 -0.5882
 1894SOL    HW217142   0.199   0.037   9.008 -0.0312  2.1532 -0.2903
 1895SOL     OW17143   0.037   1.548   6.937  0.3418  0.5885  0.0229
 1895SOL    HW117144   0.087   1.621   6.974  0.6784  0.7006 -0.6612
 1895SOL    HW217145   0.050   1.559   6.843  3.7357  0.8383  0.5028
 1896SOL     OW17146   2.761   3.806   6.832 -0.4150  0.0190 -0.2407
 1896SOL    HW117147   2.733   3.896   6.815  1.6487  0.3831 -1.7447
 1896SOL    HW217148   2.773   3.765   6.747 -1.7353  1.4272 -1.1065
 1897SOL     OW17149   0.876   4.387   5.497 -0.1515 -0.1062  0.8932
 1897SOL    HW117150   0.875   4.435   5.580  0.8077  2.4081 -0.5725
 1897SOL    HW217151   0.832   4.305   5.523 -0.0537 -0.2618  0.5705
 1898SOL     OW17152   0.282   2.514   9.057  0.6647  0.1728  0.1691
 1898SOL    HW117153   0.231   2.564   8.994 -1.8588 -0.9400  1.3267
 1898SOL    HW217154   0.324   2.442   9.009  1.1290  1.4022 -1.2460
 1899SOL     OW17155   0.473   4.074  12.979 -0.7949 -0.0715 -0.0615
 1899SOL    HW117156   0.403   4.139  12.968  0.1373  0.4171 -2.9261
 1899SOL    HW217157   0.510   4.069  12.891 -1.4598  1.7535 -0.4576
 1900SOL     OW17158   1.812   2.130   3.564 -0.8395  0.6929  0.3245
 1900SOL    HW117159   1.725   2.105   3.595 -0.4250 -2.5070 -1.1131
 1900SOL    HW217160   1.843   2.043   3.539 -1.0585  0.9044 -0.6588
 1901SOL     OW17161   2.765   0.427   4.478  0.0503 -0.0671 -0.0235
 1901SOL    HW117162   2.791   0.403   4.389  0.2066 -0.7264  0.2013
 1901SOL    HW217163   2.712   0.350   4.498 -0.9859  0.3407 -1.2465
 1902SOL     OW17164   4.219   3.593   2.665 -0.2681  0.9453  0.3788
 1902SOL    HW117165   4.243   3.505   2.636  2.7936  1.1395  2.3282
 1902SOL    HW217166   4.247   3.643   2.589  1.1898  0.2001  0.4154
 1903SOL     OW17167   3.344   0.155   3.224 -0.3283 -0.5665 -0.2598
 1903SOL    HW117168   3.293   0.169   3.144 -0.9223  0.8673  0.3728
 1903SOL    HW217169   3.368   0.063   3.212  2.2232  0.1744 -0.9548
 1904SOL     OW17170   2.254   3.991   5.332 -0.3278  0.9798  0.0273
 1904SOL    HW117171   2.207   3.936   5.394  0.5590 -0.2627 -0.4165
 1904SOL    HW217172   2.342   3.998   5.368  0.4355  0.9809 -1.8244
 1905SOL     OW17173   2.376   0.871   7.101  0.4662 -0.3571  0.2405
 1905SOL    HW117174   2.471   0.870   7.102  0.4809  0.8716 -0.3062
 1905SOL    HW217175   2.356   0.825   7.019  0.5097  0.0138  0.0243
 1906SOL     OW17176   4.496   1.147  15.076  0.0755 -0.0830  0.4289
 1906SOL    HW117177   4.500   1.064  15.028  2.0107 -1.4492  2.9904
 1906SOL    HW217178   4.587   1.155  15.105  0.5227  0.5369 -1.1587
 1907SOL     OW17179   4.472   2.436   0.532 -0.2624 -0.0225  0.9100
 1907SOL    HW117180   4.396   2.489   0.556 -0.5076  0.1064 -0.1481
 1907SOL    HW217181   4.514   2.434   0.618  0.5187  0.2541  0.5318
 1908SOL     OW17182   2.201   0.424   2.149 -0.4997 -0.6364 -0.7551
 1908SOL    HW117183   2.153   0.507   2.151  0.7823  0.0381  1.5752
 1908SOL    HW217184   2.284   0.453   2.110  0.1519 -1.3128  0.1496
 1909SOL     OW17185   3.058   4.615   4.204  0.3480 -0.2028 -0.9618
 1909SOL    HW117186   3.100   4.614   4.118  1.4868  3.1206 -0.4443
 1909SOL    HW217187   3.134   4.610   4.262 -0.2251 -2.8968 -0.4220
 1910SOL     OW17188   3.429   4.201  13.529  0.7877  0.4751 -0.2354
 1910SOL    HW117189   3.480   4.122  13.548 -0.1492  0.2019  1.0957
 1910SOL    HW217190   3.379   4.169  13.453  0.6968 -4.5352  1.9128
 1911SOL     OW17191   3.576   2.972   6.828  0.9760  0.4897 -0.1183
 1911SOL    HW117192   3.491   2.961   6.870  0.6715  1.0272 -0.5876
 1911SOL    HW217193   3.630   2.931   6.896  0.8700  4.4602  2.3392
 1912SOL     OW17194   3.628   4.150   1.859  0.5696 -1.5114  0.8163
 1912SOL    HW117195   3.712   4.125   1.821  0.4556 -1.0896  0.2936
 1912SOL    HW217196   3.651   4.205   1.934 -3.0038  0.0186  0.8175
 1913SOL     OW17197   0.665   3.869   4.660 -0.1039 -0.1106  0.2881
 1913SOL    HW117198   0.710   3.907   4.735  1.4017 -0.0615 -0.6472
 1913SOL    HW217199   0.704   3.783   4.668 -0.2993 -0.2500 -0.2830
 1914SOL     OW17200   1.832   0.947   2.204  0.0901 -0.3671  0.1860
 1914SOL    HW117201   1.749   0.963   2.248  0.1264  2.7157 -0.8420
 1914SOL    HW217202   1.886   1.021   2.232 -1.6193  1.4415 -1.3176
 1915SOL     OW17203   4.576   2.777  12.421  0.2133  0.0902 -0.4011
 1915SOL    HW117204   4.535   2.800  12.505 -0.3440 -1.3791 -0.2674
 1915SOL    HW217205   4.522   2.700  12.403  1.8751 -1.3787  0.9901
 1916SOL     OW17206   2.685   1.211   4.251 -0.0999 -0.2840  0.1722
 1916SOL    HW117207   2.656   1.260   4.174 -3.6857 -0.9992  1.0609
 1916SOL    HW217208   2.775   1.239   4.267  0.2124 -2.4360  2.1495
 1917SOL     OW17209   4.165   2.967   7.772  0.3298  0.3195  0.0682
 1917SOL    HW117210   4.171   2.969   7.868  0.7926 -0.9821  0.0741
 1917SOL    HW217211   4.080   3.008   7.757  0.2576  0.3461  0.5529
 1918SOL     OW17212   3.908   4.574   8.069  1.0110 -1.1644  0.0402
 1918SOL    HW117213   3.909   4.514   7.994 -1.0656 -1.1879  0.0392
 1918SOL    HW217214   3.856   4.527   8.134 -0.5655  0.8658  0.2592
 1919SOL     OW17215   2.509   1.566   0.048  0.6922  0.0426 -0.4116
 1919SOL    HW117216   2.573   1.628   0.084  2.0302 -1.3225 -0.4268
 1919SOL    HW217217   2.482   1.526   0.131  0.5440 -0.9217 -0.9244
 1920SOL     OW17218   3.243   2.488   6.240 -0.2768  0.0359 -0.1086
 1920SOL    HW117219   3.218   2.444   6.158 -1.7495 -0.5250  0.6354
 1920SOL    HW217220   3.224   2.424   6.309  0.2627 -0.6006 -0.5516
 1921SOL     OW17221   1.097   1.478   5.792  0.1938  0.5485  0.5930
 1921SOL    HW117222   1.102   1.464   5.697 -1.5693  1.6415  0.3391
 1921SOL    HW217223   1.190   1.499   5.800  0.5367 -0.7393  0.0502
 1922SOL     OW17224   0.925   3.588  11.718  0.5705 -0.0077 -0.5013
 1922SOL    HW117225   0.861   3.534  11.764  0.8838 -0.2276 -0.3336
 1922SOL    HW217226   1.004   3.578  11.770  0.5167  4.5012  0.5081
 1923SOL     OW17227   2.787   0.200  12.573 -0.3898  0.5888  0.3575
 1923SOL    HW117228   2.874   0.185  12.536 -0.2053  0.8448  0.6901
 1923SOL    HW217229   2.765   0.114  12.609  0.7645  0.7121  1.3461
 1924SOL     OW17230   1.336   2.966   4.679 -0.6412  0.3389 -0.4246
 1924SOL    HW117231   1.295   2.981   4.594  0.0655 -2.3499 -1.2383
 1924SOL    HW217232   1.262   2.993   4.732 -0.0783  0.9091  0.0746
 1925SOL     OW17233   1.823   0.558   6.970  0.5664  0.0493  0.0669
 1925SOL    HW117234   1.865   0.495   7.029 -0.7457 -1.1502 -0.2934
 1925SOL    HW217235   1.730   0.543   6.982  0.6707  0.3441  1.2378
 1926SOL     OW17236   3.634   0.292   7.043  0.6078  0.4203 -0.4355
 1926SOL    HW117237   3.614   0.201   7.021  0.6934  0.3843 -0.3657
 1926SOL    HW217238   3.560   0.315   7.098  0.0138  0.0298 -1.0778
 1927SOL     OW17239   1.936   1.361   6.483  0.4726  0.1389 -0.1553
 1927SOL    HW117240   1.895   1.328   6.563 -0.7221 -0.1436 -0.8831
 1927SOL    HW217241   1.929   1.451   6.512  0.1149  0.4388 -1.1541
 1928SOL     OW17242   1.496   1.158   4.137  0.7483  0.5858 -0.2191
 1928SOL    HW117243   1.446   1.092   4.184  1.0551  1.1740  0.9274
 1928SOL    HW217244   1.431   1.225   4.115 -0.1202 -0.9975 -2.5864
 1929SOL     OW17245   3.480   2.182   3.902  0.4762  0.1969 -0.5198
 1929SOL    HW117246   3.509   2.104   3.950  0.1592  0.1158 -0.4616
 1929SOL    HW217247   3.384   2.174   3.903  0.5485 -0.5910  0.1861
 1930SOL     OW17248   3.077   1.816   4.652 -0.7307 -0.2541 -0.6745
 1930SOL    HW117249   3.109   1.730   4.680  0.1753  0.0799 -0.6940
 1930SOL    HW217250   3.118   1.867   4.721 -0.9954 -0.5429 -0.3064
 1931SOL     OW17251   3.004   0.297   9.581  0.9889 -0.0432 -0.4676
 1931SOL    HW117252   3.086   0.270   9.540  2.4169  1.6902  1.2462
 1931SOL    HW217253   2.969   0.361   9.520 -1.7917 -1.4434 -0.3386
 1932SOL     OW17254   2.111   1.369   9.165 -0.1706  0.5331 -0.0212
 1932SOL    HW117255   2.206   1.356   9.163 -0.0647  1.1630  1.0795
 1932SOL    HW217256   2.077   1.298   9.219 -2.3259  1.0919 -0.6619
 1933SOL     OW17257   0.610   1.771   5.512 -0.1949 -0.2626 -0.3445
 1933SOL    HW117258   0.606   1.866   5.522  0.0967 -0.1582 -1.1830
 1933SOL    HW217259   0.528   1.760   5.465  0.6694  2.2048 -2.4370
 1934SOL     OW17260   3.078   0.211   6.011  0.1970  0.7163 -0.2067
 1934SOL    HW117261   3.113   0.124   5.991 -0.2871  0.0814  1.7045
 1934SOL    HW217262   3.115   0.233   6.097  0.7884  1.4709 -0.6486
 1935SOL     OW17263   0.425   3.481   5.288  0.6365  0.5540  0.4824
 1935SOL    HW117264   0.342   3.529   5.284  0.5341  0.3567  0.3158
 1935SOL    HW217265   0.423   3.463   5.382 -0.9373  0.1826  0.3735
 1936SOL     OW17266   3.408   2.850   0.982  0.4195  0.0474 -0.2827
 1936SOL    HW117267   3.387   2.780   0.921  1.1121 -0.5003  0.1105
 1936SOL    HW217268   3.346   2.920   0.961 -3.4340 -2.6325  2.0174
 1937SOL     OW17269   2.205   4.350   3.904  0.2679 -0.2099 -0.8605
 1937SOL    HW117270   2.166   4.306   3.980 -0.1395  2.1250  0.2643
 1937SOL    HW217271   2.127   4.357   3.848  0.2909 -1.5851 -1.0710
 1938SOL     OW17272   4.405   4.484   2.976  0.2713  0.3629 -0.3563
 1938SOL    HW117273   4.312   4.467   2.991  0.5308 -1.1814 -0.5360
 1938SOL    HW217274   4.441   4.457   3.060  0.1297 -0.7509 -0.6623
 1939SOL     OW17275   2.762   4.001   2.991 -0.0963 -0.4453  0.4189
 1939SOL    HW117276   2.748   3.952   2.910  0.0035 -0.6775  0.5432
 1939SOL    HW217277   2.683   4.055   2.994  1.0244  1.3248 -1.5115
 1940SOL     OW17278   4.633   1.652   7.552 -0.1705 -0.2999  0.3973
 1940SOL    HW117279   4.570   1.724   7.552 -1.1297 -1.1462 -1.2601
 1940SOL    HW217280   4.651   1.650   7.646  2.0979 -0.0717 -0.0463
 1941SOL     OW17281   0.337   2.197   7.289  0.3709 -0.2892  0.1263
 1941SOL    HW117282   0.398   2.147   7.343  0.4644  1.2665  1.4660
 1941SOL    HW217283   0.388   2.270   7.254 -0.7263  1.1297  1.4297
 1942SOL     OW17284   2.804   3.473   1.123 -0.6427  0.6014 -0.2894
 1942SOL    HW117285   2.780   3.535   1.192 -0.0135  1.1138 -0.5401
 1942SOL    HW217286   2.826   3.399   1.180 -4.3275 -1.1674 -1.1613
 1943SOL     OW17287   2.031   2.007   7.776  0.0698 -0.1163 -0.5427
 1943SOL    HW117288   2.121   1.973   7.769 -0.0570 -0.4873 -0.3933
 1943SOL    HW217289   1.996   1.955   7.848 -0.9326 -0.3849 -1.2350
 1944SOL     OW17290   2.185   0.344   5.891  0.3496  0.0837 -0.0059
 1944SOL    HW117291   2.176   0.426   5.940  0.1330  0.0886 -0.0545
 1944SOL    HW217292   2.105   0.305   5.927  1.3888  0.2375  2.4522
 1945SOL     OW17293   2.248   4.632   4.314 -0.0090 -0.3176 -0.1038
 1945SOL    HW117294   2.242   4.705   4.375 -0.4177 -1.7584  1.5998
 1945SOL    HW217295   2.270   4.689   4.240  0.1160  0.3820  0.4803
 1946SOL     OW17296   3.433   2.682  14.167 -0.3982  0.1506 -0.1633
 1946SOL    HW117297   3.446   2.627  14.090  0.8680  0.2195  0.0121
 1946SOL    HW217298   3.521   2.713  14.187 -0.8670  1.7570 -0.5386
 1947SOL     OW17299   3.518   1.309  12.508 -0.0744 -0.7684 -0.0796
 1947SOL    HW117300   3.465   1.372  12.459  1.2058  0.7307  0.4968
 1947SOL    HW217301   3.449   1.259  12.552 -1.0927  1.7258  1.1252
 1948SOL     OW17302   3.977   3.489   0.175  0.3828 -0.1639 -0.0327
 1948SOL    HW117303   4.064   3.516   0.204 -0.2105 -0.0237  1.6445
 1948SOL    HW217304   3.989   3.489   0.080  0.9051  0.5040  0.0329
 1949SOL     OW17305   2.989   1.772   4.968  0.1889  0.5224 -0.2088
 1949SOL    HW117306   3.023   1.840   5.026 -0.2077 -1.3576  2.2181
 1949SOL    HW217307   3.060   1.708   4.981 -1.4183 -1.0649  0.6922
 1950SOL     OW17308   2.717   2.754   7.797 -1.0344 -0.3453  0.7063
 1950SOL    HW117309   2.770   2.723   7.723 -0.3774 -0.4619  1.2297
 1950SOL    HW217310   2.766   2.700   7.859 -0.7590 -0.0433  0.7492
 1951SOL     OW17311   4.278   0.565   7.992 -0.4389  0.2715  0.2593
 1951SOL    HW117312   4.207   0.627   7.972  0.2824  0.3606 -1.9362
 1951SOL    HW217313   4.229   0.514   8.057  1.6668 -0.6128  1.1413
 1952SOL     OW17314   0.599   2.120   4.329  0.0350  0.0301 -0.0585
 1952SOL    HW117315   0.615   2.168   4.248 -3.5189 -0.5078 -1.1079
 1952SOL    HW217316   0.642   2.179   4.390 -0.2951 -0.8148  0.9975
 1953SOL     OW17317   2.266   2.932   5.438 -0.5424  0.2717  0.0561
 1953SOL    HW117318   2.257   3.011   5.491  0.0295 -0.1587  0.7921
 1953SOL    HW217319   2.212   2.869   5.485 -0.7680  0.1782 -0.3276
 1954SOL     OW17320   0.421   2.765   5.357 -0.6708 -0.2227  0.7456
 1954SOL    HW117321   0.495   2.824   5.368 -0.1575 -0.7053 -0.1054
 1954SOL    HW217322   0.371   2.817   5.294  0.2343  0.2245  0.3969
 1955SOL     OW17323   0.246   2.425  15.247 -0.6994  0.8996 -0.2420
 1955SOL    HW117324   0.197   2.388  15.173 -0.0741 -0.6024  0.0896
 1955SOL    HW217325   0.184   2.484  15.291 -0.9472 -0.2508  0.9454
 1956SOL     OW17326   3.938   2.741   4.801 -0.1917  0.5620 -0.2334
 1956SOL    HW117327   3.931   2.830   4.767  0.3004  0.4069 -0.7386
 1956SOL    HW217328   3.975   2.701   4.722  1.6667 -0.3112  1.0816
 1957SOL     OW17329   0.379   0.943   4.731 -0.1080 -0.8611  0.0061
 1957SOL    HW117330   0.436   0.903   4.666 -0.9849  0.9229 -1.8451
 1957SOL    HW217331   0.336   1.004   4.671 -0.0001  0.8407  1.6836
 1958SOL     OW17332   3.459   0.432   9.546  0.2195  0.5229 -0.4916
 1958SOL    HW117333   3.521   0.381   9.598 -2.0263 -1.4670  0.1986
 1958SOL    HW217334   3.379   0.431   9.598  0.8942 -0.4922  0.5324
 1959SOL     OW17335   1.866   4.460  11.542  0.0761  0.0501  0.2507
 1959SOL    HW117336   1.798   4.492  11.482 -0.7522  1.3381  1.8649
 1959SOL    HW217337   1.941   4.515  11.520 -2.2234  3.0906  0.0050
 1960SOL     OW17338   3.008   2.544   2.239  0.0795 -0.0640  0.5184
 1960SOL    HW117339   3.053   2.627   2.224 -1.1231  0.5747  0.3866
 1960SOL    HW217340   3.051   2.504   2.164 -0.2643 -2.0631  1.3770
 1961SOL     OW17341   2.144   1.542   6.779  0.7424 -0.6951 -0.1151
 1961SOL    HW117342   2.111   1.618   6.826 -0.5386 -1.0598 -0.4374
 1961SOL    HW217343   2.138   1.473   6.846  0.9656 -0.2556  0.3567
 1962SOL     OW17344   4.086   2.344  10.002  0.3302  0.1878  0.4334
 1962SOL    HW117345   3.994   2.333   9.977  0.7522 -2.0125 -0.1116
 1962SOL    HW217346   4.078   2.402  10.079 -0.0276 -0.6855  1.0513
 1963SOL     OW17347   2.689   4.165  11.064 -0.4408 -0.3161 -0.5513
 1963SOL    HW117348   2.696   4.206  11.150  2.5770  0.5382 -1.2260
 1963SOL    HW217349   2.675   4.244  11.013  0.6307 -1.0384 -1.9494
 1964SOL     OW17350   1.821   3.290   9.554 -1.1415  0.3068  0.1694
 1964SOL    HW117351   1.899   3.293   9.499 -0.7321 -1.4092  0.6388
 1964SOL    HW217352   1.854   3.248   9.634 -3.1461 -0.6298  0.5165
 1965SOL     OW17353   2.272   1.933  15.091 -0.2800  0.2568  0.0848
 1965SOL    HW117354   2.248   1.984  15.169  2.3960 -1.2488  1.9156
 1965SOL    HW217355   2.196   1.906  15.040  0.5821  0.1689 -1.1407
 1966SOL     OW17356   1.269   4.720   7.406 -0.5537  0.2471 -0.1371
 1966SOL    HW117357   1.217   0.059   7.355 -0.9233  1.5219  1.7797
 1966SOL    HW217358   1.333   0.060   7.442 -1.5057  1.3508 -0.3810
 1967SOL     OW17359   3.845   2.288   4.789 -0.1090  0.6762 -0.2853
 1967SOL    HW117360   3.844   2.245   4.704 -0.5346 -2.2887  1.2160
 1967SOL    HW217361   3.769   2.251   4.833  0.3335  1.2638  0.9896
 1968SOL     OW17362   4.089   3.620  12.582 -0.0140 -0.3847  0.2893
 1968SOL    HW117363   3.996   3.600  12.591 -0.3148  2.0155  2.4944
 1968SOL    HW217364   4.105   3.569  12.503  1.4138 -0.2616  0.4910
 1969SOL     OW17365   0.465   3.337   5.548  0.3219 -0.4547  0.3227
 1969SOL    HW117366   0.474   3.382   5.632 -1.1553 -3.0217  1.8774
 1969SOL    HW217367   0.555   3.345   5.517  0.4569  2.3603  1.4837
 1970SOL     OW17368   2.000   4.264   0.614  0.3570 -0.0571  0.0394
 1970SOL    HW117369   1.916   4.274   0.658 -0.4762 -1.3039 -1.2916
 1970SOL    HW217370   2.051   4.268   0.696  0.9273  1.0456 -0.3777
 1971SOL     OW17371   3.395   0.934   7.783 -0.8104  0.0545  1.1651
 1971SOL    HW117372   3.465   0.960   7.723 -0.6399 -0.4792  1.1306
 1971SOL    HW217373   3.450   0.895   7.851  1.8333 -0.5368 -1.3002
 1972SOL     OW17374   0.244   4.452   0.923 -0.0146 -0.4559 -0.0690
 1972SOL    HW117375   0.178   4.389   0.951 -1.1491  1.2345  1.0352
 1972SOL    HW217376   0.294   4.397   0.863  2.3576 -0.2034  1.6733
 1973SOL     OW17377   4.464   1.975  16.503  0.2711  0.2610  0.4321
 1973SOL    HW117378   4.493   1.902  16.559  0.0696  0.1584  0.4031
 1973SOL    HW217379   4.546   2.016  16.473 -0.2545 -0.1862 -1.6065
 1974SOL     OW17380   4.458   4.016   8.181 -0.0931  0.5948  0.0338
 1974SOL    HW117381   4.455   3.948   8.249  2.7719 -0.0316 -0.4358
 1974SOL    HW217382   4.368   4.046   8.169  0.1115  1.8296  1.6446
 1975SOL     OW17383   4.161   2.509   4.524  0.3158  0.1194  0.0416
 1975SOL    HW117384   4.146   2.441   4.589  2.1394 -0.7621 -0.4418
 1975SOL    HW217385   4.171   2.588   4.577  2.8598 -0.3620  0.2753
 1976SOL     OW17386   3.123   3.064   5.339  0.1610 -0.9668 -0.4128
 1976SOL    HW117387   3.171   3.129   5.390 -0.4148 -0.7167 -0.1967
 1976SOL    HW217388   3.064   3.130   5.301  1.3999 -0.9526 -2.3411
 1977SOL     OW17389   3.937   4.602   7.736  0.0278 -0.3810  0.0076
 1977SOL    HW117390   3.919   4.516   7.775 -2.8627  0.3118  0.1941
 1977SOL    HW217391   4.005   4.635   7.795 -1.8756  1.3723  1.2200
 1978SOL     OW17392   2.985   0.364   3.093  0.4556  0.0865 -0.3281
 1978SOL    HW117393   3.013   0.433   3.152  0.8690  0.6201 -1.1496
 1978SOL    HW217394   3.048   0.372   3.021  0.7722  1.3971  0.0974
 1979SOL     OW17395   4.128   0.232   7.494  0.2053 -0.1609 -0.0478
 1979SOL    HW117396   4.118   0.327   7.499 -3.0895 -0.4668 -0.6237
 1979SOL    HW217397   4.051   0.201   7.542 -0.9692  1.4391 -0.8951
 1980SOL     OW17398   2.780   3.458   2.173  0.0383 -0.5719  0.2201
 1980SOL    HW117399   2.778   3.362   2.176 -1.6243 -0.4908  1.5022
 1980SOL    HW217400   2.721   3.475   2.246 -1.2245 -0.9752 -0.7142
 1981SOL     OW17401   3.032   3.292  15.628 -0.2846 -0.6000  0.6114
 1981SOL    HW117402   3.090   3.238  15.574  0.0100 -1.2847  1.6260
 1981SOL    HW217403   2.974   3.309  15.554 -1.0360  0.9259  1.5485
 1982SOL     OW17404   2.604   2.689  10.005 -0.0179  0.1685  0.6513
 1982SOL    HW117405   2.609   2.730   9.918  0.8956 -1.8406 -0.2439
 1982SOL    HW217406   2.560   2.764  10.046 -1.3315  0.9284 -2.0783
 1983SOL     OW17407   2.173   1.330  15.184  0.6145  0.2380  0.2588
 1983SOL    HW117408   2.160   1.286  15.268 -1.6996  0.0728 -0.1952
 1983SOL    HW217409   2.214   1.260  15.132 -2.6103 -1.6259  0.2236
 1984SOL     OW17410   3.863   1.549   7.799  0.2842 -0.1465  0.5362
 1984SOL    HW117411   3.850   1.454   7.793 -1.4348  0.0228  1.3818
 1984SOL    HW217412   3.777   1.588   7.782  1.0683  0.7597 -1.3349
 1985SOL     OW17413   3.119   2.040   4.366  0.2969 -0.4472  0.1447
 1985SOL    HW117414   3.067   2.033   4.446  1.4036 -0.7357  0.8455
 1985SOL    HW217415   3.117   2.135   4.355  2.9501 -0.5309 -1.0073
 1986SOL     OW17416   2.451   3.499   6.748  0.4514  0.7893 -0.2701
 1986SOL    HW117417   2.439   3.578   6.800  0.9645  1.7954 -1.6721
 1986SOL    HW217418   2.368   3.454   6.763  1.6525 -0.6625  2.0794
 1987SOL     OW17419   0.691   3.187  13.201 -0.4151 -0.1288  0.3718
 1987SOL    HW117420   0.636   3.121  13.158  0.9814 -1.3069  0.4039
 1987SOL    HW217421   0.775   3.149  13.176 -1.4787 -2.6121  0.5317
 1988SOL     OW17422   3.127   3.990   7.250  0.3915 -0.0864  0.2703
 1988SOL    HW117423   3.049   3.967   7.200  0.2278  0.6779  0.1713
 1988SOL    HW217424   3.193   4.004   7.182 -0.1089 -0.7040 -0.3361
 1989SOL     OW17425   0.492   2.763   2.214 -0.7450 -0.0991 -0.1496
 1989SOL    HW117426   0.468   2.763   2.121  1.1929 -1.5952 -0.6430
 1989SOL    HW217427   0.456   2.845   2.248 -1.3395 -0.2715 -0.3594
 1990SOL     OW17428   1.591   1.358   9.594 -0.0777  0.6164  0.0535
 1990SOL    HW117429   1.586   1.287   9.530  0.8577  2.0152 -1.6084
 1990SOL    HW217430   1.509   1.343   9.640  0.5971 -0.2600  0.9665
 1991SOL     OW17431   3.770   2.991   5.655 -0.2900  0.4970  0.0685
 1991SOL    HW117432   3.689   3.042   5.651 -2.1328 -2.4171  0.2991
 1991SOL    HW217433   3.795   2.975   5.565  2.6401 -0.0446  0.9806
 1992SOL     OW17434   4.212   3.800   5.293 -0.2422 -0.1556  0.3176
 1992SOL    HW117435   4.150   3.776   5.362  1.4746 -3.9389  0.5221
 1992SOL    HW217436   4.158   3.816   5.215 -0.9032 -0.1850  0.7665
 1993SOL     OW17437   0.263   1.878  14.155 -0.1804 -0.3318 -0.0600
 1993SOL    HW117438   0.282   1.896  14.063  1.4850 -3.3098 -0.3047
 1993SOL    HW217439   0.243   1.964  14.192  0.6995 -0.3712  0.5109
 1994SOL     OW17440   0.153   4.249   0.723  0.2268  0.1564 -0.2008
 1994SOL    HW117441   0.100   4.251   0.803  0.8879 -1.0797  0.2597
 1994SOL    HW217442   0.084   4.221   0.663  2.0369 -0.1013 -2.1503
 1995SOL     OW17443   1.971   4.206   3.507 -0.4848 -0.0504 -0.4983
 1995SOL    HW117444   1.969   4.171   3.418  0.5701  1.9432 -1.2834
 1995SOL    HW217445   1.988   4.125   3.555  1.5646  0.4329 -0.4377
 1996SOL     OW17446   2.673   4.558   2.044  0.8449 -0.1212  0.1355
 1996SOL    HW117447   2.588   4.565   2.000  0.4106 -0.4884  0.9125
 1996SOL    HW217448   2.730   4.619   1.997  0.7201 -0.7561 -0.8596
 1997SOL     OW17449   4.490   1.911   7.484  0.4936 -0.1581  0.3062
 1997SOL    HW117450   4.399   1.914   7.512  0.1721  1.2823 -0.8951
 1997SOL    HW217451   4.523   1.999   7.506 -0.5975  0.7227 -1.6247
 1998SOL     OW17452   4.527   1.602  11.504  0.3291 -0.1871 -0.1096
 1998SOL    HW117453   4.451   1.592  11.446 -0.1179  0.9437  0.2633
 1998SOL    HW217454   4.589   1.596  11.432  0.5169  1.3145 -0.0841
 1999SOL     OW17455   3.508   2.153   7.005 -0.0245  0.0297 -0.6773
 1999SOL    HW117456   3.450   2.102   7.061  2.7597 -1.3594  0.9437
 1999SOL    HW217457   3.593   2.133   7.044 -0.9951 -0.1871  1.3176
 2000SOL     OW17458   2.983   1.253   8.445 -0.3906  0.6333  0.2613
 2000SOL    HW117459   3.031   1.309   8.506 -2.3549  1.1558  1.3268
 2000SOL    HW217460   2.892   1.263   8.472 -0.4554 -0.4829  0.4581
 2001SOL     OW17461   3.741   4.381   5.376 -0.0079  0.0844  0.2473
 2001SOL    HW117462   3.836   4.384   5.364  0.0913 -1.7205  0.4626
 2001SOL    HW217463   3.717   4.433   5.300  2.5107  0.7290 -0.1169
 2002SOL     OW17464   3.479   4.247   3.681 -0.9003  0.6901  0.6912
 2002SOL    HW117465   3.501   4.261   3.589 -1.2853  0.3439  0.5439
 2002SOL    HW217466   3.547   4.184   3.707 -0.4371 -0.1590 -2.5392
 2003SOL     OW17467   0.255   3.495  17.309 -0.1877  0.1375 -0.3292
 2003SOL    HW117468   0.165   3.463  17.318  0.5913 -2.2044 -0.8209
 2003SOL    HW217469   0.263   3.559  17.380  1.1344 -1.7074  1.2007
 2004SOL     OW17470   0.681   4.305   3.135 -0.1058 -0.3203 -0.2280
 2004SOL    HW117471   0.664   4.353   3.216  0.0225 -4.0129  1.9883
 2004SOL    HW217472   0.673   4.386   3.085 -1.2573  0.1778  0.7655
 2005SOL     OW17473   0.212   0.395   3.613 -0.0958 -0.6484 -0.0211
 2005SOL    HW117474   0.164   0.436   3.685 -0.3584 -1.6816  0.3938
 2005SOL    HW217475   0.301   0.402   3.647 -0.3639  0.2798  0.4983
 2006SOL     OW17476   4.173   2.374   8.121 -0.7500  0.3041  1.0259
 2006SOL    HW117477   4.107   2.304   8.119 -0.4091 -0.0464  2.2688
 2006SOL    HW217478   4.172   2.396   8.214 -0.2501  0.3200  1.0246
 2007SOL     OW17479   4.469   3.703   3.520 -0.5328 -0.4561  0.2152
 2007SOL    HW117480   4.408   3.770   3.550  1.0934  0.8142  0.6552
 2007SOL    HW217481   4.508   3.687   3.605 -1.9916 -2.3162  0.5484
 2008SOL     OW17482   1.155   2.561  14.829 -0.5217  0.4244 -0.4606
 2008SOL    HW117483   1.084   2.523  14.881 -0.1485  0.9292  0.4253
 2008SOL    HW217484   1.189   2.617  14.898  1.6386 -0.3160 -0.9285
 2009SOL     OW17485   0.097   0.784   2.850  0.1591  0.1527  0.7062
 2009SOL    HW117486   0.136   0.784   2.763 -0.8516  0.9486  0.2476
 2009SOL    HW217487   0.114   0.874   2.876 -2.1172  0.7917  0.0090
 2010SOL     OW17488   1.857   4.437   7.949  0.3434 -0.3089 -0.4641
 2010SOL    HW117489   1.767   4.451   7.919  0.7150  0.8419 -1.0906
 2010SOL    HW217490   1.868   4.507   8.013 -0.2886  0.6260 -1.3663
 2011SOL     OW17491   0.665   4.139  10.591  0.3769  0.2643  0.5568
 2011SOL    HW117492   0.621   4.136  10.676  0.4052  0.4939  0.5803
 2011SOL    HW217493   0.640   4.058  10.548  0.1981  0.6870 -0.1353
 2012SOL     OW17494   1.971   4.159   3.236 -0.4161 -0.1350  0.1780
 2012SOL    HW117495   1.934   4.239   3.198 -0.8828 -0.4286  0.0082
 2012SOL    HW217496   1.915   4.093   3.195 -0.3688  0.2147 -0.4493
 2013SOL     OW17497   2.258   3.885   8.476  0.5513  0.1681 -1.0087
 2013SOL    HW117498   2.299   3.800   8.462  0.5448  0.0553 -0.3476
 2013SOL    HW217499   2.334   3.941   8.492  0.5532 -0.1683  0.1462
 2014SOL     OW17500   2.373   2.217   2.823  0.0228  0.3661 -0.2321
 2014SOL    HW117501   2.328   2.297   2.796 -0.0942  0.0717 -0.9020
 2014SOL    HW217502   2.413   2.240   2.907 -1.1095 -1.9909  0.9769
 2015SOL     OW17503   1.617   1.604  16.311  0.7455  0.0239  0.1189
 2015SOL    HW117504   1.664   1.685  16.329 -1.7193  1.8128 -1.4369
 2015SOL    HW217505   1.527   1.628  16.336  1.0261  1.4754 -0.2821
 2016SOL     OW17506   2.723   1.397   4.898  0.1344 -0.1845  0.4701
 2016SOL    HW117507   2.689   1.317   4.857  1.2750 -0.5507  0.2210
 2016SOL    HW217508   2.665   1.406   4.974 -0.0556 -0.4575  0.3579
 2017SOL     OW17509   3.177   2.541  11.588  0.0706 -0.1870 -0.2394
 2017SOL    HW117510   3.127   2.496  11.657 -1.3376 -0.2907 -1.3275
 2017SOL    HW217511   3.263   2.553  11.629 -2.0069  1.8229  3.5790
 2018SOL     OW17512   3.873   2.704   0.642  0.4497 -0.2676 -0.5372
 2018SOL    HW117513   3.864   2.639   0.711 -1.8990  1.6161  0.9319
 2018SOL    HW217514   3.944   2.760   0.672 -0.9125  1.2963 -0.2320
 2019SOL     OW17515   4.597   3.083  15.469  0.3244 -0.5542 -0.2178
 2019SOL    HW117516   4.681   3.067  15.512  0.9420  1.1390 -0.7964
 2019SOL    HW217517   4.535   3.084  15.542  1.7598 -2.4467  1.0087
 2020SOL     OW17518   0.994   2.428  17.639 -0.0828  0.4827  0.4129
 2020SOL    HW117519   0.924   2.425   0.011  0.5250 -1.8463  0.9495
 2020SOL    HW217520   1.060   2.391   0.005 -0.1614 -1.0821 -0.4766
 2021SOL     OW17521   1.093   2.794   5.040 -0.2392  0.3316  0.2613
 2021SOL    HW117522   1.048   2.750   4.968 -2.2884  0.0375  1.7035
 2021SOL    HW217523   1.114   2.717   5.093  1.0402  0.3996 -0.1513
 2022SOL     OW17524   1.917   0.486   8.538  0.0925 -0.0666  0.0705
 2022SOL    HW117525   1.941   0.568   8.581  2.0706 -0.2265 -0.7394
 2022SOL    HW217526   1.950   0.421   8.600  0.7327 -0.1387 -0.3398
 2023SOL     OW17527   2.193   1.487   7.459  0.3955  0.4936  0.9276
 2023SOL    HW117528   2.220   1.435   7.535 -0.2335  0.4538  1.1246
 2023SOL    HW217529   2.178   1.570   7.505 -0.8779 -0.0657  1.5358
 2024SOL     OW17530   1.905   3.974  15.126  0.3122  0.5694 -0.0553
 2024SOL    HW117531   1.840   4.022  15.075 -0.2210 -0.1061 -0.0054
 2024SOL    HW217532   1.915   3.894  15.076 -1.0092 -0.3962  1.2387
 2025SOL     OW17533   1.705   2.387  12.890  0.4327  0.0113  0.5841
 2025SOL    HW117534   1.788   2.398  12.937  0.2513 -1.9735  1.3681
 2025SOL    HW217535   1.725   2.431  12.807  2.0918  0.1647  1.0673
 2026SOL     OW17536   0.381   1.512   7.683  0.3725  0.4861 -0.1194
 2026SOL    HW117537   0.408   1.551   7.767 -0.6080  2.2615 -0.6106
 2026SOL    HW217538   0.464   1.499   7.638  1.0183  0.3351  1.1174
 2027SOL     OW17539   2.268   2.577   8.524  0.1900 -0.0331  0.3793
 2027SOL    HW117540   2.301   2.620   8.603  0.6615 -0.7438  0.5632
 2027SOL    HW217541   2.193   2.632   8.500  0.1440 -1.0750 -1.8749
 2028SOL     OW17542   1.400   4.717   8.437  0.3287  0.0131  0.0666
 2028SOL    HW117543   1.467   0.042   8.486 -1.7179  0.8906  1.9989
 2028SOL    HW217544   1.430   4.626   8.443 -2.8522 -1.0405 -0.0466
 2029SOL     OW17545   1.939   1.164  17.272  0.0058 -0.0028 -0.7849
 2029SOL    HW117546   1.865   1.224  17.281  0.4935  0.2971  1.1473
 2029SOL    HW217547   2.008   1.184  17.334  1.2117  0.7935 -2.3797
 2030SOL     OW17548   1.562   4.566   9.133 -0.5191  0.1872 -0.0272
 2030SOL    HW117549   1.573   4.634   9.066  0.7435  0.2890  0.2825
 2030SOL    HW217550   1.560   4.491   9.074  0.3974  0.3741 -0.3045
 2031SOL     OW17551   1.029   1.109   7.478  0.8021 -0.5068 -0.4031
 2031SOL    HW117552   1.031   1.014   7.465 -0.1291 -0.3674 -1.5143
 2031SOL    HW217553   1.097   1.150   7.425 -0.7070  2.5849  0.0594
 2032SOL     OW17554   3.774   2.637  10.239 -0.4642 -0.3905 -0.0214
 2032SOL    HW117555   3.732   2.662  10.157  0.3923 -1.1331 -0.6804
 2032SOL    HW217556   3.698   2.618  10.294  0.1413 -0.4155  0.8063
 2033SOL     OW17557   3.035   2.736   5.139  0.1140 -0.2291 -0.1879
 2033SOL    HW117558   3.096   2.692   5.080  0.4436  1.8848 -1.4258
 2033SOL    HW217559   3.068   2.701   5.222 -0.5151 -0.9454 -0.2443
 2034SOL     OW17560   0.058   2.430  17.032  0.6647  0.1008  0.0146
 2034SOL    HW117561   0.119   2.403  17.101 -1.0231  0.7871  1.7511
 2034SOL    HW217562   4.716   2.480  17.080  1.6688  1.4144 -0.0040
 2035SOL     OW17563   0.389   3.646   4.728 -0.5294 -0.2938  0.4773
 2035SOL    HW117564   0.401   3.604   4.643  0.3608  1.3462 -0.2231
 2035SOL    HW217565   0.476   3.637   4.768 -0.7015  0.2026  0.9631
 2036SOL     OW17566   3.873   3.002  16.076 -0.6622 -0.2248 -0.4731
 2036SOL    HW117567   3.884   2.988  16.170  1.1352  0.2973 -0.6016
 2036SOL    HW217568   3.849   3.094  16.089 -0.2086 -0.3432  1.1376
 2037SOL     OW17569   3.006   1.641   1.998 -0.3327  0.0416  0.0514
 2037SOL    HW117570   2.988   1.581   1.926 -0.2216  0.9061 -0.6929
 2037SOL    HW217571   3.101   1.639   1.993 -0.2925  0.7081  0.5303
 2038SOL     OW17572   2.646   0.535   3.934  0.7907  0.1403 -0.0914
 2038SOL    HW117573   2.633   0.587   3.855 -2.7989  1.1240  1.1281
 2038SOL    HW217574   2.624   0.444   3.913  0.5681  1.2240 -4.3723
 2039SOL     OW17575   1.727   1.182   7.767  0.4551  0.5838  0.6679
 2039SOL    HW117576   1.665   1.111   7.750  2.2330 -0.4195 -1.7135
 2039SOL    HW217577   1.684   1.241   7.705  0.8872 -0.7817 -0.9291
 2040SOL     OW17578   3.835   4.367   1.982  0.0036 -0.2855  0.8688
 2040SOL    HW117579   3.773   4.439   1.981  0.1403 -0.1846 -0.1367
 2040SOL    HW217580   3.789   4.293   2.021  1.4201 -0.4492  2.2610
 2041SOL     OW17581   2.399   1.223  10.020 -0.5432  0.3451 -0.3866
 2041SOL    HW117582   2.338   1.190   9.954 -0.8728  1.0363 -0.4328
 2041SOL    HW217583   2.400   1.150  10.082  0.9232  2.0523  1.6061
 2042SOL     OW17584   2.760   0.044   2.505 -0.2691  0.1384 -0.0539
 2042SOL    HW117585   2.819   4.721   2.445 -0.6702  2.3036 -2.0886
 2042SOL    HW217586   2.678   4.718   2.498 -0.5878  0.4991  1.0744
 2043SOL     OW17587   0.039   0.728   1.930 -0.0555  0.4098  0.9345
 2043SOL    HW117588   4.669   0.750   1.943 -0.4959 -1.3749  0.8328
 2043SOL    HW217589   0.040   0.658   1.865  1.4708  0.4771  0.8857
 2044SOL     OW17590   4.660   4.094   6.250 -0.2132  0.0529  0.6171
 2044SOL    HW117591   4.705   4.072   6.331 -0.7892  0.2310  0.9885
 2044SOL    HW217592   4.573   4.108   6.287  0.9032  0.8539  2.9554
 2045SOL     OW17593   0.330   3.087   4.946  0.2771 -0.6421  0.1713
 2045SOL    HW117594   0.235   3.095   4.956  0.3390  0.0300  0.1843
 2045SOL    HW217595   0.354   3.135   5.025  0.8581  0.3639 -0.6142
 2046SOL     OW17596   1.716   3.342  15.564  0.2792  0.1834 -0.3051
 2046SOL    HW117597   1.713   3.263  15.618 -0.8160  0.9240  0.7313
 2046SOL    HW217598   1.633   3.335  15.518 -0.1907 -1.3189  0.7780
 2047SOL     OW17599   0.936   0.216   2.087 -0.2279 -0.0595 -0.0102
 2047SOL    HW117600   0.897   0.134   2.058 -1.1896 -0.1880  1.6216
 2047SOL    HW217601   1.015   0.183   2.130 -1.2990 -1.6701  0.7264
 2048SOL     OW17602   3.507   3.929  17.248  0.5251  0.2672  0.0320
 2048SOL    HW117603   3.586   3.936  17.195  0.6792 -3.3624 -0.2401
 2048SOL    HW217604   3.449   3.889  17.183  2.2189  0.1300 -1.3879
 2049SOL     OW17605   2.067   0.845  14.052  0.4435 -0.2340 -0.4974
 2049SOL    HW117606   2.027   0.862  13.966 -1.6136 -1.8128  0.1668
 2049SOL    HW217607   2.020   0.771  14.090 -1.7515  1.2002 -0.4111
 2050SOL     OW17608   1.897   2.690   8.663  0.3373 -0.2072 -0.0816
 2050SOL    HW117609   1.862   2.763   8.714  0.6564  1.9954 -3.0336
 2050SOL    HW217610   1.819   2.634   8.661 -0.2938  0.6388  1.0167
 2051SOL     OW17611   4.180   0.667   4.759 -0.1255  0.2215  0.7576
 2051SOL    HW117612   4.193   0.762   4.751  2.7703 -0.1253  1.1401
 2051SOL    HW217613   4.218   0.632   4.679 -0.0213 -4.0330  2.6449
 2052SOL     OW17614   3.023   2.892   7.238 -0.3036  0.1444  0.0598
 2052SOL    HW117615   3.106   2.933   7.213  0.7132 -1.1040  1.4287
 2052SOL    HW217616   2.969   2.967   7.264  0.6542  1.1876 -0.9608
 2053SOL     OW17617   2.056   3.743  11.068 -0.2009 -0.4900  0.3066
 2053SOL    HW117618   1.989   3.723  11.133 -0.6545 -1.4647 -0.4736
 2053SOL    HW217619   2.127   3.756  11.132  0.0345 -1.3466  0.2162
 2054SOL     OW17620   3.275   1.925   8.662  0.0033 -0.5680  0.0723
 2054SOL    HW117621   3.304   1.846   8.618 -0.1931 -0.8489  0.4482
 2054SOL    HW217622   3.234   1.891   8.742  0.1347  0.2929  0.5052
 2055SOL     OW17623   4.329   2.314   5.695  0.1100  0.0111  0.0879
 2055SOL    HW117624   4.334   2.220   5.679  4.1387  0.2899 -0.1348
 2055SOL    HW217625   4.255   2.311   5.756  0.6607 -2.9755  0.6283
 2056SOL     OW17626   1.753   1.354   2.709  0.2888 -0.1051  0.1221
 2056SOL    HW117627   1.734   1.430   2.764  1.2127 -0.6179  1.1744
 2056SOL    HW217628   1.810   1.302   2.766 -0.8767 -0.1951  1.2149
 2057SOL     OW17629   0.391   4.188   7.036 -0.2878  0.4147  0.2365
 2057SOL    HW117630   0.325   4.242   6.994  0.6367  2.8182  1.8861
 2057SOL    HW217631   0.406   4.253   7.105  0.7469  2.0323 -1.5132
 2058SOL     OW17632   0.795   0.690   1.156 -0.6407 -0.2452  0.0582
 2058SOL    HW117633   0.830   0.772   1.190 -0.5537 -0.3687  0.2622
 2058SOL    HW217634   0.708   0.706   1.193 -1.2471 -0.3088 -1.2989
 2059SOL     OW17635   1.885   0.994   6.716 -0.1428 -0.5813 -0.4767
 2059SOL    HW117636   1.918   0.918   6.763 -0.7313  1.2557  2.8852
 2059SOL    HW217637   1.816   1.008   6.781  0.6784  3.4330 -0.4175
 2060SOL     OW17638   2.615   3.956  11.326 -0.0293 -0.2443 -0.1724
 2060SOL    HW117639   2.533   3.985  11.285 -0.3914  0.6792  1.1976
 2060SOL    HW217640   2.666   4.037  11.335  1.5498 -1.3021  0.4112
 2061SOL     OW17641   4.380   2.093  11.312  0.1614  0.5130  0.0856
 2061SOL    HW117642   4.427   2.029  11.366  0.8723  0.9070 -0.0731
 2061SOL    HW217643   4.428   2.104  11.230  0.6693 -1.5646  0.1048
 2062SOL     OW17644   4.225   1.437   1.395  0.0318  0.2576 -0.0252
 2062SOL    HW117645   4.254   1.397   1.313 -1.0057  1.5403 -1.0183
 2062SOL    HW217646   4.135   1.405   1.402 -0.2301  0.2380 -3.5469
 2063SOL     OW17647   4.259   0.079   6.435 -0.3006  0.1736  0.3283
 2063SOL    HW117648   4.220   4.716   6.448 -0.8753  0.5193  0.8671
 2063SOL    HW217649   4.218   0.127   6.506  1.1930  0.6597  0.8610
 2064SOL     OW17650   3.708   2.079   2.759 -0.0096  0.0873  0.3679
 2064SOL    HW117651   3.721   2.069   2.665  0.4534  0.2104  0.4196
 2064SOL    HW217652   3.729   1.990   2.785  2.7261  0.4230 -0.6997
 2065SOL     OW17653   3.168   0.908   3.246  0.3874 -0.0150  0.1744
 2065SOL    HW117654   3.204   0.928   3.332  0.3042 -2.6869  0.8368
 2065SOL    HW217655   3.076   0.906   3.271  0.6862 -0.1226  1.2893
 2066SOL     OW17656   3.909   0.660  11.956 -0.2636  0.1270  0.1845
 2066SOL    HW117657   3.955   0.714  11.891  0.6141  1.4069  1.8775
 2066SOL    HW217658   3.837   0.619  11.908  1.3236 -1.4862 -0.8144
 2067SOL     OW17659   1.281   2.597   3.132  0.2791 -0.5052  0.0962
 2067SOL    HW117660   1.228   2.541   3.076 -0.5276  1.0915 -0.7528
 2067SOL    HW217661   1.220   2.621   3.201  0.2371  0.2860 -0.2144
 2068SOL     OW17662   2.581   3.600   6.999 -0.1609  0.3240 -0.0027
 2068SOL    HW117663   2.519   3.670   7.022 -0.5485 -0.1560  0.4182
 2068SOL    HW217664   2.657   3.651   6.971 -0.2650 -0.4613 -1.7013
 2069SOL     OW17665   1.528   1.965   7.227 -0.3781  0.4928  0.5258
 2069SOL    HW117666   1.449   1.921   7.195  0.3649  1.0065 -2.0362
 2069SOL    HW217667   1.487   2.051   7.231 -1.2303  0.1672 -1.0701
 2070SOL     OW17668   0.761   3.464   8.372  0.6496  0.2153  0.3569
 2070SOL    HW117669   0.781   3.540   8.427  2.8121 -2.1185  2.7447
 2070SOL    HW217670   0.726   3.407   8.440 -1.5506  0.9293 -0.1642
 2071SOL     OW17671   3.833   1.711   1.308  0.1498 -0.2913  0.1933
 2071SOL    HW117672   3.828   1.618   1.330  0.3144 -0.3521 -0.0286
 2071SOL    HW217673   3.867   1.748   1.390  0.5161  0.6864 -0.4019
 2072SOL     OW17674   1.222   0.854   8.013 -0.0390  0.3746 -0.1566
 2072SOL    HW117675   1.251   0.941   8.042 -0.1623  0.3169  0.1322
 2072SOL    HW217676   1.210   0.808   8.096  0.8866  0.4483  0.0194
 2073SOL     OW17677   2.513   1.794  13.449 -0.4874 -0.6140 -0.5215
 2073SOL    HW117678   2.454   1.775  13.522 -1.1525 -0.6704 -1.0729
 2073SOL    HW217679   2.596   1.770  13.491 -0.7105 -0.8233 -0.2010
 2074SOL     OW17680   3.312   3.551   0.231  0.4000  0.4033  0.3212
 2074SOL    HW117681   3.334   3.521   0.319 -0.1848 -1.0040 -0.0128
 2074SOL    HW217682   3.218   3.535   0.225  0.1269  1.1421  3.0918
 2075SOL     OW17683   1.588   4.061   6.069 -0.3023  0.2283 -0.3545
 2075SOL    HW117684   1.610   4.142   6.115  0.7974 -0.3543  0.1568
 2075SOL    HW217685   1.614   4.084   5.980 -1.3781  2.7722 -0.0076
 2076SOL     OW17686   1.533   2.308   3.977  0.2570  0.4312  0.0366
 2076SOL    HW117687   1.623   2.332   3.954 -1.0428  0.2497 -5.0797
 2076SOL    HW217688   1.496   2.268   3.898 -1.6098  2.7352 -0.2166
 2077SOL     OW17689   4.509   0.770   2.407  0.0534  0.4619 -0.4121
 2077SOL    HW117690   4.582   0.818   2.445 -1.3563  2.3951 -0.1767
 2077SOL    HW217691   4.454   0.769   2.485  0.4083  0.4026 -0.1585
 2078SOL     OW17692   1.781   1.217   2.101 -0.0359 -0.5945 -0.2117
 2078SOL    HW117693   1.781   1.130   2.062 -1.3721 -1.0434  0.7793
 2078SOL    HW217694   1.853   1.224   2.164  1.2781 -0.4337 -1.7560
 2079SOL     OW17695   1.805   1.778   1.923  0.1748 -0.2991 -0.1067
 2079SOL    HW117696   1.799   1.793   1.828 -1.6302 -1.8894 -0.2464
 2079SOL    HW217697   1.807   1.682   1.927 -1.5042 -0.3130  0.1969
 2080SOL     OW17698   2.189   2.660   9.369 -0.4473 -0.4552 -0.3340
 2080SOL    HW117699   2.155   2.627   9.286 -1.3031 -0.7195  0.1208
 2080SOL    HW217700   2.220   2.745   9.339  1.1827 -0.2626  1.8617
 2081SOL     OW17701   2.835   2.748   1.402 -0.4024 -0.6004  0.2241
 2081SOL    HW117702   2.747   2.711   1.401  0.2513 -2.0910 -3.0327
 2081SOL    HW217703   2.840   2.775   1.311  1.4506 -1.4704  0.0613
 2082SOL     OW17704   0.636   3.206   4.100  0.2642 -0.3216 -0.5221
 2082SOL    HW117705   0.602   3.224   4.013 -0.5307 -2.1956 -0.6068
 2082SOL    HW217706   0.711   3.153   4.073  2.3930  4.1667 -3.3904
 2083SOL     OW17707   4.148   0.794  12.660 -0.0053 -0.4659 -0.1720
 2083SOL    HW117708   4.124   0.883  12.687 -1.4471 -0.5345 -1.2449
 2083SOL    HW217709   4.231   0.814  12.616 -0.4723  1.7401 -0.0792
 2084SOL     OW17710   0.723   1.798   9.199 -0.1550 -0.2673 -0.4313
 2084SOL    HW117711   0.753   1.817   9.110 -0.4716  2.4522  0.0616
 2084SOL    HW217712   0.634   1.769   9.179 -0.0344 -1.4026  0.6948
 2085SOL     OW17713   3.775   3.801  14.459  0.1337  0.4355  0.0945
 2085SOL    HW117714   3.763   3.871  14.395  2.2229 -0.3746 -1.1735
 2085SOL    HW217715   3.791   3.722  14.407  0.8199  0.8263 -0.2847
 2086SOL     OW17716   2.104   3.783   2.049 -0.1751  0.1267 -0.4620
 2086SOL    HW117717   2.022   3.761   2.003 -0.8946 -3.0356  2.3819
 2086SOL    HW217718   2.142   3.848   1.990  1.6360 -0.4251  0.1102
 2087SOL     OW17719   0.409   2.108   7.769 -0.3911 -0.6786  0.5002
 2087SOL    HW117720   0.463   2.087   7.692  0.8419  2.7861  0.4177
 2087SOL    HW217721   0.486   2.108   7.827  0.5892  1.7854 -0.8237
 2088SOL     OW17722   2.279   3.993  15.412 -0.1905 -0.9174 -0.4342
 2088SOL    HW117723   2.364   4.032  15.393 -1.9510  1.8956 -2.4250
 2088SOL    HW217724   2.310   3.933  15.480 -3.4531 -1.0970  0.8987
 2089SOL     OW17725   3.050   3.268   4.674 -0.1162 -0.0523  1.2966
 2089SOL    HW117726   3.019   3.181   4.698 -1.8729  0.2329  0.0617
 2089SOL    HW217727   3.116   3.286   4.740  1.1956  3.8833 -1.0832
 2090SOL     OW17728   2.659   1.365  17.585 -0.0018 -0.3191  0.6057
 2090SOL    HW117729   2.577   1.406  17.611  0.2593 -0.1030  1.0870
 2090SOL    HW217730   2.726   1.398  17.645  0.9609  1.6328 -1.5530
 2091SOL     OW17731   2.997   3.519  12.488  0.5316 -0.0309 -0.0696
 2091SOL    HW117732   2.922   3.534  12.546 -2.3408 -3.5205 -2.9085
 2091SOL    HW217733   2.977   3.436  12.445  0.6135  0.2943 -0.7248
 2092SOL     OW17734   1.399   2.223   7.281 -0.4319  0.4441 -0.4603
 2092SOL    HW117735   1.369   2.182   7.362  0.9543  0.4716  0.0752
 2092SOL    HW217736   1.347   2.178   7.214 -0.1134 -1.4874  0.5991
 2093SOL     OW17737   4.633   2.585  17.177  0.3263  0.1527 -0.3903
 2093SOL    HW117738   4.583   2.656  17.136 -2.3780 -0.0687  2.5677
 2093SOL    HW217739   4.638   2.611  17.269 -1.2567 -0.3243 -0.1628
 2094SOL     OW17740   3.351   1.707   7.621 -0.0449  0.1027  0.1342
 2094SOL    HW117741   3.411   1.691   7.548 -0.5577  2.0604 -0.7283
 2094SOL    HW217742   3.264   1.713   7.582 -0.6718 -0.9723  1.3919
 2095SOL     OW17743   2.070   2.056  13.256  0.1929  0.0803  0.3347
 2095SOL    HW117744   2.108   2.131  13.210 -1.7597  0.7708 -0.1423
 2095SOL    HW217745   2.053   2.094  13.342  1.4806  0.8194  0.2631
 2096SOL     OW17746   1.834   3.701  11.230  0.4511 -0.0510 -0.2258
 2096SOL    HW117747   1.762   3.693  11.293 -1.7036  2.4365 -2.3771
 2096SOL    HW217748   1.861   3.609  11.230 -1.8988 -0.7401  1.8376
 2097SOL     OW17749   3.647   0.692  12.491 -0.4045  0.2821 -0.4396
 2097SOL    HW117750   3.651   0.787  12.501  1.8736  0.2178 -0.7062
 2097SOL    HW217751   3.732   0.676  12.449 -0.0390  1.5893 -0.2116
 2098SOL     OW17752   1.693   0.389   0.144 -0.6096  0.4568  0.3499
 2098SOL    HW117753   1.619   0.330   0.127 -0.1370 -0.3157  0.9603
 2098SOL    HW217754   1.657   0.436   0.219  0.1641 -2.0942  2.3247
 2099SOL     OW17755   0.246   0.215   7.308 -0.4746  0.3241 -0.2681
 2099SOL    HW117756   0.226   0.151   7.377  0.9197  0.5234  0.3029
 2099SOL    HW217757   0.200   0.291   7.345  0.4605  0.8636 -0.2411
 2100SOL     OW17758   3.939   1.457  15.066 -0.0922 -0.0728  0.0226
 2100SOL    HW117759   3.991   1.399  15.121  1.3539  0.2675 -0.9977
 2100SOL    HW217760   3.998   1.492  15.000 -2.4519  1.0576 -1.4751
 2101SOL     OW17761   1.998   2.979   1.540  0.2203  0.2771  0.5663
 2101SOL    HW117762   1.904   2.979   1.522  0.3746 -1.5465 -0.2488
 2101SOL    HW217763   2.009   2.916   1.610 -2.1686 -1.2189 -0.4020
 2102SOL     OW17764   2.961   2.899   5.516  0.4423  0.1252  0.5045
 2102SOL    HW117765   2.987   2.942   5.434 -2.8978 -0.3396 -0.8203
 2102SOL    HW217766   2.935   2.972   5.572  2.3293  0.7619  0.5395
 2103SOL     OW17767   4.261   0.736  15.892  0.2829  0.0407 -0.1946
 2103SOL    HW117768   4.298   0.812  15.937  0.8597  0.0360 -0.6638
 2103SOL    HW217769   4.180   0.733  15.943  0.7554 -0.1873  0.5315
 2104SOL     OW17770   2.589   3.908   6.458 -0.2280 -0.3216  0.1372
 2104SOL    HW117771   2.518   3.888   6.397 -0.7939  1.9172  0.0366
 2104SOL    HW217772   2.646   3.956   6.397  0.4802 -1.1880  0.1094
 2105SOL     OW17773   0.159   4.265   1.940  0.0869  0.6105  0.0288
 2105SOL    HW117774   0.163   4.323   1.864  3.1481 -0.9509 -0.9975
 2105SOL    HW217775   0.221   4.202   1.903 -1.5984  0.4186 -2.5593
 2106SOL     OW17776   1.434   2.827   7.492  0.2724 -0.0698 -0.2969
 2106SOL    HW117777   1.453   2.906   7.542 -1.2412  1.8013 -2.7316
 2106SOL    HW217778   1.451   2.752   7.549 -2.6390 -0.6490 -0.2093
 2107SOL     OW17779   0.003   1.466  10.847  0.1243 -0.5886 -0.0882
 2107SOL    HW117780   4.660   1.485  10.914  2.2104  1.1303  1.5071
 2107SOL    HW217781   0.046   1.397  10.897 -0.2473 -0.0434  0.9787
 2108SOL     OW17782   0.971   1.407  17.129 -0.0266 -0.1887 -0.2767
 2108SOL    HW117783   0.882   1.425  17.159  0.8708 -0.5157  2.5474
 2108SOL    HW217784   1.023   1.473  17.175 -1.0029 -1.2801  2.4036
 2109SOL     OW17785   1.891   1.665   6.586  0.1529 -0.1377  0.1725
 2109SOL    HW117786   1.865   1.641   6.675  3.1534  0.4084  1.2249
 2109SOL    HW217787   1.836   1.615   6.526  0.8302 -1.6198  0.7777
 2110SOL     OW17788   1.956   1.465   5.825 -0.1889  0.2625  0.5915
 2110SOL    HW117789   2.016   1.506   5.887 -1.2284  0.9997  1.0994
 2110SOL    HW217790   2.003   1.382   5.834  0.1342  0.2341 -1.3282
 2111SOL     OW17791   3.405   3.835  16.078 -0.1961 -0.4571 -0.4696
 2111SOL    HW117792   3.499   3.823  16.090 -0.1387 -0.3437 -0.8052
 2111SOL    HW217793   3.400   3.926  16.106  2.6665  0.1917 -2.1000
 2112SOL     OW17794   1.914   4.324   7.480 -0.0922  0.6356  0.2547
 2112SOL    HW117795   1.850   4.307   7.411  1.4923 -0.7379 -0.8837
 2112SOL    HW217796   1.856   4.333   7.556 -0.7677 -0.8878 -0.0829
 2113SOL     OW17797   2.437   4.546   7.788  0.1270 -0.5436 -0.0474
 2113SOL    HW117798   2.389   4.624   7.813  0.5483  0.2412 -1.6844
 2113SOL    HW217799   2.522   4.571   7.825  0.6114  0.6870 -1.9969
 2114SOL     OW17800   1.019   3.093   8.117 -0.0146 -0.0350  0.1917
 2114SOL    HW117801   0.994   3.183   8.137 -2.7401 -1.1835  1.9100
 2114SOL    HW217802   0.974   3.038   8.181  2.0243 -1.6076  0.2927
 2115SOL     OW17803   1.813   4.256   8.820 -0.3943 -0.3716  0.3022
 2115SOL    HW117804   1.832   4.200   8.745 -1.4563 -0.3762  0.0390
 2115SOL    HW217805   1.839   4.196   8.890  1.5285  0.9945  0.7723
 2116SOL     OW17806   0.161   0.401   7.667 -0.3523  0.3688 -0.5016
 2116SOL    HW117807   0.143   0.358   7.584 -1.9721  0.8753 -0.4222
 2116SOL    HW217808   0.102   0.359   7.731  0.1090  0.4629 -0.0133
 2117SOL     OW17809   3.403   0.451   5.166 -0.1126 -0.6213 -0.1901
 2117SOL    HW117810   3.488   0.438   5.207 -0.3739  0.8579  0.8380
 2117SOL    HW217811   3.401   0.547   5.171 -0.5009 -0.7475  2.1676
 2118SOL     OW17812   3.611   1.933   3.947  0.1479 -0.6488 -0.0568
 2118SOL    HW117813   3.538   1.871   3.956 -0.8783  0.6185  0.2394
 2118SOL    HW217814   3.680   1.871   3.922 -0.6721 -2.4031  2.0287
 2119SOL     OW17815   0.814   4.084   5.578  0.1351 -0.0697 -0.1528
 2119SOL    HW117816   0.908   4.070   5.584 -0.1415 -1.8405  0.0296
 2119SOL    HW217817   0.791   3.991   5.569 -2.1197  0.4800 -0.0279
 2120SOL     OW17818   0.687   2.060  15.576 -0.3564  0.2136 -0.6926
 2120SOL    HW117819   0.654   2.142  15.613  1.8571  0.7855 -0.0222
 2120SOL    HW217820   0.776   2.051  15.610 -0.1801 -0.4514 -1.3211
 2121SOL     OW17821   4.219   0.190   1.162 -0.1231 -0.2257 -0.0466
 2121SOL    HW117822   4.151   0.187   1.095 -0.7388 -0.5354  0.5898
 2121SOL    HW217823   4.226   0.284   1.181  0.3116 -0.2793  0.0751
 2122SOL     OW17824   1.080   3.103   6.034 -0.1247  0.3169 -0.0823
 2122SOL    HW117825   1.141   3.171   6.063  0.6593 -0.3618 -0.1546
 2122SOL    HW217826   1.124   3.054   5.966 -0.1416 -0.9301  0.8038
 2123SOL     OW17827   4.335   2.922   2.424 -0.1198 -0.0770 -0.0915
 2123SOL    HW117828   4.252   2.933   2.377 -1.4625  0.6650  2.4054
 2123SOL    HW217829   4.398   2.983   2.386 -0.0861  0.2095  0.4261
 2124SOL     OW17830   0.837   2.044   6.741 -0.5577  0.2944  0.2974
 2124SOL    HW117831   0.829   1.954   6.710 -1.2136  1.2646 -2.2993
 2124SOL    HW217832   0.879   2.034   6.827  1.4434 -1.2588 -0.8602
 2125SOL     OW17833   4.652   2.559  10.930 -0.1030 -0.4205  0.5119
 2125SOL    HW117834   4.592   2.619  10.885 -0.2330  0.2474  1.5840
 2125SOL    HW217835   4.618   2.577  11.018  2.6617  0.3750  1.4152
 2126SOL     OW17836   2.597   0.651  14.578 -0.6042 -0.3014 -0.2839
 2126SOL    HW117837   2.531   0.702  14.530  1.5649  2.2243 -0.6125
 2126SOL    HW217838   2.677   0.679  14.533 -1.2169 -0.8469 -1.7183
 2127SOL     OW17839   3.184   1.460  13.174 -0.3213  0.8062  0.0868
 2127SOL    HW117840   3.246   1.491  13.239 -0.1096  0.8041 -0.1152
 2127SOL    HW217841   3.220   1.502  13.096 -2.0443  1.2719 -0.4583
 2128SOL     OW17842   4.676   0.815   7.689  0.5069 -0.0110 -0.3711
 2128SOL    HW117843   4.590   0.854   7.680 -0.6428 -2.3095  0.6650
 2128SOL    HW217844   4.721   0.883   7.739  0.4633 -0.1724 -0.1146
 2129SOL     OW17845   3.086   2.195   3.046  0.0469  0.1147 -0.0661
 2129SOL    HW117846   3.123   2.283   3.049  0.2698  0.0428 -0.7436
 2129SOL    HW217847   2.993   2.214   3.039  0.1658  0.9538  0.6205
 2130SOL     OW17848   0.894   1.410   5.527 -0.1661 -0.6461 -0.4719
 2130SOL    HW117849   0.903   1.315   5.524  0.3714 -0.5934 -0.6969
 2130SOL    HW217850   0.979   1.441   5.559 -0.3997  0.4107 -0.8827
 2131SOL     OW17851   2.157   4.413  12.253 -0.4041  0.2836  0.0424
 2131SOL    HW117852   2.196   4.332  12.220  0.9581  2.5830 -4.1515
 2131SOL    HW217853   2.230   4.472  12.230  0.9687 -1.0625  0.9740
 2132SOL     OW17854   4.662   1.766   4.686  0.0082  0.1648  0.3048
 2132SOL    HW117855   4.597   1.815   4.737 -1.6040 -1.0180 -0.6212
 2132SOL    HW217856   4.680   1.693   4.745  0.4148  1.0924  1.3291
 2133SOL     OW17857   2.687   2.006   5.217  0.9744 -0.2780  0.8049
 2133SOL    HW117858   2.776   2.036   5.199  0.7635  0.0283  0.2736
 2133SOL    HW217859   2.697   1.911   5.212  0.5473 -0.3093  0.4923
 2134SOL     OW17860   4.565   1.750  10.236  0.1491 -0.3874 -0.1060
 2134SOL    HW117861   4.632   1.746  10.305 -0.7596 -0.6856  0.7575
 2134SOL    HW217862   4.493   1.781  10.290  0.5973 -0.5761  0.5977
 2135SOL     OW17863   4.305   4.428   4.842  0.3408  0.2608  0.3755
 2135SOL    HW117864   4.308   4.435   4.746 -0.1795  0.6499  0.3842
 2135SOL    HW217865   4.229   4.369   4.847  0.5328  0.3730  4.4374
 2136SOL     OW17866   2.875   3.442   9.439 -0.2898  0.0055  0.5996
 2136SOL    HW117867   2.847   3.386   9.367 -1.7561 -0.9814  1.9602
 2136SOL    HW217868   2.874   3.384   9.515  1.1368 -1.2241 -0.3234
 2137SOL     OW17869   2.079   4.661   4.925 -0.1584  0.4574  0.0802
 2137SOL    HW117870   2.030   4.658   4.843  0.0489  1.0784 -0.0623
 2137SOL    HW217871   2.021   4.635   4.996  2.1871 -2.4702  0.9524
 2138SOL     OW17872   3.007   0.986  11.659 -0.1257  0.5264 -0.3600
 2138SOL    HW117873   2.979   1.070  11.625 -1.9617 -0.0048 -0.1563
 2138SOL    HW217874   3.053   0.952  11.582  1.8864 -0.4910  1.2825
 2139SOL     OW17875   1.209   4.124   3.462 -0.1195 -0.4559  0.1196
 2139SOL    HW117876   1.161   4.135   3.379 -4.0342 -0.8375  2.3188
 2139SOL    HW217877   1.296   4.095   3.434 -0.0174  0.4269 -0.4814
 2140SOL     OW17878   1.684   2.507   1.253 -0.0742 -0.2340  0.0991
 2140SOL    HW117879   1.617   2.543   1.311  0.3971  0.0755  0.4558
 2140SOL    HW217880   1.756   2.552   1.298  0.4187 -1.0714  0.1438
 2141SOL     OW17881   1.328   2.900   6.224  0.0008  0.3235  0.1887
 2141SOL    HW117882   1.258   2.866   6.169  0.0575 -1.0492  0.9827
 2141SOL    HW217883   1.335   2.819   6.273  2.9108 -0.1453 -0.9700
 2142SOL     OW17884   1.562   3.568  15.654  0.5908  0.3989  0.1958
 2142SOL    HW117885   1.596   3.607  15.735 -0.9463  3.3234 -0.5647
 2142SOL    HW217886   1.626   3.499  15.640 -0.8224 -1.1017  1.1820
 2143SOL     OW17887   0.218   2.850   3.272 -0.2818 -0.0751  0.2404
 2143SOL    HW117888   0.149   2.784   3.262  1.0038 -1.4494  0.5500
 2143SOL    HW217889   0.191   2.908   3.200 -0.2971  0.4128  0.6332
 2144SOL     OW17890   3.921   1.027   6.308  0.0451  0.2708  0.4831
 2144SOL    HW117891   3.848   1.001   6.252  1.3885  0.3573 -1.3221
 2144SOL    HW217892   3.887   1.018   6.397 -2.4156  1.1910 -0.3635
 2145SOL     OW17893   3.406   3.247   1.873  0.4634 -0.2871 -0.5144
 2145SOL    HW117894   3.385   3.229   1.964 -0.4197  0.6758 -0.5281
 2145SOL    HW217895   3.465   3.322   1.866 -2.9588  2.2751 -2.1381
 2146SOL     OW17896   2.756   2.243   8.625  0.0502 -0.4119 -0.5755
 2146SOL    HW117897   2.785   2.164   8.670 -0.7781  0.7911  2.0721
 2146SOL    HW217898   2.838   2.292   8.622 -1.2641  1.9434  2.8173
 2147SOL     OW17899   1.680   4.006   3.835 -0.0815 -0.1523 -0.8844
 2147SOL    HW117900   1.752   4.065   3.855 -1.4652  0.8299  1.1910
 2147SOL    HW217901   1.719   3.963   3.758  2.4589 -0.0028  0.3341
 2148SOL     OW17902   1.379   1.726   7.144 -0.0254 -0.1126  0.6846
 2148SOL    HW117903   1.287   1.703   7.137  0.1908 -0.9829  0.7413
 2148SOL    HW217904   1.411   1.655   7.199 -2.7197 -1.8915 -0.0851
 2149SOL     OW17905   0.912   2.891   8.273 -0.3202  0.6072  0.4158
 2149SOL    HW117906   0.862   2.913   8.352 -1.2145 -1.1243  0.3368
 2149SOL    HW217907   0.889   2.798   8.271  0.0572  0.4937  1.4638
 2150SOL     OW17908   3.717   4.306  15.543 -0.2837  0.1401 -0.1070
 2150SOL    HW117909   3.811   4.286  15.541 -0.2698  0.2693 -1.0388
 2150SOL    HW217910   3.677   4.232  15.588 -0.3198  0.1511 -0.1215
 2151SOL     OW17911   0.244   4.482   6.661 -0.1242  1.0872  0.5131
 2151SOL    HW117912   0.157   4.484   6.621 -0.0008  0.7109  0.2316
 2151SOL    HW217913   0.290   4.494   6.578  0.2434 -1.7109  0.3194
 2152SOL     OW17914   1.596   0.146   8.511 -0.2152  0.3133  0.4867
 2152SOL    HW117915   1.566   0.222   8.561 -1.1516  0.3921 -0.1820
 2152SOL    HW217916   1.672   0.105   8.553 -0.5133 -0.3644  0.3609
 2153SOL     OW17917   2.718   0.457  12.675  0.6618  0.1635  0.2003
 2153SOL    HW117918   2.786   0.391  12.662  0.7654  0.2888  0.1025
 2153SOL    HW217919   2.665   0.421  12.746 -1.2720  0.0889 -1.2780
 2154SOL     OW17920   0.596   2.393   5.995  0.2084  0.1685  0.2425
 2154SOL    HW117921   0.568   2.344   5.918  2.0809  0.6265 -0.7246
 2154SOL    HW217922   0.631   2.475   5.960 -0.0399  0.2694  0.2287
 2155SOL     OW17923   4.413   0.474   2.428  0.3260  0.2696  0.4463
 2155SOL    HW117924   4.463   0.436   2.356  1.7911  0.3505  1.4238
 2155SOL    HW217925   4.488   0.499   2.482 -0.7884  0.9113  1.7037
 2156SOL     OW17926   3.471   2.238   4.407  0.0035  0.5536 -0.9731
 2156SOL    HW117927   3.482   2.154   4.363  2.3256 -0.6715  1.9695
 2156SOL    HW217928   3.555   2.277   4.382 -0.3371  1.8595 -0.0424
 2157SOL     OW17929   3.201   0.140   7.156  0.2548  0.0949  0.4239
 2157SOL    HW117930   3.151   0.215   7.189 -0.2258 -0.3673  0.7389
 2157SOL    HW217931   3.293   0.155   7.177  0.1185  0.1468  0.9697
 2158SOL     OW17932   0.345   3.198  11.551 -0.0857  0.9421 -0.4587
 2158SOL    HW117933   0.400   3.247  11.490 -1.8857  2.0595 -1.1691
 2158SOL    HW217934   0.270   3.256  11.560  0.0435  1.0846 -0.2966
 2159SOL     OW17935   2.209   3.074   3.546  0.1798  0.1196  0.1659
 2159SOL    HW117936   2.151   3.067   3.621 -1.7314 -1.0869 -1.4144
 2159SOL    HW217937   2.159   3.041   3.471 -0.3221  1.3877 -0.0615
 2160SOL     OW17938   4.229   3.956  11.817  0.9263 -0.4264 -0.1568
 2160SOL    HW117939   4.245   3.871  11.858  3.0782  0.3461  0.6289
 2160SOL    HW217940   4.171   3.926  11.747  0.5003 -0.3608  0.1713
 2161SOL     OW17941   0.898   4.023  10.883 -0.7903 -0.4880 -0.6844
 2161SOL    HW117942   0.987   4.040  10.913 -0.0074 -5.1983 -0.3571
 2161SOL    HW217943   0.859   4.109  10.896 -0.2761 -0.7080  2.3175
 2162SOL     OW17944   1.179   0.862   7.438 -0.1001 -0.4259 -0.1460
 2162SOL    HW117945   1.164   0.838   7.529 -1.5408  1.5142  0.1277
 2162SOL    HW217946   1.232   0.941   7.449 -1.7759  0.7795 -0.8150
 2163SOL     OW17947   0.462   3.918   0.744  0.6934 -0.5334  0.0291
 2163SOL    HW117948   0.499   3.984   0.685 -1.7198  1.0240  0.2653
 2163SOL    HW217949   0.519   3.919   0.821 -0.7413 -0.9449  1.1019
 2164SOL     OW17950   4.458   0.543   4.599 -0.3347 -0.5538 -0.3084
 2164SOL    HW117951   4.388   0.487   4.565 -0.9902 -0.6228  1.1774
 2164SOL    HW217952   4.511   0.559   4.521 -0.8459  2.0225 -0.1317
 2165SOL     OW17953   1.882   2.275   3.311  0.4718  0.1554 -0.3785
 2165SOL    HW117954   1.869   2.231   3.395  1.1985  2.1168  0.7546
 2165SOL    HW217955   1.806   2.333   3.321 -0.1307 -0.6654 -0.1845
 2166SOL     OW17956   1.490   4.003   5.278 -0.0747  0.2150  0.2263
 2166SOL    HW117957   1.454   4.000   5.189  2.0162 -0.8683 -0.5995
 2166SOL    HW217958   1.575   4.045   5.266  0.1651 -0.0989  0.8086
 2167SOL     OW17959   0.988   3.148   4.159  0.1484  0.3953  0.2696
 2167SOL    HW117960   1.069   3.171   4.204  1.0156  0.2997 -1.2443
 2167SOL    HW217961   1.007   3.187   4.074  1.5901 -2.4938 -0.7381
 2168SOL     OW17962   1.163   0.581   7.421  0.1470  0.0628  0.0591
 2168SOL    HW117963   1.069   0.598   7.426  0.1115 -0.3832  0.9764
 2168SOL    HW217964   1.200   0.668   7.406  1.5895 -0.6346 -0.4087
 2169SOL     OW17965   3.349   1.849   2.871 -0.2607 -0.3966  0.0117
 2169SOL    HW117966   3.371   1.911   2.802  1.9531  1.3193  2.2196
 2169SOL    HW217967   3.325   1.905   2.945 -2.8412  0.4623 -1.4681
 2170SOL     OW17968   4.019   1.798   9.562 -0.0861 -0.1119  0.3938
 2170SOL    HW117969   4.099   1.807   9.614 -1.0453  0.7466  1.7092
 2170SOL    HW217970   3.971   1.872   9.599 -0.0009  0.1353  0.0106
 2171SOL     OW17971   1.966   3.439   0.935  0.2309  0.0076  0.3576
 2171SOL    HW117972   1.969   3.465   0.843 -1.3208  3.4536  1.2644
 2171SOL    HW217973   2.053   3.456   0.970  0.0719 -0.6451  1.0733
 2172SOL     OW17974   1.535   3.643   2.062 -0.7287 -0.1249 -0.3812
 2172SOL    HW117975   1.586   3.562   2.063  0.0605  0.3595 -0.8005
 2172SOL    HW217976   1.453   3.602   2.089 -1.4934  1.9704  0.4465
 2173SOL     OW17977   4.613   2.855  16.690 -0.5239 -0.3248  0.3156
 2173SOL    HW117978   4.662   2.778  16.720  0.7161  0.8936  1.3972
 2173SOL    HW217979   4.641   2.848  16.599  1.5772  1.2356  0.8518
 2174SOL     OW17980   2.938   3.292   7.984  0.1812  0.3032 -0.4812
 2174SOL    HW117981   2.977   3.220   8.032  0.3490  0.7616  0.0622
 2174SOL    HW217982   2.969   3.274   7.895  0.6427  2.7978 -0.8108
 2175SOL     OW17983   2.442   2.778   7.893 -0.4191 -0.4653 -0.0080
 2175SOL    HW117984   2.462   2.840   7.964  1.4595 -0.7000 -0.3375
 2175SOL    HW217985   2.531   2.765   7.861 -1.2570 -3.0450 -1.2482
 2176SOL     OW17986   2.073   3.451   1.338  0.6716 -1.4201  0.2822
 2176SOL    HW117987   2.154   3.410   1.368  2.6064 -0.3890 -3.4125
 2176SOL    HW217988   2.042   3.508   1.408  2.3692 -0.4132  0.2350
 2177SOL     OW17989   2.243   0.273  16.444  0.0139 -0.0032  0.5004
 2177SOL    HW117990   2.180   0.304  16.379  0.2415  2.4299  1.4562
 2177SOL    HW217991   2.248   0.344  16.507  0.0187 -1.4020  2.0897
 2178SOL     OW17992   3.189   2.124   3.927 -0.2709 -0.6283  0.4194
 2178SOL    HW117993   3.187   2.062   4.000  0.6993 -1.5946 -0.3818
 2178SOL    HW217994   3.106   2.170   3.936  1.0383  1.9924 -0.8813
 2179SOL     OW17995   3.603   0.016   4.639 -0.3347 -0.0005 -0.7747
 2179SOL    HW117996   3.609   0.012   4.544 -1.3307 -0.7927 -0.8086
 2179SOL    HW217997   3.530   0.079   4.642  0.0080  0.3536  0.1148
 2180SOL     OW17998   2.718   3.974   6.224 -0.5370 -0.1705 -0.1649
 2180SOL    HW117999   2.692   3.886   6.197 -1.4350 -0.2732  1.0481
 2180SOL    HW218000   2.812   3.975   6.207 -0.2761 -0.4256  1.2946
 2181SOL     OW18001   3.276   1.603   9.575  0.0458 -0.6857  0.0101
 2181SOL    HW118002   3.221   1.528   9.555 -0.0716 -0.7224  0.4627
 2181SOL    HW218003   3.330   1.573   9.648  1.3185 -1.2219 -1.1753
 2182SOL     OW18004   0.222   1.939  17.130  0.5631  0.3785 -0.4130
 2182SOL    HW118005   0.200   2.003  17.064 -2.5003  0.0441  0.2867
 2182SOL    HW218006   0.265   1.999  17.192 -1.2447  1.9296 -0.6763
 2183SOL     OW18007   0.920   2.522   5.208 -0.1029 -0.4251 -0.3211
 2183SOL    HW118008   0.975   2.455   5.167 -0.0133 -0.2405 -0.5010
 2183SOL    HW218009   0.836   2.496   5.170  0.4228 -0.3806 -1.5228
 2184SOL     OW18010   0.313   0.037   6.752  0.2768 -0.0054  0.0035
 2184SOL    HW118011   0.298   0.037   6.847  1.3495  0.3441  0.1742
 2184SOL    HW218012   0.289   4.672   6.722  1.2939 -0.5701  0.7942
 2185SOL     OW18013   2.210   2.489  10.980 -0.2414 -0.0125  0.6742
 2185SOL    HW118014   2.243   2.541  10.907  0.6184  0.6130  1.5018
 2185SOL    HW218015   2.227   2.405  10.936 -2.5810  0.4657 -1.1217
 2186SOL     OW18016   0.189   0.793   8.145 -0.2800  0.9787 -0.1486
 2186SOL    HW118017   0.167   0.715   8.094  0.4745  0.3520  0.4682
 2186SOL    HW218018   0.236   0.758   8.221  0.7211  0.0988 -1.1788
 2187SOL     OW18019   3.502   4.579   7.099 -0.2500  0.0993 -0.2830
 2187SOL    HW118020   3.560   4.518   7.054  0.8351 -0.0810  1.3763
 2187SOL    HW218021   3.445   4.523   7.153 -1.1660  0.1826 -1.1663
 2188SOL     OW18022   3.001   2.089   2.570  0.0824 -0.1895  0.3730
 2188SOL    HW118023   3.007   2.020   2.503 -1.6350  1.3880 -1.3938
 2188SOL    HW218024   2.948   2.053   2.641 -0.2858  0.4036  0.3988
 2189SOL     OW18025   0.048   1.664  12.067  0.3109  0.8593  0.1731
 2189SOL    HW118026   0.106   1.602  12.112 -2.8908 -1.3266  1.2903
 2189SOL    HW218027   0.081   1.748  12.098  1.8287  0.9673 -1.7646
 2190SOL     OW18028   2.743   1.127  17.495 -0.0135 -0.1771  0.2383
 2190SOL    HW118029   2.711   1.214  17.518  1.6391 -0.2257  2.7341
 2190SOL    HW218030   2.816   1.142  17.435 -0.1137 -0.2344  0.1026
 2191SOL     OW18031   4.455   0.134   5.571 -0.8772  0.1401 -0.4455
 2191SOL    HW118032   4.544   0.134   5.537 -0.9084 -5.1189 -0.5655
 2191SOL    HW218033   4.449   0.053   5.622 -0.0288  0.0769 -0.4559
 2192SOL     OW18034   1.040   3.071   7.847  0.4146  0.3724 -0.3372
 2192SOL    HW118035   1.000   3.088   7.932 -2.1729 -0.3632 -1.3903
 2192SOL    HW218036   1.070   3.154   7.810  1.4802  0.5821  0.9786
 2193SOL     OW18037   0.486   2.695   5.630  0.2634 -0.6252  0.6470
 2193SOL    HW118038   0.401   2.722   5.666  0.1288 -2.0705  1.4119
 2193SOL    HW218039   0.476   2.706   5.536 -0.3198  1.7195  0.9672
 2194SOL     OW18040   1.631   3.087  12.589  0.1123 -0.1030  0.0642
 2194SOL    HW118041   1.653   3.022  12.656 -1.4416  1.1736  1.8178
 2194SOL    HW218042   1.684   3.072  12.511 -0.2096 -0.5082 -0.0743
 2195SOL     OW18043   0.221   2.943   0.192  0.0280 -0.8550 -0.2607
 2195SOL    HW118044   0.126   2.945   0.205 -0.1247  1.3369 -1.8452
 2195SOL    HW218045   0.242   3.036   0.194  1.2933 -1.1068 -2.3726
 2196SOL     OW18046   0.964   0.643  13.338 -0.0982 -0.1815  0.0832
 2196SOL    HW118047   0.921   0.725  13.315  0.3295 -0.2120 -0.8079
 2196SOL    HW218048   0.896   0.582  13.366  0.7511 -0.0325  2.5030
 2197SOL     OW18049   3.277   3.576   9.445  0.5082 -0.3262 -0.2763
 2197SOL    HW118050   3.333   3.506   9.480  1.2619  0.8694  0.9260
 2197SOL    HW218051   3.241   3.598   9.531  0.2446  0.7976 -0.6760
 2198SOL     OW18052   4.632   2.075  11.940 -0.5578 -0.3811  0.0262
 2198SOL    HW118053   4.660   2.102  12.027 -1.2870  0.5241 -0.0301
 2198SOL    HW218054   4.541   2.105  11.937  0.1570  1.4713 -3.4619
 2199SOL     OW18055   3.090   0.560  15.059 -0.2452  0.3783 -0.4712
 2199SOL    HW118056   3.150   0.521  14.996 -0.1333  0.8876 -0.6858
 2199SOL    HW218057   3.138   0.579  15.139 -1.4297 -1.2913  0.6372
 2200SOL     OW18058   1.033   2.358   0.860 -0.3146  0.2024 -0.7708
 2200SOL    HW118059   1.070   2.430   0.809 -1.0139  1.3267  0.3436
 2200SOL    HW218060   1.088   2.287   0.825 -0.8216 -0.5311 -0.0762
 2201SOL     OW18061   3.805   3.303  16.025 -0.5136 -0.1754  0.0804
 2201SOL    HW118062   3.898   3.317  16.008 -0.6482  0.7952  0.1457
 2201SOL    HW218063   3.782   3.323  15.934 -1.0317 -1.1478 -0.0023
 2202SOL     OW18064   1.672   3.965   4.940 -0.5571 -0.5091 -0.2597
 2202SOL    HW118065   1.584   3.995   4.920  0.0319  0.5092 -1.3156
 2202SOL    HW218066   1.645   3.879   4.972  0.0112 -0.0796  1.3601
 2203SOL     OW18067   2.252   2.397   7.274  0.0873  0.2733 -0.2233
 2203SOL    HW118068   2.288   2.418   7.187 -1.6822  1.8226 -0.5700
 2203SOL    HW218069   2.159   2.381   7.258  0.0188  1.9473 -1.5720
 2204SOL     OW18070   3.078   2.780  16.507  0.5676 -0.4827  0.4397
 2204SOL    HW118071   3.055   2.757  16.598  2.5026 -1.9641  0.5418
 2204SOL    HW218072   3.153   2.834  16.529  0.7112  0.0524 -1.4451
 2205SOL     OW18073   3.265   0.652   3.245  0.3659  0.5733 -1.3775
 2205SOL    HW118074   3.325   0.661   3.171  1.2293 -2.0123 -0.9851
 2205SOL    HW218075   3.219   0.735   3.234 -0.7701 -0.0383 -1.2179
 2206SOL     OW18076   1.223   3.562  16.991 -0.3762  0.9802 -0.1567
 2206SOL    HW118077   1.174   3.595  17.066 -0.0133  2.7206 -0.6718
 2206SOL    HW218078   1.179   3.608  16.919  1.4218  0.7961 -1.3861
 2207SOL     OW18079   1.095   3.994  15.439 -0.4071  0.4556 -0.7235
 2207SOL    HW118080   1.098   3.954  15.526 -0.4301 -2.6072 -2.1079
 2207SOL    HW218081   1.077   3.917  15.384 -0.9866  0.2060 -0.1859
 2208SOL     OW18082   2.585   4.598   5.919 -0.4664  0.2062  0.5120
 2208SOL    HW118083   2.600   4.505   5.938  0.0472  0.4361  1.2622
 2208SOL    HW218084   2.606   4.613   5.827 -1.6716 -1.2190  0.0021
 2209SOL     OW18085   2.217   3.906   4.596 -0.4831 -0.3915 -0.5651
 2209SOL    HW118086   2.173   3.989   4.580  0.8003  0.9375  2.7987
 2209SOL    HW218087   2.276   3.935   4.666  1.4569  0.7099 -2.6595
 2210SOL     OW18088   2.184   2.086  15.877  0.5183 -0.7299 -0.1779
 2210SOL    HW118089   2.154   2.147  15.810  3.0571 -0.0308 -0.6840
 2210SOL    HW218090   2.096   2.082  15.913  1.1623  1.4898  1.6576
 2211SOL     OW18091   0.220   2.433   1.003 -0.0802  0.0898  0.0996
 2211SOL    HW118092   0.175   2.463   1.082  0.4864  0.0350  0.4427
 2211SOL    HW218093   0.299   2.486   1.009  0.8071 -1.1801 -0.2428
 2212SOL     OW18094   1.499   2.984   8.142  0.1390  0.1047  0.0956
 2212SOL    HW118095   1.420   2.992   8.089  0.3464  1.0346 -0.0852
 2212SOL    HW218096   1.522   3.077   8.144  1.3780 -0.1770 -0.8593
 2213SOL     OW18097   0.032   1.113   5.124 -0.5146  0.0711 -0.2560
 2213SOL    HW118098   0.110   1.071   5.158 -0.0671  2.4228  1.6437
 2213SOL    HW218099   4.697   1.042   5.098 -1.9685  1.9810 -2.3340
 2214SOL     OW18100   0.999   4.614   7.555  0.2360  0.3168  0.1054
 2214SOL    HW118101   0.997   4.621   7.650 -0.5410 -1.9432  0.2724
 2214SOL    HW218102   1.082   4.649   7.524 -0.4288  2.5531  0.8835
 2215SOL     OW18103   3.757   0.524   2.517 -0.6699  0.3452  0.5838
 2215SOL    HW118104   3.730   0.606   2.559  0.6383 -0.1650  2.3821
 2215SOL    HW218105   3.689   0.517   2.450 -1.4104 -0.6563  1.4480
 2216SOL     OW18106   1.432   4.562  13.885  0.4053  0.4188  0.1446
 2216SOL    HW118107   1.460   4.563  13.977  1.0044 -0.9969 -0.0190
 2216SOL    HW218108   1.417   4.470  13.865  1.6478  0.6139 -1.6363
 2217SOL     OW18109   1.736   0.613   2.609 -0.4064 -0.6537 -0.6514
 2217SOL    HW118110   1.765   0.639   2.522 -1.4293 -0.8575 -1.0631
 2217SOL    HW218111   1.641   0.628   2.607  0.0419  1.9652 -3.1934
 2218SOL     OW18112   0.523   4.092  10.831  0.0575  0.3475  0.1349
 2218SOL    HW118113   0.428   4.103  10.837  0.1007  1.2672 -1.0589
 2218SOL    HW218114   0.540   4.072  10.923  1.6063 -1.5834 -0.5688
 2219SOL     OW18115   1.738   2.815   6.498  0.2155  0.4488 -0.1637
 2219SOL    HW118116   1.775   2.855   6.577 -0.6888  3.2990 -1.1716
 2219SOL    HW218117   1.647   2.845   6.499 -0.1712 -0.7104 -0.5787
 2220SOL     OW18118   4.603   0.627   8.285 -0.0470  0.4535 -0.3062
 2220SOL    HW118119   4.549   0.557   8.246 -0.7744  1.6563 -1.4627
 2220SOL    HW218120   4.597   0.695   8.217 -1.5004  2.1851  1.5647
 2221SOL     OW18121   1.973   1.589   8.071 -0.5095 -0.2635  0.3502
 2221SOL    HW118122   1.932   1.507   8.046  0.1533 -0.6598  0.5559
 2221SOL    HW218123   2.028   1.570   8.147 -0.3178  1.4127  0.6419
 2222SOL     OW18124   4.430   2.355  15.627  0.2171 -0.3788 -0.3922
 2222SOL    HW118125   4.336   2.371  15.613  0.0758 -0.9121 -0.0640
 2222SOL    HW218126   4.457   2.430  15.573  0.8802 -0.7478 -0.5626
 2223SOL     OW18127   4.274   3.197   6.841 -0.3953  0.3921 -0.2625
 2223SOL    HW118128   4.211   3.176   6.771 -1.9770 -0.3092  1.3733
 2223SOL    HW218129   4.354   3.198   6.789 -2.8878 -0.6837 -4.2039
 2224SOL     OW18130   1.257   2.043   7.958 -0.0107  0.1592  0.2031
 2224SOL    HW118131   1.345   2.054   7.922  0.8860 -0.4242  2.2189
 2224SOL    HW218132   1.208   2.047   7.875  1.8288 -0.5167 -0.9263
 2225SOL     OW18133   0.595   4.636   4.000 -0.4098  0.0280 -0.0942
 2225SOL    HW118134   0.683   4.608   4.022 -0.0392  0.1473 -1.4285
 2225SOL    HW218135   0.543   4.555   4.002 -1.7899  0.9455  1.2132
 2226SOL     OW18136   3.524   3.292   4.147  0.4238  0.6678  0.1889
 2226SOL    HW118137   3.542   3.277   4.240 -0.0229 -0.7493  0.0400
 2226SOL    HW218138   3.572   3.221   4.104  1.0034  0.9577  0.3494
 2227SOL     OW18139   0.180   3.411   8.971  0.5300 -0.3356 -0.0861
 2227SOL    HW118140   0.266   3.418   9.014  1.3019 -4.5732 -0.9400
 2227SOL    HW218141   0.177   3.493   8.921  1.4629 -0.0553  0.3175
 2228SOL     OW18142   2.990   1.550   0.815 -0.0217  0.3185  0.4983
 2228SOL    HW118143   2.964   1.623   0.871  0.6388 -0.4624  1.7938
 2228SOL    HW218144   3.078   1.571   0.786  0.0517  0.6172  0.9456
 2229SOL     OW18145   0.950   1.567   4.881  0.0542  0.2298  0.1174
 2229SOL    HW118146   0.907   1.596   4.962 -1.2807 -0.7740 -0.2345
 2229SOL    HW218147   1.026   1.524   4.920  0.1351  0.3003  0.0359
 2230SOL     OW18148   2.003   2.504   1.398  0.2758 -0.2790  0.2170
 2230SOL    HW118149   1.967   2.592   1.390  2.7473  0.6515 -0.6478
 2230SOL    HW218150   1.933   2.470   1.454 -0.0201  1.2236  0.7720
 2231SOL     OW18151   0.545   0.872   6.388 -0.0328 -0.1749  0.9193
 2231SOL    HW118152   0.613   0.939   6.383 -0.3261  0.1163  0.8461
 2231SOL    HW218153   0.551   0.824   6.305  2.0396  2.6506 -0.5546
 2232SOL     OW18154   0.805   1.281   9.275 -0.0718 -0.0765 -0.0868
 2232SOL    HW118155   0.791   1.219   9.204  4.3814 -0.7582 -0.3768
 2232SOL    HW218156   0.771   1.229   9.347  1.1234  0.5486  0.9352
 2233SOL     OW18157   0.734   2.212  15.319 -0.2005  0.3582 -0.0372
 2233SOL    HW118158   0.663   2.237  15.260 -0.1802  0.4648 -0.0152
 2233SOL    HW218159   0.681   2.180  15.391  1.3530 -2.6582 -0.1997
 2234SOL     OW18160   3.966   3.351   8.726  0.1816  0.0241  0.0493
 2234SOL    HW118161   4.029   3.280   8.733  3.5867  2.8531 -1.6554
 2234SOL    HW218162   4.017   3.414   8.675 -0.2894 -0.8585 -1.5141
 2235SOL     OW18163   0.589   3.119  12.900 -0.3630  0.4132 -0.0785
 2235SOL    HW118164   0.586   3.088  12.990  1.6801  1.9422  0.5120
 2235SOL    HW218165   0.520   3.061  12.867 -0.4885  0.8310 -0.5463
 2236SOL     OW18166   2.363   0.658  11.656  0.0584  0.0583 -0.0382
 2236SOL    HW118167   2.274   0.692  11.649 -0.2564 -0.6500  0.4885
 2236SOL    HW218168   2.397   0.714  11.586  0.2522 -1.7993 -1.4274
 2237SOL     OW18169   1.067   3.254   7.610 -0.6858  0.1949  0.3048
 2237SOL    HW118170   1.072   3.188   7.541 -2.2873  0.7399 -0.3180
 2237SOL    HW218171   0.972   3.261   7.616 -0.5789  2.5325 -0.7827
 2238SOL     OW18172   1.821   3.475   3.434  0.2792 -0.3047  0.1820
 2238SOL    HW118173   1.911   3.459   3.407  0.3558  0.8727 -0.2726
 2238SOL    HW218174   1.787   3.385   3.440  1.1719 -0.4714  2.6446
 2239SOL     OW18175   0.927   4.409   8.100 -0.2879 -0.6380  0.4036
 2239SOL    HW118176   0.845   4.393   8.146 -0.8994  0.6330 -0.2574
 2239SOL    HW218177   0.925   4.354   8.022 -2.1705  1.1664 -0.7951
 2240SOL     OW18178   1.918   0.681  13.201 -0.1242  0.0919  0.5556
 2240SOL    HW118179   1.830   0.695  13.236 -0.2307 -1.3587  0.8873
 2240SOL    HW218180   1.924   0.765  13.156  0.1311 -1.4528 -2.2995
 2241SOL     OW18181   3.162   0.201   8.073 -0.1566 -0.4014  0.4899
 2241SOL    HW118182   3.126   0.182   8.160  1.3336 -0.1441  1.1634
 2241SOL    HW218183   3.245   0.240   8.101  1.4301 -1.7414 -2.3113
 2242SOL     OW18184   3.455   3.084   3.519 -0.2067  0.3808  0.2486
 2242SOL    HW118185   3.426   3.129   3.599 -0.2552  2.0016 -0.6850
 2242SOL    HW218186   3.465   3.154   3.455 -0.3700 -0.6805 -0.9482
 2243SOL     OW18187   3.662   3.341  16.810 -0.2716 -0.6335  0.8303
 2243SOL    HW118188   3.711   3.258  16.805  1.7544  0.4953  1.8232
 2243SOL    HW218189   3.664   3.356  16.905 -2.1287 -2.4570  1.1629
 2244SOL     OW18190   3.089   0.493   8.008  0.3976  0.2921  0.6380
 2244SOL    HW118191   3.084   0.400   8.028  0.5208  0.2850  0.6372
 2244SOL    HW218192   3.182   0.506   8.025 -0.3474  2.3248  3.3018
 2245SOL     OW18193   4.719   1.399   6.053 -0.2221  0.6711 -0.0416
 2245SOL    HW118194   0.024   1.462   5.987 -1.9403  1.5049  0.0262
 2245SOL    HW218195   4.682   1.465   6.112  0.0363  2.3800 -1.7608
 2246SOL     OW18196   1.257   3.487  13.905  0.4127 -0.1052  0.7477
 2246SOL    HW118197   1.322   3.548  13.870  0.5976 -1.0941 -0.5836
 2246SOL    HW218198   1.270   3.410  13.851 -0.3119 -0.1738  0.6616
 2247SOL     OW18199   4.170   3.553   2.925 -0.1185  0.2433 -0.6124
 2247SOL    HW118200   4.195   3.571   2.835  1.9504  1.8736  0.2772
 2247SOL    HW218201   4.188   3.636   2.969  0.1409 -0.8633  1.4122
 2248SOL     OW18202   2.932   1.208   9.567  0.4068  0.0540 -0.2474
 2248SOL    HW118203   2.901   1.278   9.510  1.9549  0.0405 -1.1093
 2248SOL    HW218204   2.848   1.197   9.612  0.8167 -0.7843  0.3268
 2249SOL     OW18205   4.344   2.713  16.354 -0.8858  0.2071 -0.5632
 2249SOL    HW118206   4.339   2.732  16.261 -0.0219  0.8740 -0.4705
 2249SOL    HW218207   4.439   2.710  16.361 -0.8125  0.7750 -1.3612
 2250SOL     OW18208   3.633   2.132  10.954  0.6243 -0.0614  0.0136
 2250SOL    HW118209   3.600   2.217  10.925  3.9702  1.0489 -0.5365
 2250SOL    HW218210   3.670   2.144  11.042 -1.6960  2.5195  0.6585
 2251SOL     OW18211   3.519   1.863  10.718  0.0233  0.1700 -0.0345
 2251SOL    HW118212   3.524   1.771  10.744  1.8734 -0.0078 -0.9922
 2251SOL    HW218213   3.427   1.865  10.691 -0.4197 -1.1665  1.3661
 2252SOL     OW18214   3.104   1.054   7.130  0.7696 -0.3848 -0.0351
 2252SOL    HW118215   3.016   1.088   7.142  1.4285  1.9695 -1.7898
 2252SOL    HW218216   3.096   0.958   7.130 -0.4156 -0.2980 -1.8084
 2253SOL     OW18217   1.418   0.934   8.888 -0.2423 -0.1422 -0.0759
 2253SOL    HW118218   1.323   0.935   8.875 -0.0288  2.0347 -1.3520
 2253SOL    HW218219   1.426   1.013   8.942  3.2594  0.9302 -2.2342
 2254SOL     OW18220   1.664   2.376   0.863 -0.1682 -0.1692  0.1703
 2254SOL    HW118221   1.636   2.444   0.924  2.4610  2.1609 -1.2350
 2254SOL    HW218222   1.584   2.369   0.811 -0.9561 -0.6944  1.4670
 2255SOL     OW18223   4.582   4.375  13.819 -0.1776 -0.0770  0.2766
 2255SOL    HW118224   4.511   4.412  13.767 -0.2179 -2.5906 -1.4497
 2255SOL    HW218225   4.549   4.386  13.908 -0.5194 -0.7277  0.2295
 2256SOL     OW18226   3.909   0.420   4.465 -0.3099 -0.1534  0.0031
 2256SOL    HW118227   3.923   0.326   4.463 -1.2333 -0.3283  2.2378
 2256SOL    HW218228   3.949   0.436   4.551 -0.6208  0.0796  0.1063
 2257SOL     OW18229   2.851   3.239   3.389 -0.5888 -0.2551 -0.2468
 2257SOL    HW118230   2.839   3.286   3.472  1.2852 -1.4312  0.6905
 2257SOL    HW218231   2.855   3.311   3.326 -2.5406 -0.2841 -0.3946
 2258SOL     OW18232   2.930   0.713   8.003  0.0984  0.2060  0.3771
 2258SOL    HW118233   2.989   0.773   7.957  0.3847 -0.1502  0.2808
 2258SOL    HW218234   2.988   0.637   8.005 -0.8164 -0.4323  2.3968
 2259SOL     OW18235   3.650   2.693   4.658 -0.4052 -0.2459 -0.1436
 2259SOL    HW118236   3.608   2.647   4.731 -2.7916  2.0490 -0.0400
 2259SOL    HW218237   3.692   2.763   4.708 -0.6289  1.0310 -1.7536
 2260SOL     OW18238   4.556   2.643   5.042 -0.4220 -0.3433  0.2489
 2260SOL    HW118239   4.572   2.601   5.127  0.1893 -0.7935 -0.0926
 2260SOL    HW218240   4.568   2.735   5.066 -1.0522 -0.7724  2.2671
 2261SOL     OW18241   1.867   4.292   4.489  0.2115 -0.2992 -0.2458
 2261SOL    HW118242   1.808   4.240   4.434  0.0831  2.0641 -2.3351
 2261SOL    HW218243   1.889   4.373   4.443 -3.2201  1.7114  1.6931
 2262SOL     OW18244   3.222   1.285  12.227  0.5957 -0.3386 -0.5282
 2262SOL    HW118245   3.307   1.320  12.199  0.3660 -0.6891 -1.6594
 2262SOL    HW218246   3.164   1.332  12.168  0.4665 -0.5923 -0.6049
 2263SOL     OW18247   3.673   3.684   8.013  0.4429 -0.7220  0.7688
 2263SOL    HW118248   3.678   3.749   8.082  2.3894  0.8289 -0.8607
 2263SOL    HW218249   3.584   3.696   7.978 -0.0262  0.1976  2.2961
 2264SOL     OW18250   3.097   0.722   5.368 -0.7435 -0.2718  0.2639
 2264SOL    HW118251   3.106   0.641   5.317 -0.2071 -0.7044  1.0508
 2264SOL    HW218252   3.031   0.693   5.432 -1.4735 -1.5875 -1.0942
 2265SOL     OW18253   3.646   1.349  17.069  0.0496 -0.3873  0.5704
 2265SOL    HW118254   3.559   1.362  17.106  0.3167  0.0469  1.0386
 2265SOL    HW218255   3.633   1.360  16.975 -0.9122 -3.2649  0.3504
 2266SOL     OW18256   3.963   1.265  14.111  0.2525 -0.0365 -0.6241
 2266SOL    HW118257   4.020   1.292  14.039 -1.0496  0.6656 -1.3951
 2266SOL    HW218258   3.878   1.299  14.081  0.4603  1.6683  0.7263
 2267SOL     OW18259   3.238   1.989  15.377 -0.2490 -0.4808 -0.7329
 2267SOL    HW118260   3.177   2.059  15.353 -0.4985 -0.5272 -0.2380
 2267SOL    HW218261   3.237   1.929  15.303  0.5441  0.0914 -1.2110
 2268SOL     OW18262   0.477   2.646  15.367 -0.1976  0.4813 -0.2170
 2268SOL    HW118263   0.392   2.645  15.324 -0.6371  2.2786  0.5977
 2268SOL    HW218264   0.528   2.713  15.321  0.9715 -0.0916  0.2221
 2269SOL     OW18265   1.312   1.360  11.644  0.3671  0.3064 -0.1130
 2269SOL    HW118266   1.235   1.302  11.641  0.2608  0.5881 -2.9056
 2269SOL    HW218267   1.370   1.312  11.585 -1.1422 -0.6355 -0.8373
 2270SOL     OW18268   4.486   1.694   6.878 -0.0306 -0.6686  0.5564
 2270SOL    HW118269   4.400   1.702   6.920 -0.2039 -0.2425  0.1191
 2270SOL    HW218270   4.549   1.660   6.942 -0.6185 -1.4422  0.7341
 2271SOL     OW18271   4.589   1.907   4.424 -0.1449 -0.2208 -0.0136
 2271SOL    HW118272   4.632   1.983   4.461  0.3614 -0.7728  0.5297
 2271SOL    HW218273   4.603   1.851   4.500  2.2430  0.4711  0.0648
 2272SOL     OW18274   0.825   3.134   8.756 -0.0424  0.0020  0.6546
 2272SOL    HW118275   0.873   3.061   8.794  1.0166  0.5663  0.3983
 2272SOL    HW218276   0.865   3.205   8.806  1.9401 -0.4211 -0.3351
 2273SOL     OW18277   1.317   0.579   9.327 -0.0901 -0.0053  0.4239
 2273SOL    HW118278   1.342   0.491   9.355 -2.5759 -0.8419  0.0205
 2273SOL    HW218279   1.233   0.575   9.373 -1.0863  1.0351 -1.2792
 2274SOL     OW18280   4.258   3.589   0.265 -0.2581 -0.4661  0.0212
 2274SOL    HW118281   4.292   3.629   0.185 -0.0179 -0.4713  0.1218
 2274SOL    HW218282   4.329   3.601   0.328 -0.1548  0.3644 -0.2535
 2275SOL     OW18283   2.407   0.399   9.526  0.8597 -0.1142  0.4621
 2275SOL    HW118284   2.392   0.341   9.601 -2.3494  0.4767  0.2818
 2275SOL    HW218285   2.502   0.411   9.532  0.8758 -0.4091  0.7839
 2276SOL     OW18286   4.316   2.120   5.482  0.4083  0.0815 -0.6794
 2276SOL    HW118287   4.389   2.182   5.473  0.3550 -0.2715 -3.5000
 2276SOL    HW218288   4.336   2.055   5.415 -0.2787  2.7723 -3.4966
 2277SOL     OW18289   3.723   4.623   3.267  0.3424 -0.7105  0.0966
 2277SOL    HW118290   3.786   4.552   3.255 -0.8063 -1.5436 -0.9250
 2277SOL    HW218291   3.663   4.619   3.193  0.9804 -3.4094 -0.3000
 2278SOL     OW18292   2.614   1.755   7.317 -0.0831 -0.4969  0.1455
 2278SOL    HW118293   2.655   1.724   7.398  0.3566  1.5599  0.7077
 2278SOL    HW218294   2.524   1.734   7.340  0.2068  0.0443  1.7771
 2279SOL     OW18295   1.578   1.837  12.843  0.1264  0.0419  0.6974
 2279SOL    HW118296   1.669   1.851  12.816  0.1147  0.8143  1.0579
 2279SOL    HW218297   1.539   1.790  12.769 -0.1394  0.6104  0.4685
 2280SOL     OW18298   0.388   2.497   5.251  0.0186 -0.4605  0.4367
 2280SOL    HW118299   0.404   2.582   5.291 -0.0619 -0.6013  0.7723
 2280SOL    HW218300   0.405   2.514   5.159  2.3442  1.0861  1.1508
 2281SOL     OW18301   4.126   1.551   6.901 -0.1362  0.7248  0.0406
 2281SOL    HW118302   4.168   1.637   6.903 -0.5236  0.8889  1.2040
 2281SOL    HW218303   4.051   1.561   6.843  0.0009  0.1640 -0.2340
 2282SOL     OW18304   4.346   2.450   0.974 -0.1923 -0.2412  0.0396
 2282SOL    HW118305   4.384   2.410   1.052  0.3091 -1.9840 -1.1096
 2282SOL    HW218306   4.418   2.435   0.912 -1.2032 -1.0168 -0.9305
 2283SOL     OW18307   0.351   2.594   8.299  0.2997 -0.2180 -0.8114
 2283SOL    HW118308   0.356   2.574   8.206 -1.5682 -0.8642 -0.7854
 2283SOL    HW218309   0.441   2.621   8.318 -0.3341  1.0274  0.3762
 2284SOL     OW18310   0.548   3.942   6.979 -0.2454  0.2253 -0.4032
 2284SOL    HW118311   0.505   4.026   6.997 -0.2411  0.2621 -0.5629
 2284SOL    HW218312   0.615   3.980   6.922  2.0543 -2.1800  0.7102
 2285SOL     OW18313   2.803   2.841   6.375 -0.4421  0.0105  0.3929
 2285SOL    HW118314   2.893   2.809   6.382  0.1482  0.8848 -3.1114
 2285SOL    HW218315   2.794   2.890   6.456  1.7660  0.0151  0.6258
 2286SOL     OW18316   2.312   1.804  13.255 -1.0122  0.1073  0.2331
 2286SOL    HW118317   2.380   1.809  13.322 -0.6649 -0.2171 -0.1002
 2286SOL    HW218318   2.364   1.756  13.192  1.8895  1.0530  1.9095
 2287SOL     OW18319   2.839   1.695   3.100  0.6348  0.0152 -0.0984
 2287SOL    HW118320   2.853   1.788   3.080 -2.0899  0.0840 -1.6378
 2287SOL    HW218321   2.901   1.661   3.036 -1.3453  0.0085 -1.9998
 2288SOL     OW18322   2.604   4.669   3.324 -0.3679  0.1296  0.1145
 2288SOL    HW118323   2.639   4.581   3.343  0.6260  0.8084  1.4272
 2288SOL    HW218324   2.608   4.669   3.229  0.9299  0.8614  0.1705
 2289SOL     OW18325   2.661   2.335   8.908 -0.1201 -0.3471  0.5287
 2289SOL    HW118326   2.651   2.384   8.989  1.4101  1.4808 -0.3979
 2289SOL    HW218327   2.697   2.398   8.846  0.5548 -0.3857  0.8773
 2290SOL     OW18328   1.357   3.780  16.360  0.4822  0.1610  0.0312
 2290SOL    HW118329   1.277   3.832  16.352 -0.7199 -1.7311 -0.2410
 2290SOL    HW218330   1.347   3.741  16.447 -0.5083 -2.4253 -1.2467
 2291SOL     OW18331   0.499   2.139   2.499  0.2062 -0.2363 -0.4097
 2291SOL    HW118332   0.474   2.067   2.441 -1.7815 -0.5773  0.8741
 2291SOL    HW218333   0.456   2.214   2.457 -2.4488 -2.6186 -1.9269
 2292SOL     OW18334   0.325   2.757   2.452 -0.4500 -0.3488  0.1144
 2292SOL    HW118335   0.413   2.734   2.426 -0.4799 -1.0153  0.6144
 2292SOL    HW218336   0.271   2.767   2.374  3.0589  0.1653 -2.2137
 2293SOL     OW18337   4.157   3.491   3.238 -0.5722 -0.3224 -0.0973
 2293SOL    HW118338   4.152   3.580   3.272 -1.0521 -0.4532  0.1673
 2293SOL    HW218339   4.145   3.492   3.143  1.5236 -0.6363 -0.3797
 2294SOL     OW18340   2.041   0.942   7.739  0.3627 -0.7355 -0.0302
 2294SOL    HW118341   2.105   0.969   7.804  1.9411  1.0926 -2.3034
 2294SOL    HW218342   2.055   0.848   7.735 -1.1219 -1.1262  3.8701
 2295SOL     OW18343   4.281   4.118   6.672  0.0121 -0.1519 -0.3450
 2295SOL    HW118344   4.194   4.099   6.637 -1.4296  1.3739  2.4535
 2295SOL    HW218345   4.270   4.194   6.728  1.5702 -0.9110  0.9902
 2296SOL     OW18346   0.688   0.306   2.118 -0.1840  0.0350 -0.1201
 2296SOL    HW118347   0.774   0.270   2.097 -0.1455 -0.4741  0.8906
 2296SOL    HW218348   0.644   0.223   2.137 -1.8892  1.1212  0.6891
 2297SOL     OW18349   1.974   1.567   4.587 -0.2176 -0.3647 -0.0817
 2297SOL    HW118350   1.998   1.499   4.524 -1.3897 -0.3561 -0.5461
 2297SOL    HW218351   1.909   1.617   4.536  1.0534  0.3885 -0.9507
 2298SOL     OW18352   4.340   1.509   8.263  0.5829 -0.1102 -0.2774
 2298SOL    HW118353   4.377   1.588   8.223  0.1100  0.2556  0.0134
 2298SOL    HW218354   4.412   1.447   8.248  1.7261  0.9353  0.8216
 2299SOL     OW18355   1.097   0.199   8.934 -0.2463  0.0727 -0.2728
 2299SOL    HW118356   1.135   0.229   9.017 -2.4261  0.0231  0.7436
 2299SOL    HW218357   1.023   0.258   8.927 -0.5719 -0.2231  0.6433
 2300SOL     OW18358   2.567   3.244   0.581  0.1291  0.0407  0.8981
 2300SOL    HW118359   2.654   3.251   0.541 -0.2802 -1.7710 -0.3575
 2300SOL    HW218360   2.554   3.338   0.593 -0.5725 -0.2406  2.2900
 2301SOL     OW18361   2.849   4.560   4.482 -0.3441 -0.4190  0.5843
 2301SOL    HW118362   2.862   4.645   4.441  0.5379 -0.4067  0.8901
 2301SOL    HW218363   2.790   4.512   4.423  0.3450  0.1758 -0.5944
 2302SOL     OW18364   4.000   0.703   6.988 -0.4225  0.1380 -0.1936
 2302SOL    HW118365   3.909   0.691   6.963  0.0520  0.3763 -2.0826
 2302SOL    HW218366   3.987   0.778   7.046 -2.2055  1.5520 -2.4248
 2303SOL     OW18367   3.772   2.893  10.335 -0.0008  0.9676  0.3269
 2303SOL    HW118368   3.734   2.922  10.252 -1.9996 -2.3912  0.0929
 2303SOL    HW218369   3.821   2.814  10.312 -0.1486  1.4522 -1.6454
 2304SOL     OW18370   3.347   0.711  15.214 -0.0062 -0.6153 -0.1660
 2304SOL    HW118371   3.268   0.704  15.267  0.4109  1.8128  0.7766
 2304SOL    HW218372   3.348   0.807  15.205  0.7628 -0.5807  0.3569
 2305SOL     OW18373   1.019   4.693   0.880  0.0480 -0.0047  0.0828
 2305SOL    HW118374   1.103   4.687   0.926 -0.7510 -2.3031  1.2045
 2305SOL    HW218375   0.982   4.605   0.889  0.1831 -0.2609 -1.9909
 2306SOL     OW18376   1.640   2.890   4.290 -0.0307 -0.1485  0.4275
 2306SOL    HW118377   1.618   2.983   4.286  1.4337  0.2032  0.4563
 2306SOL    HW218378   1.657   2.868   4.198  2.3395 -0.6847  1.0089
 2307SOL     OW18379   0.262   4.241   8.243 -0.0046 -0.3050 -0.4337
 2307SOL    HW118380   0.194   4.287   8.193  1.1633 -0.5897 -2.2671
 2307SOL    HW218381   0.231   4.256   8.332 -0.2812 -0.6107 -0.4786
 2308SOL     OW18382   1.858   1.479  10.368  0.3145 -0.1329  0.1217
 2308SOL    HW118383   1.853   1.464  10.463  0.9848 -1.5777 -0.0880
 2308SOL    HW218384   1.932   1.421  10.353  1.7815  2.6548 -3.3404
 2309SOL     OW18385   3.688   3.009  17.594 -0.8384 -0.2030 -0.3091
 2309SOL    HW118386   3.683   2.971  17.682  0.4201 -0.9605 -0.5573
 2309SOL    HW218387   3.757   3.073  17.613 -0.9916  0.4282 -1.9035
 2310SOL     OW18388   0.103   2.769   6.882  0.4931  0.6876  0.3076
 2310SOL    HW118389   0.163   2.745   6.953 -1.1862 -0.4345  1.3609
 2310SOL    HW218390   0.098   2.865   6.879 -0.3988  0.6015 -0.9637
 2311SOL     OW18391   4.459   4.017  11.286  0.2948  0.1337 -0.3137
 2311SOL    HW118392   4.476   3.974  11.370 -1.1665 -1.3588 -0.7876
 2311SOL    HW218393   4.392   3.959  11.250  0.0823  1.2736 -1.7579
 2312SOL     OW18394   4.472   1.453   0.920 -0.5158  0.2441 -0.1249
 2312SOL    HW118395   4.470   1.545   0.946 -1.4955  0.5784 -1.4123
 2312SOL    HW218396   4.438   1.462   0.831  0.2237 -1.1295 -0.5452
 2313SOL     OW18397   1.603   0.642  13.073  0.8367  0.2692 -0.3250
 2313SOL    HW118398   1.587   0.608  13.161 -1.0864  1.0160 -0.3964
 2313SOL    HW218399   1.547   0.719  13.076  1.8727  1.0172 -0.4713
 2314SOL     OW18400   1.492   2.987   2.276 -0.6121 -0.0265  0.1753
 2314SOL    HW118401   1.548   2.971   2.352 -1.1427 -1.9133  0.1513
 2314SOL    HW218402   1.528   3.075   2.260  1.5742 -1.1363 -1.0605
 2315SOL     OW18403   4.330   3.713  11.914  0.4320 -0.4416 -0.2520
 2315SOL    HW118404   4.343   3.788  11.973  0.8932 -1.0767  0.4509
 2315SOL    HW218405   4.408   3.719  11.858  0.5973  2.9552  0.3407
 2316SOL     OW18406   3.857   2.402   9.390 -0.6870 -0.3269  0.0274
 2316SOL    HW118407   3.928   2.378   9.450 -2.2225 -4.7076  0.0885
 2316SOL    HW218408   3.851   2.317   9.347  0.3685 -0.9184  1.0422
 2317SOL     OW18409   1.291   0.212  15.518  0.6099 -0.5896 -0.5506
 2317SOL    HW118410   1.328   0.124  15.528 -0.8120 -1.2005 -0.6077
 2317SOL    HW218411   1.367   0.252  15.477  1.4969 -2.5140 -0.8062
 2318SOL     OW18412   3.442   2.448   1.836 -0.2057 -0.0229  0.2133
 2318SOL    HW118413   3.376   2.408   1.780 -1.0836 -0.4473  1.5418
 2318SOL    HW218414   3.385   2.504   1.888  3.4063  4.1586 -0.3790
 2319SOL     OW18415   3.423   1.022   4.106 -1.2005  0.4283 -0.0107
 2319SOL    HW118416   3.376   1.090   4.153 -1.1718  0.5491 -0.1557
 2319SOL    HW218417   3.360   0.952   4.119 -1.0813  0.1288 -1.0595
 2320SOL     OW18418   2.020   4.204   7.204 -0.0865  0.3177  0.2340
 2320SOL    HW118419   2.068   4.208   7.122 -1.8832  0.1967 -0.8217
 2320SOL    HW218420   2.009   4.109   7.205  0.7417  0.2330  1.1295
 2321SOL     OW18421   4.491   1.457   7.408  0.6543  0.0364  0.1855
 2321SOL    HW118422   4.507   1.496   7.494  3.5537  0.2233 -0.4354
 2321SOL    HW218423   4.414   1.504   7.378  2.0818 -0.0433 -3.6691
 2322SOL     OW18424   1.462   4.690   5.365 -0.8823  0.4745 -0.2770
 2322SOL    HW118425   1.405   0.039   5.335 -2.2999 -0.8181 -0.6648
 2322SOL    HW218426   1.498   0.010   5.443  2.9077  1.6591 -2.7003
 2323SOL     OW18427   0.580   4.177   4.833  0.3494  0.2657  0.2984
 2323SOL    HW118428   0.671   4.151   4.824  0.0605  0.3301 -2.7898
 2323SOL    HW218429   0.562   4.193   4.740 -1.6247  0.8735  0.7787
 2324SOL     OW18430   2.086   3.884   8.702  0.8155 -0.2341  0.1445
 2324SOL    HW118431   2.106   3.877   8.609  0.6609 -2.6468  0.2832
 2324SOL    HW218432   2.173   3.877   8.739  1.1616  1.3822 -0.3604
 2325SOL     OW18433   4.592   1.898  14.243  0.0438  0.3612  0.0634
 2325SOL    HW118434   4.677   1.929  14.212  0.3172 -1.0109 -0.5659
 2325SOL    HW218435   4.581   1.813  14.200 -1.6714  1.2384 -1.2441
 2326SOL     OW18436   3.140   2.338  15.561  0.0663 -0.7928 -0.2764
 2326SOL    HW118437   3.197   2.395  15.613  0.3596 -0.9119 -0.4667
 2326SOL    HW218438   3.144   2.256  15.611 -1.2135  0.2115  1.4803
 2327SOL     OW18439   1.558   3.430  12.341  0.1578 -0.1616 -0.0297
 2327SOL    HW118440   1.629   3.453  12.280  0.0188 -0.1821 -0.1989
 2327SOL    HW218441   1.553   3.338  12.315  1.5673  0.0446 -1.0507
 2328SOL     OW18442   4.722   4.004   6.531  0.2331 -0.4692  0.4045
 2328SOL    HW118443   4.672   3.955   6.595 -0.8742 -0.6763 -0.6151
 2328SOL    HW218444   0.064   4.057   6.578 -0.0461  0.7899 -0.6234
 2329SOL     OW18445   2.801   3.494   0.841  0.3662 -0.1415 -0.1703
 2329SOL    HW118446   2.797   3.501   0.937 -0.5508  1.0197 -0.3018
 2329SOL    HW218447   2.869   3.557   0.822  1.1795 -1.0348 -0.2385
 2330SOL     OW18448   3.763   3.556   5.511  0.1680 -0.0993 -0.1177
 2330SOL    HW118449   3.683   3.518   5.475  0.4437  0.3373 -1.2120
 2330SOL    HW218450   3.830   3.532   5.446  1.8315  1.9975  0.8216
 2331SOL     OW18451   4.286   0.020  14.401  0.0097  0.4193 -0.1147
 2331SOL    HW118452   4.251   0.039  14.314  2.3402  1.2945 -0.8636
 2331SOL    HW218453   4.233   4.678  14.448  1.6647 -1.0203 -0.2379
 2332SOL     OW18454   3.354   0.214  17.190  0.0062 -0.4034  0.3391
 2332SOL    HW118455   3.438   0.232  17.150 -1.8510  1.4212 -2.7185
 2332SOL    HW218456   3.315   0.301  17.198 -2.2210 -1.2345 -1.5221
 2333SOL     OW18457   1.893   2.912   9.361  0.0393 -0.0540 -0.6203
 2333SOL    HW118458   1.970   2.886   9.411 -1.0533  0.5122  1.3368
 2333SOL    HW218459   1.848   2.828   9.362 -1.0002  0.5168  1.3245
 2334SOL     OW18460   1.112   0.306  15.038  0.1136  0.6699  0.4672
 2334SOL    HW118461   1.070   0.370  15.096 -2.1351  0.1426 -0.5782
 2334SOL    HW218462   1.036   0.282  14.986  0.1845 -1.9106  1.5602
 2335SOL     OW18463   4.436   1.024   3.291  0.3330  0.2044  0.5213
 2335SOL    HW118464   4.455   0.948   3.236  1.5679  1.3503 -0.6273
 2335SOL    HW218465   4.521   1.030   3.334  0.4294 -0.8554  0.4825
 2336SOL     OW18466   0.337   2.547   8.023 -0.1159  0.0921  0.0004
 2336SOL    HW118467   0.316   2.635   7.991  2.0763  0.2958 -0.8243
 2336SOL    HW218468   0.291   2.489   7.962  1.4913 -0.0604 -1.0642
 2337SOL     OW18469   0.291   0.565  13.387 -0.0435  0.0656 -0.0605
 2337SOL    HW118470   0.245   0.528  13.311  0.6346  0.5710 -0.7118
 2337SOL    HW218471   0.344   0.489  13.410 -0.9093 -0.5947 -0.2202
 2338SOL     OW18472   3.771   3.887   4.840 -0.2641  0.1625  0.1135
 2338SOL    HW118473   3.795   3.823   4.908  2.2917  1.7263  0.6560
 2338SOL    HW218474   3.678   3.871   4.854 -0.1246 -1.7387 -1.0126
 2339SOL     OW18475   4.121   1.310   9.756 -0.2358  0.1135  0.0179
 2339SOL    HW118476   4.083   1.356   9.830  0.3688 -1.1105  1.0948
 2339SOL    HW218477   4.199   1.278   9.802 -0.5456 -1.0398 -0.2616
 2340SOL     OW18478   1.371   2.534  14.663 -0.2772  0.6629 -0.4459
 2340SOL    HW118479   1.466   2.521  14.666 -0.0621  2.1644 -0.8650
 2340SOL    HW218480   1.338   2.536  14.752 -0.3171 -2.3336 -0.3708
 2341SOL     OW18481   0.610   4.651  16.052  0.0997  0.2453  0.4985
 2341SOL    HW118482   0.560   4.720  16.097  0.8041  0.7851  0.4549
 2341SOL    HW218483   0.547   4.580  16.065  1.0557 -0.3900  1.7558
 2342SOL     OW18484   0.986   2.806   3.193 -0.0013 -0.0252 -0.2979
 2342SOL    HW118485   0.918   2.864   3.227 -1.1524 -1.6167  0.0902
 2342SOL    HW218486   1.021   2.767   3.273 -0.4870  1.6796  0.7628
 2343SOL     OW18487   1.758   1.723   3.379  0.3941 -0.8183 -0.3068
 2343SOL    HW118488   1.794   1.763   3.299  0.8481  0.2676  0.4350
 2343SOL    HW218489   1.807   1.642   3.392 -0.9242 -1.2237  1.9682
 2344SOL     OW18490   4.078   1.840  10.630  0.2524 -0.3579  0.1824
 2344SOL    HW118491   4.095   1.832  10.724  1.0743  0.4497  0.1042
 2344SOL    HW218492   4.120   1.924  10.614 -1.4245  0.8148  1.9535
 2345SOL     OW18493   1.998   1.946   2.817  0.0558 -0.3639 -0.2859
 2345SOL    HW118494   1.904   1.930   2.806 -0.3141  1.1501  0.6813
 2345SOL    HW218495   2.005   1.880   2.886 -1.1276  1.4377  1.5864
 2346SOL     OW18496   1.141   3.347  10.036 -0.2745 -0.4031 -0.1093
 2346SOL    HW118497   1.132   3.303  10.121 -0.7527 -0.2826 -0.0963
 2346SOL    HW218498   1.227   3.314  10.010 -1.7871 -4.0040 -0.4980
 2347SOL     OW18499   2.138   1.394  10.673 -0.7465  0.9902 -0.6044
 2347SOL    HW118500   2.163   1.314  10.627  0.3911  1.0570 -0.1020
 2347SOL    HW218501   2.209   1.451  10.643  1.2746 -2.2300 -1.8434
 2348SOL     OW18502   1.996   1.863   9.197  0.3657 -0.0287  0.1387
 2348SOL    HW118503   2.088   1.850   9.176 -0.5931 -0.8390 -3.6336
 2348SOL    HW218504   1.977   1.769   9.197  0.9655 -0.1524 -0.6690
 2349SOL     OW18505   0.459   3.965   2.240 -0.7087 -0.3816  0.3981
 2349SOL    HW118506   0.404   4.005   2.307 -1.3354  1.4348 -1.2047
 2349SOL    HW218507   0.529   3.934   2.298 -1.0200 -1.3631  0.2450
 2350SOL     OW18508   0.261   2.880  14.978 -0.3627 -0.1875  0.5006
 2350SOL    HW118509   0.196   2.872  14.908  0.5639  1.3580 -0.5222
 2350SOL    HW218510   0.255   2.970  15.009  1.4774 -0.3809  1.4149
 2351SOL     OW18511   2.044   0.541   4.780 -0.1708  0.0944 -0.1514
 2351SOL    HW118512   2.050   0.578   4.868  0.0048  1.8820 -0.9161
 2351SOL    HW218513   2.055   0.447   4.794 -0.9509 -0.0839 -0.7093
 2352SOL     OW18514   4.156   0.338  17.437 -0.1949 -0.2075 -0.1688
 2352SOL    HW118515   4.118   0.254  17.464 -3.0451  0.1165 -3.0987
 2352SOL    HW218516   4.224   0.314  17.374  1.5813  1.7142  1.0105
 2353SOL     OW18517   2.227   3.448   0.561 -0.2671 -0.5740 -0.2612
 2353SOL    HW118518   2.210   3.535   0.598  0.0474 -0.1186 -1.1818
 2353SOL    HW218519   2.231   3.389   0.636 -0.5754  0.5282  0.6233
 2354SOL     OW18520   0.794   4.616   3.634  0.1975  0.0600  0.3496
 2354SOL    HW118521   0.754   4.686   3.685 -0.0249  0.4476 -0.3487
 2354SOL    HW218522   0.776   4.536   3.682  3.4161 -0.1773  1.1889
 2355SOL     OW18523   0.832   3.653   2.355 -0.1158 -0.3815  0.0165
 2355SOL    HW118524   0.840   3.565   2.393  1.1429  0.6691  2.2080
 2355SOL    HW218525   0.884   3.638   2.276 -0.3324  0.3431 -0.2590
 2356SOL     OW18526   2.952   3.288   5.275  0.1534 -0.1826  0.7113
 2356SOL    HW118527   2.864   3.269   5.309  0.0277  1.2640  1.1920
 2356SOL    HW218528   2.964   3.371   5.321 -0.7430  0.4079 -0.1314
 2357SOL     OW18529   1.537   1.445  12.948  0.7043  0.1214  0.3819
 2357SOL    HW118530   1.481   1.411  12.878  0.7241 -1.7509  1.2648
 2357SOL    HW218531   1.623   1.429  12.908  0.2382  0.5208 -0.7899
 2358SOL     OW18532   1.657   2.866   7.955  1.1683  0.5236  0.4770
 2358SOL    HW118533   1.701   2.860   8.040  0.0181 -0.3487  1.0223
 2358SOL    HW218534   1.569   2.839   7.982  1.1580  0.7647  0.6852
 2359SOL     OW18535   3.247   2.558  12.741  0.3881 -0.0178  0.3261
 2359SOL    HW118536   3.333   2.587  12.711  0.3623 -0.8616 -0.5370
 2359SOL    HW218537   3.248   2.573  12.836 -1.3418 -1.3129  0.5628
 2360SOL     OW18538   4.232   1.875   5.270  0.6311 -0.1416  0.0487
 2360SOL    HW118539   4.229   1.808   5.202 -2.5458  0.0666 -0.0143
 2360SOL    HW218540   4.282   1.828   5.337  1.0572 -0.5542 -0.5572
 2361SOL     OW18541   3.414   1.349   5.169 -0.3980  0.3795 -0.0034
 2361SOL    HW118542   3.474   1.360   5.242 -1.6503  2.3609  0.7349
 2361SOL    HW218543   3.346   1.291   5.205 -0.3443  0.3078 -0.0181
 2362SOL     OW18544   2.286   0.646  13.976 -0.5872 -0.2566 -0.7090
 2362SOL    HW118545   2.239   0.718  14.020 -2.9702 -0.9678 -2.0553
 2362SOL    HW218546   2.226   0.571  13.976 -0.5818 -0.2652 -0.0543
 2363SOL     OW18547   4.703   0.336   0.750 -0.5464  0.1929  0.1399
 2363SOL    HW118548   0.044   0.407   0.760 -0.7832  0.4730 -0.2987
 2363SOL    HW218549   4.636   0.393   0.712  1.1031  0.4468 -2.3783
 2364SOL     OW18550   3.574   2.787   1.300  0.2115 -0.4270 -0.4920
 2364SOL    HW118551   3.484   2.753   1.293 -0.1930  0.4053  0.6828
 2364SOL    HW218552   3.558   2.878   1.276  0.5872 -0.8136 -2.1692
 2365SOL     OW18553   2.016   1.294  12.388  0.3215  0.0091 -0.0406
 2365SOL    HW118554   2.030   1.383  12.419  1.7285 -0.3087  0.2544
 2365SOL    HW218555   2.103   1.281  12.349 -0.5609 -0.6666 -1.7879
 2366SOL     OW18556   1.770   2.153   4.638  0.4617  0.8962 -0.0485
 2366SOL    HW118557   1.722   2.231   4.610  0.6558  1.3405  0.8765
 2366SOL    HW218558   1.858   2.182   4.612  0.4270  1.1457  0.1141
 2367SOL     OW18559   2.973   2.191   7.952  0.3425  0.3747 -0.0666
 2367SOL    HW118560   2.887   2.150   7.948  1.8476 -2.9870  1.1279
 2367SOL    HW218561   3.021   2.150   7.880  1.2878  2.0834 -0.4179
 2368SOL     OW18562   2.716   2.814   1.746  0.0369  0.6238 -0.1953
 2368SOL    HW118563   2.711   2.909   1.730  0.6620  0.4686 -1.3148
 2368SOL    HW218564   2.661   2.798   1.823  2.8344 -1.2067  1.4160
 2369SOL     OW18565   0.277   3.947   0.470 -0.4442  0.1477  0.1670
 2369SOL    HW118566   0.282   3.865   0.518 -2.3910 -1.1992 -1.9215
 2369SOL    HW218567   0.357   3.991   0.498 -0.9299  1.1526 -0.0164
 2370SOL     OW18568   1.776   2.750   3.379  0.0677  0.0349 -0.0556
 2370SOL    HW118569   1.692   2.796   3.388  1.2627  2.4533 -1.3133
 2370SOL    HW218570   1.751   2.680   3.318 -1.0146 -1.0499  1.6467
 2371SOL     OW18571   3.249   0.365   9.746 -0.1689 -0.1248  0.1653
 2371SOL    HW118572   3.300   0.308   9.804  0.6235  0.7708  0.3331
 2371SOL    HW218573   3.158   0.344   9.769 -0.6954  1.3877 -0.5246
 2372SOL     OW18574   3.794   0.060  16.577  0.0238  0.0803 -0.0107
 2372SOL    HW118575   3.767   0.147  16.547  1.1323  0.7317  0.9215
 2372SOL    HW218576   3.830   0.026  16.495  0.2866  1.0601 -0.3087
 2373SOL     OW18577   1.543   4.474  14.189  0.3929 -0.2784 -0.6924
 2373SOL    HW118578   1.514   4.383  14.176  0.9865 -0.4875 -0.5778
 2373SOL    HW218579   1.489   4.505  14.261  0.0736  0.3364 -1.1926
 2374SOL     OW18580   4.472   2.665   7.240  0.2571 -1.2001  0.1057
 2374SOL    HW118581   4.411   2.594   7.258  1.4284 -1.8420  1.5550
 2374SOL    HW218582   4.418   2.742   7.258  2.3149  0.4326 -0.7434
 2375SOL     OW18583   0.651   0.547  14.605  0.1610  0.2458 -0.2195
 2375SOL    HW118584   0.682   0.461  14.633 -1.0035 -0.4884 -1.2231
 2375SOL    HW218585   0.557   0.529  14.612  0.7633 -2.7186  0.2436
 2376SOL     OW18586   2.489   1.689  13.056  0.0813  0.5128  0.0554
 2376SOL    HW118587   2.564   1.647  13.099 -0.1444  0.8725  0.8018
 2376SOL    HW218588   2.540   1.767  13.035 -2.2210  2.1549  0.6113
 2377SOL     OW18589   3.390   0.028  10.924  0.3338 -0.1594 -0.2315
 2377SOL    HW118590   3.426   0.030  11.012 -0.8197  1.1225  0.2146
 2377SOL    HW218591   3.419   0.111  10.885 -3.6199  1.0034 -0.7044
 2378SOL     OW18592   4.464   4.026   5.139 -0.2017 -0.8235  0.1587
 2378SOL    HW118593   4.396   4.009   5.205 -0.5325  0.2184  0.0818
 2378SOL    HW218594   4.416   4.051   5.060 -0.4308  0.7124  0.7871
 2379SOL     OW18595   0.993   2.015  15.621 -0.6992 -0.1717  0.5712
 2379SOL    HW118596   0.998   1.943  15.684 -2.2300 -1.2053 -0.4829
 2379SOL    HW218597   1.069   2.069  15.640 -0.2318 -0.4422 -0.5406
 2380SOL     OW18598   1.382   3.176   2.556  0.3625  0.0968  0.0265
 2380SOL    HW118599   1.354   3.234   2.626 -2.9284 -1.0412 -0.3377
 2380SOL    HW218600   1.307   3.170   2.497  0.5540  0.3285 -0.2406
 2381SOL     OW18601   2.213   3.253   4.853 -0.4063  0.0409 -0.4287
 2381SOL    HW118602   2.157   3.196   4.905 -1.1170  1.1470  0.0104
 2381SOL    HW218603   2.210   3.212   4.766 -0.4562 -0.1875 -0.3217
 2382SOL     OW18604   1.604   3.218   3.176 -0.4353 -0.6470 -0.0285
 2382SOL    HW118605   1.631   3.304   3.146 -0.2133 -0.7437 -0.1078
 2382SOL    HW218606   1.580   3.180   3.091  1.4174 -1.5684 -0.1451
 2383SOL     OW18607   3.532   0.333  17.012  0.2836  0.6253  0.3723
 2383SOL    HW118608   3.589   0.256  17.005 -0.8277 -0.2436  0.8025
 2383SOL    HW218609   3.506   0.327  16.920  0.1343  2.1904  0.3253
 2384SOL     OW18610   0.608   2.842  17.624  0.2946  0.3570  0.3484
 2384SOL    HW118611   0.660   2.875   0.004 -2.2092  1.7965  1.4502
 2384SOL    HW218612   0.614   2.749  17.644 -0.4629  0.4819  1.1049
 2385SOL     OW18613   3.954   1.436   2.475  0.5295 -1.0771  0.2056
 2385SOL    HW118614   4.038   1.417   2.434  0.4575 -0.8571 -0.0391
 2385SOL    HW218615   3.909   1.352   2.465 -0.9325 -0.0362 -1.9891
 2386SOL     OW18616   1.648   1.778  10.725 -0.2376  0.0803 -0.0375
 2386SOL    HW118617   1.631   1.695  10.768  0.7410 -1.4255 -2.5395
 2386SOL    HW218618   1.559   1.799  10.696 -0.3888  0.5797  0.8122
 2387SOL     OW18619   1.859   1.904   3.150 -0.7034 -0.1140  0.2212
 2387SOL    HW118620   1.775   1.946   3.133 -0.0885  2.1929  3.0038
 2387SOL    HW218621   1.912   1.980   3.174 -0.2224 -0.2466 -0.4415
 2388SOL     OW18622   1.817   2.196  12.752 -0.4328 -0.5199  0.0662
 2388SOL    HW118623   1.908   2.192  12.784 -1.2964  0.3556  2.6628
 2388SOL    HW218624   1.778   2.262  12.810  2.5327  0.6846  0.7041
 2389SOL     OW18625   4.142   1.718   6.043  1.2386 -0.1733 -0.2515
 2389SOL    HW118626   4.230   1.699   6.077  0.3621 -2.6765  0.6039
 2389SOL    HW218627   4.143   1.804   6.002 -1.1675  0.4195  0.9392
 2390SOL     OW18628   0.073   3.759  14.900 -0.5283  0.0392 -0.1307
 2390SOL    HW118629   0.095   3.783  14.990  0.4583 -3.6266  0.6219
 2390SOL    HW218630   4.710   3.719  14.912 -0.9284  0.6728 -0.9420
 2391SOL     OW18631   3.051   2.725   8.921  0.0021  0.0038 -0.7706
 2391SOL    HW118632   3.103   2.645   8.931  2.6640  2.0415  1.9052
 2391SOL    HW218633   3.120   2.784   8.951  0.7003 -1.6428  0.8902
 2392SOL     OW18634   3.459   2.339   7.273  0.2863  0.2209  0.1256
 2392SOL    HW118635   3.552   2.348   7.254  0.9979 -1.9534  2.5269
 2392SOL    HW218636   3.435   2.428   7.299  1.3944  0.8939 -1.2054
 2393SOL     OW18637   4.504   3.253   7.410 -0.2402 -0.0028  0.3317
 2393SOL    HW118638   4.461   3.338   7.402 -1.0885 -0.5097 -0.6699
 2393SOL    HW218639   4.440   3.198   7.456 -0.8776 -0.4511 -1.0661
 2394SOL     OW18640   1.188   3.490   3.968  0.1680 -0.5600 -0.6211
 2394SOL    HW118641   1.202   3.532   4.052  1.4884  0.0715 -1.1638
 2394SOL    HW218642   1.108   3.530   3.933  0.8108  1.6156  0.4313
 2395SOL     OW18643   1.407   1.225   5.727 -0.0744 -0.3138 -0.0048
 2395SOL    HW118644   1.456   1.174   5.792  0.3231  1.9931  1.4967
 2395SOL    HW218645   1.315   1.208   5.745  0.1642 -1.0725  0.5187
 2396SOL     OW18646   2.236   2.026   2.320 -0.1411 -0.2541 -0.2097
 2396SOL    HW118647   2.319   1.993   2.356 -0.0384 -2.1401 -2.1489
 2396SOL    HW218648   2.175   2.019   2.393  2.1308 -0.3613  1.6942
 2397SOL     OW18649   2.244   0.070   1.752 -0.1910  0.3392 -0.5903
 2397SOL    HW118650   2.181   0.007   1.716  1.4218 -1.1134 -0.8986
 2397SOL    HW218651   2.323   0.028   1.719  0.1975  0.9073 -0.3766
 2398SOL     OW18652   2.799   2.353  10.776 -0.2618 -0.0608 -0.1760
 2398SOL    HW118653   2.866   2.410  10.740 -0.7183  0.0295 -0.8745
 2398SOL    HW218654   2.720   2.406  10.780  1.1672  2.1802 -1.6036
 2399SOL     OW18655   1.740   4.250   6.232  0.0017 -0.0952  0.4546
 2399SOL    HW118656   1.770   4.306   6.303  1.2250  2.6526 -2.2394
 2399SOL    HW218657   1.739   4.169   6.283  3.3605  0.2278  1.0153
 2400SOL     OW18658   0.971   0.190   2.637  0.4927  0.4445  0.1670
 2400SOL    HW118659   0.890   0.187   2.689  0.1223 -0.2105 -0.4467
 2400SOL    HW218660   0.968   0.110   2.586  2.3703 -1.4388  2.9873
 2401SOL     OW18661   0.379   0.941   9.350  0.8243  0.5953 -0.0589
 2401SOL    HW118662   0.328   1.022   9.343 -0.7509 -0.3626  0.2693
 2401SOL    HW218663   0.372   0.914   9.441 -2.6412 -0.1091 -0.5372
 2402SOL     OW18664   1.867   1.804   8.969  0.0871 -1.2734  0.2714
 2402SOL    HW118665   1.882   1.837   9.057  2.4278 -0.7651 -0.3043
 2402SOL    HW218666   1.817   1.723   8.976 -0.1828 -1.2812 -1.5860
 2403SOL     OW18667   2.092   2.186   5.335  0.0975 -0.3560  0.2670
 2403SOL    HW118668   2.077   2.271   5.293  1.5607 -1.3770 -2.2919
 2403SOL    HW218669   2.173   2.155   5.295 -0.3923 -0.2939 -0.7784
 2404SOL     OW18670   0.385   0.577   9.152  0.4768 -0.5660  0.5835
 2404SOL    HW118671   0.371   0.578   9.247  5.0472  0.7779  1.2559
 2404SOL    HW218672   0.388   0.482   9.140 -0.6880 -0.4291 -0.7119
 2405SOL     OW18673   2.881   0.074   3.509 -0.1843  0.4623 -0.2719
 2405SOL    HW118674   2.908   0.073   3.417  0.7196  0.0786 -0.0044
 2405SOL    HW218675   2.935   0.146   3.541  0.4951 -0.3142  0.3455
 2406SOL     OW18676   2.931   1.788   5.406  0.2535 -0.1389  0.3368
 2406SOL    HW118677   2.878   1.851   5.455 -0.9158 -1.6162  0.9657
 2406SOL    HW218678   3.014   1.789   5.453 -0.5244  0.3613  1.6826
 2407SOL     OW18679   3.448   3.649   4.890  0.9242 -0.1026  0.2573
 2407SOL    HW118680   3.393   3.623   4.816 -0.7324  2.3990  0.5997
 2407SOL    HW218681   3.449   3.744   4.883  1.6270 -0.2525 -1.6872
 2408SOL     OW18682   3.415   1.244  17.280 -0.8218 -0.1790  0.8585
 2408SOL    HW118683   3.378   1.220  17.365  1.3930 -2.4316  1.1840
 2408SOL    HW218684   3.419   1.156  17.243  1.9219 -0.3262  1.5293
 2409SOL     OW18685   3.626   0.034   9.096 -0.2115  0.1391  0.2823
 2409SOL    HW118686   3.717   0.023   9.125  0.1731 -1.2332 -1.4611
 2409SOL    HW218687   3.580   0.007   9.175  0.7730 -0.2536  0.7320
 2410SOL     OW18688   1.665   4.221   2.621  0.3248 -0.0511 -0.0624
 2410SOL    HW118689   1.722   4.250   2.549  0.6403  0.6210  0.4580
 2410SOL    HW218690   1.644   4.131   2.595  1.3584 -0.5571  0.8368
 2411SOL     OW18691   2.126   0.730  17.088  0.1184  0.2119 -0.3687
 2411SOL    HW118692   2.099   0.780  17.165  1.7786  1.1808 -0.4102
 2411SOL    HW218693   2.054   0.667  17.085  0.7433 -0.4968 -0.2664
 2412SOL     OW18694   2.353   2.615  11.178 -0.4784 -0.1462  0.1882
 2412SOL    HW118695   2.436   2.574  11.153 -1.0151 -0.7273 -0.6453
 2412SOL    HW218696   2.297   2.597  11.102 -1.6118 -0.7940  1.1848
 2413SOL     OW18697   3.949   0.263  12.636 -0.5556 -0.1782  0.1535
 2413SOL    HW118698   4.005   0.275  12.713  0.1617 -0.1315 -0.3791
 2413SOL    HW218699   3.969   0.175  12.604 -1.3010 -0.8745  1.5833
 2414SOL     OW18700   2.058   1.227  15.670 -0.6142  0.1347  0.2124
 2414SOL    HW118701   2.042   1.135  15.688 -2.2480  0.1010 -1.4894
 2414SOL    HW218702   2.075   1.232  15.576 -0.1283 -2.5502  0.1703
 2415SOL     OW18703   3.610   4.201   5.127  0.5504  0.2331  0.4875
 2415SOL    HW118704   3.664   4.245   5.192  2.1512 -0.6240 -0.2671
 2415SOL    HW218705   3.653   4.116   5.129 -0.5505 -0.4012 -2.6299
 2416SOL     OW18706   3.958   1.205   5.580  0.6802  0.3767  0.7972
 2416SOL    HW118707   4.006   1.124   5.564 -0.9286 -0.4061 -0.0994
 2416SOL    HW218708   3.898   1.166   5.643  0.7835 -0.9052  0.1068
 2417SOL     OW18709   0.674   4.338  15.720  0.1717  0.4573 -0.1078
 2417SOL    HW118710   0.623   4.258  15.732  0.4558  0.3017  0.0750
 2417SOL    HW218711   0.701   4.362  15.809 -0.5403 -3.3454  1.1374
 2418SOL     OW18712   0.950   4.172   9.388 -0.5510 -0.2733  0.0764
 2418SOL    HW118713   0.859   4.192   9.365  0.0303 -0.4591 -2.4080
 2418SOL    HW218714   0.977   4.231   9.459 -3.1928  0.0903  0.7745
 2419SOL     OW18715   3.218   4.461   5.934 -0.4006 -0.2286 -0.1094
 2419SOL    HW118716   3.285   4.529   5.927 -1.8822  1.3612  1.0817
 2419SOL    HW218717   3.168   4.487   5.857  0.7597  3.0594  0.2336
 2420SOL     OW18718   4.085   3.111  14.920  0.0696  0.5963  0.0668
 2420SOL    HW118719   4.087   3.017  14.939  0.6813  0.3913 -1.0287
 2420SOL    HW218720   4.044   3.148  14.998 -1.0259  1.3622 -0.8741
 2421SOL     OW18721   2.906   0.878   3.358 -0.1815  0.9220 -0.1158
 2421SOL    HW118722   2.815   0.868   3.386 -0.7380  0.2477 -2.1300
 2421SOL    HW218723   2.955   0.885   3.440 -1.2586  2.7010  0.3726
 2422SOL     OW18724   3.567   1.445   4.703 -0.6780 -0.4315  0.3254
 2422SOL    HW118725   3.625   1.481   4.771 -1.0594 -0.1370  0.4918
 2422SOL    HW218726   3.499   1.404   4.756 -0.8287  0.4819  0.8544
 2423SOL     OW18727   2.158   0.492  16.607  0.3442  0.4616 -0.1580
 2423SOL    HW118728   2.176   0.560  16.672  0.3056 -0.7802  1.1239
 2423SOL    HW218729   2.104   0.548  16.551  0.3863  1.0274  0.3655
 2424SOL     OW18730   2.755   2.707   5.648 -0.0682 -0.3307  0.4441
 2424SOL    HW118731   2.828   2.760   5.617  0.2698 -1.3279 -0.4744
 2424SOL    HW218732   2.774   2.675   5.736 -0.1395 -2.4734 -0.3289
 2425SOL     OW18733   3.073   0.262   2.400  0.7367  0.1268  0.2310
 2425SOL    HW118734   3.146   0.215   2.439  1.1547  0.2403 -0.4221
 2425SOL    HW218735   3.067   0.223   2.312  3.0836  1.4229 -0.5028
 2426SOL     OW18736   4.471   1.543   5.929 -0.4134  0.2268  0.8374
 2426SOL    HW118737   4.504   1.602   5.861 -0.4749 -1.2979 -0.5121
 2426SOL    HW218738   4.493   1.582   6.014  1.1215 -0.7448  0.9053
 2427SOL     OW18739   4.126   4.685  15.140  0.3017 -0.2638  0.3238
 2427SOL    HW118740   4.135   4.591  15.159  0.7653 -0.5746 -1.3956
 2427SOL    HW218741   4.048   4.695  15.193  0.1743 -2.2036  0.5012
 2428SOL     OW18742   1.870   2.104   2.120 -0.6198 -0.3236  0.3607
 2428SOL    HW118743   1.887   2.182   2.066 -0.5745  0.7643  1.9405
 2428SOL    HW218744   1.842   2.153   2.198  1.0336  1.6664 -0.3024
 2429SOL     OW18745   0.728   0.792  14.690 -0.2922 -0.4560 -0.1010
 2429SOL    HW118746   0.808   0.767  14.737  0.2946  0.8850 -0.4102
 2429SOL    HW218747   0.702   0.704  14.663  1.4819 -1.2979  0.8737
 2430SOL     OW18748   2.286   3.684   6.886  0.1737 -0.4993  0.3287
 2430SOL    HW118749   2.245   3.650   6.966  1.0320 -0.5379  0.7458
 2430SOL    HW218750   2.211   3.702   6.829  0.7136 -1.7972 -0.7924
 2431SOL     OW18751   0.460   1.419   6.334 -0.2540  0.4282  0.1709
 2431SOL    HW118752   0.443   1.455   6.247 -0.9009  0.0967  0.1567
 2431SOL    HW218753   0.554   1.400   6.334 -0.2621  0.3294 -1.8146
 2432SOL     OW18754   3.073   3.396   4.272  0.2810  0.2023 -0.0711
 2432SOL    HW118755   3.076   3.363   4.182 -1.1291  0.2973 -0.1534
 2432SOL    HW218756   3.033   3.318   4.312 -1.3180 -0.3522 -2.7517
 2433SOL     OW18757   2.492   0.371   8.744  0.1145  0.0142 -0.1754
 2433SOL    HW118758   2.479   0.433   8.672  1.3625  0.4669 -0.0236
 2433SOL    HW218759   2.490   0.432   8.818  1.1374 -0.9798  0.6827
 2434SOL     OW18760   2.358   3.295   1.521  0.0720  0.3494  0.0298
 2434SOL    HW118761   2.276   3.296   1.570 -1.4522  0.8322 -2.4891
 2434SOL    HW218762   2.360   3.201   1.502  0.8706  0.3037  0.3696
 2435SOL     OW18763   2.561   1.375   6.173 -0.0900  0.0098  0.1948
 2435SOL    HW118764   2.484   1.382   6.116  0.7313  0.3264 -0.8781
 2435SOL    HW218765   2.507   1.348   6.247  0.3524 -1.3172  0.0393
 2436SOL     OW18766   2.908   2.189   5.898 -0.5816  0.2394  0.7944
 2436SOL    HW118767   2.995   2.178   5.860 -0.9051 -2.6684  0.8561
 2436SOL    HW218768   2.856   2.160   5.824  1.0026  1.3815 -0.7495
 2437SOL     OW18769   3.086   3.070   1.418 -0.1501  0.4858  0.3121
 2437SOL    HW118770   3.088   2.981   1.385  1.9817 -0.0817  1.9565
 2437SOL    HW218771   3.180   3.084   1.431 -0.0527  0.9307 -0.8724
 2438SOL     OW18772   0.253   0.759  14.586 -0.3262  0.3328  0.0395
 2438SOL    HW118773   0.333   0.708  14.570  0.8112  2.2835 -0.4639
 2438SOL    HW218774   0.260   0.833  14.526 -2.0532 -0.0645 -0.6462
 2439SOL     OW18775   0.694   2.959   1.657  0.6909  0.2018 -0.4083
 2439SOL    HW118776   0.635   2.966   1.732 -1.1137  1.7061 -1.9678
 2439SOL    HW218777   0.774   2.938   1.705  1.0434  1.4298 -0.4660
 2440SOL     OW18778   0.558   2.446  16.950 -0.4490 -0.1726 -0.5513
 2440SOL    HW118779   0.569   2.449  16.855  1.7641 -0.3818 -0.3078
 2440SOL    HW218780   0.482   2.389  16.953  0.1260 -0.8252  1.8533
 2441SOL     OW18781   1.952   4.357   3.732  0.0164  0.2674 -0.1124
 2441SOL    HW118782   1.925   4.440   3.694  2.5810  0.5388 -1.4061
 2441SOL    HW218783   1.938   4.292   3.662  2.0191  0.2558 -0.5172
 2442SOL     OW18784   1.063   1.090   6.912 -0.1380 -0.0501  0.1604
 2442SOL    HW118785   1.098   1.060   6.828 -0.5132  0.2110 -0.0922
 2442SOL    HW218786   1.113   1.029   6.967 -0.6243 -2.2900 -1.8805
 2443SOL     OW18787   0.683   1.182  10.098  0.6411  0.5328 -0.4153
 2443SOL    HW118788   0.675   1.100  10.050  1.0005  0.9966 -1.2593
 2443SOL    HW218789   0.692   1.238  10.021  2.3328  0.0903 -0.5430
 2444SOL     OW18790   1.035   2.734   1.109  0.2752  0.2137 -0.1411
 2444SOL    HW118791   1.045   2.761   1.201 -2.4922  0.1583  0.1894
 2444SOL    HW218792   1.073   2.647   1.113 -1.2455 -0.4374  0.0588
 2445SOL     OW18793   2.873   3.664   7.652  0.0309  0.1924  0.4712
 2445SOL    HW118794   2.822   3.628   7.724  0.2210 -2.4470 -0.6843
 2445SOL    HW218795   2.824   3.633   7.575 -1.5219  4.5635 -0.3105
 2446SOL     OW18796   3.962   0.666  14.669 -0.0282  0.2524 -0.2194
 2446SOL    HW118797   3.964   0.749  14.717 -0.2793  0.3755 -0.4193
 2446SOL    HW218798   4.039   0.624  14.708 -0.7197 -0.2443  0.6023
 2447SOL     OW18799   1.260   2.688   3.781 -0.2829  0.0411 -0.4636
 2447SOL    HW118800   1.291   2.605   3.743  1.0882 -0.2081  1.1970
 2447SOL    HW218801   1.201   2.717   3.712  0.2556 -1.4289 -1.5564
 2448SOL     OW18802   3.993   1.216  14.401  0.1944 -0.6796 -0.5571
 2448SOL    HW118803   4.011   1.212  14.307  1.5062 -0.1630 -0.3308
 2448SOL    HW218804   3.897   1.214  14.408  0.2526 -2.1016 -0.2610
 2449SOL     OW18805   4.058   2.208   1.187  0.2143  0.0580 -0.4033
 2449SOL    HW118806   3.984   2.248   1.142 -0.9267 -0.7496  0.7291
 2449SOL    HW218807   4.079   2.291   1.228 -2.1566  0.2369  0.4774
 2450SOL     OW18808   1.450   2.653   0.740 -0.0905  0.1908 -0.1591
 2450SOL    HW118809   1.387   2.662   0.812  1.7792  0.1990  1.5005
 2450SOL    HW218810   1.455   2.557   0.742  0.4357  0.1929 -1.2574
 2451SOL     OW18811   3.980   3.666   3.364 -0.3246  0.7066 -0.2136
 2451SOL    HW118812   3.905   3.641   3.310 -0.3223 -0.2898  0.2542
 2451SOL    HW218813   3.927   3.678   3.443 -0.5279  0.7784 -0.3595
 2452SOL     OW18814   3.413   0.831   7.067  0.4858  0.0953  0.7441
 2452SOL    HW118815   3.348   0.893   7.034  0.1435 -0.3161  0.6381
 2452SOL    HW218816   3.490   0.885   7.047 -0.8379  1.5829 -0.3381
 2453SOL     OW18817   1.793   0.665   8.323  0.2342 -0.6059 -0.0885
 2453SOL    HW118818   1.771   0.593   8.382 -0.2525 -0.0717  0.3775
 2453SOL    HW218819   1.871   0.636   8.276 -0.1109  0.5839 -1.4026
 2454SOL     OW18820   2.448   4.051   3.952 -0.5596 -0.7296  0.2123
 2454SOL    HW118821   2.387   4.066   4.025 -1.1021  1.0486 -0.6138
 2454SOL    HW218822   2.382   4.055   3.883 -0.3164 -1.3336 -0.0511
 2455SOL     OW18823   4.073   4.077   4.145 -0.1265  0.6809  0.1108
 2455SOL    HW118824   4.147   4.082   4.205  0.6710 -1.6028 -0.6761
 2455SOL    HW218825   4.066   3.985   4.121  1.3171  0.5335  0.2626
 2456SOL     OW18826   1.796   2.800   3.869  0.5838  0.0594  0.2370
 2456SOL    HW118827   1.779   2.845   3.786 -0.9155 -0.8050  0.0795
 2456SOL    HW218828   1.821   2.709   3.852  1.4579  0.3825 -0.2182
 2457SOL     OW18829   1.462   4.669   2.306 -0.1812  0.1529  0.4316
 2457SOL    HW118830   1.554   4.681   2.282  0.5503 -0.3813  2.8897
 2457SOL    HW218831   1.434   0.033   2.280 -0.6356  0.5175  2.1515
 2458SOL     OW18832   4.481   3.778   5.347  0.1270  0.8009 -0.2266
 2458SOL    HW118833   4.387   3.790   5.359  0.3256  0.5247  1.6626
 2458SOL    HW218834   4.487   3.721   5.271  0.3830 -0.6247  0.8613
 2459SOL     OW18835   1.841   3.122  10.705 -1.0133  0.4050 -0.5523
 2459SOL    HW118836   1.837   3.028  10.685  2.2082  0.2508 -0.4006
 2459SOL    HW218837   1.823   3.117  10.799 -0.6028  0.6198 -0.4665
 2460SOL     OW18838   0.662   2.098   5.446 -0.1663  0.5469  0.5270
 2460SOL    HW118839   0.741   2.088   5.394  0.3885  2.0615  1.0995
 2460SOL    HW218840   0.640   2.190   5.432 -2.8866 -0.3083 -0.9505
 2461SOL     OW18841   2.510   3.527   2.841  0.4175  0.0978 -0.1311
 2461SOL    HW118842   2.434   3.567   2.797 -0.0864 -2.6376 -1.7129
 2461SOL    HW218843   2.551   3.607   2.873  0.4384  0.6877 -1.6250
 2462SOL     OW18844   0.411   0.766  14.836 -0.1941  0.1951 -0.3409
 2462SOL    HW118845   0.440   0.833  14.774  1.6911  1.2236  1.6317
 2462SOL    HW218846   0.330   0.738  14.795  1.6997 -2.5987 -2.2127
 2463SOL     OW18847   2.479   1.760   5.240  0.3607 -0.5056 -0.2088
 2463SOL    HW118848   2.392   1.721   5.253  0.3870  0.0440  1.6506
 2463SOL    HW218849   2.526   1.680   5.217 -0.3176 -0.9385 -0.1038
 2464SOL     OW18850   0.204   4.210  12.986  0.0759  0.0325  0.0515
 2464SOL    HW118851   0.132   4.209  12.924 -0.3275 -1.1709  0.5350
 2464SOL    HW218852   0.159   4.235  13.067 -0.1481  0.7783 -0.3000
 2465SOL     OW18853   1.094   2.767   4.465  0.5950 -0.2882  0.7101
 2465SOL    HW118854   1.141   2.849   4.481  0.0438  0.4539 -1.4676
 2465SOL    HW218855   1.117   2.751   4.373  0.9642 -0.6019  0.8543
 2466SOL     OW18856   0.116   4.266  15.787  0.2965  0.2005  0.5373
 2466SOL    HW118857   0.044   4.329  15.784 -0.0438 -0.1584  1.3004
 2466SOL    HW218858   0.175   4.319  15.842  3.2940 -1.7314 -0.8022
 2467SOL     OW18859   1.948   4.283   1.031 -0.1901 -0.5816  0.2346
 2467SOL    HW118860   2.020   4.270   0.969  0.6573 -0.0050  1.0902
 2467SOL    HW218861   1.989   4.259   1.114  1.2244  1.3552  0.1074
 2468SOL     OW18862   0.751   3.203   7.551 -0.6856  0.5921 -0.0216
 2468SOL    HW118863   0.695   3.276   7.526  0.6327  1.2569 -1.0730
 2468SOL    HW218864   0.692   3.128   7.559  0.0485  0.2855  2.5671
 2469SOL     OW18865   3.300   3.554   6.118 -0.2378 -0.6578  0.1274
 2469SOL    HW118866   3.321   3.464   6.145  0.1855 -1.5452 -3.1729
 2469SOL    HW218867   3.208   3.535   6.136 -0.2675  0.2921  0.9645
 2470SOL     OW18868   2.279   1.737   5.474  0.1626  0.1189  0.0446
 2470SOL    HW118869   2.200   1.790   5.465 -0.1018 -0.2347  0.3337
 2470SOL    HW218870   2.335   1.806   5.437  0.0188 -0.5725 -1.4722
 2471SOL     OW18871   3.722   2.057   8.362 -0.2529 -0.2805 -0.3180
 2471SOL    HW118872   3.635   2.093   8.344 -0.2064  1.0334  2.0580
 2471SOL    HW218873   3.750   2.114   8.434  1.5199 -0.2744 -1.0334
 2472SOL     OW18874   3.001   3.055   3.911 -0.1373  0.1824 -0.3279
 2472SOL    HW118875   3.023   2.979   3.964  1.9614  0.7724 -0.3447
 2472SOL    HW218876   2.926   3.028   3.857  0.1351  2.6178 -1.9385
 2473SOL     OW18877   0.820   2.325   8.430  0.6252  0.0730 -0.4324
 2473SOL    HW118878   0.891   2.342   8.491  1.3580  0.8189 -1.5015
 2473SOL    HW218879   0.761   2.275   8.486  0.1860 -0.1980 -1.1271
 2474SOL     OW18880   0.564   4.567   6.190 -0.5183  0.6650 -0.1823
 2474SOL    HW118881   0.567   4.597   6.099  1.4453 -0.8128 -0.6064
 2474SOL    HW218882   0.519   4.484   6.178  0.5084  0.1527 -0.5162
 2475SOL     OW18883   1.878   2.529   9.738  0.2033  0.7040 -0.1679
 2475SOL    HW118884   1.898   2.590   9.667 -0.9971 -1.3562 -2.2799
 2475SOL    HW218885   1.955   2.526   9.795 -1.3682  0.2660  1.8903
 2476SOL     OW18886   0.826   2.477  14.425 -0.6668  0.0569 -0.4296
 2476SOL    HW118887   0.909   2.501  14.467 -1.5019  2.4635 -0.1191
 2476SOL    HW218888   0.777   2.553  14.456  2.2433  2.5095 -1.8130
 2477SOL     OW18889   0.063   4.554   9.776  0.3130  0.3452  0.1900
 2477SOL    HW118890   4.719   4.508   9.826 -1.0343  3.2442  1.0566
 2477SOL    HW218891   0.031   4.644   9.785 -0.4193 -0.1609  2.6938
 2478SOL     OW18892   2.776   1.208   6.547 -0.5381 -0.2974 -0.1121
 2478SOL    HW118893   2.752   1.121   6.579  1.3817 -0.8111 -0.0945
 2478SOL    HW218894   2.689   1.247   6.553  0.0161  0.5654  1.9383
 2479SOL     OW18895   1.838   2.713   5.808 -0.0050 -0.2286 -0.3746
 2479SOL    HW118896   1.775   2.674   5.869 -0.8301  1.1422 -0.3636
 2479SOL    HW218897   1.882   2.640   5.764  0.2368 -0.5418  0.3674
 2480SOL     OW18898   2.215   4.203  11.057 -0.3891  0.2354 -0.1657
 2480SOL    HW118899   2.156   4.185  10.984  0.9183 -0.0680 -1.1345
 2480SOL    HW218900   2.152   4.250  11.112  1.2990  2.1823  0.0930
 2481SOL     OW18901   1.037   2.543  14.587 -0.1931  0.5751 -0.6327
 2481SOL    HW118902   1.112   2.490  14.558 -0.9210  0.2161 -1.8613
 2481SOL    HW218903   1.055   2.547  14.681  1.0150  0.9913 -0.8832
 2482SOL     OW18904   1.927   0.317  10.363  0.0883 -0.4289  0.8250
 2482SOL    HW118905   1.975   0.363  10.432  0.2872  0.1632  0.2910
 2482SOL    HW218906   1.909   0.230  10.399  2.0216 -0.7228  1.0967
 2483SOL     OW18907   2.576   4.101   5.842  0.2085  0.3686 -0.3469
 2483SOL    HW118908   2.561   4.042   5.768 -1.0790  1.9255 -1.3413
 2483SOL    HW218909   2.591   4.036   5.910  0.3448  0.3887 -0.3579
 2484SOL     OW18910   2.274   1.911   1.907 -0.4036 -0.0093  0.8956
 2484SOL    HW118911   2.284   1.995   1.952 -1.0769  1.7897 -2.2868
 2484SOL    HW218912   2.198   1.873   1.951 -0.3678 -1.1432 -0.0303
 2485SOL     OW18913   2.203   1.381   3.035  0.0408  0.0100  0.3003
 2485SOL    HW118914   2.296   1.376   3.016  0.5910  2.7323  2.2929
 2485SOL    HW218915   2.211   1.440   3.110 -1.1070 -1.1451  1.3369
 2486SOL     OW18916   3.201   2.302   4.357 -0.3929  0.2916  0.0292
 2486SOL    HW118917   3.233   2.341   4.276 -1.9712  1.9347  0.1726
 2486SOL    HW218918   3.277   2.259   4.396 -0.4001  0.9306  0.7507
 2487SOL     OW18919   2.458   1.859   7.958 -0.1858 -0.2008  0.3617
 2487SOL    HW118920   2.548   1.887   7.939 -0.7098  0.0932 -1.7423
 2487SOL    HW218921   2.408   1.940   7.962  1.2115  0.7256 -0.6064
 2488SOL     OW18922   1.805   1.426   8.703  0.5839 -0.1406  1.0015
 2488SOL    HW118923   1.829   1.470   8.622  0.3019 -0.0607  0.9631
 2488SOL    HW218924   1.828   1.335   8.686 -1.5011 -0.8469  1.9500
 2489SOL     OW18925   2.063   0.935   9.481  0.3700  0.0804  0.0758
 2489SOL    HW118926   2.105   0.851   9.461 -0.6748 -0.8457  1.7834
 2489SOL    HW218927   1.997   0.911   9.546 -0.0633 -1.6935 -1.0250
 2490SOL     OW18928   1.195   2.423   2.304 -0.3470  0.9146  0.6021
 2490SOL    HW118929   1.139   2.352   2.335 -0.9242  1.2415  0.3043
 2490SOL    HW218930   1.271   2.368   2.286 -0.8956  0.2613  0.3001
 2491SOL     OW18931   2.309   3.745   0.460 -0.1752 -0.2402 -0.3442
 2491SOL    HW118932   2.299   3.762   0.554  1.7584  1.0027 -0.3691
 2491SOL    HW218933   2.402   3.726   0.463  0.0880  0.9844 -0.5268
 2492SOL     OW18934   4.299   2.263  11.565 -1.0975 -0.4884  0.2295
 2492SOL    HW118935   4.360   2.189  11.559 -0.4264 -0.0696  1.8396
 2492SOL    HW218936   4.277   2.255  11.658 -0.7619  1.1132  0.4346
 2493SOL     OW18937   1.717   4.671  14.133 -0.6044 -0.2375  0.0389
 2493SOL    HW118938   1.655   4.721  14.080 -0.1971  0.9158  0.6739
 2493SOL    HW218939   1.671   4.587  14.125  0.7440 -1.1494  1.8447
 2494SOL     OW18940   3.379   2.416   3.118  0.6300 -0.2920  0.3219
 2494SOL    HW118941   3.303   2.465   3.088  0.5058 -1.7466 -1.7348
 2494SOL    HW218942   3.416   2.386   3.035 -0.7463  1.5383 -0.9619
 2495SOL     OW18943   0.444   0.259   4.707 -0.3272  0.2458  0.0733
 2495SOL    HW118944   0.430   0.278   4.615  0.0880  0.1121 -0.0201
 2495SOL    HW218945   0.410   0.169   4.706  2.6837 -0.8984 -0.4239
 2496SOL     OW18946   2.931   3.931   7.873 -0.0482 -0.6361 -0.6659
 2496SOL    HW118947   2.985   3.935   7.952 -2.2391 -1.3513  0.8447
 2496SOL    HW218948   2.851   3.892   7.907 -0.1494 -0.2167 -0.4259
 2497SOL     OW18949   2.983   4.484   6.926  0.2820  0.5675 -0.1607
 2497SOL    HW118950   3.008   4.547   6.995 -1.4565  1.1424 -0.0688
 2497SOL    HW218951   2.952   4.543   6.858  1.3978 -0.3031 -1.4188
 2498SOL     OW18952   2.319   4.148   6.728  0.2806 -0.1912  0.2358
 2498SOL    HW118953   2.386   4.094   6.686 -1.3586 -0.2386 -2.2666
 2498SOL    HW218954   2.367   4.231   6.730 -0.5938  0.2716  1.5308
 2499SOL     OW18955   2.351   1.861   7.432 -0.5476  0.2673 -0.4329
 2499SOL    HW118956   2.340   1.956   7.426 -4.7486 -0.2260 -0.6690
 2499SOL    HW218957   2.420   1.856   7.498  1.7769  1.3357 -2.7774
 2500SOL     OW18958   2.025   1.067  14.848 -0.7360  0.1394  0.0977
 2500SOL    HW118959   1.949   1.044  14.794  0.1501 -2.2938 -0.0945
 2500SOL    HW218960   1.996   1.044  14.937 -0.0102  3.3544  1.1641
 2501SOL     OW18961   4.526   1.055  10.428  0.3456  0.3597 -0.2116
 2501SOL    HW118962   4.471   1.018  10.359  0.6194 -0.4327 -0.0020
 2501SOL    HW218963   4.594   1.104  10.381  0.5635  0.7723  0.5353
 2502SOL     OW18964   0.592   1.230   2.673 -0.6722 -1.1936  0.2644
 2502SOL    HW118965   0.573   1.303   2.732 -0.4649  0.4764 -1.7380
 2502SOL    HW218966   0.615   1.272   2.591 -0.3530 -0.2309  0.8463
 2503SOL     OW18967   0.668   0.637  10.192 -0.2705 -0.1559 -0.3299
 2503SOL    HW118968   0.577   0.666  10.183 -0.5141 -0.1104  2.2326
 2503SOL    HW218969   0.671   0.631  10.287  1.4162 -0.4245 -0.4175
 2504SOL     OW18970   1.069   3.238  13.872 -0.2546 -0.1435 -0.5549
 2504SOL    HW118971   1.090   3.264  13.962 -2.4320 -0.4671  0.0637
 2504SOL    HW218972   0.995   3.298  13.860  0.5199  0.6718 -1.2534
 2505SOL     OW18973   3.763   0.001   4.199 -0.5596  0.1842  0.2828
 2505SOL    HW118974   3.780   0.058   4.124 -0.3500 -1.1630 -0.6898
 2505SOL    HW218975   3.851   4.695   4.224  0.2339  0.9151 -1.6397
 2506SOL     OW18976   3.676   1.484  15.652 -0.2301  0.5271  0.2091
 2506SOL    HW118977   3.765   1.517  15.657  0.0508  0.0035 -1.2037
 2506SOL    HW218978   3.636   1.561  15.612  2.4074  0.6289 -2.2289
 2507SOL     OW18979   1.853   3.439  10.762 -0.0285 -0.0283 -0.3539
 2507SOL    HW118980   1.897   3.520  10.789 -0.5441  0.2458 -0.3177
 2507SOL    HW218981   1.776   3.449  10.819  0.6708  0.6054  0.4753
 2508SOL     OW18982   0.181   2.511  12.700  0.0755  0.1724  0.5956
 2508SOL    HW118983   0.142   2.513  12.613  1.7089 -0.1071 -0.1402
 2508SOL    HW218984   0.194   2.604  12.720  1.4777 -0.1152  1.0333
 2509SOL     OW18985   2.404   2.594  11.938  0.5402  0.5393 -0.1140
 2509SOL    HW118986   2.412   2.657  11.867  1.4124 -0.9302 -1.3269
 2509SOL    HW218987   2.318   2.614  11.976 -0.0051  0.7844 -1.4862
 2510SOL     OW18988   1.210   3.411  13.178 -0.4842 -0.3473 -0.0863
 2510SOL    HW118989   1.217   3.407  13.273 -1.7477  0.5691  0.0385
 2510SOL    HW218990   1.148   3.483  13.170 -1.7361 -1.4338 -0.1353
 2511SOL     OW18991   0.502   0.733  14.348 -0.1884  0.3345  0.5281
 2511SOL    HW118992   0.457   0.798  14.401 -1.2398 -0.6996  0.9167
 2511SOL    HW218993   0.432   0.681  14.308  0.0044 -0.0177  0.6440
 2512SOL     OW18994   1.520   3.515   7.868 -0.0339  0.3240 -0.0080
 2512SOL    HW118995   1.599   3.521   7.814  0.1236 -0.0960  0.1786
 2512SOL    HW218996   1.558   3.485   7.950 -2.8301  1.8102  1.8580
 2513SOL     OW18997   3.569   4.207  13.933 -0.1190 -0.0893  0.6579
 2513SOL    HW118998   3.583   4.117  13.961  0.5285  0.9436  3.6065
 2513SOL    HW218999   3.630   4.208  13.859  0.5728  3.7091  1.3053
 2514SOL     OW19000   3.262   2.475   6.878  0.3137  0.2263 -0.3166
 2514SOL    HW119001   3.341   2.425   6.860  1.4561  2.0295 -0.2131
 2514SOL    HW219002   3.274   2.561   6.839 -0.7994  1.1453  1.3605
 2515SOL     OW19003   1.693   1.545  10.857 -0.1409  0.4421  0.2904
 2515SOL    HW119004   1.745   1.487  10.802 -2.2086  0.6467 -1.8498
 2515SOL    HW219005   1.618   1.488  10.870  1.0695 -0.7611  2.0608
 2516SOL     OW19006   3.308   3.858   3.939 -0.2594 -0.1487 -0.4930
 2516SOL    HW119007   3.390   3.810   3.934 -0.3260 -0.2235 -0.8935
 2516SOL    HW219008   3.269   3.807   4.010  0.3723  1.3645  0.9349
 2517SOL     OW19009   0.991   2.243  15.377  0.0724  0.3132 -1.1121
 2517SOL    HW119010   0.994   2.284  15.463 -4.3837  0.2494 -0.8988
 2517SOL    HW219011   0.898   2.225  15.362  0.3552 -2.1137  0.0052
 2518SOL     OW19012   0.616   3.416  17.029 -0.1532 -0.1291  0.1070
 2518SOL    HW119013   0.650   3.505  17.016 -1.5666  0.0506 -2.5138
 2518SOL    HW219014   0.685   3.383  17.086  0.5423  1.0217 -0.0694
 2519SOL     OW19015   0.522   3.646   6.207 -0.1065 -0.4953  0.1516
 2519SOL    HW119016   0.454   3.585   6.178 -1.1506  0.4836  0.5315
 2519SOL    HW219017   0.520   3.692   6.124 -0.1766 -0.0078  0.4234
 2520SOL     OW19018   2.620   1.187   8.076  0.2600 -0.4644  0.0896
 2520SOL    HW119019   2.623   1.278   8.106  0.1511 -0.2610 -0.5381
 2520SOL    HW219020   2.583   1.197   7.989 -0.6725 -0.2645  0.5098
 2521SOL     OW19021   2.261   3.191  12.636 -0.3374  0.0195  1.0145
 2521SOL    HW119022   2.201   3.115  12.633  0.4613 -0.5908  0.5851
 2521SOL    HW219023   2.210   3.261  12.597 -1.7417 -2.3383 -1.3989
 2522SOL     OW19024   2.673   3.762   4.926  0.5595  0.9316 -0.2108
 2522SOL    HW119025   2.642   3.779   4.837 -1.3095 -0.8613  0.1153
 2522SOL    HW219026   2.624   3.823   4.981  1.7428  1.6186  0.0948
 2523SOL     OW19027   0.925   1.340  14.636 -0.7914  0.0881 -0.3400
 2523SOL    HW119028   0.896   1.251  14.620  0.7362 -0.7098  1.3025
 2523SOL    HW219029   0.957   1.368  14.550  1.3388  0.1436  0.4602
 2524SOL     OW19030   1.394   1.458   7.961  0.0442  0.1089 -0.2716
 2524SOL    HW119031   1.341   1.445   7.883  0.8506 -3.3610 -0.2655
 2524SOL    HW219032   1.329   1.444   8.030  0.6951  1.0267  0.5361
 2525SOL     OW19033   0.390   4.650  17.323 -0.0161 -0.1710 -0.4099
 2525SOL    HW119034   0.452   4.580  17.306  1.6281  1.6657 -1.8441
 2525SOL    HW219035   0.309   4.601  17.340  0.3309 -0.8595 -0.7215
 2526SOL     OW19036   0.724   2.457   9.739  0.4152  0.6207  0.6695
 2526SOL    HW119037   0.687   2.424   9.657  0.0700  2.6863 -0.0236
 2526SOL    HW219038   0.733   2.549   9.711  4.3684  0.5455  1.7232
 2527SOL     OW19039   1.933   3.266   0.089 -0.0558 -0.3828  0.1624
 2527SOL    HW119040   1.974   3.190   0.130 -0.3710  0.3553  1.8672
 2527SOL    HW219041   1.980   3.336   0.134 -0.5701  0.0189  0.0793
 2528SOL     OW19042   2.014   2.636   4.429  0.0044  0.0619 -0.0854
 2528SOL    HW119043   2.097   2.607   4.392 -0.3926 -0.2838 -0.7039
 2528SOL    HW219044   2.042   2.670   4.514 -0.1126  0.4185 -0.1895
 2529SOL     OW19045   4.477   3.844   3.145  0.0755 -0.1082  0.0889
 2529SOL    HW119046   4.398   3.836   3.091  2.4409 -1.5450 -3.1264
 2529SOL    HW219047   4.484   3.754   3.175 -1.6188 -0.5245 -0.7467
 2530SOL     OW19048   4.592   1.665   5.700  0.4134 -0.5301  0.0780
 2530SOL    HW119049   4.574   1.758   5.686 -0.7969 -1.0139 -1.6277
 2530SOL    HW219050   4.588   1.638   5.608  0.8707 -1.2682  0.2729
 2531SOL     OW19051   1.561   1.878  11.430 -0.6497 -0.4067 -0.0225
 2531SOL    HW119052   1.506   1.952  11.457 -0.3005 -0.4352  0.7721
 2531SOL    HW219053   1.642   1.916  11.397 -1.4357 -0.1187 -1.6188
 2532SOL     OW19054   1.750   2.704   9.175  0.6145 -0.1446 -0.3347
 2532SOL    HW119055   1.672   2.734   9.129  0.7675  2.3015  1.0205
 2532SOL    HW219056   1.819   2.712   9.108 -0.0860  2.4073 -0.7272
 2533SOL     OW19057   2.521   1.381   1.778  0.0538 -0.5117 -0.0479
 2533SOL    HW119058   2.482   1.322   1.714  2.4992 -0.4925 -1.5323
 2533SOL    HW219059   2.502   1.468   1.741  1.2615 -0.9797 -1.7365
 2534SOL     OW19060   2.411   4.143   1.813 -0.1740 -0.0107 -0.7174
 2534SOL    HW119061   2.504   4.155   1.791 -0.1363 -0.5423 -0.8580
 2534SOL    HW219062   2.407   4.182   1.900 -4.8674  0.3442 -1.1139
 2535SOL     OW19063   1.567   0.875   4.448 -0.4207 -0.3842  0.4256
 2535SOL    HW119064   1.563   0.794   4.396 -1.5034 -0.2074  0.2328
 2535SOL    HW219065   1.662   0.877   4.459 -0.8802 -1.5627  4.6252
 2536SOL     OW19066   3.393   1.432  17.107  0.3957 -0.5993  1.0216
 2536SOL    HW119067   3.300   1.429  17.083  0.6248  1.8634 -0.2350
 2536SOL    HW219068   3.398   1.376  17.184  1.2200 -1.5852  0.2431
 2537SOL     OW19069   1.558   2.075   7.911  0.2548 -0.5610  0.3504
 2537SOL    HW119070   1.587   2.083   7.820  1.4785  0.8373  0.8638
 2537SOL    HW219071   1.530   1.984   7.905 -1.1138 -0.1788  1.0633
 2538SOL     OW19072   0.406   3.209   5.187 -0.2443 -0.3452  0.3558
 2538SOL    HW119073   0.480   3.193   5.246  0.1425 -3.3627 -0.9812
 2538SOL    HW219074   0.389   3.303   5.192 -4.0204 -1.1113  1.5903
 2539SOL     OW19075   1.635   1.431   4.288 -0.2201  0.6075 -0.2267
 2539SOL    HW119076   1.547   1.393   4.299 -0.7535  1.2473 -2.2527
 2539SOL    HW219077   1.608   1.522   4.303  1.1713  0.7657  1.2772
 2540SOL     OW19078   1.350   2.023   8.498 -0.3012  0.6270 -0.4113
 2540SOL    HW119079   1.290   2.016   8.572  1.7259  3.8700  1.5343
 2540SOL    HW219080   1.330   1.945   8.447  1.1166 -0.3586  0.5121
 2541SOL     OW19081   2.831   3.021  15.104  0.6115  0.1311  0.2255
 2541SOL    HW119082   2.901   3.038  15.041 -0.6708  1.4620 -0.8376
 2541SOL    HW219083   2.868   2.974  15.179 -2.9306  0.0595  1.9634
 2542SOL     OW19084   0.061   0.505  16.225  0.0455 -0.6300  0.6392
 2542SOL    HW119085   0.103   0.426  16.257  2.7081  1.7835  3.1115
 2542SOL    HW219086   4.715   0.466  16.171  0.3066 -0.1197 -0.0712
 2543SOL     OW19087   2.350   4.626  10.494 -0.1591  0.2270  0.0720
 2543SOL    HW119088   2.278   4.606  10.555  0.2170 -2.4744 -0.3572
 2543SOL    HW219089   2.300   4.659  10.419  2.6014 -0.2308 -1.9829
 2544SOL     OW19090   3.544   2.461   2.375  0.0338 -0.0419 -0.7250
 2544SOL    HW119091   3.602   2.424   2.442  0.6742  0.4062 -1.0426
 2544SOL    HW219092   3.593   2.427   2.301  1.8788  0.8154  0.1123
 2545SOL     OW19093   2.034   2.068   1.807 -0.1172  0.1625  0.5472
 2545SOL    HW119094   2.107   2.012   1.779 -0.2381  0.1674  0.2178
 2545SOL    HW219095   1.987   2.078   1.724 -0.2887  0.3022  0.6631
 2546SOL     OW19096   2.524   4.643   2.475  0.0443  0.6871 -0.1825
 2546SOL    HW119097   2.475   4.618   2.553  0.2097 -0.9031 -0.5931
 2546SOL    HW219098   2.518   4.561   2.426  3.4396  0.9008 -0.9483
 2547SOL     OW19099   2.577   2.693   6.300 -0.0035 -0.4422  0.2121
 2547SOL    HW119100   2.647   2.756   6.316 -1.8394  1.6637 -0.0292
 2547SOL    HW219101   2.499   2.745   6.319 -1.2698 -1.8280 -1.1678
 2548SOL     OW19102   3.787   2.068  15.379 -0.1554 -0.3484 -0.4562
 2548SOL    HW119103   3.696   2.097  15.389 -0.2821 -1.0854  0.5591
 2548SOL    HW219104   3.781   1.974  15.361  1.9942 -0.9230  1.9151
 2549SOL     OW19105   0.025   0.070  10.946 -0.0530 -0.5069  0.0955
 2549SOL    HW119106   0.039   0.154  10.904 -0.0913  0.0219  1.1406
 2549SOL    HW219107   4.718   0.103  11.031 -4.0370 -1.7071 -0.7899
 2550SOL     OW19108   1.449   1.534   5.953  0.7753 -0.0651  0.1880
 2550SOL    HW119109   1.405   1.462   5.999 -0.5041  0.0515 -0.8366
 2550SOL    HW219110   1.536   1.500   5.972  1.7664  2.7273  0.6209
 2551SOL     OW19111   0.564   2.368   9.508 -0.3645  0.1772  0.0698
 2551SOL    HW119112   0.570   2.302   9.440 -0.6549 -2.0514  2.2210
 2551SOL    HW219113   0.496   2.330   9.563 -1.3079 -0.0445 -1.2529
 2552SOL     OW19114   4.439   2.362   2.440 -0.1237 -0.2047 -0.6651
 2552SOL    HW119115   4.411   2.421   2.370  1.4111  0.0753 -1.0448
 2552SOL    HW219116   4.482   2.297   2.385 -0.0620 -1.4898  0.8906
 2553SOL     OW19117   3.071   1.779   8.234  0.2353 -0.0075 -0.1220
 2553SOL    HW119118   2.977   1.773   8.249 -0.0555  1.0377 -1.4257
 2553SOL    HW219119   3.076   1.866   8.193 -0.8145  0.2823  0.3502
 2554SOL     OW19120   2.407   3.353  15.357 -0.0186 -0.4362  0.1475
 2554SOL    HW119121   2.372   3.265  15.369  1.0747 -1.0990 -1.4330
 2554SOL    HW219122   2.357   3.397  15.426 -0.7483 -1.5231  0.3143
 2555SOL     OW19123   3.832   3.550  12.820 -0.1467 -0.9855 -0.0930
 2555SOL    HW119124   3.823   3.479  12.884  0.2310 -0.0031  1.0468
 2555SOL    HW219125   3.830   3.627  12.876  1.9684 -1.1791  0.2483
 2556SOL     OW19126   1.416   2.292   2.265  0.7082 -0.0405 -0.1571
 2556SOL    HW119127   1.480   2.343   2.217  2.2481 -1.8353 -0.0087
 2556SOL    HW219128   1.428   2.324   2.354 -1.4617  0.3829 -0.0105
 2557SOL     OW19129   2.870   0.476   2.383 -0.5008 -0.0658  0.1471
 2557SOL    HW119130   2.791   0.429   2.356  0.1352 -1.0806  0.0491
 2557SOL    HW219131   2.925   0.398   2.389 -1.6445 -1.0391 -2.0189
 2558SOL     OW19132   2.752   2.748   8.291 -0.3425 -0.4252  0.2606
 2558SOL    HW119133   2.711   2.661   8.295 -2.5824  0.5890 -0.8388
 2558SOL    HW219134   2.754   2.766   8.197  0.6566 -1.0852  0.1496
 2559SOL     OW19135   3.932   2.412  11.718 -0.2003  0.2265 -0.2592
 2559SOL    HW119136   3.855   2.389  11.666 -1.0447 -0.1703  1.1783
 2559SOL    HW219137   3.950   2.329  11.764 -3.3921 -0.0491  0.4435
 2560SOL     OW19138   2.862   0.486   8.757 -0.3613 -0.3918  0.1308
 2560SOL    HW119139   2.837   0.394   8.754 -1.0888 -0.1289 -2.5179
 2560SOL    HW219140   2.909   0.492   8.840  2.6343 -0.4697 -1.5540
 2561SOL     OW19141   2.556   3.892   2.104 -0.0755 -0.5862  0.2195
 2561SOL    HW119142   2.537   3.936   2.187 -1.5046  1.0638 -0.9991
 2561SOL    HW219143   2.486   3.934   2.054  0.6366  0.3713  0.0123
 2562SOL     OW19144   3.336   1.621   6.712  0.1687 -0.0593 -0.1762
 2562SOL    HW119145   3.302   1.640   6.800  1.8294 -0.5546  0.5795
 2562SOL    HW219146   3.363   1.709   6.684  1.2239  0.0062  1.0434
 2563SOL     OW19147   2.904   4.403   2.328 -0.0078  0.2339  0.1741
 2563SOL    HW119148   2.949   4.319   2.317 -1.1233 -0.1626 -1.4418
 2563SOL    HW219149   2.872   4.401   2.418  0.6324  0.5794  0.4079
 2564SOL     OW19150   1.236   1.685  12.011  0.3422  0.4761 -0.5527
 2564SOL    HW119151   1.241   1.640  11.926 -2.1397  0.7318 -0.8515
 2564SOL    HW219152   1.327   1.715  12.016 -0.3316  2.1678  1.3877
 2565SOL     OW19153   3.006   0.535   1.974 -0.0930  0.3018 -0.2034
 2565SOL    HW119154   2.925   0.546   1.923  0.1837  0.9089 -0.5033
 2565SOL    HW219155   2.978   0.555   2.063 -3.2080  1.4671 -1.4085
 2566SOL     OW19156   1.777   1.711   3.734 -0.0521 -0.9917  0.1084
 2566SOL    HW119157   1.749   1.624   3.764  0.0145 -2.2870 -3.5427
 2566SOL    HW219158   1.854   1.688   3.682  0.3804  0.2768  0.1910
 2567SOL     OW19159   1.091   4.435  14.975 -0.2041  0.5762  0.7126
 2567SOL    HW119160   1.022   4.392  15.026 -0.4771  1.2945  0.9540
 2567SOL    HW219161   1.161   4.424  15.038  1.2412 -1.8590 -1.3250
 2568SOL     OW19162   4.243   3.883  13.722 -0.1852  0.3246 -0.5026
 2568SOL    HW119163   4.326   3.857  13.760 -0.3295  1.0385  0.3107
 2568SOL    HW219164   4.184   3.841  13.785 -1.8585 -0.3555 -2.5172
 2569SOL     OW19165   3.582   1.225  13.655 -0.0697 -0.5316  0.0147
 2569SOL    HW119166   3.545   1.232  13.743 -0.9128  0.1376 -0.3988
 2569SOL    HW219167   3.663   1.193  13.696 -0.1999  0.5317  1.1200
 2570SOL     OW19168   2.177   1.038   9.196 -0.5731 -0.1290  0.2321
 2570SOL    HW119169   2.156   0.944   9.202  1.1838 -0.4256  2.0572
 2570SOL    HW219170   2.130   1.069   9.274 -0.4102  1.6816 -0.4093
 2571SOL     OW19171   0.094   0.426   7.405 -0.2328 -0.2743 -0.3935
 2571SOL    HW119172   0.013   0.408   7.452 -1.1467 -1.2155 -2.3171
 2571SOL    HW219173   0.090   0.522   7.406 -0.9259 -0.3172  0.5951
 2572SOL     OW19174   2.134   0.312   8.673  0.0594  0.3497 -1.0080
 2572SOL    HW119175   2.130   0.217   8.664  0.1663 -0.0582  3.0506
 2572SOL    HW219176   2.174   0.341   8.591 -1.0245 -0.5467 -1.8420
 2573SOL     OW19177   0.867   2.800   0.913  0.2254  0.0620 -0.0457
 2573SOL    HW119178   0.802   2.730   0.919 -1.6651  1.8634  0.5154
 2573SOL    HW219179   0.926   2.783   0.987 -1.0284  0.3488  1.0247
 2574SOL     OW19180   4.369   1.194   8.008  1.0340 -0.5345 -0.1763
 2574SOL    HW119181   4.303   1.232   7.951  0.6973 -0.0992  0.5001
 2574SOL    HW219182   4.438   1.261   8.014  0.5052  0.0276 -0.3815
 2575SOL     OW19183   3.376   1.956   8.136 -0.6508 -0.3302  0.0907
 2575SOL    HW119184   3.386   1.964   8.231 -0.5290  0.7136 -0.0077
 2575SOL    HW219185   3.293   2.002   8.127 -1.6511 -2.5328 -1.7908
 2576SOL     OW19186   4.306   0.965   7.219 -0.2322  0.3226  0.5647
 2576SOL    HW119187   4.328   0.982   7.128  0.4552  2.5174  1.1293
 2576SOL    HW219188   4.342   1.039   7.268  0.3203  1.4760 -1.6097
 2577SOL     OW19189   0.114   2.049   5.716  0.4952 -0.3501  0.1385
 2577SOL    HW119190   0.114   1.956   5.735  3.4862 -0.7828 -2.0520
 2577SOL    HW219191   0.126   2.049   5.621  0.4775 -2.2513  0.1336
 2578SOL     OW19192   4.010   1.160  17.077  0.1019 -0.4017 -0.6690
 2578SOL    HW119193   4.078   1.125  17.136  1.1227  0.6593 -1.2131
 2578SOL    HW219194   3.992   1.097  17.008 -0.9463 -1.9672  1.0166
 2579SOL     OW19195   0.161   2.618   5.724 -0.4514  0.2138  0.1606
 2579SOL    HW119196   0.208   2.570   5.792 -1.7650  0.0086  0.9187
 2579SOL    HW219197   0.173   2.706   5.762 -0.9486  0.3548 -0.0066
 2580SOL     OW19198   4.548   4.025  12.922  0.1719  0.0383 -0.2388
 2580SOL    HW119199   4.493   3.949  12.900 -0.7044  0.7065 -0.3405
 2580SOL    HW219200   4.631   3.990  12.955  0.3726  1.8837  1.2411
 2581SOL     OW19201   0.290   2.086   1.452  0.3863 -0.4712  0.8383
 2581SOL    HW119202   0.313   2.172   1.415 -0.8557 -0.0341  1.0870
 2581SOL    HW219203   0.273   2.036   1.372  0.8768  0.3416  0.2151
 2582SOL     OW19204   2.934   1.160   4.443 -0.1402 -0.0615  0.0384
 2582SOL    HW119205   2.914   1.069   4.462  0.2106 -0.0713  0.3570
 2582SOL    HW219206   2.965   1.147   4.353 -0.8494 -0.3242 -0.1690
 2583SOL     OW19207   3.975   0.933  15.866  0.4667 -0.2667  0.6203
 2583SOL    HW119208   3.990   1.025  15.847 -2.0154 -0.2819 -1.3682
 2583SOL    HW219209   3.993   0.937  15.960  1.0953 -0.1246  0.4958
 2584SOL     OW19210   1.274   4.460   9.199 -0.4418 -0.2249  0.0843
 2584SOL    HW119211   1.268   4.548   9.237 -0.7467  0.7296 -2.2135
 2584SOL    HW219212   1.362   4.456   9.163 -0.5338 -2.4348  0.0740
 2585SOL     OW19213   2.997   1.390   5.425 -0.0578 -0.0100  0.0996
 2585SOL    HW119214   2.937   1.385   5.351 -0.6988  0.5967  0.5780
 2585SOL    HW219215   2.970   1.468   5.473  1.2921  0.4130  0.1636
 2586SOL     OW19216   0.573   3.252   3.805 -0.4181  0.5566 -0.0028
 2586SOL    HW119217   0.597   3.183   3.744  1.0680  0.9287  0.1778
 2586SOL    HW219218   0.488   3.283   3.775  0.7544  3.7567  0.0459
 2587SOL     OW19219   4.582   3.208   8.596 -0.5640  0.1465  0.0485
 2587SOL    HW119220   4.504   3.153   8.588  0.4180 -1.1548 -0.5978
 2587SOL    HW219221   4.645   3.153   8.643 -0.5011  2.1982  2.3693
 2588SOL     OW19222   0.795   2.610   9.134  0.0959 -0.1186 -0.3028
 2588SOL    HW119223   0.737   2.534   9.132 -0.6721  0.5163 -1.7257
 2588SOL    HW219224   0.870   2.572   9.089  0.0136  1.3390 -1.6749
 2589SOL     OW19225   0.085   1.463  15.738 -0.2659 -0.0678  0.0432
 2589SOL    HW119226   0.148   1.535  15.748  1.9928 -2.1193  0.6392
 2589SOL    HW219227   0.146   1.390  15.753 -0.5875 -0.0684  1.3667
 2590SOL     OW19228   3.765   4.242   9.934  0.0770 -0.4240  0.6382
 2590SOL    HW119229   3.796   4.166   9.983  1.6885  0.1163  0.4724
 2590SOL    HW219230   3.794   4.227   9.844  2.2778 -0.5283  1.3602
 2591SOL     OW19231   3.000   1.806   7.866 -0.0780  0.3936  0.0077
 2591SOL    HW119232   3.078   1.758   7.893 -0.5763 -0.3721  0.1194
 2591SOL    HW219233   2.978   1.754   7.788  2.2670 -0.9812  0.2595
 2592SOL     OW19234   0.445   0.412  15.416 -0.1928  0.0436  0.8693
 2592SOL    HW119235   0.513   0.421  15.482  0.4014 -0.8844  0.3821
 2592SOL    HW219236   0.419   0.504  15.406 -0.9390 -0.2107  0.4914
 2593SOL     OW19237   1.043   1.280  15.368  0.3177 -0.2220 -0.1178
 2593SOL    HW119238   1.012   1.253  15.282 -0.3135  1.3975 -0.4050
 2593SOL    HW219239   0.995   1.361  15.389 -0.7358 -0.1982 -2.5603
 2594SOL     OW19240   1.793   1.549   2.309 -0.0760  0.1899 -0.4576
 2594SOL    HW119241   1.829   1.532   2.222 -0.2112 -1.4911 -0.1941
 2594SOL    HW219242   1.769   1.460   2.335  3.3778 -0.8699 -1.0154
 2595SOL     OW19243   2.828   0.278  17.018  0.1412 -0.0258 -0.2478
 2595SOL    HW119244   2.809   0.337  17.091  1.1761  0.9672 -0.7788
 2595SOL    HW219245   2.917   0.244  17.019 -0.2366 -1.0363 -1.4433
 2596SOL     OW19246   4.143   3.450   6.392  0.3574  0.1181  0.3103
 2596SOL    HW119247   4.086   3.524   6.370 -0.4842 -0.3943  0.7649
 2596SOL    HW219248   4.231   3.480   6.368 -0.1683  0.3824 -1.2592
 2597SOL     OW19249   2.521   1.867  12.705 -0.0487  0.3304 -0.0113
 2597SOL    HW119250   2.559   1.782  12.681 -1.8149 -0.4076 -0.2333
 2597SOL    HW219251   2.553   1.861  12.795 -2.1838  0.2891  0.7456
 2598SOL     OW19252   3.918   1.020  13.807 -0.0048  0.5898  0.2391
 2598SOL    HW119253   3.825   1.016  13.831  0.2173  0.4000  1.0941
 2598SOL    HW219254   3.953   0.973  13.882  0.1444 -0.7229 -0.6651
 2599SOL     OW19255   0.374   3.333   7.075  0.0436 -0.4738 -0.0096
 2599SOL    HW119256   0.426   3.264   7.035  1.1893  0.5202 -0.2450
 2599SOL    HW219257   0.389   3.406   7.015 -1.3483 -0.2726 -0.1191
 2600SOL     OW19258   3.306   1.475  12.458  0.3325 -0.1323  0.3919
 2600SOL    HW119259   3.241   1.461  12.527 -2.1532  0.1706 -1.8944
 2600SOL    HW219260   3.262   1.409  12.404 -1.9669  0.2127  1.8172
 2601SOL     OW19261   2.658   3.888   8.176 -0.2062 -0.1399  0.2030
 2601SOL    HW119262   2.667   3.944   8.099 -2.7579  1.2551  0.9546
 2601SOL    HW219263   2.609   3.816   8.137  0.9619 -0.7921 -0.0868
 2602SOL     OW19264   4.261   2.197   3.288 -0.2037  0.0180  0.3897
 2602SOL    HW119265   4.323   2.237   3.349 -0.9321  0.3600  0.9062
 2602SOL    HW219266   4.243   2.265   3.223  0.9795 -1.1818 -1.1892
 2603SOL     OW19267   2.206   0.833   4.108  0.0282  0.5237 -0.1139
 2603SOL    HW119268   2.216   0.887   4.187  1.9705  0.1192 -0.0924
 2603SOL    HW219269   2.288   0.785   4.106  0.2657  0.8966  1.0667
 2604SOL     OW19270   4.163   3.212   6.561 -0.3597  0.3768 -0.2291
 2604SOL    HW119271   4.173   3.298   6.521 -2.5488 -0.4545 -2.5828
 2604SOL    HW219272   4.144   3.149   6.491  0.2351 -0.9380  0.7891
 2605SOL     OW19273   3.546   2.494   5.389 -0.1656 -0.1643 -0.3140
 2605SOL    HW119274   3.622   2.552   5.382  0.9814 -1.7501 -0.9614
 2605SOL    HW219275   3.519   2.523   5.476  2.9887 -0.6568  0.8301
 2606SOL     OW19276   1.368   3.328   7.601  0.1918 -0.0832 -0.2624
 2606SOL    HW119277   1.273   3.332   7.607  0.2661 -0.1675  0.9009
 2606SOL    HW219278   1.394   3.371   7.682  0.5001 -0.9928  0.1154
 2607SOL     OW19279   1.315   3.513  15.579  0.3096  0.5366  0.1408
 2607SOL    HW119280   1.400   3.542  15.611  2.0893 -0.7912 -3.4095
 2607SOL    HW219281   1.266   3.595  15.585 -2.8597 -1.3728  0.4004
 2608SOL     OW19282   3.685   1.053   4.195  0.3293  1.0404  0.0740
 2608SOL    HW119283   3.592   1.043   4.174  0.7621 -0.0699 -1.3413
 2608SOL    HW219284   3.682   1.036   4.289 -0.2684  0.6198 -0.0232
 2609SOL     OW19285   2.830   4.209   4.312 -0.1823  0.1962  0.4180
 2609SOL    HW119286   2.891   4.236   4.381  1.4036  0.4259 -1.0695
 2609SOL    HW219287   2.751   4.197   4.364  0.8380 -2.0225  1.4658
 2610SOL     OW19288   2.363   4.002   2.967 -0.0302 -0.1243 -0.2045
 2610SOL    HW119289   2.316   3.964   3.042 -1.8218  0.2064 -1.1640
 2610SOL    HW219290   2.427   4.051   3.017  0.0648  1.2649 -1.7026
 2611SOL     OW19291   3.279   4.680   7.618  0.2798  0.5694  0.5231
 2611SOL    HW119292   3.204   4.643   7.571 -0.2231  1.5105  0.5890
 2611SOL    HW219293   3.232   0.040   7.633 -0.2297  0.4247 -0.2735
 2612SOL     OW19294   3.774   1.231  12.402  0.1533 -0.6458  0.6016
 2612SOL    HW119295   3.769   1.197  12.313  1.3815 -0.1620  0.3522
 2612SOL    HW219296   3.688   1.268  12.420  0.2581  0.0594 -0.3590
 2613SOL     OW19297   3.233   3.792   8.141 -0.0291 -0.5109  0.5659
 2613SOL    HW119298   3.261   3.701   8.135 -0.1568 -0.5562  0.6520
 2613SOL    HW219299   3.141   3.773   8.159 -0.8014  0.8551 -2.0054
 2614SOL     OW19300   3.750   1.898   6.409 -0.3130 -0.1960 -0.4261
 2614SOL    HW119301   3.840   1.898   6.441 -0.3636  0.4322 -0.2893
 2614SOL    HW219302   3.751   1.984   6.368 -0.9164  0.0969  0.1755
 2615SOL     OW19303   0.795   1.788  16.716  0.5831 -0.1598  0.2212
 2615SOL    HW119304   0.772   1.777  16.809  0.2625 -0.9019  0.0588
 2615SOL    HW219305   0.712   1.814  16.676  0.3998 -1.0736 -0.0082
 2616SOL     OW19306   3.539   3.093  14.254  0.9173  0.1117  0.4023
 2616SOL    HW119307   3.467   3.155  14.272  0.9604 -0.3933  2.3650
 2616SOL    HW219308   3.607   3.161  14.251  1.0785 -0.0455  0.5034
 2617SOL     OW19309   0.423   2.080  16.898 -0.2218 -0.1565  0.6414
 2617SOL    HW119310   0.517   2.093  16.885 -0.3222  0.4570  0.5126
 2617SOL    HW219311   0.374   2.161  16.882  1.9365  1.5341  2.5814
 2618SOL     OW19312   4.209   1.460  11.554  0.1389 -0.9844  0.0417
 2618SOL    HW119313   4.290   1.511  11.564 -0.9623  0.7395  0.1335
 2618SOL    HW219314   4.161   1.465  11.637  1.7922  2.3905  0.7826
 2619SOL     OW19315   4.108   2.307   4.687  0.1209  0.2459  0.6337
 2619SOL    HW119316   4.122   2.212   4.684  1.5508  0.4311  1.7271
 2619SOL    HW219317   4.026   2.318   4.734 -0.5170  1.6831 -0.8118
 2620SOL     OW19318   3.968   3.832   6.855  0.3937 -0.6925 -0.1264
 2620SOL    HW119319   3.917   3.770   6.802 -1.0870 -0.6265  1.2251
 2620SOL    HW219320   3.938   3.920   6.832 -1.7696 -1.7559 -1.4024
 2621SOL     OW19321   3.069   3.204  12.260  0.5562  0.1900 -0.7442
 2621SOL    HW119322   3.035   3.200  12.349  1.6884  0.9203 -0.2830
 2621SOL    HW219323   3.142   3.266  12.263 -0.3856  1.2555  0.2309
 2622SOL     OW19324   0.057   2.582  15.373 -0.4712 -0.9591  0.0269
 2622SOL    HW119325   0.089   2.672  15.365 -0.5135 -1.1142 -1.8644
 2622SOL    HW219326   4.695   2.591  15.417 -0.7965  2.0448 -1.1913
 2623SOL     OW19327   3.532   4.489   9.449 -0.1415  0.4801  0.0125
 2623SOL    HW119328   3.620   4.456   9.430 -0.2249  0.2131  0.0923
 2623SOL    HW219329   3.523   4.553   9.379  0.8574 -0.2099 -0.7513
 2624SOL     OW19330   1.779   1.484   8.387 -0.4429 -0.1005  0.0790
 2624SOL    HW119331   1.851   1.444   8.339 -0.9164  0.2100 -0.9075
 2624SOL    HW219332   1.806   1.576   8.390 -0.7182 -0.1140  2.8106
 2625SOL     OW19333   1.689   2.091   7.667  0.8862  0.6202  0.0071
 2625SOL    HW119334   1.698   2.153   7.595 -0.9371  0.2354 -0.5488
 2625SOL    HW219335   1.740   2.014   7.639 -3.4280 -1.8996 -0.9097
 2626SOL     OW19336   1.088   4.541   2.993  0.2530  0.3404  0.3577
 2626SOL    HW119337   1.056   4.466   2.944  2.3176 -0.1619 -0.2280
 2626SOL    HW219338   1.123   4.501   3.073 -1.7593  2.1190  2.1194
 2627SOL     OW19339   2.788   2.278   7.311 -0.1363 -0.2810 -0.2417
 2627SOL    HW119340   2.861   2.272   7.250 -0.4832 -0.0755 -0.6780
 2627SOL    HW219341   2.710   2.246   7.266  0.9568 -0.0988 -2.2894
 2628SOL     OW19342   3.449   2.198   5.402 -0.1584 -0.3088 -0.0547
 2628SOL    HW119343   3.502   2.274   5.424  0.9806 -0.7044 -1.4116
 2628SOL    HW219344   3.473   2.140   5.474 -1.3418 -0.0601  0.5360
 2629SOL     OW19345   2.575   3.635  13.159 -0.5088  1.4833 -0.1317
 2629SOL    HW119346   2.535   3.713  13.199 -0.9065  1.4156 -0.4012
 2629SOL    HW219347   2.495   3.595  13.125  3.2717 -4.0531 -2.5027
 2630SOL     OW19348   0.835   1.516   9.116  0.1562  0.0129  0.4863
 2630SOL    HW119349   0.799   1.445   9.169 -0.0133 -0.4893 -0.3104
 2630SOL    HW219350   0.837   1.585   9.183 -0.2325  0.9938 -0.5007
 2631SOL     OW19351   3.890   4.202  14.504  0.2306 -0.2772  0.1773
 2631SOL    HW119352   3.940   4.221  14.584 -1.4052  2.5202  0.5354
 2631SOL    HW219353   3.949   4.232  14.435  1.3256 -3.1441 -0.1072
 2632SOL     OW19354   0.653   4.225   6.353 -0.5276  0.2001  0.4919
 2632SOL    HW119355   0.618   4.293   6.296 -2.4509  1.3951  3.0792
 2632SOL    HW219356   0.711   4.281   6.404 -0.2464  1.4852 -1.2583
 2633SOL     OW19357   1.637   1.997  10.510 -0.3665  0.1222 -0.3992
 2633SOL    HW119358   1.645   2.087  10.542 -2.1713  0.2966 -0.3905
 2633SOL    HW219359   1.634   2.014  10.416 -0.5794 -1.0210 -0.6018
 2634SOL     OW19360   2.408   4.379   6.343  0.3450  0.0648  0.3817
 2634SOL    HW119361   2.439   4.456   6.295 -0.8635 -0.0984 -0.6289
 2634SOL    HW219362   2.438   4.317   6.277 -1.5540 -1.6632  1.1592
 2635SOL     OW19363   0.464   1.102   6.669 -0.6456  0.1563  0.3347
 2635SOL    HW119364   0.453   1.196   6.681 -0.5746  0.7309 -4.1905
 2635SOL    HW219365   0.423   1.103   6.582  1.3508  0.8641 -0.6135
 2636SOL     OW19366   2.589   4.375  17.327 -0.0821 -0.1465 -0.0620
 2636SOL    HW119367   2.601   4.357  17.234  0.2599  0.3283 -0.1145
 2636SOL    HW219368   2.578   4.288  17.365 -1.1161 -0.7570 -1.7750
 2637SOL     OW19369   2.423   1.054   7.591  0.4410  0.0494  0.1167
 2637SOL    HW119370   2.479   1.117   7.545 -0.4643  1.5923  1.1351
 2637SOL    HW219371   2.348   1.064   7.533  0.7608  1.5560 -0.0614
 2638SOL     OW19372   1.766   2.796   7.710  0.4726  0.0855 -0.2787
 2638SOL    HW119373   1.760   2.876   7.658  1.2432 -0.0756 -0.6137
 2638SOL    HW219374   1.699   2.817   7.775  0.8101  1.1426 -0.2902
 2639SOL     OW19375   2.075   3.708   0.623  0.1400 -0.7120 -0.4537
 2639SOL    HW119376   1.990   3.693   0.582  0.0366 -1.3180 -0.0054
 2639SOL    HW219377   2.078   3.802   0.603 -1.4265 -0.9192 -1.6227
 2640SOL     OW19378   0.930   3.355   6.496  0.1188  0.4685 -0.2282
 2640SOL    HW119379   0.855   3.315   6.452 -0.8336  2.0744 -0.0531
 2640SOL    HW219380   0.922   3.431   6.439  3.1738 -0.9031 -2.5000
 2641SOL     OW19381   0.938   1.785   2.307 -0.1473  0.4097 -0.3834
 2641SOL    HW119382   0.961   1.824   2.222  0.4582 -1.9798 -1.3315
 2641SOL    HW219383   0.844   1.775   2.289 -0.2871 -0.1448  0.7186
 2642SOL     OW19384   0.242   0.458  14.456 -0.5830 -0.0338 -0.0431
 2642SOL    HW119385   0.153   0.492  14.457 -0.7540 -0.4475 -1.0321
 2642SOL    HW219386   0.288   0.497  14.382 -1.4225  1.5852  0.2933
 2643SOL     OW19387   2.511   0.846  12.170 -0.0612 -0.4119  0.1523
 2643SOL    HW119388   2.565   0.780  12.126  0.1351  0.6019 -1.1164
 2643SOL    HW219389   2.515   0.812  12.259  0.8769  0.2554  0.3606
 2644SOL     OW19390   4.388   3.270   5.604  0.3958 -0.5795 -0.6021
 2644SOL    HW119391   4.416   3.335   5.668  0.9299 -0.2598 -1.1592
 2644SOL    HW219392   4.390   3.324   5.524 -1.3519  2.7882  1.6095
 2645SOL     OW19393   0.472   2.980   6.288 -0.3134  0.2204 -0.5449
 2645SOL    HW119394   0.530   2.957   6.215  0.9160  3.5760 -0.5964
 2645SOL    HW219395   0.386   2.941   6.273  1.0588 -2.7579 -0.8568
 2646SOL     OW19396   3.661   2.572   7.962 -0.1126 -0.3155  0.5303
 2646SOL    HW119397   3.739   2.628   7.964  0.1861 -0.7017 -0.4552
 2646SOL    HW219398   3.633   2.592   7.873 -1.4581  1.0574  1.2675
 2647SOL     OW19399   1.553   1.019   1.946  0.2120  0.6222 -0.0618
 2647SOL    HW119400   1.512   1.068   2.017  1.2128  0.9448  0.2950
 2647SOL    HW219401   1.484   0.999   1.883  0.2034  3.3116 -0.9062
 2648SOL     OW19402   3.861   1.322  13.447  0.1440  0.7792 -0.2135
 2648SOL    HW119403   3.843   1.279  13.531 -0.7137  1.5688  0.0056
 2648SOL    HW219404   3.954   1.307  13.432 -0.4614 -3.1649  0.1576
 2649SOL     OW19405   3.350   1.778  13.379  0.0380 -0.7799  0.1269
 2649SOL    HW119406   3.398   1.845  13.427 -0.0456 -2.5459  2.6841
 2649SOL    HW219407   3.263   1.795  13.416  0.9531  0.4697  1.6633
 2650SOL     OW19408   2.660   3.301  10.971 -1.0231  0.2154  0.1413
 2650SOL    HW119409   2.663   3.280  10.878 -1.0233  1.2138 -0.0817
 2650SOL    HW219410   2.600   3.234  11.005 -1.5841  0.3203 -0.6350
 2651SOL     OW19411   3.549   0.960   8.590 -0.3899  0.0881 -0.1661
 2651SOL    HW119412   3.606   1.033   8.566 -1.9936  0.9510 -1.3269
 2651SOL    HW219413   3.498   1.004   8.659  1.3441 -0.2099  1.3124
 2652SOL     OW19414   1.687   3.128  15.714  0.2321 -0.3706 -0.5865
 2652SOL    HW119415   1.593   3.109  15.706  0.0659 -0.1206  0.8261
 2652SOL    HW219416   1.699   3.152  15.806  1.2245  0.8681 -1.0420
 2653SOL     OW19417   1.918   2.737  15.147 -0.3758 -0.1016 -0.2032
 2653SOL    HW119418   1.853   2.760  15.213 -0.5953 -0.1155 -0.4130
 2653SOL    HW219419   1.967   2.816  15.124 -0.8206  1.2108  3.3217
 2654SOL     OW19420   1.240   4.367   6.429  0.7017  0.1686 -0.2104
 2654SOL    HW119421   1.182   4.321   6.369  0.0670 -0.7537  1.1181
 2654SOL    HW219422   1.229   4.452   6.386  0.0578  0.0493 -0.2787
 2655SOL     OW19423   4.128   2.628  15.851 -0.5018 -0.2637  0.3129
 2655SOL    HW119424   4.195   2.578  15.803 -1.3370 -1.1142  0.0332
 2655SOL    HW219425   4.084   2.671  15.777 -2.9527  2.0034  3.1087
 2656SOL     OW19426   2.703   4.676   6.238 -0.2424  0.0346 -0.3493
 2656SOL    HW119427   2.622   4.685   6.188 -0.9027  1.6951  1.0245
 2656SOL    HW219428   2.733   4.588   6.218 -1.2757 -0.5041  0.4987
 2657SOL     OW19429   2.208   4.430   2.134 -0.5488 -0.0999  0.1449
 2657SOL    HW119430   2.155   4.403   2.209  0.2893  1.1200  1.1835
 2657SOL    HW219431   2.161   4.510   2.110 -1.7068 -1.0004 -0.5952
 2658SOL     OW19432   2.876   2.275   6.691 -0.0715  0.3495  0.0856
 2658SOL    HW119433   2.931   2.200   6.667  0.8824  0.5476  1.6296
 2658SOL    HW219434   2.812   2.232   6.747  0.7572  0.7772  1.3603
 2659SOL     OW19435   2.895   1.220   5.712  0.5227 -0.4413 -0.4140
 2659SOL    HW119436   2.951   1.142   5.718 -2.4912 -2.6829 -1.0731
 2659SOL    HW219437   2.966   1.279   5.687 -0.1226  0.5551  0.1192
 2660SOL     OW19438   0.844   4.286   6.056 -0.1036  0.1006  0.4104
 2660SOL    HW119439   0.776   4.228   6.022  0.1056 -1.7880  3.2598
 2660SOL    HW219440   0.831   4.358   5.994  0.2353 -0.7467 -0.6499
 2661SOL     OW19441   4.266   3.627   1.124  0.3679  0.0546  0.3342
 2661SOL    HW119442   4.298   3.540   1.146  1.3137  0.0051 -1.2552
 2661SOL    HW219443   4.313   3.671   1.195  0.6176 -0.1695  0.3060
 2662SOL     OW19444   4.061   3.429   7.788  0.2019  0.3995  0.4147
 2662SOL    HW119445   4.060   3.358   7.852  0.2231  0.1964  0.1865
 2662SOL    HW219446   4.018   3.503   7.831 -1.5390 -0.7358  0.5984
 2663SOL     OW19447   3.532   0.340   3.315 -0.0684  0.4858 -0.2921
 2663SOL    HW119448   3.599   0.279   3.346 -0.6164 -0.4520 -0.9497
 2663SOL    HW219449   3.462   0.288   3.274  1.0540  0.2791 -1.9353
 2664SOL     OW19450   3.977   3.598   1.067  0.5259 -0.1683 -0.3626
 2664SOL    HW119451   4.070   3.619   1.069  0.0206  2.1017 -1.3804
 2664SOL    HW219452   3.966   3.572   1.158  1.0412  2.1742  0.3510
 2665SOL     OW19453   1.908   4.117   6.063 -0.0267  0.2806  0.1073
 2665SOL    HW119454   1.816   4.118   6.091  0.2369 -0.8686  1.0249
 2665SOL    HW219455   1.956   4.103   6.145  0.5357 -0.7557 -0.3933
 2666SOL     OW19456   4.592   3.421   6.918  0.1934  0.2344  0.3269
 2666SOL    HW119457   4.620   3.408   7.008 -2.8642  1.3114  1.3896
 2666SOL    HW219458   4.514   3.474   6.933 -0.9494 -1.6546  1.0752
 2667SOL     OW19459   1.651   1.532   1.824 -0.1954  0.1070 -0.3049
 2667SOL    HW119460   1.579   1.571   1.774  0.3767 -1.3705 -2.2817
 2667SOL    HW219461   1.697   1.497   1.748 -1.8573 -0.0311 -1.2463
 2668SOL     OW19462   0.996   1.605  12.146  0.4921 -0.0858 -0.1760
 2668SOL    HW119463   1.063   1.578  12.084  0.4789  1.2464 -0.7661
 2668SOL    HW219464   0.960   1.681  12.101  1.6609 -0.2766 -1.4070
 2669SOL     OW19465   4.547   1.604   2.440  0.2629 -0.4779  0.0652
 2669SOL    HW119466   4.613   1.535   2.431  1.1676  0.3694  0.2330
 2669SOL    HW219467   4.473   1.544   2.452 -0.4826  0.7033  1.3757
 2670SOL     OW19468   2.470   0.474   2.080  0.4642 -0.1359  0.5181
 2670SOL    HW119469   2.503   0.563   2.091  0.2812  0.1509 -1.3543
 2670SOL    HW219470   2.479   0.461   1.986  1.5239 -0.3255  0.6480
 2671SOL     OW19471   3.987   1.513   9.192 -0.3158 -0.3680  0.1829
 2671SOL    HW119472   3.979   1.419   9.213 -2.1061 -0.2747 -0.0809
 2671SOL    HW219473   3.913   1.549   9.241  0.6533  2.0270 -0.1270
 2672SOL     OW19474   3.480   3.583   7.341 -0.5245 -0.1864 -0.3846
 2672SOL    HW119475   3.404   3.559   7.394 -1.6481  0.4773 -1.6855
 2672SOL    HW219476   3.554   3.528   7.367 -2.2634 -0.3983  4.0155
 2673SOL     OW19477   4.155   2.531   2.555  0.1074 -0.2080  0.6020
 2673SOL    HW119478   4.087   2.578   2.507 -0.3278 -1.3497  0.0909
 2673SOL    HW219479   4.202   2.508   2.474 -2.7807 -2.0663 -0.5723
 2674SOL     OW19480   3.272   4.219  15.547  0.0971 -0.0349  0.0389
 2674SOL    HW119481   3.331   4.294  15.552  0.4548 -0.4765  2.8873
 2674SOL    HW219482   3.314   4.176  15.473  1.4696 -1.5967  1.7006
 2675SOL     OW19483   4.549   3.000   5.752  0.5348 -0.6794 -0.1884
 2675SOL    HW119484   4.547   3.044   5.837  0.7693 -0.1825 -0.4386
 2675SOL    HW219485   4.543   2.908   5.777 -1.0906 -0.6342 -0.4391
 2676SOL     OW19486   3.386   1.445   7.846  0.1404  0.0106  0.0142
 2676SOL    HW119487   3.464   1.389   7.846 -0.5704 -0.9643 -0.7366
 2676SOL    HW219488   3.328   1.383   7.890  0.5611 -1.2435 -1.1954
 2677SOL     OW19489   1.204   1.065  15.409  0.6084  0.0341 -0.3012
 2677SOL    HW119490   1.139   1.011  15.365  0.4538 -0.7365  0.8812
 2677SOL    HW219491   1.174   1.155  15.401 -1.7006 -0.8377 -1.3050
 2678SOL     OW19492   2.881   2.580   4.934  0.2540  0.2833 -0.5108
 2678SOL    HW119493   2.954   2.554   4.990  0.9910  2.3362 -0.5161
 2678SOL    HW219494   2.894   2.675   4.934  1.5364  0.1017 -1.4120
 2679SOL     OW19495   0.329   3.426  14.438 -0.1670  0.9466  0.1218
 2679SOL    HW119496   0.342   3.384  14.353  1.9056  3.1410 -0.6580
 2679SOL    HW219497   0.412   3.406  14.481 -0.3422  1.5297  0.7402
 2680SOL     OW19498   1.238   1.128   8.050 -0.7037  0.2281  0.8696
 2680SOL    HW119499   1.304   1.169   8.106  0.5183 -0.6075  0.0490
 2680SOL    HW219500   1.234   1.182   7.972 -2.1715 -1.1891 -0.0343
 2681SOL     OW19501   0.662   2.788  12.030  0.4965 -0.1387  0.6520
 2681SOL    HW119502   0.594   2.761  12.092  0.2684 -1.6915 -0.2752
 2681SOL    HW219503   0.736   2.734  12.057  1.1845  1.1031  1.2449
 2682SOL     OW19504   0.980   1.723  16.436 -0.1895  0.3502 -0.4468
 2682SOL    HW119505   0.940   1.810  16.438  0.9662  0.8820 -0.5585
 2682SOL    HW219506   1.026   1.717  16.519  1.8542 -1.3514 -1.6994
 2683SOL     OW19507   3.697   0.420   9.977  0.0883 -0.1851  0.5790
 2683SOL    HW119508   3.612   0.415  10.020 -1.1444  0.0248 -1.8115
 2683SOL    HW219509   3.658   0.407   9.890 -0.8676  1.5604  0.7470
 2684SOL     OW19510   1.225   4.517   2.302  0.2158  0.2099 -0.3485
 2684SOL    HW119511   1.308   4.565   2.304 -0.0233  0.6690 -1.9008
 2684SOL    HW219512   1.185   4.537   2.387 -0.7342 -1.7682 -0.3295
 2685SOL     OW19513   4.175   1.201   8.308 -0.0012  0.3367  0.3547
 2685SOL    HW119514   4.257   1.246   8.326  0.4218  0.9895 -3.1784
 2685SOL    HW219515   4.214   1.130   8.257  1.0523 -0.8021  2.7568
 2686SOL     OW19516   4.668   2.340   3.494 -0.9783  0.0222 -0.0971
 2686SOL    HW119517   4.709   2.329   3.409  0.4144  0.5888  0.5094
 2686SOL    HW219518   4.574   2.347   3.476 -1.2634 -0.9412  1.0155
 2687SOL     OW19519   4.096   2.306   0.851  0.1069 -0.4671  0.8569
 2687SOL    HW119520   4.166   2.337   0.908  1.1362 -0.0823 -0.6034
 2687SOL    HW219521   4.015   2.326   0.898 -1.1569 -0.7414 -1.2347
 2688SOL     OW19522   2.279   4.207  12.141  0.1152 -0.2671 -0.4295
 2688SOL    HW119523   2.263   4.197  12.047 -0.9380  0.3559 -0.3132
 2688SOL    HW219524   2.312   4.118  12.156 -0.8605 -0.6919 -0.7611
 2689SOL     OW19525   2.728   3.046   5.964 -0.3242 -0.2209 -0.0524
 2689SOL    HW119526   2.785   3.028   6.039 -1.9290  0.4748  1.3265
 2689SOL    HW219527   2.668   2.972   5.964 -1.7991  0.9784  1.4098
 2690SOL     OW19528   4.235   0.631   2.587 -0.5165 -0.0064  0.0409
 2690SOL    HW119529   4.282   0.565   2.536  0.2236  0.7227 -0.2054
 2690SOL    HW219530   4.257   0.597   2.674  0.0569  0.8541  0.2284
 2691SOL     OW19531   0.369   0.421   0.615  0.2438  0.0751  0.2408
 2691SOL    HW119532   0.400   0.425   0.525 -0.0651 -0.1913  0.1219
 2691SOL    HW219533   0.453   0.405   0.657  0.4846  1.7669  0.3843
 2692SOL     OW19534   3.324   1.199   0.854  0.0537  0.0240 -0.2019
 2692SOL    HW119535   3.366   1.167   0.774 -0.6358 -0.7606 -0.2503
 2692SOL    HW219536   3.387   1.260   0.894  0.1903 -1.0762  1.2460
 2693SOL     OW19537   3.358   1.101   2.261  0.3595 -0.4101  0.0554
 2693SOL    HW119538   3.443   1.087   2.303  0.0397  0.8914  1.1563
 2693SOL    HW219539   3.367   1.045   2.185  0.2255 -0.2981 -0.0441
 2694SOL     OW19540   2.609   1.956   2.835 -0.9432  0.0485 -0.0487
 2694SOL    HW119541   2.670   1.999   2.775 -0.1132 -0.3660  0.4863
 2694SOL    HW219542   2.524   1.967   2.793 -0.6820  2.4141  0.0182
 2695SOL     OW19543   2.619   3.774   9.166  0.5892 -0.5160 -0.3594
 2695SOL    HW119544   2.706   3.788   9.203  0.0089 -1.7232  1.4676
 2695SOL    HW219545   2.627   3.690   9.121 -0.1655 -1.5300  1.3701
 2696SOL     OW19546   4.202   3.798   8.077  0.0039 -0.4627  0.2683
 2696SOL    HW119547   4.230   3.823   7.988  1.0034  1.8623  1.2215
 2696SOL    HW219548   4.272   3.736   8.097  2.3030  1.2084 -2.5120
 2697SOL     OW19549   0.095   4.566  11.424  0.0754 -0.5159 -0.1053
 2697SOL    HW119550   0.032   4.623  11.469  2.0275 -0.7205  2.8934
 2697SOL    HW219551   0.177   4.603  11.457 -0.6593 -1.1110  2.4045
 2698SOL     OW19552   3.453   0.516   4.885  0.1080  0.1339  0.0093
 2698SOL    HW119553   3.468   0.487   4.975 -0.8336 -1.4269 -0.3392
 2698SOL    HW219554   3.366   0.478   4.871  1.6635 -2.9197 -1.4256
 2699SOL     OW19555   3.226   0.695   0.651  0.6530 -0.1453  0.0581
 2699SOL    HW119556   3.319   0.714   0.667  0.1736  1.2540  1.2143
 2699SOL    HW219557   3.236   0.630   0.582  1.3623 -0.7670  0.7399
 2700SOL     OW19558   3.672   0.627   3.857  0.3514  0.1107  0.5650
 2700SOL    HW119559   3.654   0.554   3.917 -0.5688 -0.8421 -0.8768
 2700SOL    HW219560   3.700   0.580   3.779 -0.5670 -2.3120  1.7149
 2701SOL     OW19561   0.405   2.271   6.514 -0.1809 -0.0584 -0.5091
 2701SOL    HW119562   0.419   2.364   6.496  1.1736 -0.3048 -0.7684
 2701SOL    HW219563   0.461   2.249   6.589 -1.3228  1.3619  0.7779
 2702SOL     OW19564   3.544   1.757  10.417  0.9368 -0.2241 -0.4616
 2702SOL    HW119565   3.620   1.812  10.396  0.4887  0.0336 -1.4381
 2702SOL    HW219566   3.533   1.807  10.498 -0.9186  2.0510 -2.1063
 2703SOL     OW19567   1.525   3.707   3.065  0.3685  0.1570 -0.0728
 2703SOL    HW119568   1.444   3.746   3.099  1.8928  0.9787  2.6080
 2703SOL    HW219569   1.546   3.770   2.996  0.9605 -2.2380 -2.0770
 2704SOL     OW19570   2.911   2.335  15.070 -0.3788  0.3837  0.4213
 2704SOL    HW119571   2.976   2.358  15.003  0.4756  1.0852  1.4968
 2704SOL    HW219572   2.888   2.424  15.097 -0.9126 -0.1818  1.8318
 2705SOL     OW19573   4.199   3.021  12.100 -0.0620 -0.4929 -0.3146
 2705SOL    HW119574   4.160   2.957  12.040 -1.7072  0.4185 -0.2134
 2705SOL    HW219575   4.279   2.970  12.117  0.9225  0.6184 -1.6603
 2706SOL     OW19576   2.986   3.520   8.765 -0.4361  0.1479 -0.0134
 2706SOL    HW119577   2.951   3.555   8.847  0.3682 -1.6624  1.1034
 2706SOL    HW219578   3.057   3.581   8.748  1.3645 -2.1758 -0.7827
 2707SOL     OW19579   1.587   2.009   2.632 -0.3041 -0.3365 -0.5238
 2707SOL    HW119580   1.621   2.095   2.656  0.4326 -0.6196 -0.5753
 2707SOL    HW219581   1.554   2.020   2.543 -0.2375  0.8869 -0.4001
 2708SOL     OW19582   3.902   0.575   7.789  0.0277 -0.3356 -0.3010
 2708SOL    HW119583   3.892   0.521   7.868 -0.4022  0.6881  0.3475
 2708SOL    HW219584   3.972   0.636   7.815  1.2714 -2.6856  1.9561
 2709SOL     OW19585   1.177   2.892   5.434  0.4752 -0.6722 -0.0354
 2709SOL    HW119586   1.169   2.945   5.355 -1.2689 -1.3034 -0.2864
 2709SOL    HW219587   1.192   2.806   5.395  2.6268 -0.7472  0.9459
 2710SOL     OW19588   0.229   3.853   4.338  0.1034  0.1849  0.2299
 2710SOL    HW119589   0.249   3.896   4.421  0.2843 -0.4881  0.5306
 2710SOL    HW219590   0.314   3.811   4.328 -0.1039 -0.1046 -0.2896
 2711SOL     OW19591   3.145   1.814   8.866  0.2000 -0.5108  0.3978
 2711SOL    HW119592   3.197   1.749   8.914 -0.2438 -0.0812  1.4428
 2711SOL    HW219593   3.114   1.875   8.933  0.6646 -0.7838  0.8662
 2712SOL     OW19594   0.081   3.854   4.845 -0.2341  0.2469  0.1126
 2712SOL    HW119595   0.153   3.844   4.782 -0.5640  3.6421 -0.8100
 2712SOL    HW219596   0.015   3.794   4.811  2.7974 -2.8786 -0.2931
 2713SOL     OW19597   1.350   1.282  13.090 -0.1358  0.5246 -0.2996
 2713SOL    HW119598   1.261   1.309  13.071  0.4331  1.1690 -2.1210
 2713SOL    HW219599   1.393   1.341  13.028 -2.6252  0.4417 -2.0798
 2714SOL     OW19600   4.400   3.495   7.407 -0.0940 -0.3357 -0.8466
 2714SOL    HW119601   4.416   3.588   7.389 -0.9356 -0.0232  0.0063
 2714SOL    HW219602   4.382   3.512   7.499 -0.0874  3.0322 -1.4785
 2715SOL     OW19603   2.450   2.697   8.218 -0.4494  0.2075  0.1583
 2715SOL    HW119604   2.362   2.721   8.245  0.1773  2.3963  0.2740
 2715SOL    HW219605   2.478   2.781   8.181 -1.0723 -0.7046 -2.3544
 2716SOL     OW19606   3.160   0.470   5.265 -0.3547  0.1570  0.5339
 2716SOL    HW119607   3.251   0.472   5.234 -0.2438  2.3682  0.9590
 2716SOL    HW219608   3.164   0.440   5.356 -2.4810 -0.1661  0.5106
 2717SOL     OW19609   1.564   2.621   5.088 -0.1791 -0.2512  0.0879
 2717SOL    HW119610   1.574   2.680   5.013  0.5813  0.5504  0.8241
 2717SOL    HW219611   1.497   2.556   5.064  0.1848 -0.5564 -0.1072
 2718SOL     OW19612   3.950   4.006  13.715  0.0130 -0.1260 -0.0610
 2718SOL    HW119613   4.005   3.955  13.655  1.8367  1.5231  0.2216
 2718SOL    HW219614   3.946   3.949  13.792 -1.5473 -0.4567 -0.3888
 2719SOL     OW19615   3.782   2.959   0.183  0.4329 -0.2067 -0.4307
 2719SOL    HW119616   3.705   2.902   0.176 -1.5839  2.5380 -0.6651
 2719SOL    HW219617   3.853   2.902   0.212  2.1586  0.8502 -2.5173
 2720SOL     OW19618   0.360   4.381   4.775 -0.0042  0.1743  0.6015
 2720SOL    HW119619   0.330   4.445   4.840  2.4045  0.1822  1.7196
 2720SOL    HW219620   0.345   4.419   4.688  1.3510  0.3836  0.4570
 2721SOL     OW19621   4.248   1.424  16.182 -0.0327 -0.3713  0.6333
 2721SOL    HW119622   4.312   1.389  16.119 -1.1507  1.1416 -1.3163
 2721SOL    HW219623   4.280   1.373  16.256  0.5649 -1.0165 -0.0608
 2722SOL     OW19624   2.667   1.452   3.104  0.4136  0.4572 -0.0169
 2722SOL    HW119625   2.663   1.533   3.053 -0.4955  0.8342  0.6300
 2722SOL    HW219626   2.759   1.462   3.129  0.3220 -0.1669  0.5847
 2723SOL     OW19627   2.528   1.024  11.295  0.0324 -0.1745  0.3199
 2723SOL    HW119628   2.604   1.038  11.351 -1.8770 -0.3756  2.9577
 2723SOL    HW219629   2.455   1.070  11.336 -0.1102  1.2319 -1.4924
 2724SOL     OW19630   3.555   0.239   6.509 -0.3034  0.3694 -0.1011
 2724SOL    HW119631   3.525   0.253   6.598 -1.9772  1.1757 -0.7962
 2724SOL    HW219632   3.573   0.331   6.488 -0.4243  0.2043 -0.9185
 2725SOL     OW19633   2.897   1.996   6.662 -0.6880  0.1690 -0.0284
 2725SOL    HW119634   2.826   1.937   6.637  1.0318 -2.0321  0.3298
 2725SOL    HW219635   2.916   1.970   6.752 -0.7064  2.7637  0.7334
 2726SOL     OW19636   3.365   3.798   6.801 -0.0680  0.1852 -0.6403
 2726SOL    HW119637   3.421   3.795   6.879 -2.1094 -1.4149  0.7606
 2726SOL    HW219638   3.395   3.879   6.760  1.7468 -0.2103 -0.1245
 2727SOL     OW19639   1.192   4.079   6.597  0.0667  0.2055 -0.0034
 2727SOL    HW119640   1.264   4.021   6.621 -0.4792  0.3012  1.8842
 2727SOL    HW219641   1.220   4.151   6.654 -0.5235  1.4770 -1.3342
 2728SOL     OW19642   4.152   2.903   4.403  0.3302 -0.0975 -0.7078
 2728SOL    HW119643   4.189   2.904   4.315 -2.2867  0.6702 -1.7931
 2728SOL    HW219644   4.153   2.996   4.427 -1.2499  0.1337 -1.5272
 2729SOL     OW19645   2.635   0.106   7.356 -0.2527 -0.0495  0.4949
 2729SOL    HW119646   2.588   0.136   7.434  1.7115  0.9115  1.3158
 2729SOL    HW219647   2.601   0.018   7.340 -1.7947  0.5482  0.5475
 2730SOL     OW19648   2.177   0.637   2.509  0.0882  0.2042  0.1632
 2730SOL    HW119649   2.100   0.595   2.470  0.2874 -0.8059  0.8756
 2730SOL    HW219650   2.201   0.700   2.441 -0.7114  0.0909 -0.2310
 2731SOL     OW19651   3.136   1.217   8.185 -0.2196  0.6347  0.3380
 2731SOL    HW119652   3.097   1.211   8.272 -0.1770 -1.0155  0.2395
 2731SOL    HW219653   3.168   1.128   8.172  1.2468  1.1434  0.4536
 2732SOL     OW19654   1.106   2.531   2.566 -0.1217 -0.2525 -0.3111
 2732SOL    HW119655   1.140   2.533   2.477 -0.7562  0.2767 -0.5452
 2732SOL    HW219656   1.017   2.499   2.550  0.0977 -1.7120  1.3942
 2733SOL     OW19657   4.323   3.374  12.596 -0.2572  0.1263  0.0254
 2733SOL    HW119658   4.254   3.378  12.530 -0.4158 -2.5964 -0.0094
 2733SOL    HW219659   4.371   3.291  12.589  1.0539  0.9919 -1.0791
 2734SOL     OW19660   2.613   3.321   7.459 -0.0101 -0.1785 -0.0452
 2734SOL    HW119661   2.703   3.348   7.477 -0.8759  0.8368  2.6990
 2734SOL    HW219662   2.605   3.314   7.363 -0.6460 -1.4567  0.1067
 2735SOL     OW19663   0.500   0.335   8.171 -0.2247  0.8645  0.3783
 2735SOL    HW119664   0.527   0.289   8.250  0.1532  2.0585  0.9443
 2735SOL    HW219665   0.573   0.382   8.130  2.1161 -1.4500  1.9595
 2736SOL     OW19666   3.350   4.282   0.673  0.0919  0.0057  0.0679
 2736SOL    HW119667   3.318   4.326   0.752 -1.1699  0.0687 -0.4725
 2736SOL    HW219668   3.438   4.279   0.710  0.4699  0.0475 -0.8508
 2737SOL     OW19669   0.368   2.653   1.326  0.7197  0.6214  0.3407
 2737SOL    HW119670   0.321   2.627   1.405  1.1235  0.2174  0.4482
 2737SOL    HW219671   0.453   2.611   1.339  0.8960  1.5502  2.1503
 2738SOL     OW19672   2.923   1.040   9.233  0.2322  0.1187 -0.5149
 2738SOL    HW119673   2.952   0.996   9.313 -2.3628 -2.7427 -1.1890
 2738SOL    HW219674   2.827   1.041   9.239  0.2598  2.6396 -0.3667
 2739SOL     OW19675   2.420   0.647   4.126  0.2527 -0.5615 -0.3275
 2739SOL    HW119676   2.479   0.597   4.071 -0.3475  0.8065 -2.2098
 2739SOL    HW219677   2.414   0.597   4.207 -0.8755 -2.1083 -1.3684
 2740SOL     OW19678   2.655   0.095   7.755  0.4218  0.4913 -0.2307
 2740SOL    HW119679   2.620   0.164   7.698  1.1690  2.1846  1.3851
 2740SOL    HW219680   2.660   0.128   7.844  0.4212 -0.4175  0.1044
 2741SOL     OW19681   1.958   2.680  17.627  0.0738  0.0849 -0.3290
 2741SOL    HW119682   1.990   2.636   0.012  0.3135 -0.1496 -0.5587
 2741SOL    HW219683   2.041   2.683  17.578 -1.7015 -2.2206 -3.5459
 2742SOL     OW19684   2.169   1.751   2.195 -0.5538  0.0085  0.6601
 2742SOL    HW119685   2.077   1.769   2.175 -0.6165  1.2080  1.9657
 2742SOL    HW219686   2.189   1.824   2.254  2.3212 -1.2249  1.1466
 2743SOL     OW19687   1.480   2.336   7.815  0.0433  0.1860  0.0432
 2743SOL    HW119688   1.570   2.368   7.814  0.9496 -2.3395  0.6211
 2743SOL    HW219689   1.489   2.260   7.873 -0.2627  0.5308  0.5442
 2744SOL     OW19690   3.289   3.889   8.669 -0.1514  0.6082  0.3810
 2744SOL    HW119691   3.310   3.797   8.654  3.0817  1.4596 -0.3774
 2744SOL    HW219692   3.284   3.883   8.765  1.1471  0.3094  0.4275
 2745SOL     OW19693   3.544   0.851   3.761  0.3411  0.3615  0.0370
 2745SOL    HW119694   3.578   0.791   3.828  3.4039 -0.2091 -2.0100
 2745SOL    HW219695   3.523   0.789   3.692 -0.5790 -1.0019  1.5408
 2746SOL     OW19696   1.592   3.983   2.525  0.2944  0.1839 -0.5830
 2746SOL    HW119697   1.594   3.888   2.536  0.2460  0.1175 -1.1671
 2746SOL    HW219698   1.577   3.994   2.431 -0.4441  1.2856 -0.3362
 2747SOL     OW19699   0.328   3.917   7.559 -0.2198  0.9841 -0.3845
 2747SOL    HW119700   0.394   3.986   7.547  2.0805 -1.4132 -1.4195
 2747SOL    HW219701   0.312   3.885   7.470  0.7652  0.2629 -0.2968
 2748SOL     OW19702   1.149   4.625  15.628  0.3342  0.0087 -0.3530
 2748SOL    HW119703   1.243   4.643  15.629  0.4647 -0.7365  2.5563
 2748SOL    HW219704   1.122   4.680  15.555  0.8360  2.1848  1.0827
 2749SOL     OW19705   3.409   1.424  10.830 -0.0024 -0.4128  0.1624
 2749SOL    HW119706   3.314   1.421  10.842  0.0431  1.8902  1.0787
 2749SOL    HW219707   3.430   1.333  10.810  0.6785 -0.3726  0.6528
 2750SOL     OW19708   4.179   0.022   7.048  0.0888  0.6048  0.6112
 2750SOL    HW119709   4.175   0.101   7.102  0.5089 -0.3155  2.0145
 2750SOL    HW219710   4.221   0.062   6.972  0.9387  0.4378  0.9943
 2751SOL     OW19711   1.918   2.847   2.366 -0.0412  0.0803  0.1261
 2751SOL    HW119712   1.941   2.927   2.319 -0.3323  0.0790 -0.0208
 2751SOL    HW219713   1.832   2.818   2.335  0.2741  2.0758 -2.6531
 2752SOL     OW19714   2.967   4.511   9.199  0.3472  0.2559 -0.6847
 2752SOL    HW119715   2.896   4.572   9.177 -1.6049 -2.3810 -1.6961
 2752SOL    HW219716   2.923   4.475   9.276  1.5339 -2.5919 -1.3285
 2753SOL     OW19717   4.114   4.610   8.410  1.0882  0.8769  0.2606
 2753SOL    HW119718   4.157   4.689   8.443  2.0371 -0.6144  2.5716
 2753SOL    HW219719   4.094   4.562   8.490  0.1531  0.7306 -0.0635
 2754SOL     OW19720   2.886   2.607  15.142 -0.2721 -0.1905 -0.4728
 2754SOL    HW119721   2.960   2.646  15.189 -0.8007 -1.4884  1.4231
 2754SOL    HW219722   2.834   2.687  15.143  1.9691  1.2419  1.0815
 2755SOL     OW19723   3.894   3.886   7.251  0.8843  0.3241 -0.3024
 2755SOL    HW119724   3.927   3.840   7.329  1.2879 -0.2748 -0.8275
 2755SOL    HW219725   3.911   3.976   7.280  2.2678 -0.0919  0.2205
 2756SOL     OW19726   0.836   1.448   2.103  0.0529 -0.2733  0.3155
 2756SOL    HW119727   0.878   1.446   2.190  0.0031 -0.1956  0.3409
 2756SOL    HW219728   0.816   1.538   2.081 -1.2786 -0.8226 -0.6893
 2757SOL     OW19729   2.034   0.996   4.395 -0.0975 -0.0955  0.6139
 2757SOL    HW119730   2.028   1.036   4.308  0.8533  1.0216  1.0556
 2757SOL    HW219731   2.128   0.982   4.407 -0.1101 -1.4646 -0.8144
 2758SOL     OW19732   3.092   0.863  15.609  0.4995 -0.2830 -0.2097
 2758SOL    HW119733   3.000   0.883  15.629  0.4348  0.2788 -1.0709
 2758SOL    HW219734   3.126   0.833  15.693  0.1540  0.9922  0.3877
 2759SOL     OW19735   0.211   1.327   5.642  0.0110  0.1919 -0.3442
 2759SOL    HW119736   0.212   1.391   5.570  2.5577  2.8216  2.0277
 2759SOL    HW219737   0.175   1.249   5.600 -0.9170  1.2856 -1.6146
 2760SOL     OW19738   3.211   4.128   3.967  0.6129  0.0688 -0.2064
 2760SOL    HW119739   3.137   4.153   3.912  0.7452  2.9136  0.9165
 2760SOL    HW219740   3.200   4.033   3.971  1.8784 -0.0287  0.7676
 2761SOL     OW19741   3.533   1.147   5.638  0.3382  0.4977 -0.0017
 2761SOL    HW119742   3.474   1.082   5.677  2.4639 -2.5049 -1.7349
 2761SOL    HW219743   3.618   1.113   5.667  0.6335  0.6492 -0.6849
 2762SOL     OW19744   0.226   4.135   9.056 -0.4413  0.1313  0.0951
 2762SOL    HW119745   0.260   4.091   8.978 -0.1280  0.0832  0.2595
 2762SOL    HW219746   0.150   4.080   9.075 -1.0399 -0.6309 -4.5486
 2763SOL     OW19747   2.842   1.851   3.543 -0.0094  0.0254 -0.3785
 2763SOL    HW119748   2.820   1.811   3.460 -2.9775  2.5942 -0.8283
 2763SOL    HW219749   2.937   1.856   3.532  0.0528 -1.6732 -0.5160
 2764SOL     OW19750   1.733   1.081   9.557 -0.8525 -0.2102  0.1483
 2764SOL    HW119751   1.726   0.989   9.533  0.7326  0.5298 -3.1342
 2764SOL    HW219752   1.798   1.080   9.627  0.6637  0.9546 -1.2366
 2765SOL     OW19753   4.058   4.390  15.125 -0.3245  0.2080 -0.3610
 2765SOL    HW119754   3.966   4.385  15.149 -0.6006  0.9656 -1.2849
 2765SOL    HW219755   4.096   4.319  15.178 -1.1506  0.1802  0.1881
 2766SOL     OW19756   1.462   1.068   4.678  0.1888  0.7560  0.3957
 2766SOL    HW119757   1.504   1.012   4.613 -0.0322 -0.2236  1.1010
 2766SOL    HW219758   1.398   1.121   4.630 -0.2300 -0.7328 -0.6936
 2767SOL     OW19759   3.876   3.944   8.203 -0.2557 -0.3696 -0.2692
 2767SOL    HW119760   3.781   3.939   8.200 -0.3637 -0.7788  3.6822
 2767SOL    HW219761   3.894   3.974   8.114  0.4420  0.7987  0.2610
 2768SOL     OW19762   4.500   3.009   4.742 -0.1898 -0.0547  0.1537
 2768SOL    HW119763   4.546   3.049   4.816  0.9780  1.8773 -1.6234
 2768SOL    HW219764   4.540   2.922   4.741 -2.2499 -1.0095 -0.8568
 2769SOL     OW19765   0.426   1.770   9.187 -0.0272 -0.2239 -0.2280
 2769SOL    HW119766   0.336   1.738   9.188  0.2264 -0.9506 -3.1943
 2769SOL    HW219767   0.414   1.850   9.136  1.0569 -1.5742 -2.5712
 2770SOL     OW19768   3.224   1.988   4.840  0.2413  0.2163 -0.4129
 2770SOL    HW119769   3.235   2.070   4.889  2.5938 -0.2682 -0.1337
 2770SOL    HW219770   3.190   1.934   4.912  0.4600  0.4102 -0.1622
 2771SOL     OW19771   0.976   2.988  11.172  0.0798 -0.4599 -0.0745
 2771SOL    HW119772   0.932   2.941  11.242  0.1906  1.2581  1.1593
 2771SOL    HW219773   1.000   2.919  11.110  3.2334  0.2900  0.2621
 2772SOL     OW19774   2.817   1.684   1.418  0.6643 -0.1857 -1.2823
 2772SOL    HW119775   2.870   1.714   1.492 -2.8608  0.1780  1.1019
 2772SOL    HW219776   2.810   1.770   1.377  2.6685  1.4009  1.7251
 2773SOL     OW19777   4.701   4.511  14.983  0.3587  0.0095  0.7417
 2773SOL    HW119778   0.030   4.488  14.906  2.8440  1.8121  1.8676
 2773SOL    HW219779   0.014   4.595  15.011 -1.6213  1.7826 -2.0895
 2774SOL     OW19780   0.492   0.048   1.511  0.1237  0.1614 -0.6892
 2774SOL    HW119781   0.409   0.030   1.467  0.3209  1.5757 -1.6311
 2774SOL    HW219782   0.467   0.044   1.603  1.2687  4.4264 -0.1783
 2775SOL     OW19783   2.365   1.692   3.761  0.1402 -0.1030  0.6033
 2775SOL    HW119784   2.388   1.599   3.767 -0.8117 -0.3662  0.2343
 2775SOL    HW219785   2.279   1.688   3.803 -0.3674 -1.8268 -0.5824
 2776SOL     OW19786   2.651   3.216   5.558 -0.3141 -0.3667  0.7316
 2776SOL    HW119787   2.686   3.218   5.469  0.7114  1.8869  1.1905
 2776SOL    HW219788   2.558   3.205   5.538 -0.6192  0.7325  1.5610
 2777SOL     OW19789   1.842   1.346   5.398 -0.0277  0.0545 -0.1738
 2777SOL    HW119790   1.855   1.382   5.486  0.1165 -0.0122 -0.1691
 2777SOL    HW219791   1.924   1.297   5.393 -0.7547 -1.2545  0.6858
 2778SOL     OW19792   0.987   1.626   5.383  0.5846  0.6498  0.2588
 2778SOL    HW119793   0.916   1.563   5.369  0.7864  0.0950  1.6728
 2778SOL    HW219794   1.050   1.587   5.443 -0.2659 -1.7811 -0.4365
 2779SOL     OW19795   2.381   1.757  17.596 -0.2977  0.3587 -0.0436
 2779SOL    HW119796   2.426   1.688  17.645 -3.6339  0.0363  2.5799
 2779SOL    HW219797   2.297   1.762  17.643  1.0083 -1.5389  2.5160
 2780SOL     OW19798   4.259   0.175   8.055 -0.5430  0.4544 -0.1005
 2780SOL    HW119799   4.354   0.159   8.056 -0.4460  1.1622  3.3340
 2780SOL    HW219800   4.227   0.096   8.098  3.1354 -1.0534 -0.1251
 2781SOL     OW19801   2.396   2.467   0.658  0.2980 -1.0402 -0.0695
 2781SOL    HW119802   2.307   2.432   0.655  0.4039 -1.2455 -0.9574
 2781SOL    HW219803   2.450   2.400   0.700  0.0009 -1.5906 -0.5647
 2782SOL     OW19804   4.536   3.731  11.764  0.7702  0.0990 -0.3541
 2782SOL    HW119805   4.560   3.638  11.755 -0.6061 -0.3395  0.5276
 2782SOL    HW219806   4.606   3.762  11.822 -0.7256 -1.5561  2.3730
 2783SOL     OW19807   1.990   3.519   3.044 -0.3557  0.7517  0.2083
 2783SOL    HW119808   1.991   3.440   2.990  1.8580  0.0810  1.2382
 2783SOL    HW219809   1.896   3.538   3.037 -0.7827 -2.4631 -2.6372
 2784SOL     OW19810   2.445   0.996  10.985 -0.0942 -0.1167  0.0851
 2784SOL    HW119811   2.456   0.924  11.048 -0.9873  0.8659  1.3478
 2784SOL    HW219812   2.360   0.992  10.942  0.5020 -0.3895 -1.0684
 2785SOL     OW19813   3.739   3.989   2.707  0.6675  0.0706 -0.0304
 2785SOL    HW119814   3.760   3.925   2.776  0.7311 -0.2173 -0.3169
 2785SOL    HW219815   3.813   3.981   2.648  0.4374 -2.0043 -0.0559
 2786SOL     OW19816   2.358   3.221  16.667  0.3059  0.3603 -0.3287
 2786SOL    HW119817   2.453   3.229  16.657  0.7300 -3.0834  1.0397
 2786SOL    HW219818   2.330   3.299  16.619  2.1305  1.3427  0.2236
 2787SOL     OW19819   1.149   1.232   7.805  0.2355  0.3433  0.3035
 2787SOL    HW119820   1.186   1.301   7.752  0.8894  0.2055  0.5783
 2787SOL    HW219821   1.196   1.149   7.797  2.5002  1.7245 -0.6519
 2788SOL     OW19822   2.914   0.517   3.441  0.1092  0.6884 -0.1274
 2788SOL    HW119823   2.886   0.492   3.529 -2.2483 -2.0213 -1.6448
 2788SOL    HW219824   2.933   0.609   3.456  1.3973  0.1222  1.7464
 2789SOL     OW19825   1.866   2.633   7.909  0.2914  0.3222 -0.3305
 2789SOL    HW119826   1.958   2.662   7.916  0.4843 -0.3292 -0.1675
 2789SOL    HW219827   1.833   2.669   7.827  0.0630  0.1649 -0.3049
 2790SOL     OW19828   3.975   2.455   3.899  0.6145  0.1740  0.1288
 2790SOL    HW119829   3.908   2.403   3.855  1.5912 -0.6016 -0.4465
 2790SOL    HW219830   3.996   2.396   3.971  1.8326  1.8863  1.2003
 2791SOL     OW19831   3.266   1.360   6.684  0.5262 -0.0440  0.1532
 2791SOL    HW119832   3.171   1.363   6.672  0.3066 -1.5839  1.4393
 2791SOL    HW219833   3.281   1.454   6.684 -1.5549  0.2920 -1.3006
 2792SOL     OW19834   4.431   4.102   2.164  0.5146  0.0657 -0.2953
 2792SOL    HW119835   4.423   4.018   2.119 -0.1313  0.9399 -1.7856
 2792SOL    HW219836   4.516   4.118   2.123  1.1815  0.2405  1.1433
 2793SOL     OW19837   3.191   0.134   6.856  0.0142  0.6678  0.1754
 2793SOL    HW119838   3.187   0.157   6.949  2.6505 -0.9029  0.6874
 2793SOL    HW219839   3.098   0.112   6.854  0.1559 -0.0197  0.9260
 2794SOL     OW19840   2.358   4.360  10.856  0.0017 -0.2953 -0.0941
 2794SOL    HW119841   2.296   4.363  10.783  1.1564  0.7689 -1.0360
 2794SOL    HW219842   2.321   4.291  10.911  0.6663 -1.4624 -1.0940
 2795SOL     OW19843   4.077   1.573   8.317 -0.4770  0.1869 -0.2247
 2795SOL    HW119844   4.049   1.629   8.245  2.8132  1.2379 -0.6733
 2795SOL    HW219845   4.169   1.550   8.306 -0.2364  0.5161  1.0580
 2796SOL     OW19846   0.107   0.553   9.081  0.2926 -0.0220 -0.0082
 2796SOL    HW119847   0.179   0.552   9.144  0.2513 -0.3486  0.0337
 2796SOL    HW219848   0.097   0.464   9.048 -0.2654  0.3570 -0.8453
 2797SOL     OW19849   0.054   3.608  17.007 -0.2532  0.3576  0.1917
 2797SOL    HW119850   0.019   3.645  16.926 -1.4988 -0.3272  0.4325
 2797SOL    HW219851   4.715   3.536  17.014 -0.1516 -0.0045 -2.5088
 2798SOL     OW19852   1.546   3.653  10.828 -0.4322  0.3193  0.0736
 2798SOL    HW119853   1.548   3.581  10.892 -1.7545 -0.2194 -0.5006
 2798SOL    HW219854   1.640   3.664  10.815 -1.0973  2.3925 -2.9694
 2799SOL     OW19855   2.828   2.798  14.320  0.2134  0.1558 -0.6889
 2799SOL    HW119856   2.821   2.755  14.235  2.0566  3.1096 -2.3559
 2799SOL    HW219857   2.745   2.772  14.359 -0.0948 -1.3699 -2.3754
 2800SOL     OW19858   3.131   3.278   8.710  0.3617 -0.0802 -0.1126
 2800SOL    HW119859   3.217   3.307   8.678  0.2934  0.5385  0.2696
 2800SOL    HW219860   3.086   3.361   8.724 -0.8303 -0.7022 -0.2499
 2801SOL     OW19861   1.223   3.735   5.629 -0.1024  0.1569 -0.6283
 2801SOL    HW119862   1.223   3.737   5.533 -0.9158  0.3802 -0.6236
 2801SOL    HW219863   1.301   3.688   5.656  0.0818  0.7354 -0.1395
 2802SOL     OW19864   2.528   3.034   2.838 -0.1667 -0.0147  0.1121
 2802SOL    HW119865   2.577   2.956   2.812  0.3638  0.0798  0.8186
 2802SOL    HW219866   2.559   3.054   2.927 -0.9805 -1.6317  0.7779
 2803SOL     OW19867   1.454   2.255  14.512 -0.0808  0.3404  0.1451
 2803SOL    HW119868   1.435   2.186  14.575  0.0141  1.2092  1.1271
 2803SOL    HW219869   1.511   2.314  14.562 -0.7306  2.2460 -1.3506
 2804SOL     OW19870   4.321   4.459  10.358 -0.5117 -0.4761 -0.1995
 2804SOL    HW119871   4.355   4.451  10.269 -1.9032 -0.2173 -0.7466
 2804SOL    HW219872   4.382   4.525  10.391 -0.3666 -0.0898 -1.2567
 2805SOL     OW19873   3.801   4.584   0.675  0.1864 -0.5964 -0.0217
 2805SOL    HW119874   3.727   4.607   0.731  1.2074  2.0748  0.2148
 2805SOL    HW219875   3.807   4.489   0.684  1.1302 -0.3235  2.2703
 2806SOL     OW19876   2.851   4.358  11.585  0.4930 -0.2646 -0.2639
 2806SOL    HW119877   2.803   4.356  11.668 -0.3707  1.2790 -0.7292
 2806SOL    HW219878   2.781   4.407  11.542  0.6099  0.0881 -0.0511
 2807SOL     OW19879   2.738   0.791   4.294  0.6344 -0.1296  0.3124
 2807SOL    HW119880   2.760   0.764   4.383  0.7151 -2.3726 -0.3719
 2807SOL    HW219881   2.646   0.817   4.293  0.0676 -2.1709 -1.5534
 2808SOL     OW19882   1.730   2.475   3.570 -0.2957  0.0136  0.0642
 2808SOL    HW119883   1.765   2.563   3.555 -2.0271  0.8720  1.1235
 2808SOL    HW219884   1.812   2.437   3.601 -0.3354  0.0554  0.2182
 2809SOL     OW19885   2.471   1.912   0.466 -0.3847 -0.0502  0.5522
 2809SOL    HW119886   2.430   1.897   0.381  1.3349  0.1069 -0.2922
 2809SOL    HW219887   2.402   1.906   0.532 -0.2669 -0.1656  0.6641
 2810SOL     OW19888   1.572   1.265  17.022 -0.0331  0.0157  0.2690
 2810SOL    HW119889   1.504   1.314  17.069  0.3490 -1.2561  2.1513
 2810SOL    HW219890   1.547   1.178  17.053  0.1340 -0.7897 -1.8829
 2811SOL     OW19891   4.195   1.680   1.514  0.1211  0.2787 -0.0362
 2811SOL    HW119892   4.170   1.715   1.429  0.6146  0.1866 -0.2196
 2811SOL    HW219893   4.192   1.586   1.495  1.8739 -0.5078  3.5834
 2812SOL     OW19894   0.183   1.785   4.267  0.1037 -0.4928 -0.3011
 2812SOL    HW119895   0.176   1.780   4.362 -2.3728  3.1559 -0.2854
 2812SOL    HW219896   0.242   1.861   4.269 -0.3937 -0.0730 -1.7318
 2813SOL     OW19897   3.136   0.906   4.767  0.1126 -0.1141 -0.2651
 2813SOL    HW119898   3.190   0.831   4.742  0.9716 -0.8669  3.7526
 2813SOL    HW219899   3.097   0.915   4.680 -1.2264 -1.7519  0.1861
 2814SOL     OW19900   1.400   4.125   2.907  0.2626 -0.3637  0.2965
 2814SOL    HW119901   1.398   4.037   2.871  3.4463 -1.1695  2.1164
 2814SOL    HW219902   1.479   4.123   2.962 -1.0914 -0.6152  2.2320
 2815SOL     OW19903   3.176   2.364  14.278 -0.4903  0.6050  0.2803
 2815SOL    HW119904   3.097   2.321  14.246  0.2748 -1.6650  1.4870
 2815SOL    HW219905   3.222   2.299  14.331 -2.0116 -0.3953  0.3812
 2816SOL     OW19906   1.406   1.395   6.191  0.1285 -0.4363  0.2968
 2816SOL    HW119907   1.451   1.342   6.257  0.3466 -0.1010  0.4115
 2816SOL    HW219908   1.365   1.459   6.248  0.2897 -0.1518  0.0922
 2817SOL     OW19909   4.386   4.060   7.361 -0.0704 -0.3510  0.0982
 2817SOL    HW119910   4.375   3.998   7.290 -1.4347  1.6199 -1.4157
 2817SOL    HW219911   4.336   4.136   7.331 -1.5826 -1.0706  0.8094
 2818SOL     OW19912   1.572   0.640  15.028  0.3363  0.7472 -0.0801
 2818SOL    HW119913   1.635   0.580  15.068 -2.6239 -1.3928  1.4144
 2818SOL    HW219914   1.567   0.611  14.937  0.7077  1.5388 -0.3545
 2819SOL     OW19915   2.460   4.240   1.247 -0.0154 -0.0850 -0.2652
 2819SOL    HW119916   2.505   4.321   1.271  0.5594 -0.9820  1.6397
 2819SOL    HW219917   2.511   4.167   1.281 -2.1450 -1.3764  0.1942
 2820SOL     OW19918   3.026   3.317  14.039 -0.0465  0.0850 -0.4108
 2820SOL    HW119919   3.099   3.373  14.013  1.2921 -1.6394 -0.2998
 2820SOL    HW219920   2.972   3.331  13.961  1.1763  1.2998 -1.0482
 2821SOL     OW19921   4.039   0.742   2.838 -0.7028  0.1136  0.0983
 2821SOL    HW119922   4.129   0.768   2.815  0.0802 -2.1561  0.6041
 2821SOL    HW219923   4.003   0.729   2.750  2.1598 -1.3372 -0.8536
 2822SOL     OW19924   0.390   4.627   3.620  0.6223 -0.0266  0.7552
 2822SOL    HW119925   0.302   4.660   3.637 -0.2707 -1.9824 -0.0558
 2822SOL    HW219926   0.404   4.566   3.692  1.1215 -0.9365 -0.1132
 2823SOL     OW19927   4.483   1.709   8.068  0.3995 -0.0775  0.2603
 2823SOL    HW119928   4.482   1.636   8.007  3.1364 -0.7602  1.0361
 2823SOL    HW219929   4.442   1.783   8.023 -1.7309 -1.4700 -0.0888
 2824SOL     OW19930   0.391   1.710  14.711 -0.2447  0.0065  0.3710
 2824SOL    HW119931   0.299   1.685  14.709 -0.1303 -0.6450  3.3422
 2824SOL    HW219932   0.388   1.806  14.715 -0.7960  0.0537 -0.8879
 2825SOL     OW19933   0.027   3.237   6.608  0.2340  0.3882 -0.2903
 2825SOL    HW119934   0.086   3.295   6.655  2.4499 -1.2663 -1.0344
 2825SOL    HW219935   0.089   3.167   6.586  0.2888 -0.4362  2.4550
 2826SOL     OW19936   3.158   3.012   9.608 -0.3343  0.0691  0.0471
 2826SOL    HW119937   3.153   2.935   9.664 -0.4032 -0.8686 -1.2537
 2826SOL    HW219938   3.135   2.976   9.522  1.2984 -0.5565 -0.1232
 2827SOL     OW19939   2.192   2.693   1.478  0.4656 -0.0061 -0.2126
 2827SOL    HW119940   2.274   2.667   1.437  0.4981  1.0906 -0.8381
 2827SOL    HW219941   2.135   2.678   1.402  0.3780 -1.8642  0.2117
 2828SOL     OW19942   0.308   1.924  13.877 -0.0720 -0.3858 -0.1728
 2828SOL    HW119943   0.324   1.942  13.785 -1.8082  0.3057 -0.3441
 2828SOL    HW219944   0.381   1.863  13.887  1.3039  1.2333 -0.4339
 2829SOL     OW19945   2.102   4.418  15.289 -0.6488 -0.2634  0.9996
 2829SOL    HW119946   2.182   4.444  15.334  0.8770  0.1623 -1.9968
 2829SOL    HW219947   2.111   4.328  15.259 -1.9306  0.2436 -0.9325
 2830SOL     OW19948   3.083   2.661   7.378  0.7811 -0.3027  0.1199
 2830SOL    HW119949   3.100   2.604   7.303 -1.0629 -3.1502  1.8596
 2830SOL    HW219950   3.065   2.745   7.336  1.9163 -0.4052 -0.5556
 2831SOL     OW19951   3.603   1.965   1.503 -0.3470  0.0537  0.7312
 2831SOL    HW119952   3.564   2.033   1.559  0.5041 -1.6002  3.3502
 2831SOL    HW219953   3.553   1.975   1.423 -0.8849 -0.1593  1.0413
 2832SOL     OW19954   2.119   4.480   7.673  0.3438  0.2139 -0.2835
 2832SOL    HW119955   2.140   4.530   7.595 -0.0082  1.9454  0.7206
 2832SOL    HW219956   2.049   4.534   7.712  0.1691 -1.6740  2.0480
 2833SOL     OW19957   3.217   1.644   2.690 -0.3514  0.8007 -0.1392
 2833SOL    HW119958   3.273   1.678   2.620 -0.9641 -1.4281 -1.7035
 2833SOL    HW219959   3.241   1.700   2.764  1.7948 -1.1940  0.6668
 2834SOL     OW19960   0.402   3.784  15.994  0.1747  0.2513 -0.5314
 2834SOL    HW119961   0.384   3.811  16.084 -1.1450 -1.7422 -0.2024
 2834SOL    HW219962   0.352   3.702  15.989  1.0030 -0.3380  0.6414
 2835SOL     OW19963   2.740   0.560  11.782  0.3867  0.1156  0.0167
 2835SOL    HW119964   2.676   0.496  11.750 -2.1137  2.3405  0.5551
 2835SOL    HW219965   2.818   0.517  11.746 -0.6781 -1.7126 -0.1545
 2836SOL     OW19966   3.021   4.192   4.498 -0.3187 -0.3311 -0.1386
 2836SOL    HW119967   3.002   4.205   4.591 -1.8601 -1.5767 -0.2726
 2836SOL    HW219968   3.068   4.109   4.494  0.7638  0.3282 -0.8620
 2837SOL     OW19969   1.988   4.439   4.291 -0.0372  0.5310  0.3279
 2837SOL    HW119970   1.949   4.497   4.225  2.5834  0.5527 -1.2058
 2837SOL    HW219971   2.058   4.501   4.313 -0.3636  0.1614  2.4062
 2838SOL     OW19972   3.390   2.240  14.409 -0.4250 -0.2826 -0.2894
 2838SOL    HW119973   3.387   2.322  14.460 -2.3294  0.0849 -1.0048
 2838SOL    HW219974   3.399   2.174  14.478  2.8780  0.6213  0.1681
 2839SOL     OW19975   3.270   2.730  11.811 -0.6174 -0.1224  0.3654
 2839SOL    HW119976   3.204   2.768  11.753  0.5774 -0.1435 -0.9987
 2839SOL    HW219977   3.216   2.736  11.890 -0.5493  1.5286  0.2871
 2840SOL     OW19978   1.453   3.956   3.392  0.4108  0.3000  0.2299
 2840SOL    HW119979   1.398   3.919   3.323  1.0083  1.0094 -0.6286
 2840SOL    HW219980   1.534   3.975   3.343 -0.1414 -0.9667 -1.1791
 2841SOL     OW19981   4.262   2.171   7.192  0.0586  0.1198  0.3112
 2841SOL    HW119982   4.311   2.100   7.234 -1.6122 -0.9158  0.5311
 2841SOL    HW219983   4.232   2.135   7.108  1.2870  0.6591 -0.3573
 2842SOL     OW19984   0.357   2.438   8.677  0.3429 -0.0598 -0.2463
 2842SOL    HW119985   0.262   2.445   8.667  0.3466 -1.4087 -1.1976
 2842SOL    HW219986   0.380   2.531   8.686 -0.1483  0.0238  0.1620
 2843SOL     OW19987   4.405   3.182   3.861 -0.3107  0.9024 -0.0296
 2843SOL    HW119988   4.429   3.275   3.852  1.0060  0.4211 -1.6740
 2843SOL    HW219989   4.324   3.181   3.811  0.1502  0.9360 -0.7855
 2844SOL     OW19990   0.697   1.589  11.800  0.1855  0.0705 -0.5446
 2844SOL    HW119991   0.762   1.563  11.735 -0.5594  1.1045 -1.7030
 2844SOL    HW219992   0.746   1.635  11.868 -0.1557  0.2992 -0.4516
 2845SOL     OW19993   0.639   0.109  10.530 -0.1814 -0.4817 -0.7297
 2845SOL    HW119994   0.574   0.068  10.473 -1.7761 -0.7168  1.2855
 2845SOL    HW219995   0.667   0.038  10.587  0.0680  0.3965  0.2295
 2846SOL     OW19996   1.938   1.996  15.144 -0.0113  0.1066  0.0598
 2846SOL    HW119997   1.979   1.940  15.078  2.4707  1.7003  0.2460
 2846SOL    HW219998   1.932   1.934  15.217  0.6915 -1.0616 -0.8721
 2847SOL     OW19999   2.912   2.748  12.022 -0.0089  0.6766  0.1970
 2847SOL    HW120000   2.906   2.703  11.938  1.1448  0.0784  0.4429
 2847SOL    HW220001   2.997   2.791  12.017  0.4630  0.0241  2.3445
 2848SOL     OW20002   4.309   3.548  12.210  0.5784 -0.3023 -0.0723
 2848SOL    HW120003   4.360   3.548  12.291  0.8807  1.5182 -0.2728
 2848SOL    HW220004   4.366   3.495  12.155  0.7762  0.2831 -0.4283
 2849SOL     OW20005   3.815   0.390   3.120  0.2953  0.2517  0.0988
 2849SOL    HW120006   3.836   0.479   3.147 -2.1563  2.0745 -4.0286
 2849SOL    HW220007   3.727   0.395   3.083  0.3077  1.1718  0.1918
 2850SOL     OW20008   0.700   3.121   8.253  0.1922 -0.4137 -0.1630
 2850SOL    HW120009   0.737   3.034   8.265 -0.5879 -0.9146 -1.3540
 2850SOL    HW220010   0.753   3.163   8.321  0.6677 -1.5276  0.1464
 2851SOL     OW20011   1.231   0.730   8.278  0.2695  0.1494 -0.3547
 2851SOL    HW120012   1.269   0.720   8.366 -1.0653  0.7016  0.2761
 2851SOL    HW220013   1.246   0.641   8.246  0.7271  0.8076 -1.9820
 2852SOL     OW20014   4.465   0.923   9.912 -0.2798 -0.1410  0.2556
 2852SOL    HW120015   4.425   0.848   9.956 -1.2220 -0.5011 -1.2116
 2852SOL    HW220016   4.469   0.889   9.823 -1.7926  0.8461 -0.1846
 2853SOL     OW20017   0.463   4.017   3.383  0.1194 -0.0879  0.3432
 2853SOL    HW120018   0.369   4.017   3.364  0.2017  1.2503 -0.0939
 2853SOL    HW220019   0.484   3.954   3.314  1.9827  1.7156 -0.7142
 2854SOL     OW20020   2.557   3.654   0.966  0.0984  0.7010 -0.4901
 2854SOL    HW120021   2.502   3.589   1.012  2.1265 -0.9640 -0.4064
 2854SOL    HW220022   2.623   3.684   1.029  0.1251  0.9473 -0.6390
 2855SOL     OW20023   4.397   0.098   3.258 -0.1628  0.2259 -0.4767
 2855SOL    HW120024   4.342   0.168   3.223 -1.0420  0.5604  1.5570
 2855SOL    HW220025   4.339   0.022   3.254 -0.8032  0.6468  0.8109
 2856SOL     OW20026   3.952   0.281  13.376  0.0172 -0.3604 -0.2890
 2856SOL    HW120027   3.977   0.238  13.457  0.3270  0.8440  0.2642
 2856SOL    HW220028   4.031   0.293  13.324  0.8675  2.6606  1.6816
 2857SOL     OW20029   0.719   2.183  13.518 -0.5396 -0.3750 -0.0240
 2857SOL    HW120030   0.655   2.226  13.460 -0.0100 -0.1141 -0.4171
 2857SOL    HW220031   0.733   2.257  13.577  1.9791 -1.5895  0.8800
 2858SOL     OW20032   3.584   0.109  13.739 -0.1173  0.8208 -0.8552
 2858SOL    HW120033   3.620   0.021  13.725  0.4994  0.8863  0.3777
 2858SOL    HW220034   3.581   0.152  13.653  2.1763 -2.0054 -2.3540
 2859SOL     OW20035   4.177   2.830  16.979  0.0962  0.0070  0.0232
 2859SOL    HW120036   4.244   2.893  16.950  0.6379 -1.0024 -0.9515
 2859SOL    HW220037   4.160   2.866  17.066  0.2526  0.9707 -0.3432
 2860SOL     OW20038   3.048   2.845   8.267  0.5171  0.4493  0.2786
 2860SOL    HW120039   2.976   2.812   8.320  0.7532 -0.0982  0.2538
 2860SOL    HW220040   3.002   2.833   8.184 -0.4703 -1.2790  1.0764
 2861SOL     OW20041   3.321   4.035   0.935  0.1090 -0.2828 -0.3251
 2861SOL    HW120042   3.252   4.061   0.874  0.1103  0.8567  0.1770
 2861SOL    HW220043   3.304   3.940   0.939 -0.1775 -0.1851  0.7320
 2862SOL     OW20044   3.147   3.712   7.314 -0.6236  0.0244  0.0490
 2862SOL    HW120045   3.184   3.795   7.285 -2.4447 -0.5190 -3.8633
 2862SOL    HW220046   3.152   3.719   7.409  0.8627  1.0254 -0.1025
 2863SOL     OW20047   3.226   3.214   5.554 -0.0008 -0.6625 -0.2538
 2863SOL    HW120048   3.148   3.241   5.603 -0.0245  1.5957 -1.5367
 2863SOL    HW220049   3.256   3.303   5.538 -2.5461  0.4717  1.2771
 2864SOL     OW20050   0.009   2.737  14.210 -0.1282  0.3817 -0.5998
 2864SOL    HW120051   0.051   2.817  14.178  1.6274  0.2524  1.4135
 2864SOL    HW220052   0.089   2.687  14.218 -1.8139 -2.2514 -0.1475
 2865SOL     OW20053   1.245   0.919   7.013 -0.0998  0.6215 -0.4145
 2865SOL    HW120054   1.201   0.835   7.001 -0.6137  0.4681  2.6508
 2865SOL    HW220055   1.315   0.905   7.076 -0.5023  0.1610 -0.0649
 2866SOL     OW20056   0.831   1.411  15.479 -0.0950  0.2766 -0.6231
 2866SOL    HW120057   0.746   1.417  15.435  0.6633  0.7928 -2.0025
 2866SOL    HW220058   0.828   1.317  15.496  1.0930  0.7378  2.1481
 2867SOL     OW20059   0.916   0.127   4.717 -0.5480  0.2361  0.0194
 2867SOL    HW120060   0.979   0.141   4.787 -0.6146  2.8241 -0.4204
 2867SOL    HW220061   0.863   0.055   4.752 -0.5979 -1.2939 -3.1992
 2868SOL     OW20062   4.605   1.250   9.132  0.1641  0.5628 -0.4185
 2868SOL    HW120063   4.662   1.312   9.086  0.4506 -0.0617 -0.9004
 2868SOL    HW220064   4.563   1.204   9.059 -1.7278 -1.6266  2.0495
 2869SOL     OW20065   0.831   0.575   3.325 -0.2215  0.1751  0.5964
 2869SOL    HW120066   0.925   0.573   3.344  0.1949 -0.3728 -1.5038
 2869SOL    HW220067   0.818   0.571   3.230 -2.7463  0.2852  0.9200
 2870SOL     OW20068   3.886   0.026   7.062  0.0151 -0.3696  0.1907
 2870SOL    HW120069   3.876   0.086   6.989 -2.5888 -0.4727  0.4607
 2870SOL    HW220070   3.979   0.007   7.069  0.3876  1.6366  0.5694
 2871SOL     OW20071   0.069   0.714   9.455 -0.1179 -0.7970 -0.1980
 2871SOL    HW120072   0.126   0.770   9.509 -1.5115  0.3316  0.1061
 2871SOL    HW220073   4.706   0.743   9.485 -0.4264 -1.5217 -0.3749
 2872SOL     OW20074   0.039   2.017   2.456  0.8426  0.8212  0.0398
 2872SOL    HW120075   0.012   1.956   2.525  0.6034  1.4023  0.4538
 2872SOL    HW220076   0.124   1.983   2.426 -0.4612 -0.9990 -1.6050
 2873SOL     OW20077   4.144   2.791  15.356  0.1314  0.3597  0.4840
 2873SOL    HW120078   4.077   2.725  15.372  0.2725  0.6611  2.3127
 2873SOL    HW220079   4.228   2.751  15.379  0.4060  0.1899 -0.7940
 2874SOL     OW20080   1.575   4.221   1.871  0.3086  0.1479  0.5902
 2874SOL    HW120081   1.601   4.260   1.955 -2.3158  2.3696  0.3559
 2874SOL    HW220082   1.639   4.150   1.861 -0.3526 -0.5816  1.5713
 2875SOL     OW20083   0.720   2.254   7.366 -0.1737  0.1389  0.1938
 2875SOL    HW120084   0.653   2.322   7.354 -0.3119 -0.4234 -2.2242
 2875SOL    HW220085   0.729   2.262   7.461 -3.2266 -2.0649  0.6812
 2876SOL     OW20086   3.267   1.387  12.821 -0.2852  0.5128  0.2618
 2876SOL    HW120087   3.362   1.384  12.810 -0.4750 -0.2605 -1.1268
 2876SOL    HW220088   3.250   1.478  12.844 -0.9264  0.4559  0.0160
 2877SOL     OW20089   0.744   0.394   2.466  0.0803  0.8088  0.0061
 2877SOL    HW120090   0.717   0.482   2.491  0.1567  0.2442  2.1052
 2877SOL    HW220091   0.733   0.343   2.547 -0.3503  1.4823  0.3774
 2878SOL     OW20092   0.850   0.585   1.798 -0.4040  0.3751  0.2115
 2878SOL    HW120093   0.793   0.642   1.850  0.4195  0.8942  0.5473
 2878SOL    HW220094   0.878   0.521   1.863  1.3964  0.1433 -0.8039
 2879SOL     OW20095   2.290   2.327   6.344 -0.1288 -0.3772  0.1366
 2879SOL    HW120096   2.205   2.302   6.309  1.2152 -2.7027 -1.4803
 2879SOL    HW220097   2.277   2.416   6.376  0.7892  0.4881 -1.8738
 2880SOL     OW20098   1.544   1.718  12.195 -0.1877  0.7424  0.1803
 2880SOL    HW120099   1.600   1.640  12.198 -1.8766 -0.4259  1.2806
 2880SOL    HW220100   1.553   1.736  12.101  1.8418  4.8739  1.1780
 2881SOL     OW20101   2.812   3.002   6.598  0.3809  0.1872  0.1723
 2881SOL    HW120102   2.867   2.959   6.663  1.9134  0.8287 -0.7026
 2881SOL    HW220103   2.735   3.038   6.643  0.4418  0.3935  0.1130
 2882SOL     OW20104   4.104   1.831   3.741 -0.3198 -0.1193 -0.1277
 2882SOL    HW120105   4.105   1.881   3.823  0.8644 -1.6553  0.7901
 2882SOL    HW220106   4.162   1.759   3.763 -2.8774 -0.9576  3.9728
 2883SOL     OW20107   1.269   0.358   3.613 -0.0316 -0.3235  0.1661
 2883SOL    HW120108   1.291   0.402   3.695  1.7755  0.2065 -0.6191
 2883SOL    HW220109   1.355   0.339   3.576  0.7080 -2.0197  2.8286
 2884SOL     OW20110   0.667   1.234   3.304 -0.1200  0.4980 -0.0265
 2884SOL    HW120111   0.745   1.275   3.341 -0.9223  1.0573  1.0499
 2884SOL    HW220112   0.600   1.302   3.305 -0.5174  0.1367 -1.6627
 2885SOL     OW20113   4.301   0.813   5.712  0.0200  0.2954 -0.3292
 2885SOL    HW120114   4.298   0.719   5.732 -2.0043  0.2188 -0.9230
 2885SOL    HW220115   4.374   0.827   5.653  0.1550 -0.0141 -0.2335
 2886SOL     OW20116   0.300   1.909  11.720 -0.2912 -0.3063  0.1247
 2886SOL    HW120117   0.241   1.981  11.740 -0.4274 -0.2049 -0.6609
 2886SOL    HW220118   0.371   1.950  11.671 -0.6299 -0.2056 -0.2818
 2887SOL     OW20119   1.108   0.806   6.353  0.1759  0.2533  0.7480
 2887SOL    HW120120   1.183   0.865   6.351 -0.9385  1.6301 -0.4304
 2887SOL    HW220121   1.045   0.864   6.396  0.4004  2.7365 -2.2352
 2888SOL     OW20122   1.028   0.933   9.410 -0.2908  0.2565 -0.0569
 2888SOL    HW120123   1.034   1.010   9.354 -1.0415  0.7417  0.5261
 2888SOL    HW220124   1.111   0.930   9.458 -0.3566 -1.9437 -0.0817
 2889SOL     OW20125   3.134   0.544   2.233 -0.1562 -0.2148 -0.0478
 2889SOL    HW120126   3.107   0.634   2.254 -0.9460 -0.2738 -0.8206
 2889SOL    HW220127   3.059   0.498   2.271 -0.1237  0.4263  0.7896
 2890SOL     OW20128   2.035   3.660   6.763  0.4526  0.0260  0.1951
 2890SOL    HW120129   2.022   3.622   6.676 -1.8152  0.3129  0.4271
 2890SOL    HW220130   1.959   3.718   6.767  0.5318  0.4074 -3.2717
 2891SOL     OW20131   0.004   2.200  15.374 -0.8255 -0.1002  0.1472
 2891SOL    HW120132   4.656   2.222  15.435 -0.5455 -1.3736  0.9437
 2891SOL    HW220133   4.671   2.222  15.299  1.9040  0.9898 -1.5340
 2892SOL     OW20134   3.155   4.053   5.924 -0.1883 -0.3383  0.5117
 2892SOL    HW120135   3.209   4.025   5.850  0.2709  1.4217  0.1731
 2892SOL    HW220136   3.210   4.124   5.959 -0.5507  0.9988 -1.6333
 2893SOL     OW20137   0.529   0.253   3.184  0.0007  0.5524 -0.1149
 2893SOL    HW120138   0.557   0.228   3.271  0.5857  0.3095 -0.3747
 2893SOL    HW220139   0.619   0.265   3.155 -0.3058 -0.6184 -1.5670
 2894SOL     OW20140   0.776   0.345   3.081 -0.5572  0.0917 -0.3303
 2894SOL    HW120141   0.845   0.296   3.125 -0.1739  0.9444  0.0219
 2894SOL    HW220142   0.821   0.421   3.044  0.8208 -0.3922  0.3764
 2895SOL     OW20143   4.138   1.483   8.583 -0.1675 -0.1435  0.2142
 2895SOL    HW120144   4.101   1.514   8.501 -0.6790  1.7347  1.1652
 2895SOL    HW220145   4.116   1.551   8.647  4.3356  1.9660 -0.4716
 2896SOL     OW20146   3.336   4.443   4.705  0.1712 -0.1459 -0.0581
 2896SOL    HW120147   3.333   4.441   4.800  2.1544  0.7681  0.0365
 2896SOL    HW220148   3.275   4.516   4.699 -1.2556 -1.1274  2.7106
 2897SOL     OW20149   0.618   1.236   4.442  0.3331  0.4517  0.1790
 2897SOL    HW120150   0.675   1.251   4.367 -0.4742  2.0847 -0.1047
 2897SOL    HW220151   0.552   1.181   4.401 -0.1716 -0.0407  1.6304
 2898SOL     OW20152   3.330   4.672   5.199 -0.3345  0.5766 -0.2985
 2898SOL    HW120153   3.251   4.700   5.245 -0.2107 -1.0280  0.9029
 2898SOL    HW220154   3.382   0.027   5.179  0.6991  0.2444  1.0692
 2899SOL     OW20155   2.442   4.089  10.632 -0.2201  0.4732  0.6802
 2899SOL    HW120156   2.504   4.055  10.567 -0.7388  1.2427 -0.2178
 2899SOL    HW220157   2.457   4.034  10.709  0.0290 -0.4738 -0.0534
 2900SOL     OW20158   1.250   2.229   2.034 -0.2695 -0.0399 -0.3620
 2900SOL    HW120159   1.277   2.313   1.996  2.6013 -0.2623  1.1389
 2900SOL    HW220160   1.300   2.224   2.115  2.2424  0.7182 -1.8413
 2901SOL     OW20161   3.264   0.708  17.153  0.3522  0.3882  0.0412
 2901SOL    HW120162   3.343   0.655  17.150 -1.1026 -1.7596 -0.5743
 2901SOL    HW220163   3.202   0.635  17.150  0.6409  0.2160 -1.7005
 2902SOL     OW20164   0.232   3.851   1.184 -0.0372  0.0981 -0.1007
 2902SOL    HW120165   0.242   3.832   1.277  0.7511 -0.3838 -0.2874
 2902SOL    HW220166   0.274   3.782   1.133  2.2368  2.7186 -1.8061
 2903SOL     OW20167   3.822   3.841  12.177  0.5143  1.1697 -0.4034
 2903SOL    HW120168   3.903   3.793  12.193 -0.7402 -0.3628  1.3009
 2903SOL    HW220169   3.840   3.903  12.106 -0.8919 -0.1458 -1.9145
 2904SOL     OW20170   2.772   2.917   2.621  0.0755  0.3174 -0.7412
 2904SOL    HW120171   2.712   2.940   2.550 -2.0600  0.7335  1.1988
 2904SOL    HW220172   2.851   2.942   2.575 -0.9757  1.0550 -2.1196
 2905SOL     OW20173   3.172   4.148  16.065  0.0183 -0.3498  0.1823
 2905SOL    HW120174   3.222   4.082  16.018 -0.8118  1.6759 -3.6052
 2905SOL    HW220175   3.171   4.219  16.000 -0.2262  1.7818  2.4897
 2906SOL     OW20176   1.969   4.310  16.388 -0.0059 -0.0587  0.3305
 2906SOL    HW120177   1.988   4.221  16.419 -1.7463 -1.6657 -3.1540
 2906SOL    HW220178   2.039   4.358  16.433  2.3616 -2.6202 -0.6216
 2907SOL     OW20179   0.730   3.762   7.140 -0.4036  0.1803  0.1152
 2907SOL    HW120180   0.731   3.698   7.069 -0.4231  0.6795 -0.3345
 2907SOL    HW220181   0.674   3.828   7.100  2.1934  3.4542  1.8403
 2908SOL     OW20182   0.966   0.107  14.010  0.0522  0.7361 -0.4709
 2908SOL    HW120183   1.026   0.032  14.016 -2.9470 -1.6554 -0.5834
 2908SOL    HW220184   1.025   0.180  13.989  1.8864 -0.4485  0.5481
 2909SOL     OW20185   2.985   3.862   9.612 -0.4752 -0.0328 -0.0863
 2909SOL    HW120186   3.030   3.778   9.617 -2.5202 -1.0688  0.9999
 2909SOL    HW220187   2.902   3.831   9.648  0.1518  0.5892  1.8868
 2910SOL     OW20188   1.710   2.354   5.444  0.2152  0.2782  0.8494
 2910SOL    HW120189   1.777   2.299   5.485 -1.7085 -0.7979  2.5253
 2910SOL    HW220190   1.749   2.441   5.432 -1.0033  0.3514 -2.4167
 2911SOL     OW20191   2.062   3.183  11.302  0.2636 -0.0799  0.0920
 2911SOL    HW120192   2.154   3.178  11.277  0.1624 -1.1850 -0.0514
 2911SOL    HW220193   2.027   3.098  11.276  1.0661 -1.2432  2.8168
 2912SOL     OW20194   4.398   3.539   4.325  0.0839 -0.6219 -0.1611
 2912SOL    HW120195   4.460   3.609   4.305 -0.1972 -0.4636 -0.4822
 2912SOL    HW220196   4.314   3.583   4.314 -0.1452 -1.1961 -0.7022
 2913SOL     OW20197   1.819   4.465   6.756 -0.1233  0.5193  0.0756
 2913SOL    HW120198   1.840   4.530   6.689 -1.3661 -1.4459 -2.2253
 2913SOL    HW220199   1.761   4.508   6.819 -0.3366 -0.2363  0.3939
 2914SOL     OW20200   0.926   3.955   1.730  0.1238  0.4547  0.4070
 2914SOL    HW120201   0.984   3.884   1.702 -1.2217 -0.1717 -0.7377
 2914SOL    HW220202   0.986   4.003   1.788 -1.4215  1.2922  1.2957
 2915SOL     OW20203   1.250   3.922   0.068 -0.1525 -0.1081 -0.3244
 2915SOL    HW120204   1.337   3.886   0.084  0.6633  1.3492 -1.5276
 2915SOL    HW220205   1.268   3.982  17.689 -1.6099  0.9676  0.1973
 2916SOL     OW20206   4.507   3.552  14.039  0.0376  0.0604 -0.8897
 2916SOL    HW120207   4.424   3.535  13.994 -1.2117  1.1307  0.9964
 2916SOL    HW220208   4.474   3.569  14.127  4.6687  0.8510  0.6769
 2917SOL     OW20209   2.736   1.884   7.951 -0.7868 -0.2329  0.2994
 2917SOL    HW120210   2.739   1.838   8.035  1.9066 -0.5652  0.0276
 2917SOL    HW220211   2.824   1.873   7.916 -0.0484  1.0684  1.6823
 2918SOL     OW20212   0.092   2.940   6.437 -0.0475 -0.2468  0.0604
 2918SOL    HW120213   0.112   2.901   6.352 -0.4929  1.7926 -0.9785
 2918SOL    HW220214   0.026   3.005   6.412 -1.2914 -1.4520  0.1824
 2919SOL     OW20215   3.300   1.690   1.996 -0.0659 -0.0618 -0.1996
 2919SOL    HW120216   3.354   1.710   1.919  1.3262 -2.5487  0.1399
 2919SOL    HW220217   3.274   1.773   2.037 -1.2025 -0.7234  0.4146
 2920SOL     OW20218   2.876   3.242   1.312  1.0531  0.1349 -0.5787
 2920SOL    HW120219   2.918   3.218   1.394  1.2392 -0.3214 -0.8028
 2920SOL    HW220220   2.784   3.235   1.339  1.1601  0.8363 -0.0471
 2921SOL     OW20221   1.444   0.562   1.074  0.3528  0.1855  0.5759
 2921SOL    HW120222   1.383   0.524   1.137 -0.8087  3.4352  1.3683
 2921SOL    HW220223   1.384   0.562   0.999  1.5568 -2.9125 -0.4317
 2922SOL     OW20224   1.547   3.481   6.759 -0.4146 -0.4174  0.4021
 2922SOL    HW120225   1.472   3.479   6.819 -0.7337  2.6820  0.1201
 2922SOL    HW220226   1.503   3.521   6.684 -1.0958 -1.2561  0.3568
 2923SOL     OW20227   1.118   4.472  13.082  0.4527  1.0209 -0.7417
 2923SOL    HW120228   1.166   4.526  13.145 -0.5290  1.5863 -0.4604
 2923SOL    HW220229   1.180   4.433  13.021  0.7592  0.4823 -0.0774
 2924SOL     OW20230   3.717   3.003   8.786  0.1661 -0.3707 -0.3028
 2924SOL    HW120231   3.807   3.035   8.784 -0.3651  1.0423 -1.7335
 2924SOL    HW220232   3.677   3.034   8.705  2.7194  2.8146 -0.3591
 2925SOL     OW20233   2.234   4.165   4.432  0.3413 -0.6315  0.0167
 2925SOL    HW120234   2.228   4.250   4.476 -2.1131 -0.1726 -1.2046
 2925SOL    HW220235   2.325   4.168   4.402  0.4016  0.2069  0.2894
 2926SOL     OW20236   3.784   1.598  10.605 -0.5194 -0.0567 -0.0104
 2926SOL    HW120237   3.698   1.621  10.639 -0.2972 -0.5685  0.8903
 2926SOL    HW220238   3.762   1.528  10.544 -3.6913  0.4026  0.6217
 2927SOL     OW20239   2.743   0.111   8.278 -0.0837  0.0088  0.2528
 2927SOL    HW120240   2.690   0.065   8.342  0.1844 -0.7252 -0.0486
 2927SOL    HW220241   2.828   0.067   8.288 -0.8738 -1.4239  0.7727
 2928SOL     OW20242   3.182   1.002   6.210  0.5278  0.8922  0.1505
 2928SOL    HW120243   3.167   1.051   6.129  1.2832 -0.6595 -0.9108
 2928SOL    HW220244   3.252   0.947   6.174  0.9825  1.0543  0.7858
 2929SOL     OW20245   0.223   3.274   3.166  0.3184  0.2588  0.0870
 2929SOL    HW120246   0.175   3.225   3.099  1.0903 -0.5140  0.0923
 2929SOL    HW220247   0.159   3.298   3.233  0.4446 -0.3130  0.4151
 2930SOL     OW20248   1.889   3.678   5.378  0.1662 -0.2971  0.0136
 2930SOL    HW120249   1.861   3.753   5.325  2.0211 -0.1241 -0.7289
 2930SOL    HW220250   1.882   3.608   5.312 -2.3211 -2.0245  2.1089
 2931SOL     OW20251   0.615   0.016  17.513 -0.7870 -0.4017  1.1476
 2931SOL    HW120252   0.535   0.009  17.460  0.9024  0.3650 -1.5426
 2931SOL    HW220253   0.601   0.091  17.571  0.0486 -1.9670  3.3505
 2932SOL     OW20254   4.313   1.382  13.594  0.1712  0.1430 -0.8843
 2932SOL    HW120255   4.273   1.463  13.624  0.0653 -0.4355  0.5362
 2932SOL    HW220256   4.399   1.407  13.560 -0.0393 -0.2438 -1.7109
 2933SOL     OW20257   2.449   0.989   5.884 -0.5371  0.8283 -0.1116
 2933SOL    HW120258   2.439   1.014   5.792  0.3074  0.3450 -0.3336
 2933SOL    HW220259   2.544   0.977   5.889 -0.5816  1.8771  2.9244
 2934SOL     OW20260   1.349   1.262   2.879 -0.4787 -0.5656 -0.3141
 2934SOL    HW120261   1.290   1.289   2.808  3.7541  0.9276 -3.2571
 2934SOL    HW220262   1.286   1.239   2.947  1.5576  2.4097  2.5859
 2935SOL     OW20263   0.119   2.238  12.437 -0.3770 -0.2676  0.2004
 2935SOL    HW120264   0.202   2.253  12.392 -0.7068 -1.0244 -0.6740
 2935SOL    HW220265   0.141   2.200  12.522  1.7225  1.5849  0.4736
 2936SOL     OW20266   0.750   0.918   1.469  0.0978 -0.2730 -0.4717
 2936SOL    HW120267   0.807   0.877   1.534 -2.7315 -1.4301  1.3034
 2936SOL    HW220268   0.803   0.908   1.390  2.7715 -2.2317  1.5763
 2937SOL     OW20269   2.053   2.629  13.072  0.0418  0.1479  0.2576
 2937SOL    HW120270   2.104   2.594  13.144 -1.1849 -1.5452  0.3061
 2937SOL    HW220271   1.996   2.557  13.044 -0.8020  0.5401  0.9772
 2938SOL     OW20272   0.557   0.849   5.294  0.2507 -0.4610 -0.0958
 2938SOL    HW120273   0.536   0.915   5.227 -0.8500 -1.2604 -0.5318
 2938SOL    HW220274   0.554   0.907   5.371 -0.2705 -0.1284 -0.3707
 2939SOL     OW20275   3.022   3.119   2.312 -0.4972  0.3509  0.1275
 2939SOL    HW120276   3.084   3.188   2.338  0.2340  0.2404 -1.3290
 2939SOL    HW220277   3.004   3.086   2.400 -1.2463 -0.4356 -0.3223
 2940SOL     OW20278   3.112   0.230   3.356  0.0322 -0.1572 -0.5503
 2940SOL    HW120279   3.058   0.191   3.287  0.7404  0.7329 -1.6174
 2940SOL    HW220280   3.197   0.235   3.312  0.3487  1.2417  0.2027
 2941SOL     OW20281   3.118   3.535   5.268  0.7015 -0.3753 -0.1218
 2941SOL    HW120282   3.030   3.568   5.253 -0.0210 -2.1104  0.3641
 2941SOL    HW220283   3.174   3.613   5.263 -1.0942  0.6939 -3.3280
 2942SOL     OW20284   4.074   3.208   2.084  0.1135 -0.2094 -0.3803
 2942SOL    HW120285   4.001   3.260   2.050  1.1249  2.2977  1.2892
 2942SOL    HW220286   4.087   3.157   2.004  1.0430  1.6904 -1.4457
 2943SOL     OW20287   2.089   1.911   2.572 -0.0668  0.3270  0.0944
 2943SOL    HW120288   2.013   1.875   2.526 -0.1203  0.1832  0.2953
 2943SOL    HW220289   2.039   1.933   2.651  0.6655  1.9119  0.1212
 2944SOL     OW20290   3.185   2.458   6.523 -0.2429 -0.2922  0.0129
 2944SOL    HW120291   3.143   2.391   6.576 -0.2122 -0.0331  0.3699
 2944SOL    HW220292   3.271   2.417   6.530 -0.0940 -0.6439 -3.7011
 2945SOL     OW20293   3.093   4.076   1.284 -0.4522 -0.1585 -0.2108
 2945SOL    HW120294   3.149   4.001   1.265  0.9235  0.2857  2.1589
 2945SOL    HW220295   3.112   4.100   1.374  1.4712 -2.4861 -0.0152
 2946SOL     OW20296   3.963   1.552  10.951 -0.2867 -0.2715  0.3292
 2946SOL    HW120297   3.881   1.502  10.948 -1.2485  1.3871 -0.7690
 2946SOL    HW220298   3.968   1.564  10.856 -0.9791 -2.3236  0.0288
 2947SOL     OW20299   2.829   3.588  14.070 -0.5882 -0.2444  0.5022
 2947SOL    HW120300   2.744   3.550  14.048 -0.5573  0.5508 -0.9607
 2947SOL    HW220301   2.885   3.512  14.052  1.0278  0.2417  3.4388
 2948SOL     OW20302   4.514   4.179  10.204  0.1668 -0.0467  0.0567
 2948SOL    HW120303   4.515   4.091  10.240  0.6817  0.8939  2.3292
 2948SOL    HW220304   4.545   4.216  10.287  2.0520 -2.7748  0.5816
 2949SOL     OW20305   3.291   0.143   2.062 -0.1292 -0.1246 -0.3320
 2949SOL    HW120306   3.201   0.141   2.096 -0.9897  1.1172 -2.5552
 2949SOL    HW220307   3.309   0.234   2.085  0.2692 -0.4010  0.4672
 2950SOL     OW20308   4.691   0.495   6.450 -0.3090  0.5081 -0.5674
 2950SOL    HW120309   4.641   0.551   6.509 -0.6005 -1.3078  0.9196
 2950SOL    HW220310   0.019   0.561   6.403 -0.3214  1.1801  0.3742
 2951SOL     OW20311   3.950   1.409   7.073  0.4113 -0.2296  0.4884
 2951SOL    HW120312   4.031   1.436   7.029  0.4519 -0.3585  0.4858
 2951SOL    HW220313   3.965   1.441   7.162 -1.0753  1.9427 -0.0191
 2952SOL     OW20314   1.383   2.986   8.455 -0.1141 -0.1354 -0.1279
 2952SOL    HW120315   1.465   2.997   8.409  0.5806 -2.5054  0.5006
 2952SOL    HW220316   1.329   2.951   8.384 -0.1002  0.2767 -0.3378
 2953SOL     OW20317   2.625   2.882   7.415 -0.1783  0.4519  0.8704
 2953SOL    HW120318   2.566   2.832   7.359  0.2588  0.7088  0.1775
 2953SOL    HW220319   2.649   2.821   7.484 -0.4300 -0.4670  0.1487
 2954SOL     OW20320   1.624   2.049   5.759  0.2253 -0.9013  0.1143
 2954SOL    HW120321   1.634   2.039   5.853  0.1595 -3.1400 -0.1008
 2954SOL    HW220322   1.546   1.994   5.748 -1.0774  1.1116 -0.6315
 2955SOL     OW20323   3.374   3.532   8.204 -0.4986  0.0136 -0.2613
 2955SOL    HW120324   3.390   3.488   8.121  2.6302 -1.1543  0.9799
 2955SOL    HW220325   3.301   3.480   8.237 -1.7307  1.9063  0.0533
 2956SOL     OW20326   4.645   2.914   4.125 -0.2194 -0.4326 -0.0947
 2956SOL    HW120327   4.696   2.920   4.044  0.1913 -1.2441  0.1098
 2956SOL    HW220328   4.580   2.848   4.103 -2.0219  1.0063  0.8707
 2957SOL     OW20329   3.582   3.815  10.140 -0.3341  0.4924  0.5883
 2957SOL    HW120330   3.531   3.743  10.177  0.2740 -0.6024 -0.6786
 2957SOL    HW220331   3.522   3.858  10.080  1.0552  3.0477  1.0157
 2958SOL     OW20332   3.048   3.586   9.292  0.3803  0.5601  0.0147
 2958SOL    HW120333   2.985   3.544   9.351  1.9557 -0.5103  0.9204
 2958SOL    HW220334   3.128   3.574   9.342  0.1151 -1.4531 -0.0671
 2959SOL     OW20335   4.232   3.946   0.448 -0.7788 -0.2672 -0.0728
 2959SOL    HW120336   4.304   3.941   0.511 -0.8369  0.4573  0.0452
 2959SOL    HW220337   4.228   4.041   0.435 -0.6935 -0.4228 -1.2357
 2960SOL     OW20338   3.660   3.466  10.436 -0.0276  0.0336 -0.3662
 2960SOL    HW120339   3.606   3.543  10.451 -0.5953 -0.7282  1.4525
 2960SOL    HW220340   3.735   3.510  10.396  0.1153 -0.4725 -0.6620
 2961SOL     OW20341   0.156   3.742   2.276  0.2443  0.0255 -0.2955
 2961SOL    HW120342   0.196   3.686   2.343 -0.3531 -0.8692 -0.6960
 2961SOL    HW220343   0.091   3.680   2.246  0.5160 -0.9453  1.1171
 2962SOL     OW20344   3.056   2.371   7.445  0.2946 -0.1030 -0.1377
 2962SOL    HW120345   3.080   2.347   7.355  1.7151 -0.4831  0.3373
 2962SOL    HW220346   2.961   2.358   7.445  0.5097 -1.7023  1.5409
 2963SOL     OW20347   2.176   0.515  11.214 -0.2887 -0.3121  0.2799
 2963SOL    HW120348   2.124   0.480  11.287  0.9751  0.2124  1.4259
 2963SOL    HW220349   2.215   0.589  11.259  0.0389 -0.2488 -0.1120
 2964SOL     OW20350   0.704   3.506   9.408  0.4654 -0.3667 -0.1248
 2964SOL    HW120351   0.706   3.410   9.406  0.0154 -0.3763 -0.1483
 2964SOL    HW220352   0.796   3.529   9.396  0.5029  0.0728  1.0271
 2965SOL     OW20353   0.781   0.297   7.402  0.2109 -0.0204  0.8815
 2965SOL    HW120354   0.797   0.330   7.491 -2.4768  1.0383  0.9741
 2965SOL    HW220355   0.767   0.203   7.412  0.6524 -0.2149 -0.3194
 2966SOL     OW20356   2.458   4.593  11.687  0.1723  0.2630 -0.1746
 2966SOL    HW120357   2.449   4.607  11.781 -0.0229 -0.5757 -0.0649
 2966SOL    HW220358   2.391   4.655  11.660 -1.6178 -1.5579  0.0471
 2967SOL     OW20359   3.328   3.812   6.510  0.5888 -0.2559  0.0016
 2967SOL    HW120360   3.293   3.744   6.453  0.4022  0.6795 -0.9968
 2967SOL    HW220361   3.358   3.764   6.587 -0.3156  1.3412  1.3570
 2968SOL     OW20362   0.996   1.654   0.143 -0.3829 -0.0718 -0.1123
 2968SOL    HW120363   0.903   1.671   0.156 -0.0549  1.1431  0.6099
 2968SOL    HW220364   0.996   1.652   0.047 -0.3505  1.3832 -0.1416
 2969SOL     OW20365   2.524   2.640   1.035  0.0727  0.2974  0.3233
 2969SOL    HW120366   2.479   2.716   1.072 -1.2910  0.4370 -1.6113
 2969SOL    HW220367   2.598   2.674   0.985 -0.8672  1.1351 -0.5136
 2970SOL     OW20368   0.265   3.828   7.797  0.1270 -0.8297 -0.7656
 2970SOL    HW120369   0.259   3.826   7.702  2.6734  1.8029 -1.0032
 2970SOL    HW220370   0.309   3.913   7.811 -2.3922  0.8764 -3.2724
 2971SOL     OW20371   1.751   0.491   3.388  0.3483 -0.0265  0.4699
 2971SOL    HW120372   1.800   0.571   3.404  0.6201 -0.0189 -0.3945
 2971SOL    HW220373   1.677   0.521   3.335 -0.9669 -1.6551  1.3915
 2972SOL     OW20374   1.906   0.765   5.549 -0.2164 -0.3747 -0.2145
 2972SOL    HW120375   1.983   0.763   5.492 -2.3351 -0.3842 -3.1022
 2972SOL    HW220376   1.857   0.838   5.511  3.3509  1.3292 -1.6020
 2973SOL     OW20377   3.770   4.192   0.252 -0.9145 -0.0186 -0.6434
 2973SOL    HW120378   3.732   4.194   0.339 -0.2869 -1.1884 -0.3400
 2973SOL    HW220379   3.703   4.243   0.206 -1.0661  0.2043 -0.1760
 2974SOL     OW20380   4.602   1.034   7.952 -0.1578 -0.0178 -0.1713
 2974SOL    HW120381   4.666   1.104   7.963 -2.3688  2.0858 -0.6093
 2974SOL    HW220382   4.518   1.080   7.952  0.4165  1.0361  0.5187
 2975SOL     OW20383   2.712   0.629   6.110  0.2831  0.5447  0.0158
 2975SOL    HW120384   2.804   0.603   6.116  0.1092 -0.5585 -1.8448
 2975SOL    HW220385   2.712   0.724   6.104 -2.8973  0.5314  0.1183
 2976SOL     OW20386   4.511   4.339   6.610  0.0942  0.2949 -0.0840
 2976SOL    HW120387   4.597   4.381   6.601  0.5423 -0.6753 -0.3390
 2976SOL    HW220388   4.488   4.368   6.698 -0.7273  0.1559 -0.2577
 2977SOL     OW20389   2.355   0.612   8.656 -0.0697 -0.3620  0.2286
 2977SOL    HW120390   2.291   0.551   8.619  2.1382 -2.2634 -0.4565
 2977SOL    HW220391   2.294   0.651   8.717 -1.0665 -0.3491 -0.7810
 2978SOL     OW20392   1.495   3.402   8.856 -0.5819  0.1874  0.0012
 2978SOL    HW120393   1.501   3.364   8.769 -0.3034 -1.3738  0.6921
 2978SOL    HW220394   1.496   3.495   8.834 -0.3160  0.0480 -0.5619
 2979SOL     OW20395   0.999   3.730   5.798 -0.6566  0.4520  0.0728
 2979SOL    HW120396   1.079   3.760   5.756 -1.7815 -0.4086 -2.6716
 2979SOL    HW220397   1.017   3.769   5.884  0.0155  1.3350 -0.4695
 2980SOL     OW20398   4.631   0.113   5.237 -0.1512 -0.5186 -0.0105
 2980SOL    HW120399   4.659   0.133   5.326  0.0686 -2.6843  0.4217
 2980SOL    HW220400   4.631   0.017   5.243  0.0756 -0.5385 -0.2938
 2981SOL     OW20401   2.332   3.922   3.672  0.4531 -0.0939  0.2557
 2981SOL    HW120402   2.357   3.984   3.603  1.7397 -0.1737  0.6472
 2981SOL    HW220403   2.237   3.914   3.662  0.2305  1.6273  0.8641
 2982SOL     OW20404   0.215   2.542   5.987 -0.1659  0.0455 -0.4492
 2982SOL    HW120405   0.130   2.502   5.968  1.1158 -2.0367 -1.8186
 2982SOL    HW220406   0.233   2.511   6.076  0.1828 -0.4520 -0.6963
 2983SOL     OW20407   3.590   1.270  15.503  0.4986  0.6903 -0.0087
 2983SOL    HW120408   3.660   1.205  15.512 -0.0523  0.0259 -0.5377
 2983SOL    HW220409   3.620   1.335  15.567 -0.0196  0.4847  0.4383
 2984SOL     OW20410   4.379   1.705  14.510 -0.3343 -0.4652 -0.1634
 2984SOL    HW120411   4.395   1.622  14.554  1.4650  0.3156  0.6795
 2984SOL    HW220412   4.374   1.683  14.418 -1.3791  2.2431 -0.7728
 2985SOL     OW20413   3.944   3.368   7.513 -0.3755 -0.3989  0.0679
 2985SOL    HW120414   3.993   3.425   7.454 -0.6823 -1.5418 -1.2974
 2985SOL    HW220415   3.984   3.388   7.598  1.6789  2.3476 -1.5522
 2986SOL     OW20416   2.900   0.474   9.031  0.4607 -0.0100  0.2003
 2986SOL    HW120417   2.885   0.396   9.084 -0.2058 -1.6015 -2.2921
 2986SOL    HW220418   2.853   0.530   9.092 -2.1336 -1.9221 -0.0169
 2987SOL     OW20419   3.611   0.811   7.911 -0.1421  0.0227  0.0975
 2987SOL    HW120420   3.652   0.737   7.956 -0.0211 -0.6911 -1.1760
 2987SOL    HW220421   3.564   0.861   7.978 -3.1863 -1.7542 -0.6689
 2988SOL     OW20422   1.023   4.485   7.298 -0.0409 -0.2674 -0.3696
 2988SOL    HW120423   1.013   4.533   7.381  0.5325 -2.3223  0.8951
 2988SOL    HW220424   1.118   4.473   7.302  0.1567  0.9877 -1.6950
 2989SOL     OW20425   2.408   1.215   3.264 -0.4003  0.0487  0.2906
 2989SOL    HW120426   2.413   1.308   3.242  0.4498  0.6803  3.1331
 2989SOL    HW220427   2.376   1.165   3.189  0.4013 -0.3247  0.1931
 2990SOL     OW20428   1.941   3.207   8.665 -0.3734 -0.7769  0.2676
 2990SOL    HW120429   1.892   3.279   8.626  0.6379 -0.2361  0.0033
 2990SOL    HW220430   1.967   3.248   8.748  0.7283  0.1904 -0.5582
 2991SOL     OW20431   1.615   4.529   0.644 -0.4327 -0.0194  0.0760
 2991SOL    HW120432   1.546   4.463   0.656  1.1434 -1.4873  0.9342
 2991SOL    HW220433   1.562   4.588   0.590 -1.7336 -1.7710 -0.5836
 2992SOL     OW20434   0.830   1.786   6.682  0.0221 -0.0266  0.2829
 2992SOL    HW120435   0.855   1.716   6.742 -2.2397  0.4489  1.8053
 2992SOL    HW220436   0.793   1.732   6.613 -0.9983 -0.7503  1.3964
 2993SOL     OW20437   4.705   1.915  17.472 -0.6962  0.2538  0.1072
 2993SOL    HW120438   0.038   1.855  17.422 -0.9690  0.0226  0.0833
 2993SOL    HW220439   4.623   1.867  17.465 -0.0515 -0.4686 -2.3424
 2994SOL     OW20440   1.404   0.213   7.471  0.2224  0.2455 -0.6416
 2994SOL    HW120441   1.361   0.291   7.506  1.3333  1.0057 -0.9630
 2994SOL    HW220442   1.467   0.252   7.410  0.1284 -1.7318 -1.9951
 2995SOL     OW20443   1.737   1.774   5.686 -0.0919  0.1394  0.3896
 2995SOL    HW120444   1.652   1.812   5.661  0.2547  0.3280 -0.5112
 2995SOL    HW220445   1.740   1.790   5.780 -0.1666 -0.7194  0.5344
 2996SOL     OW20446   3.368   4.264   1.960  0.6463 -0.5444 -0.0372
 2996SOL    HW120447   3.401   4.201   2.024  1.8000 -0.1270 -0.2263
 2996SOL    HW220448   3.379   4.213   1.880  2.4428  1.5987 -1.1579
 2997SOL     OW20449   2.049   3.863   4.320  0.8962 -0.4419 -0.1582
 2997SOL    HW120450   2.069   3.956   4.323 -1.5214  0.0228  1.5018
 2997SOL    HW220451   2.120   3.829   4.266  1.3668  2.3162 -1.2374
 2998SOL     OW20452   2.653   4.539   1.744  0.6024  0.6949  0.8290
 2998SOL    HW120453   2.723   4.488   1.704 -0.1560 -0.1901  0.6494
 2998SOL    HW220454   2.706   4.605   1.789 -0.6117  1.7000  0.8078
 2999SOL     OW20455   1.139   3.598   6.948  0.4544  0.3260  0.0829
 2999SOL    HW120456   1.109   3.538   7.016 -2.1159  0.9554 -0.4919
 2999SOL    HW220457   1.106   3.681   6.982  2.4488  2.0625 -2.2231
 3000SOL     OW20458   0.632   1.193  12.929  0.1021  0.1165 -0.0030
 3000SOL    HW120459   0.703   1.218  12.870  0.1931  1.1962  0.5646
 3000SOL    HW220460   0.670   1.217  13.013 -0.1648 -1.5310  0.5736
 3001SOL     OW20461   0.875   4.546   5.265  0.0313 -0.4940 -0.3390
 3001SOL    HW120462   0.826   4.483   5.213  0.9084 -0.4026 -1.2649
 3001SOL    HW220463   0.873   4.515   5.356  1.6912 -3.2221 -1.2218
 3002SOL     OW20464   4.323   3.365  13.082  0.3133 -0.4121 -0.1060
 3002SOL    HW120465   4.381   3.294  13.053  2.1263  0.7274  0.6693
 3002SOL    HW220466   4.246   3.361  13.027  1.4825 -2.0254 -1.6428
 3003SOL     OW20467   3.990   4.266  14.774  0.0947  0.6455  0.0802
 3003SOL    HW120468   4.042   4.189  14.752 -0.0043  1.4819 -3.0453
 3003SOL    HW220469   4.062   4.328  14.788 -0.5274  1.1986  0.8968
 3004SOL     OW20470   1.862   1.489   2.028  0.9031  0.2114 -0.1605
 3004SOL    HW120471   1.866   1.394   2.011 -0.1714 -0.2502  2.1713
 3004SOL    HW220472   1.770   1.509   2.008  1.1941  1.4281 -0.2461
 3005SOL     OW20473   4.519   0.182   4.497  0.4536  0.2164  0.3354
 3005SOL    HW120474   4.476   0.099   4.519  3.1319 -1.6088 -1.2390
 3005SOL    HW220475   4.442   0.238   4.501 -1.9267 -2.7800 -3.0324
 3006SOL     OW20476   0.662   4.217   3.562 -0.3577  0.2033 -0.6650
 3006SOL    HW120477   0.756   4.205   3.546 -0.2631 -0.0907  0.1215
 3006SOL    HW220478   0.621   4.150   3.508  0.7158  1.7410 -3.4336
 3007SOL     OW20479   1.681   2.438   8.216 -0.3469  0.2449 -0.4667
 3007SOL    HW120480   1.735   2.400   8.146 -1.4912  2.9200 -2.8112
 3007SOL    HW220481   1.624   2.361   8.221 -1.0126  0.7016 -1.0148
 3008SOL     OW20482   3.261   3.002   6.290  0.4166  0.1337  0.7301
 3008SOL    HW120483   3.247   3.018   6.383 -0.8680  0.9268  0.3916
 3008SOL    HW220484   3.357   2.998   6.293  0.3404 -0.2352  2.4057
 3009SOL     OW20485   1.721   4.656   2.242  0.0115  0.1483  0.1135
 3009SOL    HW120486   1.762   0.019   2.226  1.9918 -0.5653  1.3397
 3009SOL    HW220487   1.758   4.608   2.169 -0.2859  0.6571 -0.3755
 3010SOL     OW20488   0.255   1.997   8.162  0.0592  0.2659  0.2213
 3010SOL    HW120489   0.237   2.066   8.098  0.9809 -2.1492 -2.6574
 3010SOL    HW220490   0.205   2.028   8.238  0.1623 -0.0114  0.4000
 3011SOL     OW20491   3.936   4.624  16.370  0.2187 -0.1690  0.3580
 3011SOL    HW120492   4.010   4.662  16.322  0.7564  0.0022  1.3050
 3011SOL    HW220493   3.871   4.693  16.355  2.0623  1.5599  0.2412
 3012SOL     OW20494   2.883   0.041   3.804 -0.0187 -0.3201 -0.1907
 3012SOL    HW120495   2.914   0.066   3.717 -1.4706 -0.8572 -0.8610
 3012SOL    HW220496   2.791   0.063   3.812  0.4754  1.9405 -0.9578
 3013SOL     OW20497   4.176   4.049   6.048  0.6206 -0.4383  0.2569
 3013SOL    HW120498   4.168   4.110   6.121 -1.2460 -0.4476  0.0691
 3013SOL    HW220499   4.122   4.096   5.985 -1.0411  2.0464  3.5647
 3014SOL     OW20500   3.152   3.968   2.737  0.0174 -0.4597 -0.5885
 3014SOL    HW120501   3.086   3.968   2.806 -0.0740  3.4249 -0.6662
 3014SOL    HW220502   3.202   3.888   2.752  0.8318 -0.1287 -1.5641
 3015SOL     OW20503   3.121   2.955   6.541 -0.0465 -0.3959 -0.3355
 3015SOL    HW120504   3.112   2.868   6.502 -0.1094  0.4117 -2.0778
 3015SOL    HW220505   3.082   2.938   6.627 -0.6101  0.5077 -0.4199
 3016SOL     OW20506   2.364   0.795  14.437 -0.5302  0.1895 -0.0601
 3016SOL    HW120507   2.333   0.852  14.367  2.7670  0.9949 -0.8627
 3016SOL    HW220508   2.294   0.729  14.442 -0.6690  0.3051 -0.5188
 3017SOL     OW20509   4.694   3.164   2.771  0.3506 -0.0352 -0.1061
 3017SOL    HW120510   4.608   3.203   2.758 -0.4728 -1.8362 -0.0068
 3017SOL    HW220511   4.705   3.111   2.692  1.9354  0.4399 -0.1999
 3018SOL     OW20512   1.009   1.619  15.367 -0.0961  0.1744  0.0089
 3018SOL    HW120513   0.965   1.700  15.342  2.6107  1.6710  0.1750
 3018SOL    HW220514   0.934   1.570  15.401  0.7773  0.1762  1.9181
 3019SOL     OW20515   3.384   3.549   5.572  0.2496  0.4371  0.5318
 3019SOL    HW120516   3.348   3.542   5.660 -0.7244 -1.5510 -0.0180
 3019SOL    HW220517   3.361   3.631   5.528 -0.9707 -0.1520  0.0530
 3020SOL     OW20518   1.343   0.167   6.729 -0.2430  0.9386  0.0295
 3020SOL    HW120519   1.379   0.085   6.762 -0.1084  0.8135 -0.4231
 3020SOL    HW220520   1.409   0.185   6.662  0.1146 -1.5498 -0.2678
 3021SOL     OW20521   4.306   2.636   0.668  0.2674  0.8627  0.0714
 3021SOL    HW120522   4.295   2.596   0.754 -1.3124  1.9721  0.3781
 3021SOL    HW220523   4.299   2.730   0.681 -1.1952  0.8788 -0.7412
 3022SOL     OW20524   2.780   3.329   4.445  1.0063 -0.0291  0.0682
 3022SOL    HW120525   2.745   3.301   4.529 -0.4848 -0.0296 -0.5593
 3022SOL    HW220526   2.845   3.259   4.438  0.6638 -0.1997 -1.3504
 3023SOL     OW20527   2.771   1.646   5.962  0.4014 -0.4579  0.0757
 3023SOL    HW120528   2.676   1.637   5.953  0.3708 -0.8472  0.8016
 3023SOL    HW220529   2.775   1.588   6.038 -0.4441 -2.2293 -1.2379
 3024SOL     OW20530   1.736   2.816   0.943  0.6736 -0.8156  0.1649
 3024SOL    HW120531   1.770   2.905   0.932 -2.1514  0.4446  1.7434
 3024SOL    HW220532   1.710   2.799   0.853  1.1605  0.8586 -0.3004
 3025SOL     OW20533   3.799   2.488  16.525  0.4574 -0.3895 -0.1209
 3025SOL    HW120534   3.789   2.460  16.434  0.5895 -0.3062 -0.1601
 3025SOL    HW220535   3.893   2.489  16.539  0.6641 -0.1844 -1.5798
 3026SOL     OW20536   4.544   1.192   9.730  0.3525  0.4611  0.0986
 3026SOL    HW120537   4.520   1.131   9.660 -0.5656  1.4645 -0.4649
 3026SOL    HW220538   4.456   1.220   9.755 -0.3258 -1.7387  0.2099
 3027SOL     OW20539   4.016   2.162  15.248 -0.3622  0.1993 -0.0364
 3027SOL    HW120540   3.987   2.191  15.161  0.1903 -1.8967 -0.9321
 3027SOL    HW220541   3.935   2.134  15.289 -1.5045  1.2121 -1.5885
 3028SOL     OW20542   0.558   1.990   3.458 -0.5915 -0.5651  0.4107
 3028SOL    HW120543   0.611   1.913   3.441  2.2338  1.5670 -0.4692
 3028SOL    HW220544   0.485   1.948   3.503 -0.6135  0.3049  1.1996
 3029SOL     OW20545   3.280   3.570   3.907  0.1556  0.1223  0.1817
 3029SOL    HW120546   3.194   3.608   3.926 -0.4030 -0.6279 -0.8219
 3029SOL    HW220547   3.256   3.478   3.895  3.5359 -0.6225 -0.7127
 3030SOL     OW20548   0.450   2.068  13.306 -0.2235  0.4318 -0.0206
 3030SOL    HW120549   0.422   2.079  13.215 -1.4647 -0.6249  0.2370
 3030SOL    HW220550   0.464   2.160  13.327  0.2404  0.6368 -1.2574
 3031SOL     OW20551   1.825   2.229   8.748  0.2102  0.2786  0.0326
 3031SOL    HW120552   1.814   2.135   8.758  0.7457 -0.0770 -2.5677
 3031SOL    HW220553   1.749   2.249   8.693 -0.0101 -0.8554 -0.0604
 3032SOL     OW20554   0.054   2.955  11.666 -0.3840  0.1170 -0.1364
 3032SOL    HW120555   0.037   2.870  11.627 -2.3623  0.1582  0.6126
 3032SOL    HW220556   0.088   2.936  11.753 -1.4527  1.5860  0.6174
 3033SOL     OW20557   4.023   2.800  16.744  0.8400 -0.5327  0.5210
 3033SOL    HW120558   4.094   2.843  16.696  0.2636  0.4339  0.5316
 3033SOL    HW220559   4.056   2.827  16.830  0.2852  1.5538  0.0872
 3034SOL     OW20560   1.127   0.582  17.532 -0.0373 -0.6173  0.5953
 3034SOL    HW120561   1.051   0.531  17.503 -0.6905  0.4402  0.4501
 3034SOL    HW220562   1.181   0.611  17.458  0.8810 -1.7566  0.8131
 3035SOL     OW20563   0.069   0.890   6.455 -0.0628 -0.0170 -0.9677
 3035SOL    HW120564   0.146   0.889   6.512  2.8422  0.3897 -4.9327
 3035SOL    HW220565   0.117   0.915   6.376  0.8449 -0.2085 -0.4704
 3036SOL     OW20566   4.624   2.712  16.443  0.2456  0.0227 -0.4974
 3036SOL    HW120567   4.657   2.707  16.353  0.4533 -3.9734 -0.2000
 3036SOL    HW220568   4.650   2.627  16.479  0.3178  0.3301  0.1736
 3037SOL     OW20569   3.069   0.209   3.632 -0.0617 -0.0687 -0.6480
 3037SOL    HW120570   3.154   0.174   3.659  0.3813  1.1362 -0.4900
 3037SOL    HW220571   3.086   0.250   3.547 -1.4957  0.4915 -0.6614
 3038SOL     OW20572   1.189   1.360   7.245  0.3092 -0.0705 -0.2818
 3038SOL    HW120573   1.260   1.422   7.264  0.9273 -0.7828 -0.2390
 3038SOL    HW220574   1.229   1.274   7.229 -0.7060 -0.6751  0.4546
 3039SOL     OW20575   2.382   0.984   2.783 -0.1073  0.2415  0.6234
 3039SOL    HW120576   2.423   0.897   2.788  2.1334  1.0924 -2.4796
 3039SOL    HW220577   2.456   1.043   2.768 -1.0185  1.1682 -0.2019
 3040SOL     OW20578   2.804   2.202   5.623 -0.0338 -0.1536  0.2494
 3040SOL    HW120579   2.719   2.184   5.582 -0.2171  2.0924 -0.3693
 3040SOL    HW220580   2.796   2.296   5.639 -0.2873  0.2055 -1.9880
 3041SOL     OW20581   0.355   1.996   4.307  0.6115  0.3705  0.0449
 3041SOL    HW120582   0.450   2.003   4.295  0.9613  0.0113  2.7887
 3041SOL    HW220583   0.326   2.080   4.271  0.8338  1.2125  1.8416
 3042SOL     OW20584   4.370   4.528  12.502 -0.5497 -0.0978 -0.6041
 3042SOL    HW120585   4.373   4.447  12.452  0.4192 -1.0744  1.0316
 3042SOL    HW220586   4.281   4.562  12.488 -0.8622  0.2861  2.3427
 3043SOL     OW20587   2.329   2.821   6.076  0.0748  0.9577 -0.3830
 3043SOL    HW120588   2.252   2.876   6.062 -0.6184  0.0696 -0.0352
 3043SOL    HW220589   2.346   2.856   6.163  0.1459 -0.5109  0.1888
 3044SOL     OW20590   4.369   2.619   5.676 -0.0948  0.1492 -0.0343
 3044SOL    HW120591   4.286   2.666   5.690 -0.0573  0.0642  0.4671
 3044SOL    HW220592   4.334   2.531   5.663 -0.0325  0.2911 -1.1461
 3045SOL     OW20593   2.430   1.386   5.506 -0.2169  0.4707  0.2762
 3045SOL    HW120594   2.392   1.362   5.421 -1.3165 -0.3511  1.0000
 3045SOL    HW220595   2.353   1.391   5.562 -1.3796  0.2620 -1.2867
 3046SOL     OW20596   3.689   3.573   2.783 -0.0396 -0.2337  0.4971
 3046SOL    HW120597   3.732   3.491   2.755  0.1162 -0.9829  2.9278
 3046SOL    HW220598   3.638   3.591   2.704 -1.4041  0.6974  1.5951
 3047SOL     OW20599   0.829   4.027  12.691 -0.2423  0.4457 -0.0589
 3047SOL    HW120600   0.739   4.057  12.706  0.3511  0.6610  3.1696
 3047SOL    HW220601   0.874   4.039  12.775  1.0513  0.9512 -0.8331
 3048SOL     OW20602   3.296   0.805   4.182  0.0215 -0.0976  0.3735
 3048SOL    HW120603   3.365   0.774   4.241 -0.5230  0.4663  1.2840
 3048SOL    HW220604   3.300   0.742   4.109 -1.7229 -0.0963  0.2891
 3049SOL     OW20605   3.596   2.041  17.346 -0.1342 -0.0918 -0.3427
 3049SOL    HW120606   3.611   2.114  17.406 -0.3979 -1.0801  0.9295
 3049SOL    HW220607   3.580   2.092  17.267 -0.9162 -0.9831 -0.7565
 3050SOL     OW20608   2.360   1.243   1.615  0.8299  0.2857  0.5857
 3050SOL    HW120609   2.335   1.169   1.560 -0.8014  1.7042 -0.5741
 3050SOL    HW220610   2.294   1.241   1.685  0.5622 -1.1620  0.2892
 3051SOL     OW20611   0.639   0.357   5.236 -0.2458  0.0689 -0.8456
 3051SOL    HW120612   0.657   0.377   5.144  0.7913  2.4302 -0.1178
 3051SOL    HW220613   0.574   0.424   5.257 -2.4668 -1.5258 -2.5347
 3052SOL     OW20614   4.179   1.583   6.557 -0.0022  0.1992 -0.3275
 3052SOL    HW120615   4.141   1.496   6.566  2.0530 -0.3883  2.5480
 3052SOL    HW220616   4.112   1.629   6.607  0.8834  2.5808 -1.3511
 3053SOL     OW20617   2.766   3.304  12.302  0.0069 -0.1294 -0.0217
 3053SOL    HW120618   2.756   3.240  12.373  0.6250  1.3790  1.4386
 3053SOL    HW220619   2.848   3.276  12.262 -0.0526  1.6680 -1.3934
 3054SOL     OW20620   4.100   4.639  15.480  0.3529  0.4238 -0.4203
 3054SOL    HW120621   4.046   4.675  15.410 -0.7114  0.5573  0.4790
 3054SOL    HW220622   4.144   4.719  15.509 -0.6890  0.7779  0.1769
 3055SOL     OW20623   1.270   0.315  13.254 -0.4860  0.0003 -0.3737
 3055SOL    HW120624   1.196   0.255  13.261  0.0163 -0.6250 -0.3959
 3055SOL    HW220625   1.227   0.381  13.200  0.3400 -1.0339 -2.3202
 3056SOL     OW20626   2.311   1.616   4.444  0.8685 -0.1946 -0.1290
 3056SOL    HW120627   2.235   1.632   4.388  2.4111  0.1652 -2.0974
 3056SOL    HW220628   2.359   1.695   4.421 -1.8312  1.7054  0.6705
 3057SOL     OW20629   3.895   0.316  14.128 -0.1869 -0.2599 -0.1520
 3057SOL    HW120630   3.905   0.232  14.173 -1.8457 -1.2092 -1.5397
 3057SOL    HW220631   3.858   0.291  14.043 -2.6111 -1.7095  1.3222
 3058SOL     OW20632   4.523   1.686   3.953  0.4115 -0.0778 -0.0368
 3058SOL    HW120633   4.543   1.676   4.046 -2.8892  0.2914  0.7015
 3058SOL    HW220634   4.561   1.773   3.938  0.6688 -0.6329 -2.7145
 3059SOL     OW20635   2.148   0.193   3.400  0.6128  0.0351  0.1093
 3059SOL    HW120636   2.062   0.218   3.366 -0.4000 -2.8515  0.4727
 3059SOL    HW220637   2.157   0.105   3.363  0.3970 -0.9259  2.2959
 3060SOL     OW20638   0.009   3.718   7.053  0.0975 -0.3653  0.1117
 3060SOL    HW120639   0.024   3.801   7.097 -0.8814 -1.0274  1.6660
 3060SOL    HW220640   0.056   3.735   6.971  0.9056  2.5816  1.1894
 3061SOL     OW20641   0.460   0.823   0.008 -0.2584 -0.2580 -0.4353
 3061SOL    HW120642   0.389   0.855   0.062  0.9532  0.1816  0.9037
 3061SOL    HW220643   0.515   0.896   0.036  1.7792 -1.5508 -1.0283
 3062SOL     OW20644   2.644   1.879   3.743  0.7200  0.4524  0.3707
 3062SOL    HW120645   2.687   1.888   3.658 -1.0608 -1.8908 -0.8027
 3062SOL    HW220646   2.549   1.872   3.728 -0.0449  1.3061  4.7567
 3063SOL     OW20647   3.401   0.850  11.016 -0.0820 -0.1776  0.0379
 3063SOL    HW120648   3.363   0.774  10.973 -0.5783 -0.3407  0.7559
 3063SOL    HW220649   3.449   0.897  10.948 -0.9340  0.5793 -0.0430
 3064SOL     OW20650   2.611   0.123   9.596  0.5963  0.2955  0.3258
 3064SOL    HW120651   2.521   0.104   9.620  0.2035  0.1531 -1.2592
 3064SOL    HW220652   2.622   0.216   9.615  2.6671  0.1648 -0.2171
 3065SOL     OW20653   3.407   2.402   0.061 -0.0745  0.1704 -0.2605
 3065SOL    HW120654   3.336   2.355   0.018  0.8611  0.0760 -1.7068
 3065SOL    HW220655   3.467   2.335   0.093 -1.0628 -0.1680  0.8732
 3066SOL     OW20656   2.867   2.155   2.199 -0.5881 -0.5116 -0.3198
 3066SOL    HW120657   2.886   2.188   2.112  0.3192  0.2987  0.1854
 3066SOL    HW220658   2.867   2.059   2.195  0.2822 -0.5350  0.2215
 3067SOL     OW20659   3.756   1.879  10.962 -0.0785 -0.1004  0.6315
 3067SOL    HW120660   3.710   1.962  10.971 -1.4487 -0.9692  1.7662
 3067SOL    HW220661   3.689   1.826  10.919 -1.3937  1.1480  1.1308
 3068SOL     OW20662   0.715   3.181   2.466  0.2266 -0.1843 -0.4542
 3068SOL    HW120663   0.674   3.120   2.527 -0.7998  0.7806 -0.1675
 3068SOL    HW220664   0.789   3.129   2.436  0.7961  0.0172  0.6063
 3069SOL     OW20665   2.449   3.890   6.938  0.1561 -0.2950  0.3154
 3069SOL    HW120666   2.405   3.806   6.922  0.6259 -0.3674 -0.6226
 3069SOL    HW220667   2.454   3.934   6.853 -0.1347 -0.5772  0.1529
 3070SOL     OW20668   3.834   3.619   0.831  0.1442  0.1473  0.3281
 3070SOL    HW120669   3.903   3.667   0.786 -0.7494 -0.0161 -1.2111
 3070SOL    HW220670   3.860   3.636   0.921  1.7328  2.4623 -0.5547
 3071SOL     OW20671   3.232   2.629  14.341  0.1624  0.2420 -0.1387
 3071SOL    HW120672   3.296   2.655  14.275 -0.9421  2.3111 -0.3995
 3071SOL    HW220673   3.200   2.541  14.324  4.0383 -0.6874 -2.6223
 3072SOL     OW20674   1.021   1.421  14.394 -0.1951  0.8861  0.3652
 3072SOL    HW120675   1.088   1.431  14.327  0.0240 -1.7235  0.1969
 3072SOL    HW220676   1.006   1.514  14.410 -0.0913  0.6076  2.1085
 3073SOL     OW20677   4.414   3.159   3.063 -0.3536  0.0608 -0.6603
 3073SOL    HW120678   4.415   3.073   3.021  3.0613 -0.3959  0.4128
 3073SOL    HW220679   4.468   3.146   3.141 -0.3291 -0.0459 -0.6946
 3074SOL     OW20680   2.928   4.323   2.790  0.1576 -0.1477  0.0789
 3074SOL    HW120681   3.004   4.320   2.731 -0.0089 -2.3552 -0.0224
 3074SOL    HW220682   2.960   4.278   2.868  1.1870  0.7183  0.1714
 3075SOL     OW20683   2.729   0.560   6.822  0.3024 -0.1703  0.4599
 3075SOL    HW120684   2.815   0.546   6.781  0.0171  0.9150 -0.5088
 3075SOL    HW220685   2.668   0.522   6.759  3.5819 -2.0486 -1.6360
 3076SOL     OW20686   1.951   4.517  11.815  0.0958 -0.0573  0.0223
 3076SOL    HW120687   1.920   4.473  11.736  2.5443  0.4050 -1.2155
 3076SOL    HW220688   1.878   4.573  11.841 -0.9501 -1.2320 -0.3854
 3077SOL     OW20689   2.042   3.386   9.836 -0.0283  0.2049 -0.5119
 3077SOL    HW120690   2.038   3.436   9.754  0.5180  1.2336  0.0811
 3077SOL    HW220691   1.963   3.430   9.867  1.9471  1.6393  2.5216
 3078SOL     OW20692   3.134   3.711  11.910 -0.7057 -0.2619 -0.2275
 3078SOL    HW120693   3.228   3.726  11.897 -0.4316 -2.1927 -0.4555
 3078SOL    HW220694   3.131   3.647  11.982  2.7241 -0.3512 -0.1386
 3079SOL     OW20695   2.627   1.544   4.327  0.4701 -0.1248  0.3734
 3079SOL    HW120696   2.575   1.466   4.345  0.8526 -1.0933 -2.6192
 3079SOL    HW220697   2.612   1.598   4.405  1.8974 -0.1631  0.6645
 3080SOL     OW20698   1.197   2.377   6.639  0.3268 -0.1806 -0.2468
 3080SOL    HW120699   1.257   2.303   6.634  2.2101  1.3829 -0.7187
 3080SOL    HW220700   1.118   2.342   6.599  1.3659 -2.6106 -0.1564
 3081SOL     OW20701   1.259   3.004   4.423  0.0289 -0.4239  0.1132
 3081SOL    HW120702   1.286   2.970   4.337 -0.8789  0.3989 -0.4952
 3081SOL    HW220703   1.319   3.078   4.426 -2.0412  1.2644  0.0351
 3082SOL     OW20704   1.160   1.221   3.058  0.6046 -0.4457  0.8046
 3082SOL    HW120705   1.099   1.152   3.087 -0.2410  0.0933  0.3125
 3082SOL    HW220706   1.121   1.303   3.088  0.9003  0.8149 -2.2978
 3083SOL     OW20707   4.533   0.155   3.560 -0.2289 -0.6812  0.8425
 3083SOL    HW120708   4.443   0.164   3.591 -0.3189  3.6104 -0.6697
 3083SOL    HW220709   4.517   0.120   3.472  0.8685  1.1321 -0.0786
 3084SOL     OW20710   1.203   2.216  16.644 -0.4360  0.4830 -0.4547
 3084SOL    HW120711   1.254   2.296  16.656  0.6582 -0.2592 -0.1763
 3084SOL    HW220712   1.173   2.232  16.555 -2.9446 -1.7127 -0.0295
 3085SOL     OW20713   0.586   2.398   1.096 -0.1502 -0.3490  0.1195
 3085SOL    HW120714   0.661   2.435   1.049 -1.2120 -0.7142 -1.8448
 3085SOL    HW220715   0.540   2.359   1.022  0.6308 -1.2676  0.1336
 3086SOL     OW20716   1.528   4.234   5.546 -0.0037 -0.0091 -0.5890
 3086SOL    HW120717   1.509   4.184   5.467  1.3825 -1.1806 -0.1764
 3086SOL    HW220718   1.440   4.257   5.575 -0.0768 -0.0549 -0.7773
 3087SOL     OW20719   1.119   0.299   8.467 -0.3738 -0.9608 -0.5896
 3087SOL    HW120720   1.052   0.317   8.533 -0.4997 -0.6588 -0.8023
 3087SOL    HW220721   1.149   0.220   8.512 -3.1760 -1.5184  0.2694
 3088SOL     OW20722   2.721   0.742   9.480  0.2710  0.3885 -0.0780
 3088SOL    HW120723   2.705   0.716   9.571  1.6982 -1.1071 -0.2632
 3088SOL    HW220724   2.675   0.825   9.476 -0.8945 -0.1657  1.8515
 3089SOL     OW20725   4.068   0.260   8.367 -0.1273 -0.2365 -0.3496
 3089SOL    HW120726   3.991   0.207   8.387  0.3347 -0.1999  1.5737
 3089SOL    HW220727   4.137   0.201   8.398 -0.1946 -0.8028 -1.3024
 3090SOL     OW20728   4.257   1.626   3.874  0.5206  0.0940  0.2419
 3090SOL    HW120729   4.328   1.657   3.930  2.7145 -3.7195 -0.3716
 3090SOL    HW220730   4.212   1.571   3.939 -2.2056 -1.0598 -2.6397
 3091SOL     OW20731   3.681   4.618  15.160 -0.9193  0.0601 -0.0395
 3091SOL    HW120732   3.690   4.695  15.105  0.6745 -0.3225 -0.3263
 3091SOL    HW220733   3.695   4.544  15.102 -2.1679 -0.1377 -0.0869
 3092SOL     OW20734   0.495   4.134   0.594  0.6339  0.1886  0.0239
 3092SOL    HW120735   0.506   4.219   0.639 -0.4806  0.5396 -0.3767
 3092SOL    HW220736   0.448   4.165   0.517  0.6201 -1.3684 -0.5787
 3093SOL     OW20737   0.754   1.418   3.794 -0.5013  0.1313 -0.0499
 3093SOL    HW120738   0.804   1.498   3.780 -0.1675 -0.1614 -0.5362
 3093SOL    HW220739   0.818   1.353   3.765 -1.0987 -0.2951 -0.3985
 3094SOL     OW20740   0.819   4.080   4.305  0.1735  0.1016 -0.2030
 3094SOL    HW120741   0.870   4.067   4.225 -0.6898 -1.7011 -0.4736
 3094SOL    HW220742   0.867   4.155   4.339  1.1840 -0.0765 -1.2495
 3095SOL     OW20743   1.831   1.377  15.343  0.4139  0.8169  0.3992
 3095SOL    HW120744   1.852   1.427  15.265 -0.4705  0.2939 -0.1674
 3095SOL    HW220745   1.876   1.436  15.404  2.5679 -0.4471  0.0755
 3096SOL     OW20746   2.403   1.434   7.039  0.0415 -0.2618  0.0629
 3096SOL    HW120747   2.410   1.480   7.123 -0.2361  0.6862 -0.4397
 3096SOL    HW220748   2.312   1.405   7.033 -0.2478  0.7514 -0.4484
 3097SOL     OW20749   0.798   0.230   3.623  0.3338  0.2821  0.1623
 3097SOL    HW120750   0.711   0.191   3.632  0.3465  0.3637  0.6051
 3097SOL    HW220751   0.832   0.227   3.712  1.9885 -0.0400 -0.4785
 3098SOL     OW20752   3.381   3.325   0.936 -0.2847  0.4727 -0.4171
 3098SOL    HW120753   3.470   3.350   0.908  0.0505 -1.0167 -0.6841
 3098SOL    HW220754   3.388   3.327   1.032  1.0177  1.2991 -0.5180
 3099SOL     OW20755   3.367   0.083  12.064 -0.3293  0.7902  0.2755
 3099SOL    HW120756   3.315   0.015  12.021  0.9628 -0.7941  1.2299
 3099SOL    HW220757   3.448   0.088  12.013 -0.2999  0.0913  0.2544
 3100SOL     OW20758   0.606   0.211   7.101 -0.0579 -0.3277  0.6010
 3100SOL    HW120759   0.558   0.294   7.099  1.4375  0.5424  0.6645
 3100SOL    HW220760   0.693   0.243   7.075 -0.7645 -0.5656 -1.9943
 3101SOL     OW20761   3.663   4.181   8.165 -0.0805  0.3128  0.0129
 3101SOL    HW120762   3.626   4.142   8.087 -0.1274  3.2513 -1.4373
 3101SOL    HW220763   3.646   4.120   8.237 -1.0545 -0.5641 -0.9828
 3102SOL     OW20764   4.453   0.328   3.060 -0.5272  0.2228 -0.3171
 3102SOL    HW120765   4.416   0.398   3.005 -0.6859  0.3658 -0.0252
 3102SOL    HW220766   4.497   0.379   3.127 -0.4600 -2.4630  1.6555
 3103SOL     OW20767   1.748   3.560   6.942 -0.2459 -0.0840 -0.2961
 3103SOL    HW120768   1.721   3.502   7.013  1.1195 -1.2182 -0.6847
 3103SOL    HW220769   1.695   3.514   6.877 -2.9806 -0.6767  2.3755
 3104SOL     OW20770   4.439   2.169   6.729 -0.5220  0.4141 -0.2069
 3104SOL    HW120771   4.513   2.204   6.679 -0.2866 -1.4101 -1.1574
 3104SOL    HW220772   4.470   2.080   6.746  1.7163  1.0165 -1.0735
 3105SOL     OW20773   2.525   3.795   7.478  0.5139 -0.0074  0.0064
 3105SOL    HW120774   2.539   3.841   7.396 -0.2916  0.8805  0.3747
 3105SOL    HW220775   2.522   3.868   7.539 -0.3550 -0.5276  0.5855
 3106SOL     OW20776   4.710   3.628   6.584 -0.1611 -0.1233  0.1075
 3106SOL    HW120777   4.621   3.593   6.583 -0.2532  0.1415 -1.2147
 3106SOL    HW220778   4.713   3.651   6.492  2.4492  3.7924  1.1880
 3107SOL     OW20779   1.269   4.459   7.863  0.0552 -0.4249  0.5339
 3107SOL    HW120780   1.246   4.369   7.840  1.8812 -0.8207  0.2231
 3107SOL    HW220781   1.261   4.450   7.958  1.6267 -0.4150  0.6686
 3108SOL     OW20782   1.880   0.568   4.378  0.3175 -0.2659  0.1769
 3108SOL    HW120783   1.846   0.645   4.424  2.0645  1.1037 -0.8496
 3108SOL    HW220784   1.960   0.553   4.427  0.6919 -0.5702 -0.5344
 3109SOL     OW20785   1.231   3.266   6.170  1.2453  0.4507 -0.6856
 3109SOL    HW120786   1.279   3.201   6.222  2.1776  2.9854  1.5850
 3109SOL    HW220787   1.209   3.322   6.244  1.2100  0.3789 -0.6413
 3110SOL     OW20788   4.631   1.318   5.820 -0.0430 -0.3689  0.4197
 3110SOL    HW120789   4.646   1.363   5.903  0.6440  0.4472 -0.1348
 3110SOL    HW220790   4.700   1.366   5.774 -1.6211  1.7799  0.3179
 3111SOL     OW20791   2.784   3.396   8.589  0.0432  0.1871  0.6936
 3111SOL    HW120792   2.710   3.352   8.629 -0.7439 -0.7390 -1.7916
 3111SOL    HW220793   2.821   3.440   8.665  0.8521  1.1069 -0.2239
 3112SOL     OW20794   4.088   3.215   7.951  0.0586  0.4992 -0.0353
 3112SOL    HW120795   4.035   3.174   7.883 -0.9972  0.1529  0.9886
 3112SOL    HW220796   4.046   3.168   8.023  2.7797 -0.0349  1.1986
 3113SOL     OW20797   4.464   2.456   9.299 -0.4165 -0.0381  0.1572
 3113SOL    HW120798   4.389   2.470   9.356 -1.2707  1.6939 -1.3996
 3113SOL    HW220799   4.486   2.549   9.295 -1.9738  0.3599  0.8603
 3114SOL     OW20800   2.572   1.354   4.032  0.3901  1.0111 -0.6420
 3114SOL    HW120801   2.484   1.361   3.997  0.5560  1.2154 -1.0263
 3114SOL    HW220802   2.597   1.445   4.016 -0.4350  1.1483 -1.1296
 3115SOL     OW20803   4.175   2.417  15.681  0.1174 -0.2267 -0.2994
 3115SOL    HW120804   4.123   2.356  15.734  0.4546  1.0190  1.4306
 3115SOL    HW220805   4.148   2.391  15.592  0.4991 -0.2715 -0.4023
 3116SOL     OW20806   0.562   4.129  14.491 -0.0507  0.5076  0.5428
 3116SOL    HW120807   0.640   4.083  14.459 -0.7793  0.1284 -0.7038
 3116SOL    HW220808   0.491   4.069  14.468  0.4236 -0.4975  1.7077
 3117SOL     OW20809   2.692   2.692   3.357 -0.0356  0.1209 -0.8406
 3117SOL    HW120810   2.724   2.659   3.441 -1.3094 -0.5174 -0.6178
 3117SOL    HW220811   2.600   2.706   3.379  0.0094  1.7522 -1.7126
 3118SOL     OW20812   0.690   0.422  15.257  0.1087 -0.4969 -0.0091
 3118SOL    HW120813   0.740   0.423  15.339 -0.1709  0.2511  0.1510
 3118SOL    HW220814   0.768   0.441  15.204  0.6311 -2.7372 -0.0390
 3119SOL     OW20815   3.895   4.158   5.792 -0.0282 -0.4796  0.1452
 3119SOL    HW120816   3.896   4.247   5.826  2.0252 -1.2226  2.0512
 3119SOL    HW220817   3.920   4.170   5.701 -0.9082  1.7845  0.2086
 3120SOL     OW20818   0.992   2.146  14.535  0.4526 -0.9022  0.2700
 3120SOL    HW120819   1.004   2.119  14.626  2.9525 -1.5724 -0.2743
 3120SOL    HW220820   1.061   2.212  14.536 -1.0675  0.6792  0.3136
 3121SOL     OW20821   4.108   3.482   3.572  0.4498  0.4165 -0.1529
 3121SOL    HW120822   4.082   3.504   3.482 -2.6123  1.1587  0.9419
 3121SOL    HW220823   4.058   3.553   3.614 -2.0135 -2.7068  2.1362
 3122SOL     OW20824   4.466   1.687   3.476  0.1894 -0.0368  0.0380
 3122SOL    HW120825   4.411   1.765   3.481 -0.6143 -0.7514  2.1962
 3122SOL    HW220826   4.470   1.650   3.565  2.1940  0.4415  0.1485
 3123SOL     OW20827   3.203   2.604   1.648 -0.1610  0.1023 -0.4888
 3123SOL    HW120828   3.114   2.635   1.663  0.4432  1.3849  0.4336
 3123SOL    HW220829   3.243   2.690   1.661  0.1343 -0.3733  1.8976
 3124SOL     OW20830   4.362   1.867  12.628 -0.0215  0.4126  0.5704
 3124SOL    HW120831   4.367   1.960  12.648  1.2864 -0.0765  2.5623
 3124SOL    HW220832   4.448   1.851  12.588 -0.2722  1.1339 -0.2673
 3125SOL     OW20833   0.836   0.747   2.539 -0.3410  0.3315  0.5846
 3125SOL    HW120834   0.839   0.810   2.467  0.0762 -2.4229 -1.7935
 3125SOL    HW220835   0.851   0.808   2.611 -0.6476  0.4651  0.5354
 3126SOL     OW20836   4.153   0.581  16.100  0.2390 -0.0268 -0.1845
 3126SOL    HW120837   4.145   0.593  16.195  2.4106 -1.2204  0.1523
 3126SOL    HW220838   4.245   0.559  16.091  0.8662  2.6548 -0.4379
 3127SOL     OW20839   3.472   0.047  16.198 -0.7068 -0.7806  0.0769
 3127SOL    HW120840   3.480   0.004  16.113 -0.1435  0.7482 -0.6569
 3127SOL    HW220841   3.377   0.048  16.199 -0.7095 -2.5137  0.9332
 3128SOL     OW20842   4.546   4.446  14.074  0.6677  0.0898  0.2434
 3128SOL    HW120843   4.619   4.508  14.080  0.6910  0.0324  0.5396
 3128SOL    HW220844   4.587   4.388  14.139 -0.6389 -0.0522  0.9371
 3129SOL     OW20845   4.257   0.829  14.063 -0.0546 -0.5199 -0.5746
 3129SOL    HW120846   4.265   0.745  14.018 -0.4465 -0.4430 -0.7888
 3129SOL    HW220847   4.346   0.838  14.095 -0.7336  1.7166  0.6764
 3130SOL     OW20848   0.379   0.647   4.639  0.7103 -0.3296  0.4556
 3130SOL    HW120849   0.464   0.605   4.622  1.0720  0.7990 -0.5298
 3130SOL    HW220850   0.399   0.702   4.715 -0.0403 -1.4353  1.4557
 3131SOL     OW20851   2.656   4.102  16.481  0.4755  0.3973 -0.4096
 3131SOL    HW120852   2.643   4.164  16.553  0.8613 -1.3501  1.1679
 3131SOL    HW220853   2.623   4.023  16.524  0.9487  1.3620  1.7200
 3132SOL     OW20854   4.719   1.184   3.782 -0.2226  0.4127  0.2047
 3132SOL    HW120855   4.660   1.240   3.831  0.1131 -1.0005  2.2269
 3132SOL    HW220856   4.697   1.223   3.697 -0.1190  1.7159  0.7752
 3133SOL     OW20857   4.014   2.707   1.125 -0.1773 -0.3505 -0.2066
 3133SOL    HW120858   3.987   2.767   1.195  0.3029  0.0979 -0.4041
 3133SOL    HW220859   3.940   2.647   1.120  0.0244 -0.5633 -0.6158
 3134SOL     OW20860   3.877   1.635   2.674  0.2857 -0.1670  0.3898
 3134SOL    HW120861   3.900   1.567   2.611  1.9353  2.7968 -2.1616
 3134SOL    HW220862   3.861   1.582   2.753  0.2430  1.1693  1.2846
 3135SOL     OW20863   0.439   2.318   8.933 -0.3203  0.3413 -0.1078
 3135SOL    HW120864   0.447   2.365   8.850  0.5681 -0.2659 -0.3655
 3135SOL    HW220865   0.407   2.234   8.900 -3.7062  1.0029  1.5148
 3136SOL     OW20866   0.097   1.592   3.296  0.0093 -0.4913 -0.1746
 3136SOL    HW120867   0.081   1.634   3.211  1.1916 -0.6574 -0.4858
 3136SOL    HW220868   0.025   1.529   3.300  0.1142 -0.6098 -0.1383
 3137SOL     OW20869   2.185   1.813  13.524 -0.2064 -0.1317  0.2653
 3137SOL    HW120870   2.210   1.736  13.575  2.0491  0.6507  0.3440
 3137SOL    HW220871   2.098   1.833  13.559  0.6605  1.1219  1.6686
 3138SOL     OW20872   0.773   3.700   8.480  0.8592 -0.3159 -0.1861
 3138SOL    HW120873   0.775   3.676   8.573  0.6940  3.5431  0.8112
 3138SOL    HW220874   0.816   3.786   8.488 -1.4604  1.0256 -2.2032
 3139SOL     OW20875   1.837   2.899   4.462  0.5221 -0.4082  0.3561
 3139SOL    HW120876   1.884   2.816   4.452 -0.0930 -0.8934  1.4060
 3139SOL    HW220877   1.762   2.881   4.406  1.7106 -0.8522 -1.0823
 3140SOL     OW20878   4.174   0.240   7.228 -0.0326 -0.0356  0.1239
 3140SOL    HW120879   4.145   0.324   7.194  1.1786  0.8733  1.3139
 3140SOL    HW220880   4.155   0.239   7.322 -0.3284  0.2783  0.0661
 3141SOL     OW20881   2.981   0.716  11.854  0.4783 -0.3807 -0.1294
 3141SOL    HW120882   3.047   0.657  11.819 -0.1705 -0.1939 -1.6502
 3141SOL    HW220883   2.907   0.672  11.812  1.9111 -1.3990 -1.6026
 3142SOL     OW20884   3.700   3.851  11.731  0.2583 -0.5486 -0.6608
 3142SOL    HW120885   3.791   3.864  11.758  0.2509  0.2778 -1.0551
 3142SOL    HW220886   3.676   3.776  11.785 -1.1494 -0.5888 -1.3314
 3143SOL     OW20887   1.978   1.600   4.869  0.0322  0.5440  1.0791
 3143SOL    HW120888   1.968   1.696   4.863  3.4406  0.8007 -0.4645
 3143SOL    HW220889   1.945   1.581   4.781  2.7592 -0.0616  0.2034
 3144SOL     OW20890   4.255   3.042   5.947  0.0812  0.7101  0.3861
 3144SOL    HW120891   4.259   2.947   5.947  1.8064  0.7843  0.8041
 3144SOL    HW220892   4.229   3.071   5.860  1.1709 -3.2992 -1.2274
 3145SOL     OW20893   3.140   4.314   5.302 -0.0834  0.1211 -0.4800
 3145SOL    HW120894   3.137   4.249   5.372  0.6590  0.8102  0.1939
 3145SOL    HW220895   3.165   4.269   5.222 -1.6326 -0.3486 -0.7055
 3146SOL     OW20896   0.289   0.758   4.412  0.4529  0.2399 -0.0787
 3146SOL    HW120897   0.365   0.815   4.417  1.7779 -1.5464  0.4342
 3146SOL    HW220898   0.288   0.711   4.496  1.8569  0.3145 -0.0208
 3147SOL     OW20899   3.020   4.139   2.188 -0.2475  0.3390 -0.3775
 3147SOL    HW120900   3.098   4.156   2.136  1.0953  0.8931  1.8151
 3147SOL    HW220901   2.947   4.135   2.126  0.7945  1.2238 -1.6794
 3148SOL     OW20902   0.366   3.338   2.684 -0.3041 -0.4066  0.7443
 3148SOL    HW120903   0.460   3.334   2.701  0.2077  2.7044 -1.3489
 3148SOL    HW220904   0.347   3.427   2.714  1.0598 -0.3339  1.4197
 3149SOL     OW20905   4.299   3.682   6.311 -0.2153  0.2820 -0.2644
 3149SOL    HW120906   4.273   3.764   6.352  0.2175 -0.7323  2.0588
 3149SOL    HW220907   4.312   3.708   6.220  0.0330  2.8654  0.5271
 3150SOL     OW20908   1.001   1.656  15.652  0.4212 -0.4483  0.0401
 3150SOL    HW120909   0.965   1.744  15.661  1.1000 -0.0086 -1.4690
 3150SOL    HW220910   1.046   1.660  15.568 -0.7585 -2.1818 -0.6727
 3151SOL     OW20911   0.347   3.505   3.355  0.0777  0.6688 -0.5815
 3151SOL    HW120912   0.297   3.434   3.397  3.6004 -1.7376 -0.4636
 3151SOL    HW220913   0.310   3.499   3.267  0.8396  0.4458 -0.8823
 3152SOL     OW20914   0.746   2.499  16.461  0.8098 -0.0602  0.2827
 3152SOL    HW120915   0.772   2.449  16.383  0.8345 -0.9357  0.8442
 3152SOL    HW220916   0.792   2.582  16.453  0.0020  0.4817  1.3377
 3153SOL     OW20917   0.394   2.485   4.469  0.4625 -0.1253 -0.3278
 3153SOL    HW120918   0.335   2.515   4.400 -0.1438  0.0437  0.2614
 3153SOL    HW220919   0.471   2.509   4.418  1.4999  3.2454  2.8246
 3154SOL     OW20920   1.458   4.458   4.980 -0.7016 -0.3099  0.7531
 3154SOL    HW120921   1.426   4.523   4.917 -2.4233 -1.9218 -0.0485
 3154SOL    HW220922   1.533   4.426   4.930 -0.7666  0.0370  0.4309
 3155SOL     OW20923   1.559   0.306   9.248 -0.1421 -0.2831  0.0984
 3155SOL    HW120924   1.483   0.317   9.305  0.6817  0.0298  1.1399
 3155SOL    HW220925   1.588   0.218   9.273  0.2751 -0.1386  0.1288
 3156SOL     OW20926   0.047   0.766   0.583 -0.7381  0.4322 -0.3350
 3156SOL    HW120927   0.119   0.711   0.612 -0.1931  0.3434 -1.8406
 3156SOL    HW220928   4.698   0.719   0.626 -1.5708  0.6374 -1.5046
 3157SOL     OW20929   2.986   3.200  12.509  0.3573  0.4094  0.3274
 3157SOL    HW120930   3.021   3.143  12.578  1.4005  1.3157  0.5358
 3157SOL    HW220931   2.900   3.163  12.493  1.5925 -0.7544 -3.5347
 3158SOL     OW20932   3.934   1.687   7.566 -0.1590  0.2742  0.5955
 3158SOL    HW120933   3.905   1.634   7.641  1.1493 -1.1376  0.1088
 3158SOL    HW220934   3.949   1.766   7.619  2.4269 -0.3302  0.7983
 3159SOL     OW20935   0.737   2.856  11.043  0.2354  0.3190 -0.0641
 3159SOL    HW120936   0.718   2.781  11.099 -0.8827 -0.8804 -2.0816
 3159SOL    HW220937   0.832   2.856  11.038  0.1476  0.5522 -1.6151
 3160SOL     OW20938   0.823   1.405  12.184  0.1047  0.0614 -0.9177
 3160SOL    HW120939   0.760   1.447  12.243 -0.9377  0.0787 -2.0568
 3160SOL    HW220940   0.885   1.474  12.160  0.8749 -1.1662 -2.4502
 3161SOL     OW20941   4.417   2.840   1.056  0.2899  0.4947 -0.1194
 3161SOL    HW120942   4.344   2.797   1.013  1.4762  0.3638 -2.0215
 3161SOL    HW220943   4.405   2.930   1.027 -1.0739  0.0124 -1.0237
 3162SOL     OW20944   1.086   4.106   8.712 -0.3170  0.3129  0.5654
 3162SOL    HW120945   1.051   4.017   8.710 -2.2105  1.0248  1.7310
 3162SOL    HW220946   1.012   4.149   8.755  0.1052 -0.4858  2.1192
 3163SOL     OW20947   2.518   2.185  13.469 -0.1935 -0.7214 -0.3274
 3163SOL    HW120948   2.567   2.164  13.549 -0.1337  0.1417 -0.1297
 3163SOL    HW220949   2.432   2.153  13.495  0.4862 -0.1794  2.6859
 3164SOL     OW20950   0.119   2.379   1.362  0.1773 -0.4539 -0.2652
 3164SOL    HW120951   0.087   2.458   1.319  1.1217 -0.8945 -1.7650
 3164SOL    HW220952   0.204   2.366   1.320  1.7351  0.6517  2.4890
 3165SOL     OW20953   3.356   3.636   4.626  0.1729  0.6213 -0.8867
 3165SOL    HW120954   3.310   3.579   4.565 -2.5542  0.7902  1.0267
 3165SOL    HW220955   3.437   3.646   4.575  1.4363  0.7533  1.1345
 3166SOL     OW20956   1.865   1.525   7.493  0.8259  0.5233 -0.7601
 3166SOL    HW120957   1.904   1.592   7.437 -0.5056  2.1421  0.2582
 3166SOL    HW220958   1.943   1.486   7.531  0.0508  0.5988  0.9063
 3167SOL     OW20959   3.252   0.461   6.654 -0.1281 -0.0053 -0.2516
 3167SOL    HW120960   3.332   0.411   6.673  0.0996  1.0551  1.5030
 3167SOL    HW220961   3.186   0.414   6.704  0.8844 -0.4851  0.6278
 3168SOL     OW20962   0.641   1.966   6.149  0.1053 -0.1808  0.1161
 3168SOL    HW120963   0.606   1.956   6.237  0.6594 -3.8975 -0.0762
 3168SOL    HW220964   0.716   2.023   6.168  1.1927 -1.9543  1.1871
 3169SOL     OW20965   2.464   1.593   9.960  0.1036 -0.0005 -0.9335
 3169SOL    HW120966   2.442   1.637   9.877 -1.1144  0.1072 -0.5495
 3169SOL    HW220967   2.453   1.662  10.025 -3.3221 -2.1610  0.7726
 3170SOL     OW20968   3.675   2.476   3.520  0.3032 -0.0588  0.4996
 3170SOL    HW120969   3.646   2.538   3.453 -0.5964 -0.3378  0.6366
 3170SOL    HW220970   3.693   2.399   3.466  1.4016 -0.4950  1.5069
 3171SOL     OW20971   0.133   0.064   7.513  0.3814 -0.4887  0.6386
 3171SOL    HW120972   0.053   0.033   7.471  0.2959  0.6110 -0.0062
 3171SOL    HW220973   0.126   0.023   7.599  2.3587  1.0314  1.5100
 3172SOL     OW20974   1.246   1.474   7.713  0.1251  0.3193  0.4829
 3172SOL    HW120975   1.175   1.511   7.767 -1.9219 -0.8649 -1.4067
 3172SOL    HW220976   1.256   1.537   7.641  1.1840  1.0644  1.2756
 3173SOL     OW20977   0.548   2.712   3.443  0.2639 -0.1616  0.3901
 3173SOL    HW120978   0.478   2.678   3.499  1.1569 -0.6946  1.1779
 3173SOL    HW220979   0.507   2.799   3.436 -2.0614 -1.2370  0.7686
 3174SOL     OW20980   2.201   2.439   9.592  0.0916 -0.3732  0.2438
 3174SOL    HW120981   2.151   2.382   9.652 -2.3913  0.2724 -1.2276
 3174SOL    HW220982   2.243   2.502   9.650 -0.0819 -0.1284  0.1008
 3175SOL     OW20983   2.927   4.019   7.079  0.1473  0.0665 -0.6077
 3175SOL    HW120984   2.962   4.069   7.005  0.2195  0.2463 -0.4507
 3175SOL    HW220985   2.838   4.054   7.089  1.2825  2.1856  1.9193
 3176SOL     OW20986   3.920   1.182  11.746  0.3069  0.4212 -0.2118
 3176SOL    HW120987   3.951   1.239  11.817 -0.1287  0.5370 -0.1121
 3176SOL    HW220988   3.825   1.170  11.755  0.1518  1.1017 -1.0412
 3177SOL     OW20989   1.901   2.871   5.534 -0.1826 -0.3693  0.3095
 3177SOL    HW120990   1.982   2.853   5.582  1.6675 -1.1669 -3.1407
 3177SOL    HW220991   1.851   2.919   5.601 -0.3359  1.2641 -0.9956
 3178SOL     OW20992   4.650   2.780   4.763  0.4006  0.6142  0.2954
 3178SOL    HW120993   4.682   2.820   4.843 -0.6613 -0.3468  1.1996
 3178SOL    HW220994   4.685   2.692   4.754  2.4304  1.6633 -2.0243
 3179SOL     OW20995   3.975   2.329  16.847  0.2645  0.5358 -0.2253
 3179SOL    HW120996   4.004   2.390  16.779  2.9632 -0.8543 -0.3307
 3179SOL    HW220997   4.030   2.253  16.828  0.9168  1.0281 -0.3065
 3180SOL     OW20998   1.235   2.545   5.093 -0.5860  0.5173  0.5255
 3180SOL    HW120999   1.162   2.485   5.101 -1.9805  2.0266 -0.8278
 3180SOL    HW221000   1.301   2.475   5.089  0.3063  1.3829 -0.1120
 3181SOL     OW21001   4.304   3.789   6.066 -0.1727 -0.1627 -0.5431
 3181SOL    HW121002   4.285   3.882   6.063  0.1411 -0.1439 -2.0426
 3181SOL    HW221003   4.287   3.779   5.973 -1.2419  1.3331 -0.5047
 3182SOL     OW21004   1.030   1.547   8.961 -0.1602 -0.3583  0.1751
 3182SOL    HW121005   0.993   1.583   8.881  1.4947 -0.9466 -0.8580
 3182SOL    HW221006   0.950   1.543   9.013  0.1728 -2.0613  0.5552
 3183SOL     OW21007   2.622   0.188   4.464 -0.2207 -0.5585 -0.6658
 3183SOL    HW121008   2.532   0.156   4.476 -0.7715  0.8334 -1.0681
 3183SOL    HW221009   2.658   0.131   4.396 -0.3073 -0.5389 -0.7280
 3184SOL     OW21010   1.259   1.641   3.028 -0.1259  0.2458  0.0395
 3184SOL    HW121011   1.315   1.626   2.952  0.2708  1.4329  0.1019
 3184SOL    HW221012   1.308   1.704   3.082 -1.4120  1.1656  0.1203
 3185SOL     OW21013   1.223   0.330   0.489 -0.2107 -0.0181  0.1424
 3185SOL    HW121014   1.221   0.409   0.434 -0.8740 -0.8050 -0.9702
 3185SOL    HW221015   1.132   0.308   0.471  0.1187 -0.6617 -0.7277
 3186SOL     OW21016   2.779   0.640   8.556 -0.2344  0.0450  0.0886
 3186SOL    HW121017   2.805   0.613   8.645 -0.3130  0.9041  0.3738
 3186SOL    HW221018   2.777   0.559   8.506  2.4063  0.1439 -0.1822
 3187SOL     OW21019   1.942   0.362   7.094  0.2725 -0.1565  0.0071
 3187SOL    HW121020   1.966   0.337   7.183 -0.9539  2.5294  1.0652
 3187SOL    HW221021   1.923   0.275   7.058 -0.2632 -0.3264  0.7008
 3188SOL     OW21022   4.284   2.554   3.348  0.2825 -0.1643 -0.4740
 3188SOL    HW121023   4.369   2.594   3.365  0.4767 -1.4599  1.6785
 3188SOL    HW221024   4.259   2.620   3.284 -1.9000 -0.6987 -0.1811
 3189SOL     OW21025   3.326   4.188   0.417  0.4670 -0.4162 -0.1219
 3189SOL    HW121026   3.344   4.210   0.509  1.4200  1.4074 -0.7639
 3189SOL    HW221027   3.395   4.237   0.373 -1.8992  1.1571 -2.0833
 3190SOL     OW21028   4.538   1.788   0.387  0.0042 -0.1709  0.1739
 3190SOL    HW121029   4.485   1.734   0.329  0.8205 -0.0207 -0.7170
 3190SOL    HW221030   4.624   1.765   0.352  0.3489 -2.4665  2.5742
 3191SOL     OW21031   1.492   0.627  12.665  0.0162 -0.4314 -0.0972
 3191SOL    HW121032   1.565   0.646  12.725 -0.4498  0.2555  0.2522
 3191SOL    HW221033   1.484   0.715  12.628 -2.1670 -0.6915 -0.1966
 3192SOL     OW21034   1.358   3.039  10.371 -0.9299 -0.3456  0.3739
 3192SOL    HW121035   1.406   3.094  10.433 -1.1284 -0.2491  0.4427
 3192SOL    HW221036   1.397   2.955  10.396 -0.6121 -0.0168  1.0091
 3193SOL     OW21037   3.109   4.236   4.770  0.2650 -0.3762  0.3057
 3193SOL    HW121038   3.154   4.156   4.799 -0.5555 -1.2980 -0.9583
 3193SOL    HW221039   3.182   4.293   4.747  0.2425 -0.6613 -0.4786
 3194SOL     OW21040   3.462   2.334   6.513 -0.5684  0.3701  0.1147
 3194SOL    HW121041   3.449   2.239   6.507  1.0744  0.4208 -3.7630
 3194SOL    HW221042   3.489   2.353   6.603  0.5447 -0.2015 -0.1012
 3195SOL     OW21043   1.256   0.896  11.933  0.1416 -0.1306 -0.0865
 3195SOL    HW121044   1.345   0.928  11.917 -0.5929  0.9608 -2.0609
 3195SOL    HW221045   1.260   0.835  12.007  0.5174  1.0857  0.8916
 3196SOL     OW21046   3.110   3.624   7.054 -0.7746  0.2942 -0.3539
 3196SOL    HW121047   3.019   3.652   7.068 -0.6412  1.3983 -1.7723
 3196SOL    HW221048   3.144   3.640   7.142 -1.6288 -2.3192  0.4768
 3197SOL     OW21049   0.502   1.273   5.610 -0.0255  0.2708 -0.3052
 3197SOL    HW121050   0.407   1.277   5.597  0.1384  0.9676 -1.2764
 3197SOL    HW221051   0.538   1.335   5.547 -1.4610 -1.2388 -2.5997
 3198SOL     OW21052   2.863   0.919   4.023  0.1026 -0.0650 -0.2518
 3198SOL    HW121053   2.834   1.007   4.000  1.1034  0.6934  1.3992
 3198SOL    HW221054   2.789   0.880   4.069  1.8350 -0.7256  2.0058
 3199SOL     OW21055   2.413   1.595   7.931 -0.0100  0.1943  0.6451
 3199SOL    HW121056   2.447   1.684   7.942 -1.7606  0.8157  1.0492
 3199SOL    HW221057   2.483   1.562   7.875  1.3388  0.8440  1.9293
 3200SOL     OW21058   0.909   0.858   7.277 -0.5259  0.5255  0.1468
 3200SOL    HW121059   0.999   0.825   7.277 -0.3103  1.1139 -0.2678
 3200SOL    HW221060   0.876   0.837   7.189 -2.4132  1.1067  0.7203
 3201SOL     OW21061   3.208   2.184   5.294 -0.0064  0.6059  0.5651
 3201SOL    HW121062   3.298   2.193   5.324  0.5949 -1.4319 -0.6048
 3201SOL    HW221063   3.225   2.167   5.201  0.9429  2.5661  0.3763
 3202SOL     OW21064   1.411   4.682   1.637 -0.4903 -0.1538 -0.0156
 3202SOL    HW121065   1.350   0.030   1.615  0.5495  0.3921 -1.1466
 3202SOL    HW221066   1.381   4.606   1.585  0.8471  0.0773 -1.1124
 3203SOL     OW21067   1.767   2.333  15.717  0.1374 -0.1458 -0.3625
 3203SOL    HW121068   1.758   2.273  15.643  2.7321  0.1575 -0.9332
 3203SOL    HW221069   1.862   2.330  15.724  0.2106  1.1308 -0.9251
 3204SOL     OW21070   1.188   2.177   0.740  0.3516  0.9612 -0.2058
 3204SOL    HW121071   1.219   2.118   0.808  0.8730  1.9548  0.4110
 3204SOL    HW221072   1.132   2.123   0.684  1.1719 -0.3901  0.2815
 3205SOL     OW21073   2.405   1.388   3.778  0.2854  0.2911 -0.5438
 3205SOL    HW121074   2.441   1.300   3.787  0.9756  0.5859 -0.4716
 3205SOL    HW221075   2.313   1.365   3.762 -0.6283  2.4493  1.5412
 3206SOL     OW21076   0.212   0.946   6.250 -0.1010  0.4189 -0.2852
 3206SOL    HW121077   0.211   1.025   6.197  0.5803  0.2539 -0.5429
 3206SOL    HW221078   0.279   0.898   6.201  0.0317 -0.4527  0.7375
 3207SOL     OW21079   0.736   1.560   2.663  0.3952 -0.2457 -0.3659
 3207SOL    HW121080   0.750   1.546   2.757  0.0317 -1.7970 -0.5470
 3207SOL    HW221081   0.781   1.487   2.621  1.0562 -0.6077  0.9604
 3208SOL     OW21082   1.239   2.241  11.344  0.5603  0.2669 -0.2787
 3208SOL    HW121083   1.302   2.255  11.273 -0.6755  1.1982 -1.1822
 3208SOL    HW221084   1.162   2.256  11.290  0.0218 -1.3077  0.0604
 3209SOL     OW21085   1.881   1.340   0.713  0.3589  0.1772  0.1970
 3209SOL    HW121086   1.839   1.362   0.630 -0.4821 -0.0754  0.5578
 3209SOL    HW221087   1.876   1.424   0.759 -0.1128  1.2013 -1.7049
 3210SOL     OW21088   1.568   1.922   6.705  0.6338 -0.6445 -0.1464
 3210SOL    HW121089   1.543   1.858   6.639  1.5041 -1.4638  0.3214
 3210SOL    HW221090   1.478   1.953   6.717  0.8765 -0.2110  0.5102
 3211SOL     OW21091   0.539   3.843  11.662 -0.2021 -0.1403 -0.3336
 3211SOL    HW121092   0.494   3.928  11.660  0.5400  0.2650  0.0433
 3211SOL    HW221093   0.630   3.867  11.682 -0.0663 -0.7905 -0.1960
 3212SOL     OW21094   0.160   4.079   6.734 -0.1452  0.0730 -0.0773
 3212SOL    HW121095   0.250   4.066   6.703 -0.4331  0.2144 -0.9604
 3212SOL    HW221096   0.171   4.150   6.797  0.1793  1.1310 -1.3485
 3213SOL     OW21097   0.530   2.953  12.319 -0.2499  0.3795 -0.4528
 3213SOL    HW121098   0.471   2.927  12.390 -0.0163 -1.3821 -0.8945
 3213SOL    HW221099   0.540   2.869  12.276  0.5274  1.7184 -2.8607
 3214SOL     OW21100   4.211   3.728   7.155 -0.1530  0.2147 -0.0817
 3214SOL    HW121101   4.260   3.650   7.130 -0.5136 -0.5542  1.6088
 3214SOL    HW221102   4.123   3.710   7.121 -0.1070 -1.1840  0.5357
 3215SOL     OW21103   2.555   0.328   0.534  0.0710  0.3706  0.2790
 3215SOL    HW121104   2.622   0.281   0.483  1.2752 -1.6544  3.7346
 3215SOL    HW221105   2.607   0.344   0.612  0.6683  0.9650 -0.2458
 3216SOL     OW21106   3.174   1.194   5.151  0.1387 -0.1596  0.0131
 3216SOL    HW121107   3.093   1.220   5.106 -0.7853  0.4498  2.0247
 3216SOL    HW221108   3.139   1.149   5.228 -0.8696 -1.5163 -1.2315
 3217SOL     OW21109   0.628   1.607   8.836 -0.2261  0.2204  0.4641
 3217SOL    HW121110   0.551   1.595   8.781  1.0505  0.8308 -1.4391
 3217SOL    HW221111   0.597   1.553   8.909 -0.9204  0.5408  0.4000
 3218SOL     OW21112   2.064   0.411   7.535 -0.0195  0.0338  0.5221
 3218SOL    HW121113   1.991   0.394   7.595  0.5062 -0.4294  1.0322
 3218SOL    HW221114   2.091   0.495   7.573 -3.1246  0.7836  1.0576
 3219SOL     OW21115   4.553   0.925  14.950  0.1487  0.1730  0.3145
 3219SOL    HW121116   4.647   0.910  14.942  0.6065  2.7454  0.7966
 3219SOL    HW221117   4.509   0.847  14.917 -0.1615 -0.1064  1.3935
 3220SOL     OW21118   0.669   1.655   5.778 -0.0292 -0.3198  0.2885
 3220SOL    HW121119   0.694   1.656   5.870  0.2437 -0.5782  0.2189
 3220SOL    HW221120   0.744   1.703   5.744  1.2461 -1.6107  1.2425
 3221SOL     OW21121   3.011   0.761   7.389 -0.1178  0.2134 -0.5707
 3221SOL    HW121122   3.086   0.704   7.371  1.6107  2.3251 -0.1079
 3221SOL    HW221123   2.972   0.724   7.468 -0.2205 -1.5214 -1.4373
 3222SOL     OW21124   1.437   1.262   8.210  0.3957 -0.4028 -0.5462
 3222SOL    HW121125   1.475   1.298   8.291 -2.0967  0.7178  0.1289
 3222SOL    HW221126   1.514   1.240   8.158  1.4093  0.3152  0.6412
 3223SOL     OW21127   3.657   3.794  11.476 -0.7418  0.6693 -0.2728
 3223SOL    HW121128   3.701   3.810  11.559 -0.0201 -0.0572 -0.5186
 3223SOL    HW221129   3.574   3.818  11.518 -0.4083 -2.5501  2.2555
 3224SOL     OW21130   1.450   0.284   8.050  0.2636 -0.2040  0.0635
 3224SOL    HW121131   1.394   0.247   7.981 -0.7553  0.4253  0.5575
 3224SOL    HW221132   1.509   0.212   8.071  1.5791  0.2660 -1.9982
 3225SOL     OW21133   4.677   1.132   7.540 -0.1615 -0.1485  0.2493
 3225SOL    HW121134   0.031   1.075   7.549  0.6931  1.1714  1.5169
 3225SOL    HW221135   4.609   1.081   7.497  0.9866  0.6938 -2.5766
 3226SOL     OW21136   0.781   2.578   4.941 -0.2870  0.9019  0.0299
 3226SOL    HW121137   0.734   2.657   4.966  2.1285  2.0496  0.9335
 3226SOL    HW221138   0.708   2.518   4.957  1.3447 -0.6132  1.8117
 3227SOL     OW21139   2.057   2.679   1.974 -0.5286  0.4889  0.6975
 3227SOL    HW121140   2.074   2.586   1.958 -0.8017  0.9181 -2.2359
 3227SOL    HW221141   2.123   2.705   2.038 -0.2878 -0.3343  0.7846
 3228SOL     OW21142   2.382   2.970   5.784 -0.7364 -0.1989  0.3838
 3228SOL    HW121143   2.422   2.944   5.867  2.4704  1.0577 -0.7413
 3228SOL    HW221144   2.450   2.943   5.722 -0.9300 -0.1341  0.1436
 3229SOL     OW21145   3.826   0.473   5.568 -0.2460 -0.6131  0.2381
 3229SOL    HW121146   3.820   0.378   5.579 -1.6009  0.0799  5.6044
 3229SOL    HW221147   3.735   0.494   5.588 -0.2064  1.4152 -1.6856
 3230SOL     OW21148   0.672   3.773  13.600 -0.0685 -0.4885 -0.4029
 3230SOL    HW121149   0.684   3.745  13.509  1.7055 -3.7975  0.8520
 3230SOL    HW221150   0.641   3.861  13.581  0.0587 -0.2543  0.4951
 3231SOL     OW21151   4.122   3.015   8.316 -0.0950 -0.4724  0.1967
 3231SOL    HW121152   4.167   2.931   8.331 -0.0264 -0.7490 -1.5994
 3231SOL    HW221153   4.076   3.021   8.400 -1.4806 -1.5314 -0.4928
 3232SOL     OW21154   0.043   0.259   5.960  0.1436  0.3186 -0.2021
 3232SOL    HW121155   4.679   0.220   5.953 -0.8274  2.5051 -0.5353
 3232SOL    HW221156   0.025   0.353   5.952 -2.3974 -0.0195  1.6857
 3233SOL     OW21157   3.976   1.428   9.545 -0.0181  0.4669  0.7546
 3233SOL    HW121158   4.053   1.376   9.519  0.8735 -0.1682  4.6729
 3233SOL    HW221159   3.970   1.382   9.629  2.4678 -2.2460 -0.5296
 3234SOL     OW21160   1.359   2.687   2.405  0.2454 -0.3374  0.2389
 3234SOL    HW121161   1.367   2.777   2.373  3.9252 -0.2849  1.3339
 3234SOL    HW221162   1.382   2.650   2.320 -0.1379  0.2921 -0.1351
 3235SOL     OW21163   2.809   3.326  16.942 -0.9721 -0.0971 -0.1741
 3235SOL    HW121164   2.746   3.329  16.870 -0.2512  0.5861 -0.7762
 3235SOL    HW221165   2.892   3.314  16.896 -0.3315  1.7747  0.5036
 3236SOL     OW21166   3.343   4.455   6.599 -0.4606 -0.2570  0.2442
 3236SOL    HW121167   3.336   4.539   6.644 -0.1806  0.5938 -1.2888
 3236SOL    HW221168   3.357   4.396   6.673  1.7790 -1.6506 -1.2786
 3237SOL     OW21169   0.274   2.684   4.972 -0.0288  0.0592  0.0495
 3237SOL    HW121170   0.264   2.647   4.885 -2.8817  0.8409  0.0364
 3237SOL    HW221171   0.208   2.752   4.967 -0.4568 -0.3846 -0.3169
 3238SOL     OW21172   1.413   3.523   5.692  0.0427 -0.1350  0.2488
 3238SOL    HW121173   1.452   3.562   5.770  0.0687 -1.7767  1.0684
 3238SOL    HW221174   1.471   3.542   5.618  0.2799 -1.1258  0.1710
 3239SOL     OW21175   4.143   4.707   7.866 -0.1494 -0.0591  0.0021
 3239SOL    HW121176   4.132   0.077   7.889 -0.9043 -0.5281  1.5746
 3239SOL    HW221177   4.167   4.660   7.946  1.3774 -0.0786 -0.4693
 3240SOL     OW21178   4.345   4.381  17.577  0.1077 -0.0376  0.5533
 3240SOL    HW121179   4.276   4.446  17.590 -0.2890 -0.3342 -0.0481
 3240SOL    HW221180   4.324   4.318  17.645 -2.5388 -0.1519 -0.3875
 3241SOL     OW21181   3.892   4.215   6.949 -0.1513  0.2870  0.5130
 3241SOL    HW121182   3.882   4.156   6.875 -0.1544  0.1846  0.5959
 3241SOL    HW221183   3.867   4.164   7.025 -1.5817 -0.3139 -0.3686
 3242SOL     OW21184   3.286   2.232   5.002 -0.4334  0.6026 -0.2272
 3242SOL    HW121185   3.336   2.306   5.035 -1.1162  1.7716 -1.8229
 3242SOL    HW221186   3.350   2.161   5.005  0.6896  1.6658  1.0296
 3243SOL     OW21187   2.156   0.188   2.524  0.0765  0.2658 -0.0584
 3243SOL    HW121188   2.131   0.125   2.456  0.7393  2.0729 -1.9993
 3243SOL    HW221189   2.218   0.238   2.470 -0.2613 -0.8581 -1.4935
 3244SOL     OW21190   2.404   1.036   6.576 -0.0972 -0.3487  0.2208
 3244SOL    HW121191   2.314   1.005   6.568  0.7179 -2.1231 -2.2745
 3244SOL    HW221192   2.444   0.949   6.569 -1.1137 -0.8272  0.3650
 3245SOL     OW21193   3.950   4.032  12.388 -0.3886 -1.2239 -0.0477
 3245SOL    HW121194   4.011   3.978  12.339  1.3893 -0.7430  1.6385
 3245SOL    HW221195   3.942   3.980  12.468  2.2107 -1.3572  0.1315
 3246SOL     OW21196   4.018   1.790  11.212 -0.2711 -0.7241 -0.5453
 3246SOL    HW121197   4.106   1.824  11.201 -0.3887 -0.3995 -0.4935
 3246SOL    HW221198   3.963   1.862  11.181 -0.1910 -0.9986 -1.3177
 3247SOL     OW21199   2.705   0.166  16.806  0.3438 -0.0021 -0.3394
 3247SOL    HW121200   2.779   0.200  16.855  0.5119  0.6391 -1.0433
 3247SOL    HW221201   2.631   0.220  16.834 -1.0550 -0.6269 -2.8050
 3248SOL     OW21202   3.412   4.062   3.313 -0.4366  0.4045 -0.5404
 3248SOL    HW121203   3.433   4.089   3.224 -0.0491 -0.4440 -0.6982
 3248SOL    HW221204   3.474   4.118   3.360 -1.2922  0.1860  0.8683
 3249SOL     OW21205   3.108   2.741   6.225  0.0142 -0.3626 -0.4332
 3249SOL    HW121206   3.166   2.812   6.252 -2.7881  1.5079  0.5991
 3249SOL    HW221207   3.171   2.670   6.234 -0.2125 -0.8216 -2.4684
 3250SOL     OW21208   0.128   1.351  13.918 -0.1004  0.0132  0.2815
 3250SOL    HW121209   0.039   1.376  13.941 -0.4312  0.5423 -1.5773
 3250SOL    HW221210   0.135   1.273  13.973  3.3172  1.1552  1.5345
 3251SOL     OW21211   2.363   4.134   0.280  0.4510  0.1807 -0.5877
 3251SOL    HW121212   2.304   4.207   0.302 -0.0054 -1.0786  2.4101
 3251SOL    HW221213   2.311   4.110   0.203 -1.2913  3.0244 -0.3264
 3252SOL     OW21214   4.587   3.816  17.575  0.1716  0.8586 -0.0087
 3252SOL    HW121215   4.631   3.809  17.490  0.7258 -0.8272  0.4135
 3252SOL    HW221216   4.667   3.823  17.626 -0.8878  0.9388  1.6351
 3253SOL     OW21217   2.770   2.740  14.619  0.7444 -0.2549 -0.3970
 3253SOL    HW121218   2.685   2.752  14.576  1.0110  1.0242 -0.5738
 3253SOL    HW221219   2.819   2.818  14.593 -0.0672  0.0145 -1.1189
 3254SOL     OW21220   3.198   1.397   7.237 -0.4202 -0.1777  0.2269
 3254SOL    HW121221   3.116   1.388   7.189  0.2596 -0.7065 -0.8379
 3254SOL    HW221222   3.231   1.317   7.195  2.8159 -0.5249  3.4242
 3255SOL     OW21223   2.448   4.094   3.491 -0.5561  0.0891  0.1450
 3255SOL    HW121224   2.501   4.150   3.548  2.4412 -2.4885 -0.1183
 3255SOL    HW221225   2.391   4.161   3.454  0.8969  0.6629 -1.0266
 3256SOL     OW21226   1.929   3.635   7.174  0.0458 -0.2154 -0.1266
 3256SOL    HW121227   1.903   3.685   7.251 -2.2154 -0.4242 -0.7463
 3256SOL    HW221228   1.868   3.680   7.115 -2.1709 -2.4337  0.4724
 3257SOL     OW21229   1.275   0.554   6.365  0.0966  0.3897 -0.0629
 3257SOL    HW121230   1.206   0.621   6.364  1.3556  1.6526 -2.3644
 3257SOL    HW221231   1.349   0.614   6.353 -0.4375  0.6715 -2.0795
 3258SOL     OW21232   2.639   3.343   6.834 -0.4747  0.2873 -0.1920
 3258SOL    HW121233   2.568   3.392   6.794 -1.9162 -2.0977 -0.6003
 3258SOL    HW221234   2.642   3.387   6.919 -0.8486 -0.1544  0.0513
 3259SOL     OW21235   4.558   2.119  15.632  0.1978 -0.5820  0.2026
 3259SOL    HW121236   4.544   2.213  15.648 -1.3400 -0.4799 -1.7801
 3259SOL    HW221237   4.484   2.077  15.676  0.2892  0.4269  1.3185
 3260SOL     OW21238   1.462   1.626   8.814  0.1263 -0.0872  0.0530
 3260SOL    HW121239   1.458   1.632   8.719 -1.5026  0.1171  0.1210
 3260SOL    HW221240   1.484   1.533   8.821  0.7919  0.2459  2.6338
 3261SOL     OW21241   2.264   3.263   9.923  1.1322 -0.1884  0.6036
 3261SOL    HW121242   2.200   3.313   9.873 -0.2981 -1.9935  0.6184
 3261SOL    HW221243   2.346   3.292   9.882  2.4802 -0.6721  2.9709
 3262SOL     OW21244   2.029   3.245  13.752  0.3872  0.6112 -0.8566
 3262SOL    HW121245   2.064   3.271  13.667 -0.5841  1.3903 -1.0222
 3262SOL    HW221246   1.994   3.158  13.731  0.2250  0.4644  0.0173
 3263SOL     OW21247   4.071   2.325   2.164 -0.7838 -0.5277  0.6253
 3263SOL    HW121248   4.009   2.325   2.237 -0.2153  2.0066  1.1210
 3263SOL    HW221249   4.038   2.382   2.094 -0.2688  1.4973  2.0230
 3264SOL     OW21250   3.572   3.417   8.789 -0.2711  0.2401  0.0777
 3264SOL    HW121251   3.659   3.401   8.827 -0.8076 -0.9590  0.7963
 3264SOL    HW221252   3.518   3.357   8.840 -2.2115  1.3520 -0.6778
 3265SOL     OW21253   4.175   3.020  15.231  0.4219 -0.3532 -0.0156
 3265SOL    HW121254   4.107   3.069  15.276  2.6380  0.4890  2.4146
 3265SOL    HW221255   4.161   2.933  15.267  0.9312 -0.8699 -1.0621
 3266SOL     OW21256   2.315   0.482   5.499 -0.0892  0.1224 -1.0961
 3266SOL    HW121257   2.321   0.502   5.406  0.1347  2.0199 -0.6609
 3266SOL    HW221258   2.227   0.444   5.500  0.2296 -0.6344 -1.8213
 3267SOL     OW21259   3.790   1.780   3.843 -0.2434 -0.4395  0.2626
 3267SOL    HW121260   3.762   1.793   3.752 -0.5768  0.2059  0.4603
 3267SOL    HW221261   3.881   1.805   3.834 -0.4328  0.7360  1.6741
 3268SOL     OW21262   4.142   2.348  15.424 -0.0020 -1.0499 -0.6036
 3268SOL    HW121263   4.106   2.269  15.384 -1.9105 -0.4832 -0.0077
 3268SOL    HW221264   4.200   2.379  15.354  0.0276 -1.2216 -0.6551
 3269SOL     OW21265   1.139   2.529   6.850 -0.2609 -0.9645  0.2732
 3269SOL    HW121266   1.178   2.484   6.776 -0.7894 -0.3420 -0.3809
 3269SOL    HW221267   1.051   2.559   6.825  0.3416 -0.2807 -1.0271
 3270SOL     OW21268   0.952   2.165   8.269  0.2907  0.2714  0.4761
 3270SOL    HW121269   0.906   2.212   8.338 -0.5987  0.2485 -0.1072
 3270SOL    HW221270   0.883   2.179   8.204  0.7143 -1.1248 -0.2781
 3271SOL     OW21271   4.233   3.002   5.341  0.5127  0.0170 -0.0328
 3271SOL    HW121272   4.184   2.920   5.343  2.1959 -0.9893  0.5675
 3271SOL    HW221273   4.209   3.043   5.424 -2.7632 -0.3621 -0.7957
 3272SOL     OW21274   1.338   2.105   6.630  0.5829  0.5847  0.0537
 3272SOL    HW121275   1.260   2.090   6.576  0.0844  3.8808 -0.1365
 3272SOL    HW221276   1.300   2.095   6.717 -1.5499 -1.9045 -1.1382
 3273SOL     OW21277   3.863   0.160   2.653 -0.1660 -0.4655  0.2256
 3273SOL    HW121278   3.919   0.083   2.646 -1.3760 -1.5364  2.4771
 3273SOL    HW221279   3.891   0.204   2.572  0.8286 -0.4363  0.5860
 3274SOL     OW21280   2.955   3.049  14.569  0.4545 -0.0413 -0.0848
 3274SOL    HW121281   3.036   3.099  14.573 -0.7598  2.0520 -1.8376
 3274SOL    HW221282   2.997   2.975  14.525  2.2661  0.8051  0.2459
 3275SOL     OW21283   1.235   2.784  11.190 -0.0888  0.3769 -0.0395
 3275SOL    HW121284   1.303   2.766  11.126 -1.0554 -0.6739 -0.7803
 3275SOL    HW221285   1.159   2.776  11.132  0.0151 -0.4414 -0.0533
 3276SOL     OW21286   1.508   3.413   4.599 -0.6027 -0.2026  0.3318
 3276SOL    HW121287   1.567   3.351   4.555 -1.2697 -0.3160 -0.4101
 3276SOL    HW221288   1.537   3.401   4.689 -0.5802 -2.0664  0.0862
 3277SOL     OW21289   4.370   1.012   5.978 -0.3050 -0.0566  0.0603
 3277SOL    HW121290   4.288   1.053   6.001  0.2880  1.6145 -0.8250
 3277SOL    HW221291   4.349   0.975   5.892  1.6287  2.3241 -1.4206
 3278SOL     OW21292   3.451   0.956   8.100  0.0759 -0.2581  0.1559
 3278SOL    HW121293   3.494   0.926   8.180 -3.1194 -0.1858  1.9065
 3278SOL    HW221294   3.362   0.929   8.122  0.3019 -0.4343  0.8634
 3279SOL     OW21295   2.175   0.672   8.820 -0.0117  0.8607 -0.1245
 3279SOL    HW121296   2.081   0.685   8.804  0.1299  1.2438 -0.6221
 3279SOL    HW221297   2.212   0.749   8.863 -0.8909  0.7693  0.8142
 3280SOL     OW21298   0.550   0.772   0.301 -0.0073  0.1067  0.2091
 3280SOL    HW121299   0.467   0.725   0.298  0.1251 -0.1490  0.6051
 3280SOL    HW221300   0.515   0.859   0.322  0.7694  1.0025 -2.1281
 3281SOL     OW21301   2.000   4.470   0.311 -0.1395  0.5679  0.1071
 3281SOL    HW121302   2.032   4.559   0.295 -0.8893  0.7222 -0.5846
 3281SOL    HW221303   1.952   4.484   0.393  0.5147 -0.1939  0.6221
 3282SOL     OW21304   0.111   1.489  13.059  0.0052 -0.1404 -0.0007
 3282SOL    HW121305   0.067   1.533  13.132 -0.5074 -0.3545 -0.1796
 3282SOL    HW221306   0.195   1.491  13.105  0.3771 -2.4517 -0.5666
 3283SOL     OW21307   2.753   1.472   6.999 -0.1479  0.5803  0.1158
 3283SOL    HW121308   2.744   1.520   6.917  1.3974  0.0876 -0.3385
 3283SOL    HW221309   2.662   1.454   7.021  0.1396 -0.8929  0.0694
 3284SOL     OW21310   1.848   1.564   1.583 -0.4539 -0.7467  0.2827
 3284SOL    HW121311   1.866   1.600   1.497  1.1189 -0.1931  0.8360
 3284SOL    HW221312   1.841   1.471   1.562  0.8375 -1.4448  2.8700
 3285SOL     OW21313   1.082   1.600   8.662  0.4319 -0.8548  0.3286
 3285SOL    HW121314   0.990   1.582   8.683  0.5464 -0.6808  0.9596
 3285SOL    HW221315   1.122   1.515   8.647  3.1256  0.4519  0.2209
 3286SOL     OW21316   2.558   4.440  14.707  0.2365  0.2384 -0.1198
 3286SOL    HW121317   2.554   4.484  14.791 -1.4026 -0.8891  0.4021
 3286SOL    HW221318   2.652   4.430  14.691  0.3856  0.3168  0.7276
 3287SOL     OW21319   3.485   4.689   5.500 -0.7518  0.3903 -0.3417
 3287SOL    HW121320   3.434   4.642   5.434  0.5588 -0.6478 -0.6115
 3287SOL    HW221321   3.427   0.039   5.520 -0.6383  0.1206  0.9472
 3288SOL     OW21322   2.402   3.631   5.783  0.3210 -0.3461 -0.4443
 3288SOL    HW121323   2.472   3.570   5.758  0.9079  0.5969 -1.0933
 3288SOL    HW221324   2.344   3.580   5.840 -0.8882 -0.4112 -1.7456
 3289SOL     OW21325   4.522   2.845   7.968 -0.1612  0.1078  0.0985
 3289SOL    HW121326   4.450   2.901   7.996  0.2289  1.0638 -0.7995
 3289SOL    HW221327   4.566   2.901   7.904  0.5321 -3.1233 -2.2247
 3290SOL     OW21328   2.140   2.822   8.812  0.0534  0.2958 -0.3723
 3290SOL    HW121329   2.072   2.818   8.745  0.9817 -1.4760 -1.2129
 3290SOL    HW221330   2.169   2.909   8.787  1.2526  0.2386  0.8176
 3291SOL     OW21331   4.132   3.989   7.004 -0.0239  0.4372 -0.0680
 3291SOL    HW121332   4.189   3.931   7.055  0.4301  1.0646  0.1290
 3291SOL    HW221333   4.071   3.922   6.972  1.5629 -0.6817 -0.8117
 3292SOL     OW21334   1.430   4.062   7.284  0.3912 -0.0682  0.4949
 3292SOL    HW121335   1.336   4.075   7.271  0.2941  0.3284  1.5790
 3292SOL    HW221336   1.467   4.053   7.196 -1.1509  0.9395 -0.2867
 3293SOL     OW21337   3.332   0.700   5.688 -0.0661 -0.1484 -0.0797
 3293SOL    HW121338   3.387   0.776   5.704 -0.5640 -0.4149  3.0188
 3293SOL    HW221339   3.354   0.685   5.596 -3.0776 -2.9982 -0.3422
 3294SOL     OW21340   3.743   2.646   9.291  0.8432  0.3698 -0.1321
 3294SOL    HW121341   3.783   2.559   9.300  2.2067  1.3937  3.3400
 3294SOL    HW221342   3.671   2.617   9.234  1.4234 -2.0025  0.3129
 3295SOL     OW21343   1.102   2.782   3.564  0.1663  0.2006 -0.5062
 3295SOL    HW121344   1.010   2.759   3.555  0.0715  0.3763  0.0373
 3295SOL    HW221345   1.081   2.873   3.585 -0.3428 -0.4337  1.7002
 3296SOL     OW21346   0.267   3.328  11.288  0.1011  0.3243  0.1481
 3296SOL    HW121347   0.261   3.237  11.258  1.5219 -0.4775  2.2857
 3296SOL    HW221348   0.279   3.376  11.206  0.9446  0.4657  0.3514
 3297SOL     OW21349   3.129   0.691  14.086 -0.4679  0.0923 -0.0875
 3297SOL    HW121350   3.148   0.631  14.014 -1.5328  0.7053 -0.8799
 3297SOL    HW221351   3.206   0.747  14.098  0.6715 -1.3182 -0.7896
 3298SOL     OW21352   2.292   1.071   5.031  0.5472 -0.4645 -0.0714
 3298SOL    HW121353   2.295   1.100   4.940  1.5287  1.7228  0.6551
 3298SOL    HW221354   2.274   1.151   5.080  0.8588  0.3224 -1.2522
 3299SOL     OW21355   1.109   0.837  10.958  0.3388  0.0136 -0.0738
 3299SOL    HW121356   1.134   0.817  10.867 -0.3491 -4.2474  0.6675
 3299SOL    HW221357   1.108   0.932  10.950 -0.1075  0.0784  0.8181
 3300SOL     OW21358   3.761   3.327   2.671 -0.5128 -0.2655  0.3932
 3300SOL    HW121359   3.717   3.251   2.631  0.3305 -0.4765 -0.1295
 3300SOL    HW221360   3.855   3.311   2.662 -0.9752 -1.5373 -2.1271
 3301SOL     OW21361   1.862   4.181   3.959  0.0664  0.0123  0.0003
 3301SOL    HW121362   1.853   4.265   3.914 -1.4010  1.0906  2.3112
 3301SOL    HW221363   1.829   4.205   4.046 -0.3621 -1.7327  0.3345
 3302SOL     OW21364   2.898   2.907   6.844 -0.2181  0.4388 -0.5409
 3302SOL    HW121365   2.810   2.882   6.871 -0.3678  0.5255 -0.9443
 3302SOL    HW221366   2.911   2.985   6.898 -0.4180  1.0246 -1.3325
 3303SOL     OW21367   3.578   0.519   8.605 -0.2328  0.5291  0.6410
 3303SOL    HW121368   3.520   0.589   8.636  0.3807  1.0944  0.5107
 3303SOL    HW221369   3.528   0.440   8.627  0.8207 -0.1445  0.6189
 3304SOL     OW21370   0.798   3.253  14.165 -0.1346 -0.3413 -0.4147
 3304SOL    HW121371   0.867   3.307  14.126  2.0919 -3.3332 -0.6811
 3304SOL    HW221372   0.854   3.216  14.234  0.5855 -2.1332 -1.9555
 3305SOL     OW21373   0.824   0.290  13.776 -0.4079 -0.5068  0.2714
 3305SOL    HW121374   0.786   0.230  13.841  2.7039 -0.8131  1.7960
 3305SOL    HW221375   0.859   0.358  13.833  0.1832 -0.6964  0.1356
 3306SOL     OW21376   3.938   4.099  15.591  0.7881 -0.3608 -0.9075
 3306SOL    HW121377   3.937   4.148  15.674 -0.3650 -0.8675 -0.6114
 3306SOL    HW221378   4.027   4.066  15.597 -0.4657 -3.4299  1.0251
 3307SOL     OW21379   0.119   1.624   3.562 -0.2460 -0.6983 -0.0079
 3307SOL    HW121380   0.066   1.703   3.556  0.2449 -0.4040 -0.4402
 3307SOL    HW221381   0.111   1.603   3.469  0.5816  0.5940 -0.3645
 3308SOL     OW21382   1.468   1.038   2.740 -0.6329 -0.7537 -0.3358
 3308SOL    HW121383   1.436   1.099   2.807 -1.6903 -1.9405  0.2295
 3308SOL    HW221384   1.387   1.031   2.689 -1.1182 -1.0613  0.4820
 3309SOL     OW21385   4.349   0.683   3.002  0.1722 -0.1418  0.3772
 3309SOL    HW121386   4.353   0.765   2.952 -0.3174  0.0783  0.6993
 3309SOL    HW221387   4.438   0.656   2.979  0.2051  0.5078 -0.2472
 3310SOL     OW21388   0.307   1.591   3.023  0.1955 -0.1204 -0.1740
 3310SOL    HW121389   0.213   1.605   3.029  0.1962 -0.2414  0.1220
 3310SOL    HW221390   0.297   1.516   2.964 -1.4605 -0.8659  1.0590
 3311SOL     OW21391   4.016   1.837   0.664  0.4624 -0.7872  0.4997
 3311SOL    HW121392   4.045   1.816   0.753 -1.0119  0.2007  1.2155
 3311SOL    HW221393   3.923   1.818   0.669  0.1542  0.6151  0.0011
 3312SOL     OW21394   3.089   2.638  14.650 -0.5035 -0.0714  0.2799
 3312SOL    HW121395   3.014   2.623  14.708 -2.3915  1.9813 -1.6489
 3312SOL    HW221396   3.048   2.626  14.564 -1.4841  1.4703  0.5487
 3313SOL     OW21397   0.194   2.178   3.403 -0.4274  0.1339 -1.0466
 3313SOL    HW121398   0.197   2.083   3.388  0.8541 -0.1536  1.0358
 3313SOL    HW221399   0.207   2.214   3.315  2.9458  0.9608 -0.2101
 3314SOL     OW21400   4.343   3.111   1.000 -0.1458  0.0978 -0.0729
 3314SOL    HW121401   4.276   3.108   1.068  1.6703  1.9706  1.7806
 3314SOL    HW221402   4.283   3.114   0.925  0.1668 -0.3543 -0.3396
 3315SOL     OW21403   2.377   2.778  16.296  0.3862  0.5789  0.6110
 3315SOL    HW121404   2.462   2.783  16.339  1.1106  1.3020 -0.9419
 3315SOL    HW221405   2.412   2.757  16.210 -0.4400  1.0125  0.1700
 3316SOL     OW21406   0.857   4.058   2.376  0.0654 -0.5855 -0.3492
 3316SOL    HW121407   0.860   4.029   2.285 -0.7153 -1.5324 -0.0725
 3316SOL    HW221408   0.929   4.121   2.380 -1.7242  1.2999  1.6693
 3317SOL     OW21409   3.723   3.577   7.104 -0.2399  0.7055  0.1447
 3317SOL    HW121410   3.688   3.557   7.190  0.4539  0.0052  0.2609
 3317SOL    HW221411   3.711   3.671   7.089  2.7821  1.0635  0.0367
 3318SOL     OW21412   2.462   3.744  12.384 -0.1064  0.6106  0.7646
 3318SOL    HW121413   2.557   3.754  12.383  0.0230 -0.5690  0.0052
 3318SOL    HW221414   2.453   3.649  12.375  1.9106  0.4796  0.1906
 3319SOL     OW21415   3.223   2.819   6.951 -0.2007  0.5042 -0.5967
 3319SOL    HW121416   3.195   2.910   6.961 -0.6274  0.2815  0.2742
 3319SOL    HW221417   3.174   2.767   7.016  1.0964  0.3493  0.2504
 3320SOL     OW21418   1.626   0.952  13.579  0.2352 -0.1897 -0.1325
 3320SOL    HW121419   1.536   0.958  13.546  0.8670 -1.4765 -2.0829
 3320SOL    HW221420   1.645   1.044  13.599 -1.4425  0.5181 -1.7284
 3321SOL     OW21421   1.763   4.270   4.998 -0.0238 -0.7338 -0.2526
 3321SOL    HW121422   1.813   4.350   5.012 -2.9844  1.0756 -0.1576
 3321SOL    HW221423   1.781   4.262   4.905 -0.3887 -0.3748 -0.3520
 3322SOL     OW21424   1.516   2.347  11.770 -0.5494 -0.1253 -0.5978
 3322SOL    HW121425   1.499   2.416  11.706 -1.7145  1.3710  1.3308
 3322SOL    HW221426   1.472   2.385  11.847 -2.1751  1.8723 -2.5185
 3323SOL     OW21427   2.500   1.908   8.293  0.7430  0.3455  0.7199
 3323SOL    HW121428   2.483   1.994   8.331 -1.3674 -0.0293  0.6444
 3323SOL    HW221429   2.426   1.903   8.233  1.9432 -0.6391 -0.6973
 3324SOL     OW21430   0.273   0.867   6.845 -0.1575  0.0837 -0.0699
 3324SOL    HW121431   0.359   0.905   6.863 -0.9798  1.8305  0.1276
 3324SOL    HW221432   0.281   0.857   6.750  0.1516 -3.4960  0.3457
 3325SOL     OW21433   0.980   1.048   3.162  0.0590  0.4908 -0.4903
 3325SOL    HW121434   0.935   1.065   3.244 -0.4680  2.6374 -1.2209
 3325SOL    HW221435   0.939   0.965   3.138  1.1155 -1.0937  3.2887
 3326SOL     OW21436   1.535   2.637   5.641  0.0425  0.1370  0.5007
 3326SOL    HW121437   1.580   2.557   5.667  1.9287  0.4968 -1.6984
 3326SOL    HW221438   1.447   2.601   5.632  1.0694 -1.6205 -2.3244
 3327SOL     OW21439   3.160   4.614   3.968  0.2016 -0.0498 -0.0113
 3327SOL    HW121440   3.197   4.682   3.911  1.4615 -1.4269 -0.8395
 3327SOL    HW221441   3.188   4.535   3.922  0.5854 -0.5102  1.0250
 3328SOL     OW21442   4.600   2.005   7.094  0.3100 -0.0805  0.2466
 3328SOL    HW121443   4.665   1.988   7.025 -0.4130  1.0813 -0.7299
 3328SOL    HW221444   4.655   2.036   7.166 -0.2759  1.2933  0.1197
 3329SOL     OW21445   3.804   1.857  13.436 -0.3110  0.3558 -0.8787
 3329SOL    HW121446   3.757   1.849  13.519 -0.0598 -2.2496 -1.0096
 3329SOL    HW221447   3.858   1.778  13.438 -0.2714  0.5114  3.1447
 3330SOL     OW21448   4.288   0.116   8.436 -0.2027  0.3097  0.3236
 3330SOL    HW121449   4.372   0.155   8.411 -0.6826  1.5880  0.7331
 3330SOL    HW221450   4.327   0.054   8.499  0.7632  0.5672 -0.0215
 3331SOL     OW21451   1.281   2.793  14.640  0.2874 -0.0657 -0.5404
 3331SOL    HW121452   1.309   2.822  14.726 -2.4135 -2.0928  1.0425
 3331SOL    HW221453   1.307   2.702  14.626  1.3924  0.2122 -0.2756
 3332SOL     OW21454   0.851   0.577   6.787  0.3415  0.0692 -0.0694
 3332SOL    HW121455   0.926   0.614   6.833 -0.5054  1.2190  0.4203
 3332SOL    HW221456   0.790   0.610   6.854  1.3537  1.8395 -0.0163
 3333SOL     OW21457   3.462   0.245  14.950  0.2960 -0.5057 -0.0957
 3333SOL    HW121458   3.465   0.222  15.042  0.6456  0.2970  0.1013
 3333SOL    HW221459   3.536   0.306  14.944  0.4171 -0.4413  2.0032
 3334SOL     OW21460   2.736   4.199   9.500  0.5607 -0.2868  0.4727
 3334SOL    HW121461   2.658   4.148   9.477 -0.2645  1.4746 -0.6179
 3334SOL    HW221462   2.785   4.173   9.422 -2.1869 -1.2363 -0.9300
 3335SOL     OW21463   1.069   3.751  17.657 -0.3480 -0.0502  0.3447
 3335SOL    HW121464   1.130   3.824  17.665 -1.6671  1.1701 -0.8927
 3335SOL    HW221465   1.085   3.719   0.053 -0.0758 -2.7268 -0.6727
 3336SOL     OW21466   1.958   3.139   9.915  0.1388 -0.5257  0.1813
 3336SOL    HW121467   1.970   3.106   9.826  3.3829  1.2009 -0.0344
 3336SOL    HW221468   1.996   3.224   9.894 -0.2361 -0.5733 -0.6910
 3337SOL     OW21469   3.393   0.741   5.125 -0.2271  0.2353 -0.7041
 3337SOL    HW121470   3.436   0.747   5.040 -0.5538 -0.5432 -0.9223
 3337SOL    HW221471   3.361   0.831   5.135 -3.1274 -1.1609  2.4773
 3338SOL     OW21472   2.595   2.448   6.098  0.3617 -0.3524  0.2968
 3338SOL    HW121473   2.512   2.465   6.142 -0.2506 -1.3207 -0.4953
 3338SOL    HW221474   2.602   2.357   6.124 -0.1264 -0.6119 -0.4764
 3339SOL     OW21475   3.894   4.193   2.347 -0.5230  0.1334  0.3872
 3339SOL    HW121476   3.986   4.176   2.369 -0.9059 -2.5145 -0.0665
 3339SOL    HW221477   3.889   4.286   2.369 -3.3131 -0.8300  3.8243
 3340SOL     OW21478   3.400   2.806  15.571  0.6963  0.0648 -0.7147
 3340SOL    HW121479   3.359   2.892  15.563  0.6584  0.1488  0.4248
 3340SOL    HW221480   3.365   2.750  15.501 -0.5405 -0.9121  0.6825
 3341SOL     OW21481   3.601   2.493   8.462 -0.2218 -0.1746 -0.3962
 3341SOL    HW121482   3.530   2.551   8.434  1.5025  1.4946 -1.2835
 3341SOL    HW221483   3.622   2.453   8.378  0.6711 -3.9016  1.5780
 3342SOL     OW21484   3.877   0.835   5.286 -0.1153  0.6853  0.5343
 3342SOL    HW121485   3.937   0.899   5.325  0.5325 -0.5589  1.5861
 3342SOL    HW221486   3.867   0.876   5.200 -1.6952  0.6976  0.7247
 3343SOL     OW21487   3.149   4.426   1.991  0.6480  0.4048 -0.0889
 3343SOL    HW121488   3.072   4.376   1.965  0.4391  0.9205 -0.4664
 3343SOL    HW221489   3.222   4.364   1.982  0.6771  0.3835  0.2971
 3344SOL     OW21490   0.018   0.021   6.226 -0.2274  0.3541 -0.1138
 3344SOL    HW121491   0.071   0.012   6.305 -2.3318  0.2543  1.2803
 3344SOL    HW221492   4.707   0.109   6.242  0.9263  0.6042  0.9597
 3345SOL     OW21493   0.878   2.155  15.085 -0.4100 -0.1945 -0.5036
 3345SOL    HW121494   0.863   2.159  15.179 -1.3445  1.9205 -0.7519
 3345SOL    HW221495   0.875   2.249  15.067 -1.1480  0.0518  0.9165
 3346SOL     OW21496   1.702   0.800   8.066 -0.4955  0.0007  0.2518
 3346SOL    HW121497   1.704   0.762   8.154 -0.7574  0.4487  0.4548
 3346SOL    HW221498   1.777   0.762   8.022 -1.5908  0.8526 -2.3420
 3347SOL     OW21499   4.313   1.171  13.232  1.2637  0.0692 -0.1371
 3347SOL    HW121500   4.380   1.236  13.253  0.9019  0.7249 -1.0258
 3347SOL    HW221501   4.304   1.174  13.136  1.8712 -1.1966 -0.2486
 3348SOL     OW21502   4.603   4.451   0.134  0.0932  0.1522 -0.0559
 3348SOL    HW121503   4.677   4.443   0.194 -1.3420  0.4966  1.7485
 3348SOL    HW221504   4.580   4.358   0.133 -0.7894  0.3504  1.2630
 3349SOL     OW21505   0.881   0.782   7.959 -0.3369 -0.1564  0.4863
 3349SOL    HW121506   0.792   0.782   7.994  0.0748  1.8020  1.5406
 3349SOL    HW221507   0.869   0.851   7.894 -1.5062  0.0611  0.9416
 3350SOL     OW21508   3.924   3.617   6.318  0.8238  0.4030  0.6921
 3350SOL    HW121509   3.973   3.699   6.323 -1.6069  1.9536 -0.8204
 3350SOL    HW221510   3.836   3.648   6.337  0.8601  1.1914 -0.4721
 3351SOL     OW21511   0.935   1.517   7.520  0.0579 -0.0200  0.9491
 3351SOL    HW121512   0.958   1.609   7.511  0.2640 -0.3558 -2.0293
 3351SOL    HW221513   0.928   1.488   7.429 -0.6727 -3.0060  1.9643
 3352SOL     OW21514   0.888   1.957   2.104 -0.2766  0.0804  0.2639
 3352SOL    HW121515   0.954   2.007   2.057  0.9021  1.0474  2.9201
 3352SOL    HW221516   0.820   2.021   2.126 -0.2821  0.5900 -1.2098
 3353SOL     OW21517   3.481   1.111   3.841 -0.2812  0.0912  0.2717
 3353SOL    HW121518   3.500   1.025   3.805  2.0434  0.4017  0.7803
 3353SOL    HW221519   3.458   1.087   3.930 -0.7474  0.3812  0.2324
 3354SOL     OW21520   2.420   2.857   1.131 -0.0029  0.1893  0.8019
 3354SOL    HW121521   2.459   2.935   1.093 -1.6001  0.3040 -0.5821
 3354SOL    HW221522   2.328   2.860   1.106  0.3841  2.6527 -0.3073
 3355SOL     OW21523   2.081   1.224  10.115  0.0667 -0.1937  0.0553
 3355SOL    HW121524   2.050   1.245  10.203  1.7622 -0.8943  0.8245
 3355SOL    HW221525   2.078   1.130  10.134 -0.4534 -0.0070  0.9544
 3356SOL     OW21526   1.172   2.360   5.748 -0.0235  0.0418  0.1148
 3356SOL    HW121527   1.102   2.421   5.769 -0.4840 -0.1638 -0.8248
 3356SOL    HW221528   1.120   2.280   5.737  1.3263 -0.7774 -0.2855
 3357SOL     OW21529   3.104   1.180   6.005  0.0491 -0.3137 -0.5830
 3357SOL    HW121530   3.171   1.247   5.991  0.6141 -0.5225  1.0596
 3357SOL    HW221531   3.040   1.211   5.942  1.1607  0.0855 -1.4985
 3358SOL     OW21532   4.707   1.852   3.490  0.0936  0.3708 -0.6433
 3358SOL    HW121533   4.696   1.943   3.519 -0.1931  0.7604 -1.9935
 3358SOL    HW221534   4.655   1.854   3.410  0.2864  0.5008 -0.7669
 3359SOL     OW21535   0.713   2.285   4.076  0.3647 -0.0180  0.0352
 3359SOL    HW121536   0.675   2.318   3.995  0.4730  1.2884  0.5172
 3359SOL    HW221537   0.756   2.364   4.108  2.3968 -1.2389  0.3767
 3360SOL     OW21538   0.866   3.404   2.449  0.0075  0.6463  0.7534
 3360SOL    HW121539   0.917   3.337   2.403 -0.4314  0.4036  0.6110
 3360SOL    HW221540   0.793   3.357   2.489  1.5574  0.9602  3.9632
 3361SOL     OW21541   2.529   1.271   6.614 -0.3343 -0.1395 -0.5730
 3361SOL    HW121542   2.493   1.183   6.628  2.6518 -1.6841 -2.5657
 3361SOL    HW221543   2.486   1.308   6.536 -0.0210  1.1213 -0.1488
 3362SOL     OW21544   2.058   2.545   9.926  0.0698  0.0678 -0.0678
 3362SOL    HW121545   2.092   2.633   9.944  1.1574 -0.1635 -1.0049
 3362SOL    HW221546   2.142   2.500   9.937 -0.1498 -0.8242 -2.1639
 3363SOL     OW21547   1.896   3.042   1.182 -0.3246 -0.1670 -0.0558
 3363SOL    HW121548   1.882   3.137   1.190  1.4444 -0.0589  1.7057
 3363SOL    HW221549   1.890   3.031   1.087 -0.3257 -1.5565  0.1083
 3364SOL     OW21550   3.045   0.143  17.064 -0.7552  0.0367  0.2697
 3364SOL    HW121551   3.020   0.080  17.132  2.6600 -0.5521  0.9922
 3364SOL    HW221552   3.113   0.194  17.109  3.0598 -1.4732 -3.7774
 3365SOL     OW21553   0.176   0.315   2.497  0.0376  0.1825 -0.0480
 3365SOL    HW121554   0.108   0.254   2.526 -1.4017  2.0459  0.4841
 3365SOL    HW221555   0.256   0.267   2.516  1.2381  1.5877 -1.5777
 3366SOL     OW21556   4.460   0.422   7.174  0.1279 -0.0782 -0.4534
 3366SOL    HW121557   4.394   0.440   7.108  1.3158  1.1434 -1.3269
 3366SOL    HW221558   4.447   0.476   7.252 -1.6105 -0.4027 -0.5228
 3367SOL     OW21559   4.212   3.164   4.376  0.3246  0.7975  0.0267
 3367SOL    HW121560   4.270   3.217   4.430 -0.2899 -0.5304  1.9887
 3367SOL    HW221561   4.246   3.162   4.286  0.1174  0.3615 -0.0431
 3368SOL     OW21562   1.765   4.349   9.762  0.0377 -0.0524 -0.1413
 3368SOL    HW121563   1.730   4.286   9.698 -0.5634  0.1594 -0.0193
 3368SOL    HW221564   1.742   4.430   9.717 -1.3964  0.6963  1.9365
 3369SOL     OW21565   1.589   4.721   7.643  0.2847  0.3160 -0.5452
 3369SOL    HW121566   1.547   0.078   7.612  0.0445  0.3157 -0.2139
 3369SOL    HW221567   1.517   4.684   7.695 -0.4601  2.5996  0.0187
 3370SOL     OW21568   0.752   1.080   9.506  0.0649 -0.2635  0.2380
 3370SOL    HW121569   0.784   1.107   9.592 -1.4891 -1.3239  1.1579
 3370SOL    HW221570   0.819   1.014   9.490 -0.6843 -0.7271 -1.0018
 3371SOL     OW21571   4.359   4.164   0.837 -0.2387 -0.1047  0.0155
 3371SOL    HW121572   4.371   4.135   0.746  1.6335 -0.3883  0.3585
 3371SOL    HW221573   4.444   4.204   0.852  1.6783 -3.8460 -0.7684
 3372SOL     OW21574   1.946   2.872   6.973  0.5299 -0.1109 -0.2095
 3372SOL    HW121575   1.874   2.934   6.983 -0.4386 -0.9970 -1.6260
 3372SOL    HW221576   1.973   2.873   7.065  0.5138 -0.6119 -0.1992
 3373SOL     OW21577   1.655   2.913   8.354 -0.4522 -0.4310  0.4223
 3373SOL    HW121578   1.704   2.841   8.316  2.6929  1.4089  0.9639
 3373SOL    HW221579   1.605   2.933   8.275  0.5962  1.3053  0.1803
 3374SOL     OW21580   2.771   0.347   9.227 -0.0210 -0.2482  0.3447
 3374SOL    HW121581   2.702   0.322   9.166  1.3761 -1.8360 -0.5954
 3374SOL    HW221582   2.797   0.262   9.264  1.6134 -0.2762 -0.8684
 3375SOL     OW21583   4.267   4.068   5.531 -0.5529  0.2984 -0.1524
 3375SOL    HW121584   4.311   3.989   5.499  1.4287  2.5036 -2.9167
 3375SOL    HW221585   4.311   4.125   5.468  2.4034 -1.0355  0.7021
 3376SOL     OW21586   0.481   1.185   3.980 -0.2808 -0.1607  0.0670
 3376SOL    HW121587   0.386   1.178   3.969 -0.2212 -2.6039  0.9571
 3376SOL    HW221588   0.486   1.267   4.029 -2.4006 -0.0700  0.1353
 3377SOL     OW21589   0.074   3.420   5.258  0.2638 -0.2386  0.3834
 3377SOL    HW121590   0.123   3.380   5.329 -0.9838 -1.6668  0.4421
 3377SOL    HW221591   0.085   3.514   5.269 -1.9274 -0.1919  2.0871
 3378SOL     OW21592   3.484   0.542   6.888 -0.0845 -0.0323 -0.2136
 3378SOL    HW121593   3.427   0.584   6.824  0.3354  0.4895 -0.2484
 3378SOL    HW221594   3.555   0.605   6.904 -1.4889  1.9717 -1.9538
 3379SOL     OW21595   0.620   3.474  11.686 -0.4826 -0.5295 -0.1124
 3379SOL    HW121596   0.573   3.423  11.751  0.0602 -0.8699  0.0161
 3379SOL    HW221597   0.629   3.411  11.615  0.6204 -0.0819 -0.3710
 3380SOL     OW21598   2.312   2.087   7.969  0.7177  0.1951 -0.1529
 3380SOL    HW121599   2.266   2.153   8.021  0.8404 -0.2455  0.5248
 3380SOL    HW221600   2.290   2.130   7.887 -0.4421  0.3182  0.2204
 3381SOL     OW21601   1.887   2.724  10.949  0.0224 -0.1783  0.0547
 3381SOL    HW121602   1.826   2.754  11.016  1.6931 -0.0077  1.5051
 3381SOL    HW221603   1.836   2.763  10.878  1.8374  2.5238  0.2474
 3382SOL     OW21604   1.441   4.404   1.178  0.3006 -0.3653  0.5911
 3382SOL    HW121605   1.380   4.355   1.122 -1.7854  1.9514  0.8117
 3382SOL    HW221606   1.522   4.399   1.129  0.4000  1.0528  0.6085
 3383SOL     OW21607   1.225   2.305  14.019 -0.2315 -0.0503 -0.0435
 3383SOL    HW121608   1.228   2.392  14.059  0.1147  1.1456 -2.6359
 3383SOL    HW221609   1.175   2.250  14.079  0.6044 -0.8300 -0.0645
 3384SOL     OW21610   1.229   4.060   7.653  0.4890  0.2323 -0.2476
 3384SOL    HW121611   1.198   3.985   7.602 -3.0459  1.1018  0.5746
 3384SOL    HW221612   1.300   4.084   7.594  0.4212  0.8961 -0.0680
 3385SOL     OW21613   2.609   0.430   3.066 -0.2136 -0.2154  0.0427
 3385SOL    HW121614   2.532   0.394   3.111  0.6215 -3.3458 -1.0110
 3385SOL    HW221615   2.683   0.412   3.125 -1.3515 -1.1678  1.1987
 3386SOL     OW21616   1.796   3.558   4.748  0.2834 -0.2287  0.7083
 3386SOL    HW121617   1.861   3.614   4.707 -1.8279  0.4680 -1.7024
 3386SOL    HW221618   1.831   3.471   4.728  0.2074  0.1755 -1.1638
 3387SOL     OW21619   0.870   3.049   6.833  0.0478 -0.4533 -0.1539
 3387SOL    HW121620   0.887   3.028   6.925 -0.6294 -0.1800  0.0326
 3387SOL    HW221621   0.906   3.137   6.834 -0.9076 -0.0867  1.9852
 3388SOL     OW21622   3.623   1.279   9.455 -0.2408 -0.3101 -0.0928
 3388SOL    HW121623   3.553   1.230   9.499 -1.3662  1.2183 -0.1727
 3388SOL    HW221624   3.660   1.204   9.410  0.8736  0.2638 -0.1349
 3389SOL     OW21625   1.694   2.241   1.248  0.1664 -0.5274  0.2556
 3389SOL    HW121626   1.720   2.331   1.229 -0.3455 -0.5438 -0.5418
 3389SOL    HW221627   1.610   2.269   1.285  0.0571 -0.5254  0.0036
 3390SOL     OW21628   2.886   0.933  12.110 -0.2081  0.3890 -0.1220
 3390SOL    HW121629   2.853   0.856  12.155  1.9264 -1.0952 -1.1295
 3390SOL    HW221630   2.931   0.972  12.184  0.4393 -1.5572  0.4897
 3391SOL     OW21631   3.483   2.556   6.372  0.0076 -0.0965  0.6461
 3391SOL    HW121632   3.412   2.551   6.308  0.7842  0.0661 -0.2342
 3391SOL    HW221633   3.478   2.471   6.416  0.6333 -1.7156 -2.3587
 3392SOL     OW21634   0.936   0.325   5.009 -0.0053  0.8890  0.5500
 3392SOL    HW121635   0.975   0.350   5.093  3.4507 -1.4201 -0.3772
 3392SOL    HW221636   0.880   0.402   5.000  0.4391  1.0600 -0.8115
 3393SOL     OW21637   1.870   3.500   5.654  0.7610  0.9588 -0.3180
 3393SOL    HW121638   1.844   3.410   5.674 -0.0600  1.4000  0.5959
 3393SOL    HW221639   1.785   3.542   5.642  0.5978  0.6554 -0.2251
 3394SOL     OW21640   4.054   3.513   4.752 -0.1093 -0.2594  0.3993
 3394SOL    HW121641   4.148   3.512   4.731 -0.4310  0.0349 -1.0412
 3394SOL    HW221642   4.041   3.418   4.753 -0.9039 -0.1616 -1.3112
 3395SOL     OW21643   3.401   3.732  12.200 -0.1095  0.9717  0.3962
 3395SOL    HW121644   3.367   3.659  12.251 -0.3110  0.3833 -0.5752
 3395SOL    HW221645   3.431   3.788  12.272  1.0337  0.0028  0.6763
 3396SOL     OW21646   3.510   3.038   1.177  0.1292  0.1166  0.3783
 3396SOL    HW121647   3.470   3.123   1.157 -2.1257 -0.3613  2.8280
 3396SOL    HW221648   3.462   2.987   1.112  0.3354 -1.9800  1.8515
 3397SOL     OW21649   3.247   3.728   3.149  0.4075  0.6572 -0.2413
 3397SOL    HW121650   3.162   3.756   3.182 -0.4694 -0.8608 -1.2046
 3397SOL    HW221651   3.261   3.639   3.181  0.8427  0.4049 -1.1352
 3398SOL     OW21652   0.020   1.251   2.589  0.3608  0.0138 -0.0852
 3398SOL    HW121653   0.056   1.175   2.543  2.5408  1.2301 -0.3836
 3398SOL    HW221654   4.699   1.293   2.515  0.7625  0.4728 -0.0631
 3399SOL     OW21655   3.275   0.017   2.753  0.1521 -0.0076 -0.0321
 3399SOL    HW121656   3.329   4.676   2.707  0.6984 -0.5403  1.3721
 3399SOL    HW221657   3.215   4.686   2.804 -1.0856  0.8226 -0.5877
 3400SOL     OW21658   0.248   1.364   6.970 -0.2232 -0.2570 -0.4624
 3400SOL    HW121659   0.184   1.434   6.982  1.2610  0.9770  0.1958
 3400SOL    HW221660   0.271   1.344   7.061 -0.6340  1.4520  0.0145
 3401SOL     OW21661   2.912   3.723   5.086 -0.1084 -0.5625 -0.3430
 3401SOL    HW121662   2.843   3.746   5.025 -0.3779 -0.1837  0.1005
 3401SOL    HW221663   2.882   3.642   5.128 -1.8615  0.6535  0.7560
 3402SOL     OW21664   0.692   2.347   6.824 -0.2736  0.1576 -0.1490
 3402SOL    HW121665   0.709   2.411   6.754 -4.3767  0.2268 -1.0721
 3402SOL    HW221666   0.638   2.285   6.774  0.7119  0.5727 -1.7315
 3403SOL     OW21667   3.398   2.049  12.219 -0.1392 -0.3565  0.3523
 3403SOL    HW121668   3.476   2.094  12.252 -1.2855  3.5783 -2.2842
 3403SOL    HW221669   3.349   2.059  12.301 -0.2856 -0.5387  0.2869
 3404SOL     OW21670   2.231   3.643   2.900  0.3137 -0.5303 -0.1359
 3404SOL    HW121671   2.142   3.621   2.929  0.3780  0.8277  1.1169
 3404SOL    HW221672   2.268   3.700   2.967 -1.0766 -0.1435  0.3083
 3405SOL     OW21673   2.801   2.568   8.821 -0.1653  0.1573 -0.1120
 3405SOL    HW121674   2.844   2.503   8.765  1.4241  2.8665 -2.0931
 3405SOL    HW221675   2.880   2.613   8.850  0.3413 -1.2167  0.6130
 3406SOL     OW21676   1.929   1.249   3.835 -0.0115 -0.0242  0.4370
 3406SOL    HW121677   1.893   1.192   3.767  4.5162  0.4455 -2.3848
 3406SOL    HW221678   1.904   1.200   3.913 -2.1154  3.7800  2.1484
 3407SOL     OW21679   0.988   3.513   2.931 -0.1157 -0.0569 -0.0947
 3407SOL    HW121680   0.931   3.575   2.886  1.3083  0.4345 -1.2587
 3407SOL    HW221681   0.952   3.428   2.905  1.1640 -0.7576  0.4010
 3408SOL     OW21682   4.571   0.906  16.643 -0.2549 -0.3897 -0.0276
 3408SOL    HW121683   4.545   0.959  16.718 -1.3141 -1.8471  0.6376
 3408SOL    HW221684   4.542   0.829  16.691  0.8947 -2.0718 -2.0167
 3409SOL     OW21685   3.093   3.240  15.344  0.0748  0.1900  0.7389
 3409SOL    HW121686   3.162   3.287  15.296  1.8633 -4.0924 -0.8140
 3409SOL    HW221687   3.035   3.313  15.367 -1.0899 -0.6928  0.5579
 3410SOL     OW21688   4.057   4.305  14.312  0.2970  0.9081  0.0986
 3410SOL    HW121689   4.123   4.363  14.275  2.2450 -1.6775 -0.4952
 3410SOL    HW221690   4.012   4.267  14.236 -0.2228 -2.4061  2.0391
 3411SOL     OW21691   3.527   4.442   6.427  0.2126  0.2871  0.6881
 3411SOL    HW121692   3.469   4.451   6.502  2.3202 -1.3206  2.5474
 3411SOL    HW221693   3.478   4.464   6.348 -1.6557 -0.4426  1.6460
 3412SOL     OW21694   0.165   3.661   8.836 -0.0514  0.2704 -0.5331
 3412SOL    HW121695   0.234   3.645   8.771 -0.2019 -0.5260 -0.4986
 3412SOL    HW221696   0.083   3.625   8.801  0.5414  0.8159 -2.5130
 3413SOL     OW21697   3.441   4.450   8.303  0.2092  0.1538 -0.3300
 3413SOL    HW121698   3.404   4.362   8.297  1.0764 -0.2141 -0.2323
 3413SOL    HW221699   3.375   4.495   8.251 -1.2550  2.1158  3.2199
 3414SOL     OW21700   4.044   2.660   7.357 -0.4380  0.1001  0.1479
 3414SOL    HW121701   4.120   2.602   7.357 -0.9424 -0.5505 -1.1417
 3414SOL    HW221702   3.980   2.591   7.376  0.5735 -1.0114 -0.4927
 3415SOL     OW21703   3.978   4.236   8.566  0.2933  0.0494 -0.0705
 3415SOL    HW121704   4.006   4.292   8.493  0.6110 -2.1847 -1.6941
 3415SOL    HW221705   3.997   4.150   8.528  3.3030  0.5587  0.3228
 3416SOL     OW21706   0.800   0.012  16.253  0.6928  0.1341 -0.1701
 3416SOL    HW121707   0.797   0.106  16.268 -0.1249  0.3516 -1.6763
 3416SOL    HW221708   0.734   4.712  16.188  0.6514  1.2414 -0.5136
 3417SOL     OW21709   1.322   2.477  15.974 -0.0103 -0.4672 -0.4301
 3417SOL    HW121710   1.393   2.436  15.924  0.8553  0.8859 -0.3155
 3417SOL    HW221711   1.354   2.478  16.064 -0.0884 -1.4425 -0.3939
 3418SOL     OW21712   3.681   2.947   2.363 -0.1295 -0.1314  0.5868
 3418SOL    HW121713   3.646   2.858   2.356  0.4201 -0.2684 -0.2963
 3418SOL    HW221714   3.698   2.974   2.273  1.5991 -0.3532  0.8492
 3419SOL     OW21715   1.688   4.439  15.144 -0.0374  0.1134 -0.5148
 3419SOL    HW121716   1.725   4.363  15.098  0.2357  0.2657 -0.5460
 3419SOL    HW221717   1.652   4.496  15.076  0.9395  2.0777  0.6282
 3420SOL     OW21718   1.887   1.483   3.540  0.2372 -0.1127 -0.3122
 3420SOL    HW121719   1.841   1.435   3.609  1.0452 -1.0046 -0.3956
 3420SOL    HW221720   1.946   1.417   3.504  1.9475  1.1328  0.2080
 3421SOL     OW21721   0.172   0.628  10.628  0.3088 -0.5221  0.1355
 3421SOL    HW121722   0.136   0.628  10.540 -0.4037 -0.0318  0.4257
 3421SOL    HW221723   0.258   0.665  10.610 -0.0737 -0.3770 -1.3851
 3422SOL     OW21724   0.312   2.679   7.082 -0.0193  0.0806  0.5419
 3422SOL    HW121725   0.383   2.690   7.019  1.1415 -1.0958  1.6189
 3422SOL    HW221726   0.344   2.738   7.151 -0.1536  1.3656 -0.5032
 3423SOL     OW21727   2.325   3.910  12.185  0.5661 -0.3163  0.6954
 3423SOL    HW121728   2.280   3.861  12.254  0.1671  1.6889  1.8499
 3423SOL    HW221729   2.418   3.911  12.208  1.0932  0.8821 -1.5013
 3424SOL     OW21730   2.425   4.402   4.096  0.6540  0.4900 -0.4704
 3424SOL    HW121731   2.360   4.396   4.026  1.2191  0.9232 -1.0299
 3424SOL    HW221732   2.378   4.446   4.167  1.5528  0.5583  0.0893
 3425SOL     OW21733   1.067   0.892   8.565  0.2588 -0.4924  0.1915
 3425SOL    HW121734   1.161   0.896   8.548 -0.0867 -1.1602 -1.9302
 3425SOL    HW221735   1.043   0.874   8.474  0.8995 -1.3009  0.1889
 3426SOL     OW21736   0.509   3.696   9.461 -0.3600  0.1715  0.1782
 3426SOL    HW121737   0.457   3.632   9.509  0.6106 -0.3333  0.5440
 3426SOL    HW221738   0.585   3.639   9.451 -1.8338 -1.9352  0.9559
 3427SOL     OW21739   1.722   1.024   2.622  0.8692  0.4911  0.3593
 3427SOL    HW121740   1.641   1.049   2.666  0.9045  0.3633  0.4999
 3427SOL    HW221741   1.781   1.002   2.695 -1.1661  1.9435  2.4369
 3428SOL     OW21742   2.377   1.686   3.496 -1.0830  0.6049 -0.0079
 3428SOL    HW121743   2.388   1.779   3.474  0.8205 -0.0926 -2.0322
 3428SOL    HW221744   2.381   1.691   3.591  0.1943 -0.4434 -0.0027
 3429SOL     OW21745   2.620   0.686   5.386  0.2466  0.4024 -0.0035
 3429SOL    HW121746   2.606   0.753   5.319 -2.1105 -0.8435 -0.7607
 3429SOL    HW221747   2.591   0.727   5.468 -0.5425 -0.9001  0.3637
 3430SOL     OW21748   4.343   4.358   3.761 -0.3773 -0.2320 -0.2936
 3430SOL    HW121749   4.321   4.311   3.842 -0.8619 -1.6306 -1.2524
 3430SOL    HW221750   4.259   4.339   3.720 -1.0793  0.3937  0.8491
 3431SOL     OW21751   1.098   1.189   9.292 -0.1355 -0.2311 -0.0205
 3431SOL    HW121752   1.177   1.240   9.305 -0.7674  1.0527 -1.1760
 3431SOL    HW221753   1.029   1.255   9.303 -0.1943  0.0920 -2.2703
 3432SOL     OW21754   4.431   1.218  13.780 -0.0986 -0.2239 -0.0209
 3432SOL    HW121755   4.391   1.300  13.751 -0.9664  0.2724  2.6269
 3432SOL    HW221756   4.361   1.154  13.762 -0.6174  1.3766 -3.8276
 3433SOL     OW21757   0.452   1.706   7.438  0.2315 -0.5441  0.6232
 3433SOL    HW121758   0.361   1.682   7.420 -0.5446  2.4889  0.4820
 3433SOL    HW221759   0.474   1.631   7.493  0.0135 -1.5241 -0.6265
 3434SOL     OW21760   0.966   4.188   3.772  0.2804 -0.1333  0.2367
 3434SOL    HW121761   0.950   4.166   3.681  1.5544 -1.1001  0.2508
 3434SOL    HW221762   1.054   4.152   3.780  0.1812 -0.1789  1.1921
 3435SOL     OW21763   2.576   1.420   9.382  0.7394  0.3073 -0.2607
 3435SOL    HW121764   2.541   1.414   9.471 -0.5511  0.5987 -0.7428
 3435SOL    HW221765   2.669   1.421   9.403  0.7335  0.3382 -0.2365
 3436SOL     OW21766   2.859   2.544  14.761 -0.2313  0.4703 -0.2214
 3436SOL    HW121767   2.810   2.618  14.725 -2.7570 -1.3072 -0.4609
 3436SOL    HW221768   2.788   2.497  14.805 -1.2601  0.6105 -1.7291
 3437SOL     OW21769   1.596   4.370   7.537  0.2278 -0.1250  0.0809
 3437SOL    HW121770   1.664   4.431   7.565  0.4263 -0.4694  0.3501
 3437SOL    HW221771   1.534   4.430   7.496  0.3715  0.5357  0.8416
 3438SOL     OW21772   3.268   0.294  11.026 -0.1711 -0.5083 -0.3920
 3438SOL    HW121773   3.264   0.386  11.049  1.1527 -0.6109  0.2607
 3438SOL    HW221774   3.300   0.255  11.107 -4.5991  0.8179  2.0062
 3439SOL     OW21775   4.401   1.926  11.742  0.0906  0.0410  0.5910
 3439SOL    HW121776   4.399   2.004  11.798  0.0612  1.0604 -0.8217
 3439SOL    HW221777   4.317   1.897  11.776  0.0105 -0.7229 -0.2738
 3440SOL     OW21778   1.534   2.030   3.627 -0.2961  0.8094  0.1735
 3440SOL    HW121779   1.530   2.028   3.532  2.4863 -0.4463  0.0925
 3440SOL    HW221780   1.480   2.103   3.659 -0.8431  1.0045 -1.1714
 3441SOL     OW21781   1.066   4.472   3.921  0.3873  0.1194  0.2905
 3441SOL    HW121782   1.063   4.478   3.826 -0.8516  1.8210  0.4506
 3441SOL    HW221783   1.049   4.378   3.925 -1.4452  0.4024 -1.0641
 3442SOL     OW21784   4.302   3.475   4.700  0.4584  0.1661  0.2195
 3442SOL    HW121785   4.390   3.482   4.736  0.5696 -0.5849  0.0790
 3442SOL    HW221786   4.308   3.430   4.616  1.0904  1.1471 -0.2610
 3443SOL     OW21787   4.115   2.012   8.506 -0.0142 -0.0962  0.2198
 3443SOL    HW121788   4.045   1.963   8.462 -0.6866 -0.8660  2.1698
 3443SOL    HW221789   4.079   2.058   8.581  1.6130 -1.7982  2.0429
 3444SOL     OW21790   0.384   3.521   6.867  0.4685  0.1294 -0.4749
 3444SOL    HW121791   0.293   3.498   6.853  0.1739  0.5979  0.6697
 3444SOL    HW221792   0.388   3.614   6.848  1.1675  0.2036  0.0036
 3445SOL     OW21793   3.129   3.765  10.217  0.3572  0.8362  0.1623
 3445SOL    HW121794   3.162   3.833  10.158 -0.9942 -0.7977 -2.4538
 3445SOL    HW221795   3.204   3.743  10.273 -1.7401  0.0932  2.6514
 3446SOL     OW21796   4.296   4.217  11.771 -0.0605 -0.0650  0.0549
 3446SOL    HW121797   4.203   4.225  11.751 -0.4186 -2.5936  0.7034
 3446SOL    HW221798   4.284   4.124  11.790 -0.3298 -0.0302  0.0549
 3447SOL     OW21799   0.884   3.549   0.407  0.0743  0.3913  0.3056
 3447SOL    HW121800   0.856   3.639   0.389  0.9720  0.2810 -1.5400
 3447SOL    HW221801   0.888   3.549   0.503 -0.4058 -0.3245  0.3217
 3448SOL     OW21802   3.611   4.343   6.089 -0.3408 -0.0906 -0.6494
 3448SOL    HW121803   3.691   4.375   6.129  0.5017 -1.6535 -1.1168
 3448SOL    HW221804   3.638   4.265   6.041  1.8266 -0.2228  0.7926
 3449SOL     OW21805   4.052   4.336   4.797  0.5649 -0.2468 -0.0131
 3449SOL    HW121806   4.002   4.256   4.780 -1.0712  0.4643  1.5403
 3449SOL    HW221807   3.980   4.396   4.778 -0.4431 -2.0077 -1.6598
 3450SOL     OW21808   1.912   0.636  14.110  0.1831  0.1942  0.3328
 3450SOL    HW121809   1.960   0.562  14.074  1.0503  0.7124  0.4331
 3450SOL    HW221810   1.866   0.600  14.186 -0.0311 -0.9916 -0.3508
 3451SOL     OW21811   1.199   4.605   6.648 -0.2209 -0.4060  0.1594
 3451SOL    HW121812   1.272   4.613   6.586  0.1398  0.3471  0.6832
 3451SOL    HW221813   1.154   4.525   6.622 -0.1896 -0.0925 -0.8623
 3452SOL     OW21814   0.841   3.653   4.353  0.0358  0.2589 -0.2307
 3452SOL    HW121815   0.925   3.698   4.343  1.5721 -2.9189 -1.7219
 3452SOL    HW221816   0.780   3.724   4.371  0.6730  1.0232 -1.1275
 3453SOL     OW21817   1.035   2.782   2.747  0.1421  0.2041 -0.5444
 3453SOL    HW121818   0.977   2.744   2.813  0.7310 -0.6887 -0.5433
 3453SOL    HW221819   1.052   2.705   2.692 -0.7994 -0.5666  0.2395
 3454SOL     OW21820   1.351   2.592   0.498  0.1902  1.0882 -0.1619
 3454SOL    HW121821   1.334   2.635   0.581 -1.9440  5.2607 -2.7356
 3454SOL    HW221822   1.387   2.664   0.446 -0.1051  0.1156 -1.7189
 3455SOL     OW21823   1.611   1.000   2.367 -0.5676 -0.0131  0.1339
 3455SOL    HW121824   1.651   1.021   2.452 -1.4766 -1.9440  1.0256
 3455SOL    HW221825   1.533   1.056   2.373 -1.2144 -0.9430  0.3199
 3456SOL     OW21826   1.531   3.198  15.989 -0.1155  0.4175 -0.6021
 3456SOL    HW121827   1.558   3.289  15.970 -1.1257  0.9306  0.4322
 3456SOL    HW221828   1.437   3.192  15.972  0.2040 -1.0972 -1.7843
 3457SOL     OW21829   0.261   2.295  11.107 -0.2752 -0.2215  0.6952
 3457SOL    HW121830   0.324   2.249  11.051 -0.4197 -0.0496  0.3877
 3457SOL    HW221831   0.191   2.231  11.101 -0.4914 -0.0232  1.0871
 3458SOL     OW21832   2.312   0.171   8.924  0.4611 -0.6301  0.3089
 3458SOL    HW121833   2.302   0.258   8.963 -2.2058 -0.1051 -1.5292
 3458SOL    HW221834   2.304   0.197   8.832  0.1183 -2.8948 -0.2987
 3459SOL     OW21835   2.937   0.736   7.662  0.6639 -0.2795  0.3886
 3459SOL    HW121836   2.901   0.650   7.684  0.1291 -0.0885  0.2647
 3459SOL    HW221837   3.008   0.754   7.723  1.5414 -1.7186 -0.1999
 3460SOL     OW21838   0.660   4.005   9.932 -0.4277 -0.4257  0.2334
 3460SOL    HW121839   0.751   4.006   9.901  0.4395  2.1173  2.8598
 3460SOL    HW221840   0.667   3.985  10.025  0.0237  1.5528  0.6267
 3461SOL     OW21841   4.362   1.240   3.815 -0.0855  0.0234 -0.2135
 3461SOL    HW121842   4.397   1.152   3.799  0.3215 -0.0377  0.9786
 3461SOL    HW221843   4.298   1.223   3.885  1.3009  0.2350  1.0979
 3462SOL     OW21844   1.804   3.351  17.361  0.5505  0.1084 -0.2059
 3462SOL    HW121845   1.852   3.297  17.422  1.9734 -0.8659 -2.1965
 3462SOL    HW221846   1.814   3.431  17.412  2.8178  0.7397 -1.6577
 3463SOL     OW21847   1.230   0.206   3.121  0.8263 -0.7145 -0.3096
 3463SOL    HW121848   1.203   0.146   3.052  0.8623 -0.1749 -0.8007
 3463SOL    HW221849   1.144   0.217   3.161  1.3859  1.2999  0.3707
 3464SOL     OW21850   3.308   2.358   7.911  0.1333  0.0419  0.0099
 3464SOL    HW121851   3.243   2.338   7.844 -0.4682 -0.9615  0.8770
 3464SOL    HW221852   3.378   2.301   7.882 -1.2969 -2.6167  1.7443
 3465SOL     OW21853   3.109   1.354   0.974  0.0873  0.2814 -0.6913
 3465SOL    HW121854   3.107   1.281   0.913 -0.4396 -0.2619 -0.0208
 3465SOL    HW221855   3.068   1.420   0.918 -0.4569  0.3358 -0.2269
 3466SOL     OW21856   0.414   3.295   8.545  0.2227 -0.1229  0.2173
 3466SOL    HW121857   0.384   3.211   8.510 -1.2253  0.5770 -0.1971
 3466SOL    HW221858   0.508   3.280   8.556 -0.0213 -1.6836  0.2864
 3467SOL     OW21859   3.412   2.802   1.886  0.7810  0.1328  0.3670
 3467SOL    HW121860   3.492   2.758   1.860  0.4237 -0.9998  1.2144
 3467SOL    HW221861   3.366   2.801   1.802  0.4664 -0.7461  0.5511
 3468SOL     OW21862   3.313   3.216  14.362 -0.4053  0.4382 -0.2652
 3468SOL    HW121863   3.228   3.260  14.374  0.4928  1.7953  1.2425
 3468SOL    HW221864   3.309   3.158  14.438 -1.7735  0.7196 -0.1238
 3469SOL     OW21865   4.325   1.372   1.130  0.3271  0.1862 -0.0635
 3469SOL    HW121866   4.371   1.298   1.169  0.1168 -0.6993 -1.4841
 3469SOL    HW221867   4.368   1.385   1.045  0.9485 -2.0882 -0.0860
 3470SOL     OW21868   1.918   0.073   4.380 -0.5075 -0.4239  0.3032
 3470SOL    HW121869   1.882   0.160   4.362 -0.6373 -0.3437  0.9416
 3470SOL    HW221870   1.899   0.036   4.294 -1.7522  2.2200 -0.5526
 3471SOL     OW21871   3.205   3.798   5.536 -0.2657  0.5493 -0.4370
 3471SOL    HW121872   3.123   3.758   5.565  1.1373 -2.0193 -0.0168
 3471SOL    HW221873   3.249   3.805   5.621  1.2298 -1.3597 -1.0250
 3472SOL     OW21874   4.577   2.950   3.793 -0.2691  0.0048 -0.1425
 3472SOL    HW121875   4.662   2.970   3.834 -0.2969  0.7645 -0.4554
 3472SOL    HW221876   4.527   3.026   3.823  2.2502  1.0388  1.4366
 3473SOL     OW21877   3.858   2.283   1.758 -0.4405 -0.2892  0.1196
 3473SOL    HW121878   3.938   2.326   1.787  0.0927 -0.2994 -1.3464
 3473SOL    HW221879   3.902   2.199   1.745  0.0861  0.0301 -0.1531
 3474SOL     OW21880   1.051   2.249   3.576 -0.4208  0.1182  0.2103
 3474SOL    HW121881   0.976   2.298   3.544 -0.9266 -1.1665 -0.5621
 3474SOL    HW221882   1.114   2.263   3.505 -1.1461  2.3110 -0.0071
 3475SOL     OW21883   3.979   0.117   4.892 -0.6986  0.6437 -0.1021
 3475SOL    HW121884   3.933   0.183   4.841 -1.3153  0.3884  0.1232
 3475SOL    HW221885   3.933   0.040   4.859 -1.9876  0.2595  2.5930
 3476SOL     OW21886   3.424   1.587   2.218  0.0335  0.0840  0.1492
 3476SOL    HW121887   3.372   1.624   2.146  0.7223 -1.5708 -1.1760
 3476SOL    HW221888   3.404   1.496   2.199  0.5728  0.0624 -0.2962
 3477SOL     OW21889   0.385   1.596   5.731 -0.2196 -0.2027  0.1195
 3477SOL    HW121890   0.360   1.565   5.644  1.4517 -2.0620  0.3112
 3477SOL    HW221891   0.480   1.595   5.719 -0.3918 -3.1878 -0.8280
 3478SOL     OW21892   2.761   1.590  16.540  0.0583  0.3685  0.2023
 3478SOL    HW121893   2.719   1.599  16.626  0.1272  1.0499  0.1646
 3478SOL    HW221894   2.797   1.501  16.543 -0.0127  0.3861  1.7220
 3479SOL     OW21895   1.028   0.737   9.012 -0.0123 -0.1196  0.4042
 3479SOL    HW121896   0.987   0.739   8.925  1.3246 -0.8861 -0.2410
 3479SOL    HW221897   0.943   0.726   9.056  0.3509 -2.6444  0.4590
 3480SOL     OW21898   3.632   3.636  17.537 -0.3904 -0.5264 -0.1278
 3480SOL    HW121899   3.641   3.653  17.631  0.1508 -0.3114 -0.2159
 3480SOL    HW221900   3.558   3.693  17.516  1.8655  2.5358  0.2591
 3481SOL     OW21901   4.380   3.421   4.074  0.3540 -0.4937 -0.2303
 3481SOL    HW121902   4.466   3.407   4.035  0.2928 -1.7068  0.0606
 3481SOL    HW221903   4.391   3.438   4.168 -0.8002  0.1915 -0.2152
 3482SOL     OW21904   4.640   2.198   5.846  0.1583  0.0842 -0.6047
 3482SOL    HW121905   4.598   2.112   5.842 -1.6416  0.9601 -0.8156
 3482SOL    HW221906   0.009   2.171   5.845  0.5399  1.3101  2.9409
 3483SOL     OW21907   3.239   1.448   5.503  0.0095 -0.5390 -0.1626
 3483SOL    HW121908   3.161   1.421   5.454  0.1252  0.7309 -1.0505
 3483SOL    HW221909   3.205   1.518   5.559  0.3748  0.5974 -1.3394
 3484SOL     OW21910   0.251   3.891   5.598 -0.5012  0.6784 -0.1516
 3484SOL    HW121911   0.320   3.831   5.628 -0.5789  0.3086 -0.7114
 3484SOL    HW221912   0.234   3.934   5.682  0.5647 -0.4011  0.6188
 3485SOL     OW21913   1.580   0.522   5.634 -0.3927  0.2215  0.5656
 3485SOL    HW121914   1.633   0.537   5.556  0.2873 -0.1962  0.9465
 3485SOL    HW221915   1.647   0.484   5.692 -2.0897 -0.9326  1.7927
 3486SOL     OW21916   2.877   3.254  12.006  0.0474 -0.0725  0.3286
 3486SOL    HW121917   2.817   3.183  12.026 -1.9479  1.1744 -1.2501
 3486SOL    HW221918   2.963   3.215  12.020  0.6179  1.1609  0.2371
 3487SOL     OW21919   4.452   0.576   6.229  0.1825 -0.1627 -0.1677
 3487SOL    HW121920   4.425   0.652   6.280  1.5955  0.0535  0.2532
 3487SOL    HW221921   4.372   0.524   6.233 -0.1542  0.2679 -1.1534
 3488SOL     OW21922   0.087   1.747   7.127 -0.2701 -0.3229 -0.3919
 3488SOL    HW121923   0.005   1.775   7.169 -0.4659 -1.6739  0.1201
 3488SOL    HW221924   0.095   1.821   7.068 -0.5007 -1.1076 -1.4161
 3489SOL     OW21925   3.647   1.142   2.278 -0.4210 -0.0315 -0.2525
 3489SOL    HW121926   3.637   1.237   2.271 -2.0028 -0.1819 -0.0116
 3489SOL    HW221927   3.742   1.132   2.283 -0.4238  0.2682  0.3623
 3490SOL     OW21928   0.295   2.863   5.767  0.2028  0.2177 -0.8018
 3490SOL    HW121929   0.365   2.921   5.737  2.0595 -1.2853  0.6106
 3490SOL    HW221930   0.330   2.835   5.852 -1.4293  1.2660  0.2187
 3491SOL     OW21931   2.427   2.751   4.796  0.4702 -0.5053  0.5218
 3491SOL    HW121932   2.519   2.729   4.788  0.3682  0.6390 -3.6085
 3491SOL    HW221933   2.393   2.684   4.855 -1.0805 -0.1925  0.0019
 3492SOL     OW21934   0.472   2.188  11.375  0.1512 -0.3372 -0.1537
 3492SOL    HW121935   0.436   2.275  11.387  0.5001 -0.0117 -1.4880
 3492SOL    HW221936   0.562   2.207  11.346 -0.2929  0.2338 -1.1491
 3493SOL     OW21937   2.194   4.482  10.040 -0.0827 -0.5840  0.0677
 3493SOL    HW121938   2.228   4.393  10.054 -0.8986 -1.0585 -0.9075
 3493SOL    HW221939   2.114   4.456   9.994 -0.0878 -0.7610  0.1763
 3494SOL     OW21940   0.166   0.645   3.146 -0.1891 -0.4071  0.2732
 3494SOL    HW121941   0.180   0.551   3.145 -0.8855 -0.5357  4.3018
 3494SOL    HW221942   0.163   0.664   3.052  1.5685  0.8282  0.4639
 3495SOL     OW21943   2.451   1.226   2.284 -0.0091 -0.2223 -0.4976
 3495SOL    HW121944   2.542   1.249   2.267  0.1469  1.2689  2.3428
 3495SOL    HW221945   2.401   1.289   2.231  2.9466  0.4397 -2.5246
 3496SOL     OW21946   4.493   0.192   5.951 -0.5324 -0.0822  0.7062
 3496SOL    HW121947   4.442   0.233   6.021 -0.9508 -0.7432  0.7904
 3496SOL    HW221948   4.470   0.100   5.967 -0.3855 -0.3069 -0.3908
 3497SOL     OW21949   3.869   3.806   6.033 -0.0388  0.0645  0.2344
 3497SOL    HW121950   3.930   3.846   6.095 -0.5177 -0.9931  1.4022
 3497SOL    HW221951   3.784   3.815   6.076  0.7572  2.2325  1.3355
 3498SOL     OW21952   2.075   2.288   6.003  0.0638  0.2480 -0.6791
 3498SOL    HW121953   2.099   2.376   6.030  0.7833  0.2468 -1.3320
 3498SOL    HW221954   1.980   2.293   6.013  0.1535  1.2490 -0.3117
 3499SOL     OW21955   4.585   1.914   5.611  0.2643  0.2142  0.5999
 3499SOL    HW121956   4.667   1.941   5.570 -0.0446 -1.6561 -1.2419
 3499SOL    HW221957   4.523   1.939   5.542  2.2837 -0.6732 -1.5468
 3500SOL     OW21958   0.859   4.616   5.648  0.4880 -0.3840  0.0846
 3500SOL    HW121959   0.848   4.698   5.598 -1.3818 -0.4589  0.3485
 3500SOL    HW221960   0.916   4.644   5.719 -0.8323 -0.4542  1.1617
 3501SOL     OW21961   0.089   3.603   4.337 -0.1187  0.4987  0.0997
 3501SOL    HW121962   0.102   3.698   4.333 -0.1317  0.5022  0.1376
 3501SOL    HW221963   0.135   3.571   4.260 -2.3562  1.6347 -1.7457
 3502SOL     OW21964   1.488   3.765  11.140  0.2786  0.5944  0.4753
 3502SOL    HW121965   1.483   3.851  11.182 -1.2818  0.4664  0.5551
 3502SOL    HW221966   1.568   3.774  11.088 -1.7278  0.8296 -2.5564
 3503SOL     OW21967   1.484   0.655   8.371  0.2661 -0.0331 -0.2849
 3503SOL    HW121968   1.492   0.745   8.342  0.0357 -0.1041 -0.5727
 3503SOL    HW221969   1.423   0.651   8.445  1.7409 -0.3744  0.9118
 3504SOL     OW21970   1.394   1.231  11.402  0.1264 -0.0633  0.2787
 3504SOL    HW121971   1.383   1.138  11.420  1.1391 -0.5736 -1.8285
 3504SOL    HW221972   1.488   1.244  11.398  0.0158  0.2567 -1.2360
 3505SOL     OW21973   2.737   0.797   3.588 -0.0973  0.0611 -0.0209
 3505SOL    HW121974   2.659   0.752   3.556 -0.5539  0.6026  0.3350
 3505SOL    HW221975   2.801   0.726   3.597  2.1509  2.2166  1.0318
 3506SOL     OW21976   0.785   2.136   0.185  0.2405  0.1266  0.4636
 3506SOL    HW121977   0.799   2.165   0.094 -3.2183 -2.5996 -0.9113
 3506SOL    HW221978   0.724   2.063   0.176  0.2772 -0.1394  2.3953
 3507SOL     OW21979   4.434   0.569   3.758 -0.0279  0.7083 -0.4603
 3507SOL    HW121980   4.368   0.503   3.736  0.4821  0.5885 -1.6039
 3507SOL    HW221981   4.385   0.624   3.819  1.3118  0.4224  0.8693
 3508SOL     OW21982   3.932   2.655   1.455 -0.2578  0.1061  0.1258
 3508SOL    HW121983   3.842   2.622   1.454 -0.4409  0.5984  0.9201
 3508SOL    HW221984   3.921   2.733   1.401 -2.8533 -0.5020 -0.2357
 3509SOL     OW21985   2.961   0.318   3.849  0.3998 -0.2240  0.1541
 3509SOL    HW121986   2.876   0.277   3.833 -0.7533  1.1426  2.6749
 3509SOL    HW221987   3.000   0.296   3.765 -0.4117 -0.7909 -0.0660
 3510SOL     OW21988   2.109   1.752  10.377  0.8404 -0.2207  0.4544
 3510SOL    HW121989   2.117   1.762  10.283  1.7397  0.6855  0.6302
 3510SOL    HW221990   2.031   1.696  10.375  0.3998  0.3483  1.4396
 3511SOL     OW21991   4.555   1.921   6.375  0.2510 -0.2070  0.5955
 3511SOL    HW121992   4.486   1.891   6.434 -0.2364  0.3600  0.3303
 3511SOL    HW221993   4.505   2.001   6.354 -1.2654 -0.9654  1.3253
 3512SOL     OW21994   4.720   2.258   4.787  0.0596  0.6979 -0.0119
 3512SOL    HW121995   0.035   2.333   4.832 -0.3195  1.1511 -0.4563
 3512SOL    HW221996   4.629   2.274   4.811  0.1990 -1.2749  1.9053
 3513SOL     OW21997   4.061   4.486   8.660 -0.3708  0.0647 -0.4613
 3513SOL    HW121998   4.115   4.461   8.735  1.7944  1.6818 -1.4800
 3513SOL    HW221999   4.024   4.403   8.630  1.6470 -0.5363 -1.3193
 3514SOL     OW22000   2.540   3.939   0.795  0.3445  0.3968  0.1570
 3514SOL    HW122001   2.496   3.855   0.808 -0.7643  0.5817 -2.2941
 3514SOL    HW222002   2.488   3.980   0.726  0.9411 -0.9344 -1.0934
 3515SOL     OW22003   1.863   3.351   1.955  0.4392  0.1922 -0.1370
 3515SOL    HW122004   1.791   3.376   2.014  0.6769  0.2659  0.1239
 3515SOL    HW222005   1.815   3.299   1.890  2.0957 -0.7831 -0.5603
 3516SOL     OW22006   0.846   2.492   2.526  0.0262  0.4017 -0.2666
 3516SOL    HW122007   0.821   2.405   2.495 -1.2037  0.6775 -0.0412
 3516SOL    HW222008   0.776   2.515   2.588  1.1296 -1.9109  1.8385
 3517SOL     OW22009   3.019   3.010   2.557 -0.0180 -0.2485 -0.4678
 3517SOL    HW122010   3.085   2.941   2.551 -0.6196 -0.9673  1.2616
 3517SOL    HW222011   3.055   3.077   2.616 -1.1745  0.2164 -0.2939
 3518SOL     OW22012   2.807   2.693   3.613 -0.4113  0.5960  0.0543
 3518SOL    HW122013   2.823   2.786   3.600  1.2590  0.1642 -1.0614
 3518SOL    HW222014   2.742   2.699   3.682 -0.7685 -1.2072 -0.1003
 3519SOL     OW22015   4.606   0.144   0.917  0.0322  0.3360 -0.4019
 3519SOL    HW122016   4.628   0.207   0.849 -0.3834  0.8823 -0.0294
 3519SOL    HW222017   4.683   0.087   0.909  1.5925  2.2847  0.7815
 3520SOL     OW22018   4.182   4.139   8.199 -0.0875 -0.5500 -0.3783
 3520SOL    HW122019   4.105   4.188   8.171  0.6067  0.5967 -0.2600
 3520SOL    HW222020   4.152   4.114   8.286 -1.3592  1.1915 -0.3271
 3521SOL     OW22021   3.992   2.193   8.171 -0.2436  0.2903 -0.0607
 3521SOL    HW122022   3.935   2.243   8.229 -0.7177  1.4408 -1.5142
 3521SOL    HW222023   3.992   2.107   8.211 -0.1498 -0.1309 -0.9636
 3522SOL     OW22024   3.520   1.961   0.626  0.3090  0.2041 -0.0876
 3522SOL    HW122025   3.502   1.920   0.711  1.9857 -2.7460 -1.1570
 3522SOL    HW222026   3.507   1.885   0.570  1.0106 -1.6542  2.2920
 3523SOL     OW22027   4.369   2.050   3.687 -0.0103 -0.3192 -0.4513
 3523SOL    HW122028   4.315   2.054   3.767  0.6317  0.6819 -0.0711
 3523SOL    HW222029   4.325   2.119   3.637 -1.7617  0.1701  1.7362
 3524SOL     OW22030   3.527   1.807   5.205  0.1829 -0.3744  0.0456
 3524SOL    HW122031   3.600   1.762   5.247  1.4634  1.6947 -0.0152
 3524SOL    HW222032   3.458   1.740   5.211 -0.3291  0.0751 -0.8642
 3525SOL     OW22033   0.982   2.540   9.520 -0.2981 -0.1178  0.0744
 3525SOL    HW122034   0.970   2.455   9.562 -2.0090 -0.8193 -1.8038
 3525SOL    HW222035   0.907   2.590   9.552  0.8487  2.3181 -1.0798
 3526SOL     OW22036   0.313   4.720   7.806  0.0078 -0.2777  0.5741
 3526SOL    HW122037   0.324   0.071   7.746 -0.3914 -0.9397 -0.3239
 3526SOL    HW222038   0.219   4.700   7.805 -0.1464  0.5383 -0.7720
 3527SOL     OW22039   0.420   1.779   4.755  0.1555 -0.1936 -0.1364
 3527SOL    HW122040   0.404   1.701   4.808 -1.1715 -0.0520 -0.3272
 3527SOL    HW222041   0.449   1.744   4.670 -1.1378  3.1519 -1.9480
 3528SOL     OW22042   4.257   1.684   5.500  0.0386  0.1304 -0.3645
 3528SOL    HW122043   4.321   1.639   5.444 -1.6780  0.4796 -2.5806
 3528SOL    HW222044   4.202   1.608   5.517  0.8601 -1.1428 -3.4379
 3529SOL     OW22045   1.191   2.425   9.860 -0.4795 -0.4972  0.3170
 3529SOL    HW122046   1.257   2.404   9.794  1.6618  0.8328  2.0232
 3529SOL    HW222047   1.161   2.512   9.835  3.7854  0.8083 -0.3481
 3530SOL     OW22048   4.112   3.787   4.761 -0.0371 -0.2708  0.5755
 3530SOL    HW122049   4.084   3.696   4.768  0.4335 -0.4364  0.3154
 3530SOL    HW222050   4.057   3.827   4.829 -1.2827 -0.4344 -0.3499
 3531SOL     OW22051   0.504   4.698   5.222  0.4289 -0.6807 -0.0118
 3531SOL    HW122052   0.521   4.604   5.224  1.6341 -0.4365  1.1134
 3531SOL    HW222053   0.535   4.714   5.133  2.3178 -1.3930  0.5146
 3532SOL     OW22054   2.252   3.095   2.819  0.0866 -0.5606  0.0677
 3532SOL    HW122055   2.285   3.097   2.729  0.4027  1.0322  0.2258
 3532SOL    HW222056   2.325   3.040   2.848  0.9963  0.3377 -0.5134
 3533SOL     OW22057   0.524   0.668  11.926  0.2600 -0.3117  0.4929
 3533SOL    HW122058   0.461   0.626  11.868 -0.5179  0.8536  0.4821
 3533SOL    HW222059   0.599   0.615  11.901 -0.0766 -0.8278  0.5893
 3534SOL     OW22060   1.713   0.234   5.964  0.1603  0.0080 -0.1137
 3534SOL    HW122061   1.731   0.280   5.882 -1.3067  0.2613 -0.2983
 3534SOL    HW222062   1.617   0.232   5.967  0.1335  1.5384  0.4124
 3535SOL     OW22063   2.372   1.408   9.205  0.3948  0.2298 -0.0765
 3535SOL    HW122064   2.410   1.320   9.200  1.2242  0.5618  0.2383
 3535SOL    HW222065   2.421   1.434   9.283  0.3173 -0.4833  0.2063
 3536SOL     OW22066   3.799   4.069   6.756 -0.3539 -0.5564  0.3902
 3536SOL    HW122067   3.729   4.004   6.746  0.6782 -1.3695 -1.5066
 3536SOL    HW222068   3.797   4.111   6.670 -1.8050 -0.8540  0.2785
 3537SOL     OW22069   0.867   1.051   4.074  0.0385  0.8035  0.1432
 3537SOL    HW122070   0.789   0.998   4.086  0.9750 -0.7006 -0.3912
 3537SOL    HW222071   0.887   1.056   3.980 -0.4909  0.4545  0.0178
 3538SOL     OW22072   2.364   2.256   9.100 -0.4617 -0.6218  0.6906
 3538SOL    HW122073   2.398   2.337   9.140  1.2310  0.0804 -2.1923
 3538SOL    HW222074   2.374   2.197   9.174 -0.0571  0.4732  1.5225
 3539SOL     OW22075   3.799   1.237   6.605 -0.3642 -0.3388 -0.0089
 3539SOL    HW122076   3.728   1.301   6.592 -0.1400  0.1869  1.3616
 3539SOL    HW222077   3.741   1.174   6.648 -0.1326  0.0848  0.9186
 3540SOL     OW22078   2.981   0.709   3.906 -0.5318 -0.6496  0.3081
 3540SOL    HW122079   2.930   0.788   3.925 -3.2549 -2.4762  0.6297
 3540SOL    HW222080   3.067   0.728   3.943 -0.3626 -1.4325  0.3062
 3541SOL     OW22081   4.468   1.110   9.460 -0.0110  0.3875 -0.1440
 3541SOL    HW122082   4.470   1.205   9.472 -1.2434  0.5465 -1.1407
 3541SOL    HW222083   4.549   1.099   9.412 -0.4953  1.9623 -1.3333
 3542SOL     OW22084   3.253   3.078   0.950 -0.6722 -0.1970 -0.1905
 3542SOL    HW122085   3.185   3.045   0.891 -0.2694 -2.3584  0.5574
 3542SOL    HW222086   3.291   3.158   0.914 -2.2395  0.7964  0.3563
 3543SOL     OW22087   2.953   3.163   6.947 -0.2203  0.5160  0.7418
 3543SOL    HW122088   3.037   3.208   6.937  0.4969 -0.5850  1.8875
 3543SOL    HW222089   2.901   3.234   6.984  0.7200 -0.0021  3.0545
 3544SOL     OW22090   3.206   3.994   3.436  0.3260 -0.0047  0.0116
 3544SOL    HW122091   3.256   3.932   3.489 -1.0651 -0.0806  1.2381
 3544SOL    HW222092   3.270   4.033   3.376  1.3295 -0.1246  0.9892
 3545SOL     OW22093   1.119   2.093   9.426  0.2694  0.4360 -0.2201
 3545SOL    HW122094   1.211   2.104   9.450  1.0332 -1.5940 -2.2319
 3545SOL    HW222095   1.124   2.143   9.344 -0.3420 -0.6860 -0.9467
 3546SOL     OW22096   0.359   0.390  10.900 -0.5051 -0.2523 -0.4318
 3546SOL    HW122097   0.408   0.316  10.864 -2.0874 -1.8042  0.5551
 3546SOL    HW222098   0.325   0.347  10.979  0.3983  1.3066  0.7937
 3547SOL     OW22099   1.469   2.548   4.148 -0.3638  0.0001 -0.3775
 3547SOL    HW122100   1.522   2.607   4.094  0.7698 -1.4297 -0.8144
 3547SOL    HW222101   1.506   2.467   4.113  1.5185  0.2923  0.9661
 3548SOL     OW22102   4.703   4.428   4.950 -0.4380 -0.2458 -0.8555
 3548SOL    HW122103   4.621   4.415   4.998 -1.4355  0.3547 -2.3894
 3548SOL    HW222104   0.045   4.429   5.021  0.0453  0.2658 -1.2981
 3549SOL     OW22105   0.222   1.466   9.689 -0.1812  0.1082 -0.0936
 3549SOL    HW122106   0.275   1.531   9.735  1.4242 -1.4048  0.1723
 3549SOL    HW222107   0.166   1.445   9.764 -1.2102  1.6858 -0.4161
 3550SOL     OW22108   1.589   0.377   6.906  0.5496 -0.1266 -0.1273
 3550SOL    HW122109   1.538   0.376   6.825  1.9903 -2.2655 -1.0291
 3550SOL    HW222110   1.637   0.296   6.885 -0.6741 -1.3984  1.9406
 3551SOL     OW22111   1.898   2.298   1.945  0.3978 -0.1082  0.2869
 3551SOL    HW122112   1.978   2.346   1.966  0.7590 -1.8060  2.7740
 3551SOL    HW222113   1.926   2.235   1.879 -2.1287  0.4261 -1.2957
 3552SOL     OW22114   1.335   0.083   7.918  0.1088 -0.2736 -0.2593
 3552SOL    HW122115   1.307   0.048   8.002  0.1998  2.8628  1.0780
 3552SOL    HW222116   1.293   0.023   7.857  1.6533 -0.8317 -0.7897
 3553SOL     OW22117   2.706   1.540   8.163 -0.5174  0.0019  0.1301
 3553SOL    HW122118   2.784   1.549   8.218 -0.2275 -4.6191  0.5069
 3553SOL    HW222119   2.653   1.618   8.179  1.3783  1.5915 -1.2614
 3554SOL     OW22120   1.856   2.435   8.950  0.1579 -0.5518  0.0667
 3554SOL    HW122121   1.829   2.366   8.889  3.9255 -0.8569 -1.2367
 3554SOL    HW222122   1.774   2.431   9.000  0.7352  1.3737  1.1697
 3555SOL     OW22123   1.807   0.333   3.612 -0.3228  0.3298  0.8447
 3555SOL    HW122124   1.785   0.400   3.677  1.5452  2.0895 -0.3337
 3555SOL    HW222125   1.783   0.384   3.535 -1.4304 -0.3780  0.7196
 3556SOL     OW22126   3.075   1.913   3.422 -0.2212  0.0695  0.3141
 3556SOL    HW122127   3.052   1.885   3.334 -1.8787  0.2149  0.6860
 3556SOL    HW222128   3.161   1.953   3.408  0.3190 -1.9731 -2.1147
 3557SOL     OW22129   1.804   2.820  10.733  0.0554 -0.2463 -0.8455
 3557SOL    HW122130   1.879   2.802  10.676 -0.7938  1.5735 -2.5320
 3557SOL    HW222131   1.734   2.804  10.669 -0.3965  0.7460 -0.5968
 3558SOL     OW22132   3.448   1.342  13.123 -0.5916  0.0557 -0.1441
 3558SOL    HW122133   3.496   1.359  13.204 -3.2396  0.2743  1.3756
 3558SOL    HW222134   3.486   1.398  13.056  1.1620 -0.6346  0.2728
 3559SOL     OW22135   2.474   3.628  15.488  0.2809 -0.2929 -0.4062
 3559SOL    HW122136   2.459   3.709  15.537 -1.4437  0.3501 -1.9782
 3559SOL    HW222137   2.561   3.605  15.520  0.3033  0.1291 -0.1637
 3560SOL     OW22138   1.459   3.718   8.082  0.1540 -0.4771 -0.3966
 3560SOL    HW122139   1.382   3.689   8.033 -1.4733 -0.2737  2.0616
 3560SOL    HW222140   1.424   3.781   8.144  1.6813  0.1345 -0.1615
 3561SOL     OW22141   1.685   3.257   1.729 -0.0102  0.4760 -0.1138
 3561SOL    HW122142   1.624   3.187   1.706  0.4752  0.5272 -1.5459
 3561SOL    HW222143   1.744   3.247   1.655 -0.0894 -1.2063  0.0491
 3562SOL     OW22144   3.055   2.730   9.474  0.1839  0.4873  0.4502
 3562SOL    HW122145   3.134   2.678   9.477 -0.8724 -1.1625 -0.2522
 3562SOL    HW222146   3.090   2.806   9.427  0.0268 -1.2800 -2.5668
 3563SOL     OW22147   2.672   1.311   2.179  0.3080 -0.6502 -0.2660
 3563SOL    HW122148   2.758   1.269   2.179  1.2718  1.3573  0.4123
 3563SOL    HW222149   2.675   1.354   2.093 -2.1754  0.1772  0.0783
 3564SOL     OW22150   3.204   0.245   0.431 -0.0904 -0.4037  0.0272
 3564SOL    HW122151   3.125   0.231   0.482 -0.3689 -1.4363 -0.6989
 3564SOL    HW222152   3.213   0.341   0.427 -0.4602 -0.3761 -0.1182
 3565SOL     OW22153   3.592   3.770   4.269 -0.0404 -0.2215  0.2633
 3565SOL    HW122154   3.651   3.821   4.324  2.3106 -1.4679 -1.1017
 3565SOL    HW222155   3.587   3.683   4.308  2.2035 -0.2569  0.4709
 3566SOL     OW22156   3.355   3.275   2.827 -0.3131  0.2705  0.3975
 3566SOL    HW122157   3.440   3.310   2.855 -0.2043  0.2380  0.1148
 3566SOL    HW222158   3.366   3.181   2.835  1.4132  0.3347 -1.0305
 3567SOL     OW22159   0.611   0.374   0.700 -0.2529  0.0267 -0.0279
 3567SOL    HW122160   0.689   0.419   0.732 -0.4461  0.5017 -0.2124
 3567SOL    HW222161   0.629   0.285   0.728 -0.2524  0.8945  2.7296
 3568SOL     OW22162   0.451   0.174   7.588 -0.0376  0.0550  0.0790
 3568SOL    HW122163   0.517   0.120   7.544  1.5740  0.0641  2.4632
 3568SOL    HW222164   0.448   0.242   7.521 -0.6105 -0.6520 -0.6055
 3569SOL     OW22165   3.172   3.430   0.788 -0.3910  0.5902  0.3618
 3569SOL    HW122166   3.188   3.524   0.793  0.1456  0.6088 -1.7071
 3569SOL    HW222167   3.254   3.394   0.824  1.2709  2.3351 -1.6640
 3570SOL     OW22168   4.094   1.839  14.442 -0.4254  0.1205  0.6195
 3570SOL    HW122169   4.171   1.783  14.450 -0.0039  0.5830 -0.2759
 3570SOL    HW222170   4.027   1.793  14.493 -0.3515 -0.5352  0.1243
 3571SOL     OW22171   3.939   0.494  17.416 -0.5477 -0.2349  0.0438
 3571SOL    HW122172   4.017   0.439  17.417 -0.0475  0.4862  0.1480
 3571SOL    HW222173   3.871   0.435  17.450  0.4626 -2.0473 -1.0997
 3572SOL     OW22174   1.134   2.515   3.972 -0.1126  0.5416  0.0983
 3572SOL    HW122175   1.189   2.548   3.902  0.0536  0.5819  0.2482
 3572SOL    HW222176   1.111   2.430   3.934 -2.2675  1.1345  0.0387
 3573SOL     OW22177   1.676   4.681   5.792  0.0187  0.2569 -0.4157
 3573SOL    HW122178   1.676   4.613   5.724 -0.5037  0.4788 -0.6367
 3573SOL    HW222179   1.637   0.031   5.744  0.5098 -0.2394 -1.5670
 3574SOL     OW22180   2.588   0.574   8.309  0.7629  0.0437 -0.0935
 3574SOL    HW122181   2.643   0.502   8.277 -1.2935 -0.7593 -1.8891
 3574SOL    HW222182   2.504   0.535   8.331  1.8611 -1.4458  1.4475
 3575SOL     OW22183   2.562   2.494   5.643 -0.1199 -0.1709 -0.0397
 3575SOL    HW122184   2.628   2.556   5.611  0.5512 -0.2507  1.1922
 3575SOL    HW222185   2.590   2.489   5.734 -0.8958  2.0969  0.3172
 3576SOL     OW22186   0.577   1.015   5.499 -0.6815  0.1259 -0.2572
 3576SOL    HW122187   0.538   1.097   5.530 -2.0773 -0.1882 -1.1891
 3576SOL    HW222188   0.599   0.978   5.585 -0.9420 -1.7803 -1.0207
 3577SOL     OW22189   1.030   4.224  10.042  0.0984 -0.4367  0.3235
 3577SOL    HW122190   1.123   4.242  10.050  0.2675 -0.3249 -1.7689
 3577SOL    HW222191   1.030   4.141   9.993 -0.4399 -0.3087  0.1052
 3578SOL     OW22192   0.481   3.644   7.494  0.2387 -0.5088 -0.1628
 3578SOL    HW122193   0.413   3.707   7.471  0.8138 -0.1464 -0.8730
 3578SOL    HW222194   0.470   3.577   7.427 -0.3665  0.8623 -1.4161
 3579SOL     OW22195   4.508   1.744   5.137  0.0754 -0.6363  0.1411
 3579SOL    HW122196   4.566   1.670   5.156  0.4771 -0.4981 -0.5480
 3579SOL    HW222197   4.503   1.748   5.041  0.8871 -1.6406  0.0476
 3580SOL     OW22198   4.315   2.095  10.301  0.2520 -0.1858 -0.2033
 3580SOL    HW122199   4.300   2.057  10.214  0.8594 -0.6968 -0.0853
 3580SOL    HW222200   4.359   2.172  10.267  0.5831 -1.4552 -2.6452
 3581SOL     OW22201   2.711   2.098   2.516 -0.2807 -0.8013  0.3981
 3581SOL    HW122202   2.794   2.128   2.481 -0.1860 -0.8046  0.6205
 3581SOL    HW222203   2.676   2.025   2.465 -1.3363  0.3301 -0.5056
 3582SOL     OW22204   1.717   0.256   7.608 -0.1500  0.1169  0.2730
 3582SOL    HW122205   1.656   0.311   7.656  0.1192 -0.1903  0.9652
 3582SOL    HW222206   1.709   0.169   7.648 -1.1696 -0.7657 -1.8233
 3583SOL     OW22207   3.593   4.138   7.128 -0.6033 -0.5897 -0.0330
 3583SOL    HW122208   3.569   4.216   7.078 -2.7445 -0.1866  1.6048
 3583SOL    HW222209   3.535   4.155   7.202  0.0554  1.6810 -0.0076
 3584SOL     OW22210   3.547   0.556  17.195 -0.2864 -0.5087 -0.0132
 3584SOL    HW122211   3.637   0.589  17.197 -0.5532  0.0835  2.7648
 3584SOL    HW222212   3.547   0.480  17.138 -0.3905 -1.4631  1.2707
 3585SOL     OW22213   0.451   4.179   8.449  0.2191  0.2199 -0.1653
 3585SOL    HW122214   0.392   4.110   8.420  0.3551 -0.1933  0.5626
 3585SOL    HW222215   0.505   4.135   8.514  0.2860  1.8695  0.8933
 3586SOL     OW22216   3.909   2.006   9.707 -0.6326  0.1836 -0.0159
 3586SOL    HW122217   3.834   2.037   9.657 -1.3425  0.7135  1.3959
 3586SOL    HW222218   3.866   1.962   9.780 -0.5744 -0.0884 -0.1463
 3587SOL     OW22219   1.705   1.385  10.125 -0.3919 -0.2081  0.0317
 3587SOL    HW122220   1.635   1.451  10.126  0.3490  0.6052 -1.5019
 3587SOL    HW222221   1.756   1.435  10.189  1.8561  1.1964 -2.8754
 3588SOL     OW22222   3.136   1.805   6.813 -0.5681  0.3636  0.7364
 3588SOL    HW122223   3.212   1.863   6.801  0.3671 -0.8604  0.7613
 3588SOL    HW222224   3.112   1.828   6.903  1.3683  0.8285  1.1327
 3589SOL     OW22225   1.514   1.639  13.130 -0.2132 -0.1389  0.1955
 3589SOL    HW122226   1.512   1.592  13.214 -0.3801  0.3803  0.4802
 3589SOL    HW222227   1.512   1.566  13.068  1.7106  1.4813 -1.7727
 3590SOL     OW22228   1.088   2.070   1.614 -0.1599 -0.0599 -1.0463
 3590SOL    HW122229   1.115   2.057   1.705 -1.0277  2.8512 -0.3943
 3590SOL    HW222230   0.994   2.085   1.619 -0.1654 -0.1293 -0.9302
 3591SOL     OW22231   0.142   0.766   7.185 -0.4926 -0.3667  0.4941
 3591SOL    HW122232   0.191   0.848   7.186 -1.6310  0.3218 -0.3885
 3591SOL    HW222233   0.184   0.718   7.256  0.5271 -1.4269 -0.8206
 3592SOL     OW22234   0.054   2.131   7.248  0.1619  0.0228 -0.4046
 3592SOL    HW122235   0.146   2.156   7.254 -0.0829  0.7493  0.2690
 3592SOL    HW222236   0.020   2.212   7.287 -0.0549 -0.2608 -0.0030
 3593SOL     OW22237   0.271   1.073  14.844  0.2030  0.1039 -0.0688
 3593SOL    HW122238   0.320   1.155  14.845 -0.3624  0.4441 -0.1094
 3593SOL    HW222239   0.325   1.033  14.776  2.5246  0.0975  1.7732
 3594SOL     OW22240   0.427   3.118   8.223 -0.2135  0.3517 -0.1174
 3594SOL    HW122241   0.454   3.196   8.174  0.7121  0.3501  0.3827
 3594SOL    HW222242   0.513   3.100   8.261 -1.5056 -1.7887  1.8737
 3595SOL     OW22243   0.186   0.636  15.293  0.5914  0.1159 -0.2299
 3595SOL    HW122244   0.216   0.673  15.376  0.9438  1.7983 -1.1107
 3595SOL    HW222245   0.142   0.716  15.263 -2.0254 -1.4676 -0.5811
 3596SOL     OW22246   4.470   3.746   7.384  0.0680 -0.5468 -0.0587
 3596SOL    HW122247   4.445   3.807   7.315 -0.5560 -2.4947 -1.5646
 3596SOL    HW222248   4.505   3.801   7.454 -1.3089 -0.6028  0.6747
 3597SOL     OW22249   4.240   2.616   1.986  0.1634 -0.4756  0.0005
 3597SOL    HW122250   4.212   2.688   2.043  0.8519 -2.0486  2.3406
 3597SOL    HW222251   4.300   2.576   2.049  2.1138 -0.5581 -1.9133
 3598SOL     OW22252   3.357   2.691   2.127  1.4138  0.0493 -0.4016
 3598SOL    HW122253   3.371   2.745   2.050 -2.5345 -0.6659 -1.6550
 3598SOL    HW222254   3.291   2.743   2.174  0.6571 -1.0421 -0.2319
 3599SOL     OW22255   2.482   1.835  10.614  0.4187 -0.1543 -0.3282
 3599SOL    HW122256   2.476   1.931  10.615 -0.1636 -0.1848 -0.7505
 3599SOL    HW222257   2.523   1.824  10.700 -3.1433  0.2305  1.4262
 3600SOL     OW22258   1.014   2.577  13.452  0.1070 -0.2388 -0.2650
 3600SOL    HW122259   0.993   2.670  13.467 -4.1147 -1.1573 -0.2775
 3600SOL    HW222260   0.925   2.551  13.479  0.8226 -0.3009  2.0546
 3601SOL     OW22261   2.010   4.507  13.474 -0.6153  0.1210 -0.1221
 3601SOL    HW122262   1.965   4.434  13.516 -0.3798  0.3132  0.4653
 3601SOL    HW222263   2.090   4.500  13.526 -0.5996 -0.7161 -0.2701
 3602SOL     OW22264   3.091   3.797   7.582 -0.0162  0.1842  0.1984
 3602SOL    HW122265   3.002   3.766   7.602  0.6788 -1.9864 -0.0189
 3602SOL    HW222266   3.089   3.883   7.622  0.6721  0.4239 -0.2836
 3603SOL     OW22267   0.055   4.636   7.732 -0.4301 -0.1816  0.5921
 3603SOL    HW122268   0.030   4.549   7.764 -0.0343  0.0477  1.5003
 3603SOL    HW222269   4.690   4.670   7.713 -0.3326 -0.0175  0.4350
 3604SOL     OW22270   0.873   4.525   6.193 -0.2392  0.2305  0.5864
 3604SOL    HW122271   0.896   4.459   6.127  2.9753  0.8618  1.0497
 3604SOL    HW222272   0.779   4.523   6.174 -0.2089  1.4737  0.2784
 3605SOL     OW22273   1.225   2.581   4.644  0.2875 -0.3893  0.2275
 3605SOL    HW122274   1.190   2.529   4.572 -0.2228  0.1498  0.0933
 3605SOL    HW222275   1.154   2.643   4.659 -0.2688 -0.9563 -0.0502
 3606SOL     OW22276   3.590   4.197   7.582 -0.3017  0.5215  0.0562
 3606SOL    HW122277   3.522   4.178   7.517  0.6614  1.2196 -1.1551
 3606SOL    HW222278   3.586   4.293   7.577  0.9219  0.6308  1.1552
 3607SOL     OW22279   0.801   4.574   9.683 -0.3040 -0.6464  0.2275
 3607SOL    HW122280   0.825   4.482   9.670 -0.7750 -0.7923  0.3772
 3607SOL    HW222281   0.784   4.584   9.777 -2.5554  0.8284 -0.3219
 3608SOL     OW22282   0.130   0.806  13.328  0.1893 -0.7384  0.3872
 3608SOL    HW122283   0.069   0.869  13.289  1.5369 -0.9035 -2.0078
 3608SOL    HW222284   0.182   0.785  13.250 -0.0062 -4.3487  1.2033
 3609SOL     OW22285   1.153   1.481   6.377  0.2797 -0.1480 -0.1161
 3609SOL    HW122286   1.095   1.470   6.453  0.7739  0.2410  0.3125
 3609SOL    HW222287   1.114   1.412   6.324  0.2693  0.8376 -1.3927
 3610SOL     OW22288   4.271   1.545  11.913 -0.2181  0.4357 -0.0391
 3610SOL    HW122289   4.311   1.475  11.861  0.9093  1.3511 -0.3988
 3610SOL    HW222290   4.347   1.564  11.968  0.2948 -2.1978  0.1603
 3611SOL     OW22291   2.279   0.869  11.177 -0.4026 -0.0162  0.2183
 3611SOL    HW122292   2.273   0.929  11.103  0.1310 -2.5910 -1.8943
 3611SOL    HW222293   2.251   0.938  11.238 -1.0815  0.2126 -0.3633
 3612SOL     OW22294   2.903   0.918   1.451 -0.9374  0.2857 -0.4853
 3612SOL    HW122295   2.893   0.943   1.360  0.7346 -1.1042 -1.0411
 3612SOL    HW222296   2.854   0.987   1.496  1.3138  2.0340 -0.7883
 3613SOL     OW22297   2.035   1.126   4.863  0.3989  0.1943 -0.3828
 3613SOL    HW122298   2.057   1.166   4.779  1.7901 -0.3211 -0.2569
 3613SOL    HW222299   2.017   1.040   4.826 -0.8067  0.4116 -0.3194
 3614SOL     OW22300   2.728   2.742   0.633 -0.5230  0.3120 -0.2916
 3614SOL    HW122301   2.758   2.752   0.543  1.5610 -2.4831  0.1001
 3614SOL    HW222302   2.636   2.769   0.629 -0.5981  0.0666 -0.2266
 3615SOL     OW22303   0.942   1.642   9.795 -0.2105 -0.6351 -0.1556
 3615SOL    HW122304   1.037   1.637   9.808  0.0682 -1.9294 -2.7712
 3615SOL    HW222305   0.933   1.702   9.721 -0.8047  1.0221  1.2477
 3616SOL     OW22306   0.915   4.252   6.836 -0.1034  0.0839 -0.3675
 3616SOL    HW122307   0.985   4.247   6.902 -1.7944 -0.0332  1.4106
 3616SOL    HW222308   0.914   4.345   6.814 -0.7258 -0.4406 -2.5012
 3617SOL     OW22309   0.928   4.171  17.271  0.1468  0.2925 -0.4994
 3617SOL    HW122310   0.968   4.156  17.185 -0.9041 -2.4634 -0.5157
 3617SOL    HW222311   1.006   4.157  17.325 -0.3904  0.8792  0.4349
 3618SOL     OW22312   0.104   4.481   7.177 -0.1013  0.3756  0.1674
 3618SOL    HW122313   0.037   4.512   7.237  1.8530  0.3550  2.3592
 3618SOL    HW222314   0.088   4.533   7.098 -0.0233  1.2790  0.7401
 3619SOL     OW22315   2.781   4.279  15.627  0.2723  0.2841  0.2125
 3619SOL    HW122316   2.815   4.328  15.551 -0.0129 -0.5986 -0.4755
 3619SOL    HW222317   2.819   4.194  15.606  0.2753  0.2364  0.4133
 3620SOL     OW22318   0.806   2.782   1.460 -0.4413  0.0402 -0.1161
 3620SOL    HW122319   0.771   2.840   1.527  0.6481  0.9951 -0.3681
 3620SOL    HW222320   0.899   2.804   1.463 -0.4622  0.0586  0.4432
 3621SOL     OW22321   3.166   2.967   3.177  0.0511  0.4222 -0.7180
 3621SOL    HW122322   3.076   2.980   3.205  0.5124  0.2016  0.9091
 3621SOL    HW222323   3.159   2.889   3.121 -0.5014 -0.2749  0.3262
 3622SOL     OW22324   1.432   4.672   9.594 -0.4256  0.3577  0.1011
 3622SOL    HW122325   1.491   4.713   9.658 -1.3483  1.6959  0.1090
 3622SOL    HW222326   1.379   0.026   9.571  1.0087  0.6950 -2.0685
 3623SOL     OW22327   4.608   2.888   8.981 -0.2388  0.0159  0.0582
 3623SOL    HW122328   4.517   2.916   8.970 -0.2606  1.2705  3.4050
 3623SOL    HW222329   4.632   2.883   8.888 -2.3101 -0.8864 -0.4272
 3624SOL     OW22330   1.182   2.107  15.959  0.2517  0.0900 -0.4444
 3624SOL    HW122331   1.244   2.093  15.888  1.8934  0.1641  0.9477
 3624SOL    HW222332   1.225   2.164  16.023  1.1828 -0.3657 -0.6647
 3625SOL     OW22333   0.813   3.633   6.042 -0.1093 -0.3731  0.1275
 3625SOL    HW122334   0.880   3.616   5.976 -0.3081  2.6827 -0.8844
 3625SOL    HW222335   0.856   3.609   6.123 -2.8784 -0.2955  1.6386
 3626SOL     OW22336   4.592   4.191   0.321  0.3366  0.2152  0.2792
 3626SOL    HW122337   4.681   4.175   0.351 -0.0724 -0.7810  0.9531
 3626SOL    HW222338   4.547   4.183   0.405  2.3965  0.3870  1.3741
 3627SOL     OW22339   1.561   4.487   6.237 -0.0563  0.2517  0.1168
 3627SOL    HW122340   1.534   4.539   6.161  0.7018  2.2104  1.2019
 3627SOL    HW222341   1.655   4.500   6.240  0.0113 -0.7557  2.5279
 3628SOL     OW22342   2.098   3.141   0.467 -0.1589 -0.2971 -0.1150
 3628SOL    HW122343   2.170   3.186   0.422  1.2889 -0.5139  1.9335
 3628SOL    HW222344   2.073   3.083   0.395  0.1220 -1.0683  0.4037
 3629SOL     OW22345   0.246   1.348   8.238  0.7864  0.1580  0.2666
 3629SOL    HW122346   0.322   1.290   8.233  0.2933 -0.4347 -0.4289
 3629SOL    HW222347   0.245   1.377   8.147  2.8976  0.5961  0.3933
 3630SOL     OW22348   0.048   1.224   8.023  0.3407  0.1082  0.5356
 3630SOL    HW122349   0.116   1.165   8.054 -0.9847 -0.4627  2.3888
 3630SOL    HW222350   0.104   1.287   7.979 -0.1446 -1.1209 -1.8744
 3631SOL     OW22351   0.913   4.516   6.790 -1.0650 -1.0667 -0.2998
 3631SOL    HW122352   0.942   4.543   6.877 -1.9361 -1.6745  0.1746
 3631SOL    HW222353   0.855   4.592   6.776  0.4167 -0.4818 -3.2578
 3632SOL     OW22354   2.745   4.469   7.445  0.6408  0.0392 -0.0936
 3632SOL    HW122355   2.653   4.486   7.466  0.5390 -2.5474  1.5983
 3632SOL    HW222356   2.741   4.440   7.354 -2.5100  2.2553 -0.6514
 3633SOL     OW22357   4.374   2.349   3.481  0.1421  0.8453  0.2267
 3633SOL    HW122358   4.377   2.392   3.566 -1.3614 -0.6796  1.0463
 3633SOL    HW222359   4.353   2.417   3.416 -1.0995 -1.5004 -1.8179
 3634SOL     OW22360   1.983   4.319  11.239 -0.0627 -0.0609  0.2018
 3634SOL    HW122361   1.994   4.254  11.308  1.3243  0.8944  0.8921
 3634SOL    HW222362   2.018   4.397  11.283  0.2915  0.2367 -0.5984
 3635SOL     OW22363   2.853   1.217   2.762  0.3172  0.0926  0.4375
 3635SOL    HW122364   2.911   1.272   2.709 -0.7748 -0.0867 -0.9423
 3635SOL    HW222365   2.917   1.158   2.801 -2.7513 -3.5955 -0.1076
 3636SOL     OW22366   2.604   3.551   7.732  0.0465 -0.2086 -0.1514
 3636SOL    HW122367   2.518   3.511   7.747  0.6671 -2.0074 -1.3709
 3636SOL    HW222368   2.659   3.490   7.781  1.7596 -0.2589 -2.1289
 3637SOL     OW22369   3.994   0.298   6.127  0.2958 -0.0818  0.3817
 3637SOL    HW122370   3.910   0.343   6.116 -0.7959 -2.1839  0.1049
 3637SOL    HW222371   4.027   0.325   6.042  0.7922 -0.7061  0.3760
 3638SOL     OW22372   1.022   2.953   6.402  0.3080  0.0407 -0.4767
 3638SOL    HW122373   1.036   2.892   6.330 -0.6418 -0.2298 -0.4271
 3638SOL    HW222374   0.992   3.026   6.348  1.1640  1.4070  0.8940
 3639SOL     OW22375   1.423   2.267   4.410 -0.0696 -0.1097  0.1542
 3639SOL    HW122376   1.461   2.302   4.491 -1.8049 -0.0347  0.9434
 3639SOL    HW222377   1.335   2.304   4.417 -0.0525 -0.1574  0.6901
 3640SOL     OW22378   2.919   4.059  16.362 -0.1062  0.0246  0.8139
 3640SOL    HW122379   2.927   4.022  16.274 -0.7832  0.8303  0.4142
 3640SOL    HW222380   2.828   4.089  16.370 -0.5364 -0.8173 -0.8807
 3641SOL     OW22381   1.575   2.001  13.444  0.0739 -0.2254  0.0553
 3641SOL    HW122382   1.515   1.958  13.384 -0.4737  0.4991  0.0833
 3641SOL    HW222383   1.540   1.979  13.530  0.5439  0.7915  0.5113
 3642SOL     OW22384   0.418   4.409   9.799 -0.2773 -0.4617  0.0235
 3642SOL    HW122385   0.448   4.390   9.710  0.6188  1.9020 -0.1967
 3642SOL    HW222386   0.492   4.376   9.850  0.0410 -0.1555 -0.2371
 3643SOL     OW22387   3.626   0.519   6.485 -0.9039 -0.2122 -0.0791
 3643SOL    HW122388   3.569   0.595   6.470 -0.0113  0.7318  1.3722
 3643SOL    HW222389   3.682   0.554   6.553 -1.1108 -1.0427  0.5133
 3644SOL     OW22390   0.323   3.059   4.082 -0.4098  0.4364 -0.2302
 3644SOL    HW122391   0.314   3.085   4.173  0.0992  1.3164 -0.4295
 3644SOL    HW222392   0.375   3.127   4.040 -3.1417  2.1429 -0.8541
 3645SOL     OW22393   3.559   3.190   4.423  0.1286  0.0523 -0.0956
 3645SOL    HW122394   3.655   3.201   4.426 -0.1418  3.7730 -4.4943
 3645SOL    HW222395   3.538   3.196   4.516 -1.0479  1.6456 -0.4675
 3646SOL     OW22396   0.533   0.617   4.946  0.6886  0.8405 -0.6225
 3646SOL    HW122397   0.439   0.602   4.959  1.1351  0.3717  1.8932
 3646SOL    HW222398   0.569   0.539   4.988  1.2691  1.3997 -0.0951
 3647SOL     OW22399   4.190   0.370  13.215 -0.0888  0.0961 -0.0053
 3647SOL    HW122400   4.246   0.442  13.244 -0.4191  0.8285 -1.1790
 3647SOL    HW222401   4.131   0.433  13.172  0.2256 -0.4267 -1.2161
 3648SOL     OW22402   3.878   1.872   1.522 -0.0915 -0.5234  0.2342
 3648SOL    HW122403   3.942   1.942   1.520 -0.4875 -0.1721 -0.0156
 3648SOL    HW222404   3.794   1.908   1.496  0.5550  0.0159 -1.0551
 3649SOL     OW22405   2.005   0.673   5.041  0.2844 -0.0900  0.0333
 3649SOL    HW122406   2.036   0.717   5.121  0.0885  0.6193 -0.2774
 3649SOL    HW222407   1.943   0.614   5.084 -0.1988  2.0061  2.2277
 3650SOL     OW22408   4.337   2.088  10.023 -0.3615 -0.1310  0.5834
 3650SOL    HW122409   4.372   2.046   9.944 -0.8621 -1.2612  0.9652
 3650SOL    HW222410   4.325   2.181  10.006 -0.7167 -0.2762  0.0253
 3651SOL     OW22411   2.002   4.538   3.145  0.0985 -0.1469  0.3429
 3651SOL    HW122412   2.001   4.573   3.056 -1.1406 -0.8219  0.1016
 3651SOL    HW222413   1.920   4.569   3.183  0.0985 -0.7469  0.8398
 3652SOL     OW22414   4.617   0.465   3.968  0.7930 -0.3079 -0.3999
 3652SOL    HW122415   4.652   0.394   3.913  1.4941 -1.8908  2.0600
 3652SOL    HW222416   4.553   0.501   3.907 -0.9003  0.0527  1.5845
 3653SOL     OW22417   2.578   0.443  16.590  0.1441 -0.0623 -0.2159
 3653SOL    HW122418   2.540   0.422  16.675  0.6447 -0.0152  0.0188
 3653SOL    HW222419   2.548   0.377  16.527  0.0715  0.9009 -1.1758
 3654SOL     OW22420   0.761   3.143   9.081  0.3781  0.2987  0.0909
 3654SOL    HW122421   0.836   3.085   9.073  0.3308  0.0753  1.3283
 3654SOL    HW222422   0.700   3.102   9.020 -1.4773  1.6678  1.0032
 3655SOL     OW22423   3.416   0.726   8.655  0.2115 -0.6274 -0.1120
 3655SOL    HW122424   3.374   0.779   8.723  2.2591  0.5965  0.2067
 3655SOL    HW222425   3.480   0.788   8.620 -1.8613  1.4285 -0.2278
 3656SOL     OW22426   0.063   1.652   0.594  0.6270 -0.1550 -0.7284
 3656SOL    HW122427   0.156   1.643   0.614  0.1751 -2.0085  0.5934
 3656SOL    HW222428   0.029   1.701   0.669 -1.0772 -1.8234 -0.4104
 3657SOL     OW22429   3.432   0.726   3.550  0.1709 -0.1704 -0.5301
 3657SOL    HW122430   3.398   0.637   3.550 -0.5578  0.1040  3.1885
 3657SOL    HW222431   3.491   0.708   3.477  1.1280 -0.2681  0.2607
 3658SOL     OW22432   2.029   3.953   7.914 -0.3551  0.1980 -0.0290
 3658SOL    HW122433   2.070   4.016   7.973 -1.1941  1.3424 -0.6616
 3658SOL    HW222434   1.944   3.992   7.896 -0.9564 -0.8511  0.5456
 3659SOL     OW22435   1.845   3.930   6.389 -0.3847 -0.5452  0.6586
 3659SOL    HW122436   1.758   3.961   6.415 -1.2748 -1.6114 -1.0738
 3659SOL    HW222437   1.822   3.839   6.373 -1.4912  0.1973 -2.0366
 3660SOL     OW22438   0.941   1.044   9.101 -0.8168  0.2558  0.2818
 3660SOL    HW122439   0.932   1.101   9.024 -2.7174 -0.9180 -0.3438
 3660SOL    HW222440   1.021   1.083   9.136 -0.5815  0.7871 -0.8524
 3661SOL     OW22441   0.341   1.812   3.592  0.9435 -0.8105 -0.0865
 3661SOL    HW122442   0.389   1.789   3.672 -1.0574 -3.7847  0.2536
 3661SOL    HW222443   0.249   1.787   3.603  0.8000 -0.3095 -0.1316
 3662SOL     OW22444   0.928   0.196   9.165  0.4731  0.2436 -0.7422
 3662SOL    HW122445   0.917   0.274   9.112 -1.5582 -1.9322 -3.5225
 3662SOL    HW222446   1.020   0.192   9.190 -0.0471  0.6885  1.2808
 3663SOL     OW22447   3.990   0.915   4.885  0.1739  0.2084 -0.0269
 3663SOL    HW122448   3.928   0.930   4.956  1.4819  2.0256  0.7241
 3663SOL    HW222449   3.942   0.844   4.843  2.3995 -0.2555 -1.8333
 3664SOL     OW22450   1.066   4.246   2.276  0.4672 -0.0660  0.3602
 3664SOL    HW122451   1.101   4.329   2.244 -1.0337 -0.1780 -1.6081
 3664SOL    HW222452   1.132   4.183   2.245 -0.1149 -0.0965 -0.8200
 3665SOL     OW22453   2.331   2.415  15.139  0.2452 -0.5583 -0.4932
 3665SOL    HW122454   2.392   2.487  15.124 -0.4139 -0.2126 -1.5307
 3665SOL    HW222455   2.259   2.452  15.189  0.8665  0.7054 -0.5364
 3666SOL     OW22456   4.345   3.302   3.379  0.7626  0.1053  0.0400
 3666SOL    HW122457   4.266   3.336   3.336  0.9892 -0.7227 -1.0543
 3666SOL    HW222458   4.322   3.209   3.372 -0.7968  0.4280  1.0309
 3667SOL     OW22459   0.974   4.635   8.698 -0.2064 -0.0192 -0.1458
 3667SOL    HW122460   1.055   4.686   8.688  0.3635 -1.3291 -2.1314
 3667SOL    HW222461   0.938   4.658   8.784 -2.3935  0.5616 -1.2291
 3668SOL     OW22462   3.078   3.763   9.104 -0.0531 -0.1229  0.0505
 3668SOL    HW122463   3.079   3.700   9.176  1.3112  0.6255  0.7027
 3668SOL    HW222464   3.007   3.724   9.053 -0.7810  0.2822  0.7495
 3669SOL     OW22465   2.025   2.956   8.033 -0.6534 -0.0203 -0.1878
 3669SOL    HW122466   2.023   2.986   7.942  1.9684 -0.0473 -0.2428
 3669SOL    HW222467   2.067   2.871   8.014  0.5851  0.3660  0.8662
 3670SOL     OW22468   3.636   1.840   7.000  0.1506  0.1699 -0.5792
 3670SOL    HW122469   3.663   1.754   6.968  2.5237  0.7095 -0.0097
 3670SOL    HW222470   3.720   1.879   7.023  0.4817  1.3661 -3.7566
 3671SOL     OW22471   2.023   4.569   9.731  0.0988  0.1830  0.2279
 3671SOL    HW122472   2.091   4.635   9.744  0.8480 -0.0999 -2.1557
 3671SOL    HW222473   2.063   4.505   9.672  1.8295  4.3889 -3.1975
 3672SOL     OW22474   4.367   2.634   2.349 -0.5367  0.2237 -0.3205
 3672SOL    HW122475   4.304   2.704   2.333 -1.4699 -0.5923 -0.2213
 3672SOL    HW222476   4.396   2.616   2.259  2.0598 -0.4619  0.6579
 3673SOL     OW22477   3.216   0.148   4.253  0.0952 -0.5259  0.2044
 3673SOL    HW122478   3.190   0.102   4.333 -1.6581  1.0564  0.5278
 3673SOL    HW222479   3.147   0.119   4.195  0.8082 -1.2888 -0.2734
 3674SOL     OW22480   3.094   3.611   9.664  0.0001  0.6548 -0.2393
 3674SOL    HW122481   3.066   3.625   9.755  3.3530  0.6853  0.7903
 3674SOL    HW222482   3.072   3.518   9.665 -1.8301  1.0805 -1.3824
 3675SOL     OW22483   0.366   0.054  11.320  0.5957  0.1938 -0.0577
 3675SOL    HW122484   0.300   0.049  11.390  0.3431 -0.7055 -0.3613
 3675SOL    HW222485   0.437   0.094  11.369 -0.6701 -0.4226  2.3194
 3676SOL     OW22486   2.621   4.237   3.637  0.7793 -0.0571  0.2918
 3676SOL    HW122487   2.557   4.303   3.665  0.2908 -1.1698  1.8305
 3676SOL    HW222488   2.667   4.220   3.720 -1.1496 -1.7985  1.0069
 3677SOL     OW22489   2.289   4.303   6.076  0.1039  0.4023  0.4968
 3677SOL    HW122490   2.373   4.275   6.113  0.6630 -0.5018 -1.4272
 3677SOL    HW222491   2.281   4.265   5.988 -1.6280  0.1169  0.7862
 3678SOL     OW22492   1.457   1.583   1.630  0.0565 -0.0042 -0.6721
 3678SOL    HW122493   1.400   1.647   1.586  1.2881  1.3937 -0.2326
 3678SOL    HW222494   1.389   1.525   1.665  0.4765  0.7604  1.3647
 3679SOL     OW22495   1.941   3.650   3.674 -0.5934  0.3075 -0.0596
 3679SOL    HW122496   1.930   3.673   3.582 -3.9442 -1.6688 -0.1695
 3679SOL    HW222497   1.849   3.648   3.700 -0.7923 -0.5399 -0.8401
 3680SOL     OW22498   3.609   1.624   7.772 -0.5730 -0.6267  0.4470
 3680SOL    HW122499   3.605   1.706   7.821 -0.3208  0.9211 -2.1106
 3680SOL    HW222500   3.518   1.594   7.772 -1.1960  1.3040 -1.6264
 3681SOL     OW22501   0.363   3.013   8.539 -0.3874  0.0108  0.2584
 3681SOL    HW122502   0.432   2.961   8.497  0.9039  1.7020  0.2763
 3681SOL    HW222503   0.370   2.983   8.629 -3.4568  0.4235  0.6345
 3682SOL     OW22504   1.033   2.474   8.001 -0.1074 -0.3530  0.5340
 3682SOL    HW122505   1.112   2.500   7.953 -1.5230 -1.3858 -2.3578
 3682SOL    HW222506   0.982   2.432   7.932  0.7314  1.3033 -1.0807
 3683SOL     OW22507   2.668   4.086   1.037 -0.1530 -0.0914 -0.8486
 3683SOL    HW122508   2.659   4.028   0.961 -1.4541 -0.9343 -0.0329
 3683SOL    HW222509   2.691   4.171   0.998  0.5340  1.0840  2.1208
 3684SOL     OW22510   4.494   3.706   8.169  0.1327 -0.2657  0.1032
 3684SOL    HW122511   4.551   3.631   8.185  1.3861  1.7838  5.2097
 3684SOL    HW222512   4.496   3.744   8.257 -1.0640 -2.0761  0.9138
 3685SOL     OW22513   0.443   3.745   9.176 -0.0350  0.1829 -0.0072
 3685SOL    HW122514   0.446   3.722   9.269 -1.2512 -0.4868 -0.1212
 3685SOL    HW222515   0.402   3.660   9.158 -1.7753  1.1799 -0.7277
 3686SOL     OW22516   0.989   1.536  16.874  0.0208  0.1299  0.1835
 3686SOL    HW122517   0.942   1.576  16.947  0.4179  1.6175 -0.3838
 3686SOL    HW222518   0.919   1.497  16.821  0.5616 -0.0293 -0.4055
 3687SOL     OW22519   4.720   3.739  11.996  0.4728  0.4072 -0.6937
 3687SOL    HW122520   0.046   3.658  11.979  1.6545  0.8941  0.4394
 3687SOL    HW222521   4.693   3.728  12.087  1.5644  0.2171 -0.3901
 3688SOL     OW22522   2.922   0.209   6.917  0.4395  1.0991  0.1950
 3688SOL    HW122523   2.888   0.220   7.006  0.3358 -2.5603  0.6137
 3688SOL    HW222524   2.932   0.302   6.897 -0.2832  1.6147  2.1809
 3689SOL     OW22525   4.164   1.218   7.253  0.5398 -0.6049 -0.3563
 3689SOL    HW122526   4.191   1.283   7.188 -0.0492  0.8081  0.8166
 3689SOL    HW222527   4.218   1.250   7.325  2.0104  1.1776 -2.2518
 3690SOL     OW22528   0.079   1.261   7.272 -0.7391 -0.8420  0.2283
 3690SOL    HW122529   4.709   1.244   7.253 -0.3623 -2.7606  0.1251
 3690SOL    HW222530   0.094   1.354   7.253 -0.1964 -0.0616  4.4307
 3691SOL     OW22531   0.330   0.649   5.553  0.4136 -0.7085  0.3122
 3691SOL    HW122532   0.354   0.672   5.642  0.5247 -0.7588  0.2952
 3691SOL    HW222533   0.344   0.554   5.544 -0.5305 -0.7299 -1.0343
 3692SOL     OW22534   3.651   0.612   7.259  0.7420  0.3840  0.4134
 3692SOL    HW122535   3.679   0.654   7.340  2.0782 -1.8137  1.0803
 3692SOL    HW222536   3.559   0.595   7.279  0.6656 -1.0244 -1.1327
 3693SOL     OW22537   1.547   4.156  15.667  0.6231  0.7638 -0.0027
 3693SOL    HW122538   1.492   4.107  15.606  0.2739 -0.4237  1.2406
 3693SOL    HW222539   1.609   4.188  15.603 -0.0333  0.9312 -0.5557
 3694SOL     OW22540   1.403   2.206  16.368  0.3093 -0.1054  0.5267
 3694SOL    HW122541   1.346   2.132  16.348  0.5860 -0.4143  0.8555
 3694SOL    HW222542   1.451   2.172  16.444 -1.5665 -1.7686  0.9669
 3695SOL     OW22543   0.385   2.758   6.014 -0.4305  0.2494  0.6729
 3695SOL    HW122544   0.325   2.685   5.999  0.2074 -0.1644  0.1380
 3695SOL    HW222545   0.467   2.710   6.023 -0.4572  0.2510  0.9204
 3696SOL     OW22546   3.774   2.526   5.859  0.5040  0.2412 -0.2139
 3696SOL    HW122547   3.856   2.496   5.899  2.1407  2.2327 -2.0765
 3696SOL    HW222548   3.753   2.446   5.812  1.0007 -1.1172  1.9058
 3697SOL     OW22549   1.715   3.196   4.023  0.0927 -0.7718  0.3118
 3697SOL    HW122550   1.764   3.225   3.946 -0.1545 -1.7621 -0.2198
 3697SOL    HW222551   1.783   3.156   4.077 -1.3201 -0.5218  2.2613
 3698SOL     OW22552   0.879   1.084   2.156  0.0947 -0.5311 -0.0632
 3698SOL    HW122553   0.794   1.073   2.198  0.8955  0.0159  1.7316
 3698SOL    HW222554   0.880   1.013   2.092  0.7998 -0.7108  0.1511
 3699SOL     OW22555   1.982   0.971   8.801 -0.4894 -0.1788 -0.3515
 3699SOL    HW122556   1.947   0.964   8.890  1.8699  0.9083  0.6613
 3699SOL    HW222557   2.075   0.963   8.822 -0.2657  0.6618 -1.0523
 3700SOL     OW22558   0.088   1.824   6.055 -0.2859  0.0982 -0.5637
 3700SOL    HW122559   0.159   1.838   6.117  0.7358  1.0694 -1.9502
 3700SOL    HW222560   0.137   1.837   5.973 -0.3419  2.2553 -0.2395
 3701SOL     OW22561   3.051   1.894   2.385 -0.0421 -0.1236  0.4279
 3701SOL    HW122562   3.129   1.921   2.337  1.6984 -1.7053  2.3462
 3701SOL    HW222563   2.989   1.894   2.312 -0.9659  0.9475  1.2049
 3702SOL     OW22564   2.915   2.948   6.143  0.2480  0.4486 -0.2023
 3702SOL    HW122565   2.858   2.913   6.211 -0.9264  2.2661 -0.2400
 3702SOL    HW222566   2.976   2.874   6.136 -0.1048  0.0056  1.3227
 3703SOL     OW22567   3.696   3.983   8.605 -0.2596  0.0867  0.8300
 3703SOL    HW122568   3.665   3.900   8.570 -0.1043  0.0275  0.8343
 3703SOL    HW222569   3.646   4.050   8.558  2.0252  0.4794 -1.0655
 3704SOL     OW22570   1.894   0.241   3.309 -0.1275 -0.5501 -0.2706
 3704SOL    HW122571   1.926   0.233   3.219 -0.2158 -1.4370 -0.2231
 3704SOL    HW222572   1.842   0.322   3.309 -0.4372 -0.7444 -0.9755
 3705SOL     OW22573   1.589   0.002   1.926 -0.0939  0.4126 -0.2699
 3705SOL    HW122574   1.626   0.036   1.844 -0.7037  1.0684 -0.2813
 3705SOL    HW222575   1.592   0.084   1.975  1.1268  0.4318 -0.3886
 3706SOL     OW22576   0.367   0.810  15.127  0.1111  0.4868  0.0808
 3706SOL    HW122577   0.393   0.839  15.039 -0.4760 -1.3643 -0.7146
 3706SOL    HW222578   0.451   0.784  15.165 -0.5941 -2.8182 -0.6455
 3707SOL     OW22579   2.486   1.405   9.638  0.3757 -0.4402  0.1166
 3707SOL    HW122580   2.464   1.450   9.719  0.8580  0.3026 -0.1697
 3707SOL    HW222581   2.418   1.338   9.634 -0.3343  0.4474 -1.9773
 3708SOL     OW22582   3.854   1.827  14.813  0.4760  0.0547  0.4608
 3708SOL    HW122583   3.934   1.775  14.808  0.4717  0.0419  0.5135
 3708SOL    HW222584   3.853   1.842  14.908 -0.6556 -0.4141  0.5277
 3709SOL     OW22585   0.800   1.212   3.070  1.0081  0.5783 -0.2328
 3709SOL    HW122586   0.743   1.196   3.146  1.2531  0.4251 -0.0829
 3709SOL    HW222587   0.866   1.145   3.088 -0.0187 -0.5603 -0.6572
 3710SOL     OW22588   0.397   1.840   7.979  0.2269 -0.4480  0.1546
 3710SOL    HW122589   0.414   1.904   7.910  0.2533 -0.0646  0.5176
 3710SOL    HW222590   0.342   1.890   8.039 -0.7528 -0.4377 -0.7366
 3711SOL     OW22591   0.497   0.187  10.764  0.2687  0.2406 -0.0978
 3711SOL    HW122592   0.440   0.116  10.795  1.0191 -1.1814 -2.0238
 3711SOL    HW222593   0.537   0.153  10.685 -0.3604 -0.0423 -0.2996
 3712SOL     OW22594   0.103   0.693  16.432 -0.1228  0.3440 -0.2565
 3712SOL    HW122595   0.120   0.624  16.496 -4.5504  0.6038  1.1938
 3712SOL    HW222596   0.140   0.641  16.361  1.6331 -0.0979  0.9672
 3713SOL     OW22597   0.521   2.322   5.700 -0.0298  0.4381  0.4182
 3713SOL    HW122598   0.597   2.348   5.648 -1.0486  0.2068 -1.1912
 3713SOL    HW222599   0.460   2.368   5.643  0.1702  0.9403  0.6158
 3714SOL     OW22600   2.476   3.704   8.058 -0.4589  0.0075  0.5246
 3714SOL    HW122601   2.455   3.731   7.969 -0.0128 -2.0128 -0.2016
 3714SOL    HW222602   2.471   3.609   8.046  0.6527  0.3199 -2.2841
 3715SOL     OW22603   4.261   1.556   7.288 -0.6123  0.2324 -0.1639
 3715SOL    HW122604   4.270   1.500   7.211  2.1272  1.5022 -0.7476
 3715SOL    HW222605   4.166   1.567   7.291 -0.6016  0.6655 -1.3901
 3716SOL     OW22606   3.876   1.150   7.217 -0.3566 -0.4367 -0.0111
 3716SOL    HW122607   3.964   1.188   7.214 -1.4272  2.0201 -0.2256
 3716SOL    HW222608   3.838   1.168   7.131 -1.7652 -0.6682  0.5629
 3717SOL     OW22609   0.975   3.238   5.197  0.2869 -0.2471 -0.5330
 3717SOL    HW122610   1.026   3.308   5.237  1.1580 -0.9323 -0.4494
 3717SOL    HW222611   1.029   3.160   5.189  0.8498 -0.1224  2.0551
 3718SOL     OW22612   2.595   4.300  16.691  0.1372  0.2645  0.5394
 3718SOL    HW122613   2.650   4.348  16.753 -0.4990  2.1133 -0.3132
 3718SOL    HW222614   2.553   4.377  16.653 -1.2660  0.4206  2.4192
 3719SOL     OW22615   3.111   0.864   7.851  0.5743 -0.0345  0.2049
 3719SOL    HW122616   3.179   0.915   7.808  1.4616  0.3205  2.0193
 3719SOL    HW222617   3.069   0.947   7.876  0.1581 -0.1719 -0.0399
 3720SOL     OW22618   4.147   1.253  17.339 -0.2738  0.3902  0.2941
 3720SOL    HW122619   4.223   1.230  17.286  0.9255  2.8421  0.9734
 3720SOL    HW222620   4.093   1.174  17.335  1.4465 -0.6588 -2.2003
 3721SOL     OW22621   2.042   0.619   6.618 -0.7059 -0.2403  0.1073
 3721SOL    HW122622   2.007   0.684   6.678 -0.6118  0.0804 -0.1896
 3721SOL    HW222623   2.039   0.671   6.538 -0.0257 -1.0972 -0.4722
 3722SOL     OW22624   3.473   2.143   8.658  0.2284  0.1327 -0.4997
 3722SOL    HW122625   3.409   2.074   8.673 -1.1480  1.5330  0.1055
 3722SOL    HW222626   3.456   2.208   8.727 -0.2925  0.8680 -1.3156
 3723SOL     OW22627   4.406   4.434  10.769  0.2944 -0.2549 -0.2231
 3723SOL    HW122628   4.498   4.426  10.744  0.7033 -0.7134  1.4089
 3723SOL    HW222629   4.404   4.494  10.843  0.5488  1.6461 -1.7684
 3724SOL     OW22630   0.138   2.397  16.093 -0.8203 -0.5718  0.2319
 3724SOL    HW122631   0.077   2.414  16.021  1.0843 -0.8869 -1.4645
 3724SOL    HW222632   0.073   2.403  16.162 -0.2730 -0.5328  0.7465
 3725SOL     OW22633   4.699   3.609   2.697 -0.3963 -0.1020  0.4537
 3725SOL    HW122634   4.674   3.636   2.785 -0.4210 -0.3346  0.5177
 3725SOL    HW222635   4.645   3.673   2.651  1.2371  1.0642  0.1511
 3726SOL     OW22636   3.416   3.047   7.921 -0.0133  0.5684  0.3014
 3726SOL    HW122637   3.381   3.002   7.844  2.3836 -0.2682 -0.2706
 3726SOL    HW222638   3.510   3.040   7.906 -0.7032 -1.3673 -2.9482
 3727SOL     OW22639   1.778   4.268  17.531 -0.4889 -0.0700 -0.1621
 3727SOL    HW122640   1.688   4.296  17.511 -0.1488 -0.1712 -1.8316
 3727SOL    HW222641   1.801   4.338  17.591  0.9378 -1.5025  0.9515
 3728SOL     OW22642   2.994   0.588   5.896 -0.6601  0.2085  0.2892
 3728SOL    HW122643   2.966   0.548   5.978  2.3421 -3.1765 -0.3444
 3728SOL    HW222644   3.007   0.509   5.844 -2.6745  0.5475 -0.7325
 3729SOL     OW22645   0.018   3.306   6.304  0.1433 -0.2359 -0.3315
 3729SOL    HW122646   4.713   3.302   6.396 -1.1308  1.8303 -0.6235
 3729SOL    HW222647   0.111   3.281   6.310  0.7594  1.8627 -1.1852
 3730SOL     OW22648   3.313   3.778   4.215 -0.6447 -0.2139 -0.3572
 3730SOL    HW122649   3.405   3.751   4.220 -0.0951  1.3496 -1.9535
 3730SOL    HW222650   3.269   3.694   4.226 -0.8932 -0.0402 -0.0273
 3731SOL     OW22651   3.135   1.141   8.767  0.1656  0.2561 -0.1190
 3731SOL    HW122652   3.114   1.050   8.749 -0.9519  0.4513  0.1943
 3731SOL    HW222653   3.068   1.174   8.827 -0.6563 -0.4849 -0.6341
 3732SOL     OW22654   1.949   1.014  11.196 -0.2029  0.3508  0.0861
 3732SOL    HW122655   1.932   1.106  11.175 -0.7851  0.1907 -0.1424
 3732SOL    HW222656   2.013   0.985  11.131  1.9085  3.1747  0.9152
 3733SOL     OW22657   1.656   3.443  10.982  0.4694 -0.0831 -0.4453
 3733SOL    HW122658   1.605   3.373  11.023 -2.2196  1.2461 -1.5638
 3733SOL    HW222659   1.732   3.453  11.040 -0.1864 -2.7221  0.8826
 3734SOL     OW22660   1.977   1.877   5.311 -0.3171  0.3747  0.6525
 3734SOL    HW122661   2.019   1.882   5.224  0.2125  1.5468  0.9817
 3734SOL    HW222662   1.884   1.879   5.290 -0.3485  0.4729  0.8025
 3735SOL     OW22663   3.464   0.298   6.751  0.1390  1.1322 -0.1486
 3735SOL    HW122664   3.478   0.371   6.811  0.3430  1.9423 -1.1858
 3735SOL    HW222665   3.430   0.239   6.819  0.1938  1.4466  0.1500
 3736SOL     OW22666   1.428   2.740  17.228  0.0944 -0.4403  0.9107
 3736SOL    HW122667   1.446   2.815  17.285 -0.0674  1.1306 -1.1502
 3736SOL    HW222668   1.375   2.781  17.161  0.1568 -2.4987 -0.3927
 3737SOL     OW22669   3.730   1.657   9.201 -0.3542  0.3809  0.2568
 3737SOL    HW122670   3.741   1.617   9.287 -0.2612  0.9789  0.5231
 3737SOL    HW222671   3.652   1.614   9.166 -1.3158  2.3760 -0.0470
 3738SOL     OW22672   0.563   0.743  11.577  0.2687  0.3550  0.0195
 3738SOL    HW122673   0.628   0.770  11.512 -0.4760  2.2115  0.0354
 3738SOL    HW222674   0.499   0.814  11.581  1.0445  1.0526 -0.0225
 3739SOL     OW22675   1.159   3.808   6.418 -0.3099  0.4843  0.1201
 3739SOL    HW122676   1.129   3.869   6.485  0.6320 -0.4153  1.3677
 3739SOL    HW222677   1.125   3.727   6.458  1.0833  0.2160  0.7554
 3740SOL     OW22678   2.046   3.919   1.638  0.3436 -0.1575  0.5895
 3740SOL    HW122679   2.047   3.942   1.731  0.5843 -0.1869  0.5949
 3740SOL    HW222680   2.129   3.958   1.611  0.0785  1.2046  1.7239
 3741SOL     OW22681   2.567   2.624   6.786  0.1475  0.2442  0.0005
 3741SOL    HW122682   2.536   2.557   6.846 -1.3726 -0.3525 -1.4577
 3741SOL    HW222683   2.558   2.600   6.694 -0.0690  0.5651 -0.0652
 3742SOL     OW22684   0.245   1.272  12.401  0.3550  0.4196 -0.0553
 3742SOL    HW122685   0.323   1.320  12.374 -0.5088  0.0658 -3.1313
 3742SOL    HW222686   0.211   1.240  12.318 -0.5149  1.3542 -0.0590
 3743SOL     OW22687   0.609   0.638   2.418 -0.0346 -0.0549  0.3139
 3743SOL    HW122688   0.535   0.681   2.462  1.6679 -0.3222  3.4437
 3743SOL    HW222689   0.681   0.692   2.452  0.0713 -0.0982  0.1562
 3744SOL     OW22690   3.256   3.907   8.958 -0.5864  0.5977 -0.0648
 3744SOL    HW122691   3.241   3.852   9.035 -0.1170  0.2018 -0.2636
 3744SOL    HW222692   3.173   3.881   8.917 -1.4995  1.2918  1.3425
 3745SOL     OW22693   1.305   2.063   5.368  0.5775  0.5623  0.2758
 3745SOL    HW122694   1.343   2.150   5.360  1.7087  0.0293 -0.1331
 3745SOL    HW222695   1.324   2.031   5.280  2.5579 -2.8670  1.9525
 3746SOL     OW22696   0.659   3.036   3.214  0.5935  0.9899  0.5862
 3746SOL    HW122697   0.663   3.002   3.125  0.2657 -0.2489  1.0516
 3746SOL    HW222698   0.586   3.098   3.212 -1.5788 -1.7417 -2.8995
 3747SOL     OW22699   2.856   1.651  11.572 -0.5986 -0.6646  0.0603
 3747SOL    HW122700   2.860   1.558  11.598 -1.0003 -0.8960 -0.7159
 3747SOL    HW222701   2.764   1.670  11.589 -0.3249  1.6381 -1.1950
 3748SOL     OW22702   2.327   0.762   9.441  0.7773 -0.2610 -0.4575
 3748SOL    HW122703   2.274   0.790   9.516  0.8579  1.7391 -1.1408
 3748SOL    HW222704   2.292   0.674   9.429  1.5415 -0.6116 -0.0641
 3749SOL     OW22705   1.162   1.212   6.602  0.2904 -0.3345 -0.2475
 3749SOL    HW122706   1.229   1.187   6.666  0.6489  0.8097 -0.1780
 3749SOL    HW222707   1.215   1.264   6.542  2.8784 -1.2704  1.1897
 3750SOL     OW22708   0.887   0.900   3.381  0.3607 -0.7057 -0.0840
 3750SOL    HW122709   0.955   0.865   3.438 -0.5956 -0.9731  0.9019
 3750SOL    HW222710   0.813   0.900   3.441  1.1322  1.0652  0.8593
 3751SOL     OW22711   1.465   0.956   8.240 -0.0833 -0.3091  0.8174
 3751SOL    HW122712   1.532   0.955   8.171  0.4625  0.2526  1.3338
 3751SOL    HW222713   1.421   1.041   8.231  2.3647  0.9316  0.4805
 3752SOL     OW22714   4.214   1.061  13.756  0.1356  0.1546 -0.8553
 3752SOL    HW122715   4.197   0.998  13.825  1.6194 -0.2730 -0.8957
 3752SOL    HW222716   4.151   1.022  13.695  1.1964 -0.1354 -1.7508
 3753SOL     OW22717   2.837   0.167   8.787 -0.1247  0.0349  0.1627
 3753SOL    HW122718   2.872   0.135   8.870  1.8109 -1.2674 -1.1569
 3753SOL    HW222719   2.918   0.163   8.736 -0.5289 -0.3804 -0.4472
 3754SOL     OW22720   4.287   4.116   4.677 -0.2936 -0.0041 -0.0238
 3754SOL    HW122721   4.207   4.112   4.625  1.8898  0.7427 -3.4878
 3754SOL    HW222722   4.289   4.021   4.689  2.6916 -0.0706 -0.9111
 3755SOL     OW22723   0.317   1.149  16.736  0.1106 -0.1090 -0.0724
 3755SOL    HW122724   0.229   1.173  16.767 -0.1045 -0.6115 -0.3114
 3755SOL    HW222725   0.309   1.054  16.745 -3.1832  0.0142 -1.8154
 3756SOL     OW22726   1.827   0.945   7.224  0.0691 -0.5040 -0.2361
 3756SOL    HW122727   1.893   0.880   7.197  1.5220  1.0191 -0.3379
 3756SOL    HW222728   1.767   0.894   7.278 -1.1156 -1.3424 -2.3253
 3757SOL     OW22729   4.256   4.023   4.330 -0.0602  0.2345  0.0685
 3757SOL    HW122730   4.237   3.956   4.396  2.5242 -0.9840 -0.4089
 3757SOL    HW222731   4.296   3.960   4.270  1.3835  0.5447  0.7011
 3758SOL     OW22732   3.145   1.909   3.155 -0.0871 -0.2234  0.0130
 3758SOL    HW122733   3.232   1.949   3.154 -0.6863  1.1111  1.2975
 3758SOL    HW222734   3.094   1.960   3.093 -1.7839 -1.2897  0.5353
 3759SOL     OW22735   2.954   0.510  14.413 -0.0842 -0.9401  0.0026
 3759SOL    HW122736   3.003   0.572  14.467 -0.6357 -1.3865  1.0122
 3759SOL    HW222737   3.016   0.485  14.345 -0.6712 -1.0546 -0.4877
 3760SOL     OW22738   3.402   0.314  16.456 -0.2788 -0.1992 -0.3766
 3760SOL    HW122739   3.486   0.305  16.412  0.7273 -2.0787  2.0049
 3760SOL    HW222740   3.422   0.348  16.543 -3.9286  0.8281  0.0830
 3761SOL     OW22741   3.294   2.717   6.719 -0.6423  0.0233  0.7517
 3761SOL    HW122742   3.219   2.701   6.663  2.5707 -3.3525 -2.6208
 3761SOL    HW222743   3.259   2.750   6.802  1.7610 -0.5498  2.0043
 3762SOL     OW22744   1.237   3.495  12.389  0.2059 -0.0419  0.3128
 3762SOL    HW122745   1.277   3.440  12.457 -1.7855 -0.2572  1.2869
 3762SOL    HW222746   1.179   3.553  12.437  1.9372  1.7207  0.2648
 3763SOL     OW22747   4.376   4.437   8.087 -0.1941 -0.3321 -0.1040
 3763SOL    HW122748   4.391   4.455   8.180 -1.1147  0.5154 -0.1124
 3763SOL    HW222749   4.281   4.427   8.082 -0.2353  0.3310 -0.6943
 3764SOL     OW22750   3.008   1.310  12.792  0.0305 -0.2481 -1.2701
 3764SOL    HW122751   3.024   1.326  12.699  1.7142  1.1102 -0.7540
 3764SOL    HW222752   3.092   1.332  12.831 -0.0835 -0.5877 -0.8260
 3765SOL     OW22753   2.431   4.077  16.777 -0.8395 -0.6999 -0.0575
 3765SOL    HW122754   2.471   4.162  16.762 -0.0698 -0.8622  1.0603
 3765SOL    HW222755   2.502   4.023  16.742 -1.0636 -0.1675 -1.3121
 3766SOL     OW22756   4.015   3.781   4.107  0.1691  0.1766  0.3305
 3766SOL    HW122757   4.055   3.783   4.020 -3.2350 -1.6590 -1.2562
 3766SOL    HW222758   4.065   3.707   4.143  0.4265 -1.6231 -3.7218
 3767SOL     OW22759   1.345   2.772   9.129 -0.1425 -0.3206 -0.4333
 3767SOL    HW122760   1.421   2.822   9.097  0.4749 -1.7295 -1.1754
 3767SOL    HW222761   1.385   2.694   9.167  2.5559  1.4389  0.4034
 3768SOL     OW22762   3.344   2.598   1.329  0.2728 -0.0146  0.0906
 3768SOL    HW122763   3.309   2.593   1.241  2.7765 -1.1423 -0.8551
 3768SOL    HW222764   3.265   2.623   1.377 -0.0221 -1.9243  0.5849
 3769SOL     OW22765   0.475   3.204   8.909  0.0242 -0.1273 -0.0262
 3769SOL    HW122766   0.481   3.183   9.002 -2.4535 -1.1074 -0.0978
 3769SOL    HW222767   0.493   3.117   8.874 -0.6836 -0.2000 -0.1940
 3770SOL     OW22768   3.490   1.193   1.627 -0.0594  0.8048 -0.0855
 3770SOL    HW122769   3.493   1.288   1.629  0.2971  0.8283 -1.5343
 3770SOL    HW222770   3.487   1.176   1.721  1.3266  0.7073 -0.0641
 3771SOL     OW22771   3.576   3.901   8.230 -0.1490 -0.5168 -0.3111
 3771SOL    HW122772   3.563   3.926   8.139 -1.0207 -1.4856 -0.4394
 3771SOL    HW222773   3.489   3.898   8.270 -0.2029  0.4685 -0.3582
 3772SOL     OW22774   2.763   0.185  13.233  0.0854 -0.3109  0.1759
 3772SOL    HW122775   2.685   0.129  13.235  0.1508 -0.4585 -1.4368
 3772SOL    HW222776   2.733   0.274  13.252  0.8334 -0.4890  2.1199
 3773SOL     OW22777   0.743   4.438   2.856  0.0999  0.1926  0.0228
 3773SOL    HW122778   0.699   4.409   2.776 -0.8434  2.5595 -0.3215
 3773SOL    HW222779   0.830   4.402   2.843  0.0007 -0.0551  0.0388
 3774SOL     OW22780   0.946   3.586   5.149 -0.0555 -0.6199  0.3966
 3774SOL    HW122781   0.863   3.584   5.196  0.0828 -2.5199  0.5646
 3774SOL    HW222782   0.917   3.562   5.061 -1.2133 -1.5757  1.0215
 3775SOL     OW22783   2.406   1.514   4.683 -0.5531  0.0363  0.2601
 3775SOL    HW122784   2.381   1.536   4.593 -0.4422 -2.1532 -0.3104
 3775SOL    HW222785   2.321   1.474   4.704 -1.1184  0.1917 -1.7314
 3776SOL     OW22786   2.676   1.894   4.376  0.2871  0.1026  0.5813
 3776SOL    HW122787   2.751   1.936   4.419  1.4597 -2.5924  1.1782
 3776SOL    HW222788   2.651   1.826   4.439  1.6773  0.0800  1.1175
 3777SOL     OW22789   1.396   3.941   4.759 -0.1252 -0.5631 -0.2054
 3777SOL    HW122790   1.334   3.981   4.698 -1.1526 -1.0737  0.5008
 3777SOL    HW222791   1.480   3.967   4.722 -0.0966 -0.1050  0.1714
 3778SOL     OW22792   0.413   4.495   4.499 -0.1590  0.0249  0.4919
 3778SOL    HW122793   0.497   4.530   4.470 -0.9800 -0.9083 -3.0558
 3778SOL    HW222794   0.354   4.560   4.460 -0.9300 -0.3585  1.0176
 3779SOL     OW22795   0.935   0.512   8.603 -0.8466 -0.0254 -0.4597
 3779SOL    HW122796   0.978   0.564   8.534 -0.3053 -0.9833 -0.8391
 3779SOL    HW222797   0.923   0.583   8.666  2.0853  0.1415 -0.1050
 3780SOL     OW22798   0.150   0.518   3.877 -0.0016  0.3509 -0.4618
 3780SOL    HW122799   0.069   0.509   3.927 -1.0825  1.8572 -1.9676
 3780SOL    HW222800   0.179   0.599   3.919  1.5602 -0.8610  0.8161
 3781SOL     OW22801   0.599   4.575   9.096 -0.2262  0.1749  0.5458
 3781SOL    HW122802   0.536   4.507   9.072 -0.4348  0.1742  1.0962
 3781SOL    HW222803   0.644   4.513   9.154  1.0402  2.1298  1.6592
 3782SOL     OW22804   0.789   3.874   5.308  0.3115 -0.0040  0.4649
 3782SOL    HW122805   0.773   3.852   5.400  0.0793  2.7333  1.0760
 3782SOL    HW222806   0.882   3.899   5.309 -0.2110  1.9291  0.8009
 3783SOL     OW22807   3.840   2.530   4.926  0.1235  0.2483  0.2637
 3783SOL    HW122808   3.864   2.459   4.866  1.4798  2.0726 -1.3619
 3783SOL    HW222809   3.901   2.596   4.892  0.2499  0.4402  0.8591
 3784SOL     OW22810   1.405   2.013  15.472 -0.2260  0.6074 -0.3075
 3784SOL    HW122811   1.374   2.026  15.382 -1.1773  0.6770  0.0254
 3784SOL    HW222812   1.371   1.924  15.486 -1.1225  0.7220 -1.7629
 3785SOL     OW22813   2.895   2.122   3.580  0.6374 -0.4764 -0.2593
 3785SOL    HW122814   2.973   2.168   3.548  0.6741 -1.8316 -2.1291
 3785SOL    HW222815   2.898   2.045   3.523 -2.6183 -1.2814  0.6258
 3786SOL     OW22816   1.125   3.178   6.625  0.3346 -0.4161  0.5404
 3786SOL    HW122817   1.087   3.218   6.703  0.3751 -0.2006  0.4497
 3786SOL    HW222818   1.079   3.226   6.556  0.4945  0.9571  1.3806
 3787SOL     OW22819   1.703   0.036   6.220  0.1363 -0.5834 -0.3143
 3787SOL    HW122820   1.650   0.009   6.144  0.1488  0.2108 -0.5987
 3787SOL    HW222821   1.783   4.706   6.208 -0.2003 -1.5586  1.6936
 3788SOL     OW22822   0.900   1.714   4.453  0.6626  0.9043 -0.2888
 3788SOL    HW122823   0.806   1.711   4.436  0.9505 -0.2123 -1.6104
 3788SOL    HW222824   0.897   1.676   4.541 -0.6609 -2.0447 -1.6212
 3789SOL     OW22825   0.292   2.738  15.198  0.4101  0.2941 -0.7988
 3789SOL    HW122826   0.308   2.798  15.126  0.0129  2.3778  0.8301
 3789SOL    HW222827   0.203   2.716  15.173  0.1786 -2.2079  2.2848
 3790SOL     OW22828   1.724   4.027   7.932  0.2852  0.5360  0.3496
 3790SOL    HW122829   1.718   3.977   8.014 -0.4516 -0.2980 -0.2086
 3790SOL    HW222830   1.651   3.984   7.887  0.0086 -0.9218  2.1818
 3791SOL     OW22831   2.627   1.913   6.515  0.6887 -0.7002  0.2823
 3791SOL    HW122832   2.532   1.916   6.519  0.7326 -0.9053  1.5776
 3791SOL    HW222833   2.652   1.862   6.592  1.1931 -0.1932  0.4577
 3792SOL     OW22834   2.156   0.840   2.749  0.6866  0.5248  0.1785
 3792SOL    HW122835   2.165   0.774   2.680 -1.2972 -0.6793  1.0569
 3792SOL    HW222836   2.226   0.905   2.742  3.0417 -2.0242 -0.0459
 3793SOL     OW22837   4.289   1.437   3.645  0.2413 -0.4137  0.3823
 3793SOL    HW122838   4.267   1.502   3.712  0.5427 -1.7411  1.7785
 3793SOL    HW222839   4.302   1.360   3.701 -1.9636 -0.5217  0.7271
 3794SOL     OW22840   2.943   2.393   4.407 -0.0353 -0.3292 -0.1571
 3794SOL    HW122841   2.968   2.439   4.487  2.3831 -3.4823  0.8825
 3794SOL    HW222842   3.029   2.361   4.380 -0.5270 -0.5767 -1.4595
 3795SOL     OW22843   1.716   1.905   5.276  0.4918  0.2482 -0.1054
 3795SOL    HW122844   1.693   1.972   5.341 -0.5653 -2.1549  1.9882
 3795SOL    HW222845   1.666   1.838   5.323  2.5692 -0.9303  0.4347
 3796SOL     OW22846   1.121   0.300   4.499  0.4743 -0.2149  0.1588
 3796SOL    HW122847   1.123   0.210   4.532  0.8348  0.1543  1.1377
 3796SOL    HW222848   1.093   0.292   4.408 -2.2494 -0.2063  1.0185
 3797SOL     OW22849   1.906   3.947  14.748  0.0139 -0.4764  0.1563
 3797SOL    HW122850   1.865   3.948  14.834 -0.9273  0.5689 -0.3102
 3797SOL    HW222851   1.849   3.884  14.704 -0.7673  0.8222 -0.6777
 3798SOL     OW22852   2.614   4.353   2.945  0.0666 -0.1092 -0.1224
 3798SOL    HW122853   2.615   4.354   2.849  1.3966 -1.5165 -0.1186
 3798SOL    HW222854   2.646   4.443   2.959  0.3047 -0.3434  0.8343
 3799SOL     OW22855   3.204   3.936   4.820 -0.4811 -0.2421  0.0666
 3799SOL    HW122856   3.257   3.932   4.741 -0.8163 -0.9480 -0.1296
 3799SOL    HW222857   3.150   3.857   4.815 -0.9319  0.0856 -0.2455
 3800SOL     OW22858   1.985   2.072   6.673  0.1829  0.4224 -0.3566
 3800SOL    HW122859   1.912   2.042   6.728 -0.9437  1.9047 -1.0525
 3800SOL    HW222860   1.931   2.127   6.617 -2.4268 -1.0551  0.6853
 3801SOL     OW22861   2.366   1.969   3.420  0.1864  0.0691  0.4887
 3801SOL    HW122862   2.344   1.975   3.327  0.2818 -1.5434  0.3705
 3801SOL    HW222863   2.456   2.002   3.412  0.3476 -0.7040 -0.8175
 3802SOL     OW22864   1.393   0.520  16.855 -0.0918 -0.0803  0.1142
 3802SOL    HW122865   1.338   0.441  16.854 -0.2251 -0.0185  2.0452
 3802SOL    HW222866   1.469   0.491  16.905 -0.6400  1.4314  1.7995
 3803SOL     OW22867   0.490   1.388  12.262 -0.2803  0.1745 -0.2800
 3803SOL    HW122868   0.565   1.432  12.300  1.4262 -1.9181 -1.2390
 3803SOL    HW222869   0.530   1.301  12.257  0.3812  0.4565  0.1742
 3804SOL     OW22870   1.200   1.051   2.680 -0.4955 -0.5703  0.1177
 3804SOL    HW122871   1.193   0.967   2.724 -2.5223  0.6458  2.1303
 3804SOL    HW222872   1.138   1.104   2.730 -0.6339 -1.1273  0.5289
 3805SOL     OW22873   3.607   4.067  14.569 -0.3520  0.1844  0.4223
 3805SOL    HW122874   3.617   4.133  14.500 -1.4611  0.9386  0.9669
 3805SOL    HW222875   3.593   3.988  14.517  2.1965  0.8529 -1.2594
 3806SOL     OW22876   1.353   2.715   5.269 -0.6699 -0.5292 -0.1303
 3806SOL    HW122877   1.314   2.652   5.208  2.3492 -2.5988  0.0280
 3806SOL    HW222878   1.445   2.712   5.242 -1.0646  0.6354 -1.5963
 3807SOL     OW22879   4.643   2.585  12.811  0.7238  0.4651 -0.7112
 3807SOL    HW122880   4.607   2.509  12.856  0.5040  0.0378 -1.6149
 3807SOL    HW222881   4.693   2.544  12.741  0.5080 -0.2173 -0.4611
 3808SOL     OW22882   2.151   1.224   1.757  0.1385 -0.2967 -0.2571
 3808SOL    HW122883   2.128   1.313   1.785  1.0350 -0.1461  0.0200
 3808SOL    HW222884   2.064   1.187   1.764 -0.9779  2.0538 -1.7147
 3809SOL     OW22885   1.180   3.520   4.430  0.2827  0.5320  0.1201
 3809SOL    HW122886   1.173   3.613   4.449 -1.1455  0.4855 -0.2129
 3809SOL    HW222887   1.196   3.516   4.336  1.4029  0.4955  0.3189
 3810SOL     OW22888   0.059   1.790  11.045 -0.5265  0.2942  0.1531
 3810SOL    HW122889   0.051   1.790  10.949  0.5619  0.1438  0.0625
 3810SOL    HW222890   0.151   1.771  11.063 -1.0593 -1.2939  1.2281
 3811SOL     OW22891   2.378   1.467   8.547 -0.5508 -0.0105  0.1666
 3811SOL    HW122892   2.402   1.539   8.489 -0.6758  0.2591  0.4536
 3811SOL    HW222893   2.410   1.393   8.494  1.6088  0.7382  0.4058
 3812SOL     OW22894   4.475   3.924  10.317  0.3241 -0.1275  0.4848
 3812SOL    HW122895   4.548   3.865  10.299  0.5286 -0.2110  1.6256
 3812SOL    HW222896   4.420   3.895  10.245 -0.6909 -1.2908  1.7405
 3813SOL     OW22897   3.298   1.548   8.776  0.2335  0.6366 -0.0327
 3813SOL    HW122898   3.238   1.509   8.838 -0.5292  0.2936 -0.9895
 3813SOL    HW222899   3.383   1.509   8.796 -0.8114 -1.3762  0.4843
 3814SOL     OW22900   4.135   1.642   7.873  0.1498 -0.5394 -0.6948
 3814SOL    HW122901   4.041   1.635   7.856 -0.3016  0.9549  1.2896
 3814SOL    HW222902   4.141   1.651   7.968  0.4158 -1.5176 -0.6079
 3815SOL     OW22903   1.661   3.222  17.691 -0.2170 -0.1190 -0.5323
 3815SOL    HW122904   1.740   3.263   0.035 -0.5750 -0.7914  0.9753
 3815SOL    HW222905   1.692   3.189  17.607 -0.8041 -2.0670  0.0373
 3816SOL     OW22906   1.311   3.869   2.803  0.2754  0.1002  0.0596
 3816SOL    HW122907   1.266   3.840   2.882 -1.3762 -1.2243 -1.3857
 3816SOL    HW222908   1.285   3.800   2.741  1.1207 -1.3689  1.3419
 3817SOL     OW22909   0.007   1.085   5.983 -0.3749  0.1553  0.0900
 3817SOL    HW122910   4.718   1.171   5.943 -0.1227  0.0251 -0.2675
 3817SOL    HW222911   0.054   1.045   5.910 -0.7187 -0.5525  0.2568
 3818SOL     OW22912   1.050   1.992   4.488  0.1232  0.3620  0.3480
 3818SOL    HW122913   1.022   2.015   4.577 -0.4606 -0.9937  0.5167
 3818SOL    HW222914   0.990   1.922   4.463 -2.6045  3.3182 -1.2680
 3819SOL     OW22915   3.511   1.842   8.922 -0.1719 -0.2534 -0.4794
 3819SOL    HW122916   3.496   1.913   8.985 -1.7685  0.3730 -1.5686
 3819SOL    HW222917   3.435   1.787   8.940 -0.1808 -0.3868 -0.9347
 3820SOL     OW22918   2.475   4.282   2.404  0.5236  0.5105  0.4874
 3820SOL    HW122919   2.491   4.281   2.498 -0.3699 -0.4910  0.6255
 3820SOL    HW222920   2.555   4.327   2.375  1.6004 -1.7968 -0.0674
 3821SOL     OW22921   4.251   0.785   3.392 -0.0014 -0.3733 -0.4931
 3821SOL    HW122922   4.250   0.880   3.387 -0.8783 -0.3750 -0.3332
 3821SOL    HW222923   4.347   0.780   3.399  0.0031 -1.8890 -1.5121
 3822SOL     OW22924   3.313   1.702   9.049 -0.0423  0.0891  0.1036
 3822SOL    HW122925   3.295   1.714   9.143  0.3807  0.1816  0.1761
 3822SOL    HW222926   3.318   1.606   9.050  1.7546  0.1886  2.1261
 3823SOL     OW22927   1.423   3.740  13.769 -0.3630  0.1833  0.5494
 3823SOL    HW122928   1.368   3.745  13.691  1.9092  0.5865 -1.0538
 3823SOL    HW222929   1.483   3.813  13.755 -0.3843  0.0057 -0.4619
 3824SOL     OW22930   0.699   3.774  12.076 -0.0756 -0.1898 -0.1253
 3824SOL    HW122931   0.754   3.800  12.150  0.6658 -1.0898 -0.3458
 3824SOL    HW222932   0.769   3.763  12.011 -1.8826  1.7922 -2.4024
 3825SOL     OW22933   4.254   4.621   6.114 -0.3198  0.2996  0.2828
 3825SOL    HW122934   4.337   4.609   6.067  0.0299 -2.9545  1.7376
 3825SOL    HW222935   4.214   4.677   6.047 -0.2175 -2.2001 -1.8344
 3826SOL     OW22936   0.140   1.796  11.456  0.1514  0.4749 -0.7758
 3826SOL    HW122937   0.156   1.880  11.414 -0.4117 -0.4443 -2.7951
 3826SOL    HW222938   0.084   1.752  11.393 -0.6639  2.4529 -1.4354
 3827SOL     OW22939   0.747   3.335   5.485  0.1467  0.3474  0.4269
 3827SOL    HW122940   0.792   3.418   5.474 -1.8056  1.2653 -0.7265
 3827SOL    HW222941   0.799   3.294   5.554  0.3193 -0.8545 -0.4167
 3828SOL     OW22942   3.998   1.432   6.347  0.5418 -0.4091 -0.5213
 3828SOL    HW122943   3.912   1.414   6.309  0.5176  0.9730 -1.1077
 3828SOL    HW222944   4.008   1.525   6.328  1.4417 -0.2270  0.8276
 3829SOL     OW22945   2.365   4.498   8.473 -0.3489  0.9032  0.1758
 3829SOL    HW122946   2.324   4.577   8.437 -0.9693  0.6532  0.3294
 3829SOL    HW222947   2.305   4.477   8.544  1.2057 -1.5160  0.7773
 3830SOL     OW22948   2.760   4.117   2.027 -0.3721  0.2520 -0.1806
 3830SOL    HW122949   2.706   4.196   2.025 -0.7541 -0.0360 -1.3088
 3830SOL    HW222950   2.703   4.046   2.058 -0.6986  0.6313  0.0916
 3831SOL     OW22951   4.524   1.809   3.044 -0.5739  0.4915 -0.2933
 3831SOL    HW122952   4.534   1.875   3.113  0.1385 -0.2680  0.3275
 3831SOL    HW222953   4.479   1.741   3.095 -0.1371  1.7386  1.7481
 3832SOL     OW22954   2.182   1.279   5.868  0.0029  0.4765 -0.1057
 3832SOL    HW122955   2.245   1.233   5.813  2.0036  2.7972  0.2378
 3832SOL    HW222956   2.181   1.215   5.939 -1.4059 -0.0733 -0.6387
 3833SOL     OW22957   2.365   3.295   5.421  0.2345 -0.1646  0.7492
 3833SOL    HW122958   2.291   3.262   5.472 -1.2146  0.3707 -1.0055
 3833SOL    HW222959   2.326   3.364   5.369  1.8325 -1.1968 -1.8393
 3834SOL     OW22960   1.846   0.603   3.886  0.2964  0.0137 -0.0867
 3834SOL    HW122961   1.861   0.681   3.939  0.4179  0.1103 -0.2643
 3834SOL    HW222962   1.814   0.631   3.801  2.6975 -1.5081 -1.5052
 3835SOL     OW22963   3.039   3.198   1.996 -0.9525  0.1625 -0.2878
 3835SOL    HW122964   3.075   3.149   2.070 -0.6307  1.1993  0.2460
 3835SOL    HW222965   2.959   3.242   2.026 -0.0475  0.0187  2.3431
 3836SOL     OW22966   4.344   0.895   8.781 -0.0838  0.6274 -0.3102
 3836SOL    HW122967   4.266   0.893   8.726 -0.3007 -0.7471  0.0449
 3836SOL    HW222968   4.322   0.818   8.834  3.1320 -1.1079 -1.4862
 3837SOL     OW22969   2.053   3.031   3.756 -0.1206  0.0780 -0.7179
 3837SOL    HW122970   1.968   2.995   3.729  0.4516 -1.2684 -0.7026
 3837SOL    HW222971   2.100   2.957   3.793 -1.6264 -0.3790  0.3082
 3838SOL     OW22972   0.580   3.042   9.360  0.1337  0.2922 -0.1363
 3838SOL    HW122973   0.594   2.948   9.353  1.1125  0.3327  1.2261
 3838SOL    HW222974   0.504   3.067   9.308 -0.7344  0.0841  1.0171
 3839SOL     OW22975   4.169   3.341  12.847  0.6278 -0.3163  0.0643
 3839SOL    HW122976   4.092   3.284  12.842 -0.0111  0.5884 -0.3342
 3839SOL    HW222977   4.210   3.330  12.761  0.3867 -1.8380  0.1430
 3840SOL     OW22978   0.240   4.236  13.482  0.0961 -0.3466 -0.2531
 3840SOL    HW122979   0.298   4.283  13.542 -2.7774 -0.1875  2.3575
 3840SOL    HW222980   0.162   4.289  13.501  0.6626  0.0686  0.9356
 3841SOL     OW22981   4.018   0.185   4.403  0.8813 -0.0649 -0.5120
 3841SOL    HW122982   4.028   0.112   4.343  1.6604  0.2235 -0.7336
 3841SOL    HW222983   3.970   0.245   4.346  0.6009  0.1213 -0.0766
 3842SOL     OW22984   0.922   2.192   5.387 -0.5044 -0.5748 -0.6116
 3842SOL    HW122985   0.893   2.196   5.296  0.5403  2.1821 -0.8233
 3842SOL    HW222986   0.973   2.111   5.384  0.0554 -0.1494 -2.5486
 3843SOL     OW22987   3.769   0.808   0.325  0.5946  0.7891 -0.2100
 3843SOL    HW122988   3.839   0.785   0.386  2.2265 -0.0192 -2.3844
 3843SOL    HW222989   3.726   0.723   0.315  0.3414  0.5365  3.1097
 3844SOL     OW22990   4.069   1.041   8.002 -0.6070  0.4760 -0.1710
 3844SOL    HW122991   3.993   1.014   8.054  0.9534 -0.9825  1.3613
 3844SOL    HW222992   4.073   1.137   8.008 -0.3248  0.4887 -0.6073
 3845SOL     OW22993   1.325   2.524   2.760  0.1184 -0.0309 -0.1205
 3845SOL    HW122994   1.267   2.474   2.703 -1.2210  0.2899  0.9858
 3845SOL    HW222995   1.359   2.460   2.823  1.4009  0.3839 -0.3822
 3846SOL     OW22996   2.116   3.970   6.682  0.3823  0.0642 -0.2156
 3846SOL    HW122997   2.196   4.018   6.703  0.6132 -1.0708  1.4859
 3846SOL    HW222998   2.158   3.909   6.621  0.0416 -1.5036  1.1312
 3847SOL     OW22999   0.957   2.124  11.515  0.5987 -0.7472  0.0317
 3847SOL    HW123000   0.903   2.200  11.493 -0.3080 -0.7931  2.1000
 3847SOL    HW223001   1.016   2.163  11.579  0.1773 -3.2950  1.9840
 3848SOL     OW23002   1.898   1.848   2.153  0.8039 -0.0612 -0.3166
 3848SOL    HW123003   1.889   1.942   2.136 -1.5952 -0.1038  0.8532
 3848SOL    HW223004   1.851   1.822   2.074 -1.7388 -0.0070  1.1767
 3849SOL     OW23005   3.652   0.964   7.113 -0.5306  0.0546 -0.1521
 3849SOL    HW123006   3.672   0.950   7.206  0.2642 -0.7424 -0.4406
 3849SOL    HW223007   3.680   1.056   7.113  0.0053 -0.1096  2.1745
 3850SOL     OW23008   1.816   0.488   5.848 -0.0632  0.2127 -0.0171
 3850SOL    HW123009   1.868   0.436   5.909 -2.3747 -3.1741 -0.9322
 3850SOL    HW223010   1.883   0.555   5.832 -1.8122  1.6343 -1.4025
 3851SOL     OW23011   3.092   0.599   0.246  0.5695  0.4385 -0.8881
 3851SOL    HW123012   3.024   0.558   0.300 -0.8123  2.8055 -0.8616
 3851SOL    HW223013   3.042   0.650   0.182  0.5006  1.8540  0.3194
 3852SOL     OW23014   0.962   1.350  10.151 -0.1768  0.5332  0.1331
 3852SOL    HW123015   0.877   1.381  10.120  0.7792  1.7692 -1.2486
 3852SOL    HW223016   1.013   1.431  10.150 -1.8897  1.6139 -0.2066
 3853SOL     OW23017   0.788   2.263   8.886  0.1207  0.8074 -0.1563
 3853SOL    HW123018   0.739   2.310   8.953 -0.7910  0.2813 -0.4487
 3853SOL    HW223019   0.717   2.217   8.841  1.0314  0.1302 -0.8913
 3854SOL     OW23020   1.770   2.462   3.931 -0.2985 -0.1386 -0.0037
 3854SOL    HW123021   1.762   2.497   4.020  0.1392  0.8368 -0.3495
 3854SOL    HW223022   1.864   2.459   3.913 -0.5319 -1.3117 -0.9985
 3855SOL     OW23023   3.016   2.443   8.028 -0.1876 -0.3540 -0.7676
 3855SOL    HW123024   3.004   2.348   8.019 -1.2095 -0.5306  2.5358
 3855SOL    HW223025   2.924   2.469   8.021  0.4025  2.2990  1.3142
 3856SOL     OW23026   0.722   1.921   0.752  0.1025  0.3970  0.0709
 3856SOL    HW123027   0.813   1.951   0.741 -0.1699  0.9740 -0.6225
 3856SOL    HW223028   0.685   2.008   0.769  0.5088  0.5233  0.3367
 3857SOL     OW23029   2.040   3.022   0.220  0.6409  0.4471  0.3916
 3857SOL    HW123030   2.120   2.972   0.204 -0.4769 -0.9100 -0.8862
 3857SOL    HW223031   1.974   2.986   0.161  0.6145 -1.9872  1.9057
 3858SOL     OW23032   0.353   2.823   1.688  0.5611  0.1697  0.2785
 3858SOL    HW123033   0.301   2.756   1.644 -1.0855  1.7923 -0.2956
 3858SOL    HW223034   0.363   2.890   1.620  0.1671 -0.2938 -0.2335
 3859SOL     OW23035   4.245   2.094   2.078  0.4893 -0.2062  0.4125
 3859SOL    HW123036   4.289   2.157   2.022 -0.9801  2.3380  2.1535
 3859SOL    HW223037   4.190   2.154   2.127 -0.8621  0.0215 -1.3727
 3860SOL     OW23038   4.332   1.966   8.009  0.0597 -0.1475 -0.5517
 3860SOL    HW123039   4.251   1.931   8.046  1.5724 -0.2448  2.6563
 3860SOL    HW223040   4.384   1.979   8.088 -2.5388  3.0774  0.6436
 3861SOL     OW23041   4.513   0.538   4.231  0.2817  0.2818  0.0411
 3861SOL    HW123042   4.433   0.485   4.227  0.6235 -0.1602 -0.8133
 3861SOL    HW223043   4.557   0.503   4.154 -1.7715 -1.1230 -0.5094
 3862SOL     OW23044   2.510   1.714   4.134  0.1412 -0.1264  0.5571
 3862SOL    HW123045   2.527   1.806   4.152  0.5147 -0.1483  0.3260
 3862SOL    HW223046   2.532   1.662   4.212 -1.6852 -1.2748  0.3098
 3863SOL     OW23047   2.347   3.490   9.762 -0.3412 -0.1975 -0.0328
 3863SOL    HW123048   2.269   3.531   9.725  1.2556 -0.3092 -3.5508
 3863SOL    HW223049   2.404   3.476   9.687  0.4166 -2.6024  1.0093
 3864SOL     OW23050   2.134   2.681  14.492 -0.0897  0.5501  0.7171
 3864SOL    HW123051   2.104   2.731  14.415 -1.1886 -1.0984  0.0850
 3864SOL    HW223052   2.226   2.706  14.495  0.6368 -2.3908  2.0314
 3865SOL     OW23053   0.280   3.562  15.836 -0.3535 -0.3460  0.8353
 3865SOL    HW123054   0.232   3.481  15.818 -0.6097  0.4223 -1.9033
 3865SOL    HW223055   0.205   3.621  15.826  0.9458  1.0862 -0.4162
 3866SOL     OW23056   3.276   4.478   4.975 -0.2664  0.1129 -0.0822
 3866SOL    HW123057   3.323   4.538   5.034  1.9032 -2.0670  0.3952
 3866SOL    HW223058   3.184   4.496   4.994 -0.6578  0.3657 -2.2319
 3867SOL     OW23059   2.082   3.341   8.150  0.0121  0.6679 -0.1228
 3867SOL    HW123060   1.997   3.297   8.163  0.4126 -0.4810 -1.3834
 3867SOL    HW223061   2.098   3.397   8.226  2.3963 -0.0135 -0.1310
 3868SOL     OW23062   4.238   1.867   9.783 -0.6382  0.1193  0.3899
 3868SOL    HW123063   4.299   1.919   9.836 -0.2459  1.2763 -1.1841
 3868SOL    HW223064   4.279   1.781   9.787 -0.0464  0.3231 -0.9922
 3869SOL     OW23065   0.566   3.802   6.005  0.0190 -0.6479 -0.3090
 3869SOL    HW123066   0.656   3.778   6.024 -0.3070 -0.5034  1.4009
 3869SOL    HW223067   0.570   3.890   6.043  1.1825 -0.9813  0.3471
 3870SOL     OW23068   0.820   0.583   5.017  0.3435  0.1500 -0.2131
 3870SOL    HW123069   0.892   0.641   5.044  0.2076  0.1681  0.1149
 3870SOL    HW223070   0.760   0.646   4.976  0.7243  0.5951 -0.0941
 3871SOL     OW23071   3.233   1.009   2.981  0.3236  0.5855 -0.0048
 3871SOL    HW123072   3.164   1.075   2.986 -1.6592 -1.3439 -1.7710
 3871SOL    HW223073   3.218   0.978   3.070 -0.2524  1.2786  0.1369
 3872SOL     OW23074   3.376   0.372   8.741  0.2825 -0.2055 -0.4357
 3872SOL    HW123075   3.337   0.306   8.684 -1.8213 -0.1098  0.8986
 3872SOL    HW223076   3.319   0.393   8.815  1.8804 -3.0279  1.5922
 3873SOL     OW23077   1.373   2.672  15.621  0.7455 -0.1971  0.6312
 3873SOL    HW123078   1.405   2.738  15.683  0.7511  1.0343 -0.6924
 3873SOL    HW223079   1.350   2.728  15.547 -1.5471 -0.5646  1.0506
 3874SOL     OW23080   3.012   3.721  16.319  0.1810 -0.3710 -0.0557
 3874SOL    HW123081   3.092   3.670  16.303 -0.3636 -0.9788 -0.8104
 3874SOL    HW223082   3.024   3.802  16.270  0.5637  0.3955  1.2975
 3875SOL     OW23083   1.710   2.754   4.866  0.5589  0.1251  0.2917
 3875SOL    HW123084   1.647   2.755   4.793  0.2982 -1.9950  0.4785
 3875SOL    HW223085   1.726   2.661   4.886  5.2623  0.5069 -1.7795
 3876SOL     OW23086   2.715   4.195   6.982 -0.1657  0.4181 -0.6793
 3876SOL    HW123087   2.620   4.185   6.988  0.6129 -4.9124  3.0394
 3876SOL    HW223088   2.716   4.279   7.028 -1.1997 -1.6874  3.2553
 3877SOL     OW23089   2.159   4.187  11.563  0.2529  0.0415  0.5923
 3877SOL    HW123090   2.209   4.261  11.530  0.7521 -0.9969 -0.9558
 3877SOL    HW223091   2.227   4.120  11.559  0.6336  0.4517  0.2691
 3878SOL     OW23092   2.127   1.279  16.510  0.5378 -0.7129 -0.3821
 3878SOL    HW123093   2.112   1.260  16.603  0.6853 -2.5974 -0.7389
 3878SOL    HW223094   2.221   1.295  16.514  0.7240 -1.5688 -1.3726
 3879SOL     OW23095   3.395   1.118   9.642 -0.4819  0.5722  0.1384
 3879SOL    HW123096   3.313   1.069   9.644  1.4412 -2.6054  1.7654
 3879SOL    HW223097   3.459   1.061   9.684 -1.6087 -0.0884  0.9619
 3880SOL     OW23098   3.885   4.543   6.545 -0.4087 -1.1083  0.0173
 3880SOL    HW123099   3.942   4.555   6.469  2.0179 -1.4543  1.7919
 3880SOL    HW223100   3.823   4.615   6.534  1.2318  0.4229  0.7244
 3881SOL     OW23101   2.176   2.486   2.975 -0.0164 -0.2080 -0.2928
 3881SOL    HW123102   2.254   2.455   3.022 -0.8216  0.4370  1.4684
 3881SOL    HW223103   2.212   2.485   2.886 -3.2839  0.6158 -1.6094
 3882SOL     OW23104   3.928   1.579  15.657 -0.1379 -0.1711  0.2901
 3882SOL    HW123105   3.947   1.575  15.564  3.3322  0.4751  0.9535
 3882SOL    HW223106   3.914   1.673  15.671  3.0065  0.3722 -0.0694
 3883SOL     OW23107   0.140   4.362   3.334  0.0640 -0.4931  0.3732
 3883SOL    HW123108   0.215   4.418   3.357  0.5212 -0.9498  0.0020
 3883SOL    HW223109   0.155   4.289   3.393  1.5195  0.2068  0.8810
 3884SOL     OW23110   0.862   2.128  12.605  0.4559  0.8707 -0.2447
 3884SOL    HW123111   0.916   2.119  12.526  1.2884  1.1863  0.2876
 3884SOL    HW223112   0.864   2.222  12.625  2.1895  1.1355 -1.6208
 3885SOL     OW23113   1.453   4.644   6.428  0.0564  0.2656 -0.2926
 3885SOL    HW123114   1.501   4.592   6.363  0.7085 -2.6061  2.5118
 3885SOL    HW223115   1.373   4.662   6.379  0.0351 -2.0431 -1.1379
 3886SOL     OW23116   0.292   0.853   3.877  0.1912 -0.2473  0.1136
 3886SOL    HW123117   0.358   0.847   3.808 -0.7891 -1.5021 -0.7132
 3886SOL    HW223118   0.275   0.947   3.873 -1.0679 -0.3853  1.8485
 3887SOL     OW23119   0.777   3.655  11.271  0.0366 -0.0314 -0.4940
 3887SOL    HW123120   0.851   3.662  11.332  1.6074 -0.5201 -2.3439
 3887SOL    HW223121   0.811   3.690  11.189  0.3242 -1.9205 -1.1963
 3888SOL     OW23122   2.610   3.390   1.621 -0.1883  0.4859 -0.0940
 3888SOL    HW123123   2.533   3.356   1.575  0.7442 -0.4405 -0.9814
 3888SOL    HW223124   2.624   3.313   1.676 -0.7495 -0.4318 -1.2388
 3889SOL     OW23125   2.651   2.052   4.170  0.1057  0.3674  0.0888
 3889SOL    HW123126   2.646   2.001   4.251 -1.1657  0.0753 -0.1700
 3889SOL    HW223127   2.715   2.007   4.115 -1.1408  1.5258 -2.3276
 3890SOL     OW23128   1.569   0.887   3.971  0.2533 -0.2518  0.3650
 3890SOL    HW123129   1.603   0.931   3.894 -2.7956  1.0905 -0.2023
 3890SOL    HW223130   1.641   0.901   4.033  0.6673 -2.6719  0.4459
 3891SOL     OW23131   1.483   0.523  13.299  0.0527 -0.0189 -0.0611
 3891SOL    HW123132   1.418   0.590  13.321  1.7573  1.1997  1.2007
 3891SOL    HW223133   1.492   0.473  13.380  0.7861  2.0758  1.1459
 3892SOL     OW23134   2.900   1.944  11.599  0.2087 -0.1898  0.1981
 3892SOL    HW123135   2.873   1.954  11.690 -1.2444  1.2905 -0.4066
 3892SOL    HW223136   2.918   1.850  11.593 -2.2101 -0.7992  2.6544
 3893SOL     OW23137   3.809   1.310   4.312  0.0478 -0.4525  0.0339
 3893SOL    HW123138   3.745   1.374   4.342  1.3589  0.6688  0.4403
 3893SOL    HW223139   3.773   1.264   4.237  1.1583  0.5034 -1.0733
 3894SOL     OW23140   1.350   3.429   6.934 -0.3327  0.2186 -0.2169
 3894SOL    HW123141   1.355   3.397   7.024  0.6239  1.2638  0.0977
 3894SOL    HW223142   1.294   3.506   6.945 -2.3546 -1.5450  1.7218
 3895SOL     OW23143   3.325   4.438   2.413  0.0334  0.1628  0.2237
 3895SOL    HW123144   3.382   4.498   2.461 -1.2490  0.5670  1.2448
 3895SOL    HW223145   3.300   4.496   2.341  0.4068  2.9332  2.3261
 3896SOL     OW23146   0.924   2.898  10.632 -0.3000  0.0367  0.0276
 3896SOL    HW123147   0.969   2.884  10.715 -1.2618 -1.9875  0.1890
 3896SOL    HW223148   0.995   2.953  10.599  0.3180 -0.8665 -0.1272
 3897SOL     OW23149   3.919   2.658   1.725  0.5143  0.5464 -0.1860
 3897SOL    HW123150   3.836   2.694   1.755  1.7233  1.9335  1.4783
 3897SOL    HW223151   3.916   2.671   1.630 -0.2194 -2.3593 -0.5573
 3898SOL     OW23152   2.269   1.237   4.318 -0.6987  0.5472  0.1444
 3898SOL    HW123153   2.330   1.186   4.371 -0.1107 -0.5991 -1.6326
 3898SOL    HW223154   2.288   1.214   4.227  0.0346 -0.9680  0.6705
 3899SOL     OW23155   1.803   3.835   1.372  0.2329  0.1377 -0.2135
 3899SOL    HW123156   1.836   3.924   1.358  0.8623  0.0102  0.4718
 3899SOL    HW223157   1.793   3.801   1.283  1.1720 -1.5262  0.3232
 3900SOL     OW23158   3.693   1.716  16.842 -0.2627 -0.4360 -0.9565
 3900SOL    HW123159   3.776   1.679  16.873  0.7081  3.6893  1.3657
 3900SOL    HW223160   3.652   1.710  16.928 -0.5350  3.5651 -0.8076
 3901SOL     OW23161   1.322   1.694   6.315  0.2661 -0.0320  0.1099
 3901SOL    HW123162   1.248   1.636   6.334  0.2806  0.4782  1.7326
 3901SOL    HW223163   1.274   1.773   6.290 -0.0195  0.1034  1.0537
 3902SOL     OW23164   0.878   0.756   8.734 -0.3237  0.4291  0.0674
 3902SOL    HW123165   0.790   0.790   8.720 -0.2375  0.3133 -0.7653
 3902SOL    HW223166   0.936   0.802   8.673 -2.0164  0.8868 -1.2009
 3903SOL     OW23167   4.481   2.543   6.617 -0.0698 -0.2548  0.1532
 3903SOL    HW123168   4.526   2.461   6.599 -1.5449 -1.4595  1.8657
 3903SOL    HW223169   4.518   2.601   6.551 -0.3865  0.5740  0.7015
 3904SOL     OW23170   3.833   2.610   0.140 -0.2613  0.6549  0.0871
 3904SOL    HW123171   3.918   2.653   0.153 -1.2004  2.4029  0.5372
 3904SOL    HW223172   3.777   2.656   0.204  1.7886  2.2861  0.7294
 3905SOL     OW23173   3.356   0.949  13.268 -0.2262  0.8298  0.3592
 3905SOL    HW123174   3.357   0.972  13.175  2.4692  0.5450  0.2923
 3905SOL    HW223175   3.362   1.038  13.303 -1.8488  1.3312 -0.6499
 3906SOL     OW23176   3.079   1.059  12.275  0.3952 -0.6799  0.2319
 3906SOL    HW123177   3.151   1.001  12.249 -0.1250  0.9409 -4.7913
 3906SOL    HW223178   3.130   1.140  12.271  0.3748 -0.7291 -1.0650
 3907SOL     OW23179   2.485   0.115   6.563 -0.1595  0.1483 -0.4473
 3907SOL    HW123180   2.533   0.195   6.543  1.4082 -0.8741 -0.8142
 3907SOL    HW223181   2.551   0.053   6.533 -1.9274 -0.7818 -2.4983
 3908SOL     OW23182   2.523   4.490   8.087 -0.4860  0.6418  0.0371
 3908SOL    HW123183   2.554   4.525   8.171 -1.2835  0.6924  0.3086
 3908SOL    HW223184   2.452   4.431   8.113 -1.8030  1.7032 -1.1642
 3909SOL     OW23185   0.199   2.998   8.327  0.0027  0.2213  0.8808
 3909SOL    HW123186   0.280   3.030   8.286  0.5734 -0.0526  1.8103
 3909SOL    HW223187   0.214   3.042   8.410  2.3906 -2.3732  1.7990
 3910SOL     OW23188   3.836   3.835  14.980  0.1074 -0.0614 -0.4767
 3910SOL    HW123189   3.869   3.757  14.936 -0.1189 -0.9158  0.8702
 3910SOL    HW223190   3.804   3.877  14.901  1.1812 -1.2029 -1.5226
 3911SOL     OW23191   0.833   4.283  13.150  0.2809  0.1068 -0.2698
 3911SOL    HW123192   0.911   4.330  13.181  0.7240 -0.8491  0.0717
 3911SOL    HW223193   0.813   4.316  13.062 -3.7784  2.9391  1.7020
 3912SOL     OW23194   1.013   0.669   0.643  0.2428 -0.1406 -0.2697
 3912SOL    HW123195   1.055   0.689   0.560  0.8580  1.8999  0.5373
 3912SOL    HW223196   1.087   0.685   0.702 -0.4957 -0.1087  0.6452
 3913SOL     OW23197   1.739   1.050  12.986  0.1757  0.3206 -0.1127
 3913SOL    HW123198   1.797   1.124  12.967  1.7885 -0.2143  2.7921
 3913SOL    HW223199   1.684   1.038  12.908 -0.0581 -2.1696  0.4459
 3914SOL     OW23200   2.886   4.102   3.213 -0.6881 -0.1892 -0.0075
 3914SOL    HW123201   2.912   4.018   3.250 -1.1726 -0.6154 -0.6443
 3914SOL    HW223202   2.822   4.075   3.148 -1.1474  2.1159 -0.5222
 3915SOL     OW23203   2.796   3.618   8.432 -0.2281 -0.4745  0.4528
 3915SOL    HW123204   2.880   3.664   8.439 -0.4981 -0.1887  1.7970
 3915SOL    HW223205   2.796   3.544   8.492 -2.8326  0.3074  1.3810
 3916SOL     OW23206   3.644   2.963   7.782  0.1439 -0.0130  0.0380
 3916SOL    HW123207   3.669   2.994   7.695 -0.9801  1.6660  0.3085
 3916SOL    HW223208   3.629   2.871   7.761 -0.8898  0.6210 -1.9745
 3917SOL     OW23209   2.388   2.249  10.024 -0.5134 -0.2629  0.2554
 3917SOL    HW123210   2.413   2.167   9.981 -0.7073  0.1080 -0.5831
 3917SOL    HW223211   2.296   2.235  10.042  0.1011 -0.6984  3.0365
 3918SOL     OW23212   3.999   1.494   7.320 -0.4713 -0.9114  0.1131
 3918SOL    HW123213   4.047   1.450   7.390  0.0895  2.5535  1.8835
 3918SOL    HW223214   3.922   1.531   7.363 -0.4442  0.5621 -1.1213
 3919SOL     OW23215   3.296   3.329   5.207 -0.4372  0.3729  0.1004
 3919SOL    HW123216   3.236   3.404   5.213 -0.0234  0.7134  0.0074
 3919SOL    HW223217   3.375   3.358   5.253  0.6399  1.4744 -2.4539
 3920SOL     OW23218   0.401   0.463   7.547  0.4130  0.2252  0.2836
 3920SOL    HW123219   0.321   0.444   7.596  0.4367  1.2379  0.7289
 3920SOL    HW223220   0.449   0.502   7.619  2.2306  0.4459 -1.0431
 3921SOL     OW23221   2.492   3.455   4.681  0.1853 -0.2749  0.2521
 3921SOL    HW123222   2.511   3.526   4.620 -0.7759  0.6101  0.9922
 3921SOL    HW223223   2.397   3.466   4.676  0.0932 -1.8900 -1.4259
 3922SOL     OW23224   2.865   3.453   6.722 -0.0424 -0.1640 -0.8140
 3922SOL    HW123225   2.937   3.400   6.756 -1.2200 -1.2602 -0.0015
 3922SOL    HW223226   2.790   3.406   6.760  0.5194 -0.0320  0.4456
 3923SOL     OW23227   4.643   2.029   8.011 -0.0097  0.4856  0.0646
 3923SOL    HW123228   4.582   2.065   8.076 -1.7214  0.6082 -1.6061
 3923SOL    HW223229   4.708   1.985   8.064 -0.9237 -1.3630 -0.3563
 3924SOL     OW23230   4.717   4.510   6.538  0.2942  0.7393  0.3204
 3924SOL    HW123231   4.663   4.528   6.461  0.3725 -0.5160 -0.0284
 3924SOL    HW223232   4.679   4.581   6.590 -2.0305 -0.1417 -0.2042
 3925SOL     OW23233   0.012   1.730   9.974  0.2565  0.1559  0.4682
 3925SOL    HW123234   4.686   1.794  10.027 -1.1494 -1.0122  0.5781
 3925SOL    HW223235   0.046   1.790   9.907 -1.0868  1.0881  0.6272
 3926SOL     OW23236   1.208   4.633   8.965  0.3439  0.0934  0.7617
 3926SOL    HW123237   1.177   4.723   8.975  2.3824  0.8126  0.7256
 3926SOL    HW223238   1.279   4.647   8.902 -1.5308  0.4860 -1.2756
 3927SOL     OW23239   4.483   3.657   0.477  0.7363  0.4576  0.1190
 3927SOL    HW123240   4.524   3.573   0.496  0.7004  0.1593 -1.1444
 3927SOL    HW223241   4.426   3.664   0.554 -0.4085  1.1981 -0.7996
 3928SOL     OW23242   1.114   4.252   7.802 -0.0700 -0.3924  0.5504
 3928SOL    HW123243   1.032   4.292   7.773 -0.9365 -2.4639  0.0972
 3928SOL    HW223244   1.133   4.179   7.743 -0.7412  1.2786 -1.7391
 3929SOL     OW23245   4.617   3.524   8.447  0.1052 -0.4483 -0.2916
 3929SOL    HW123246   4.586   3.476   8.371 -0.7761 -2.5363  1.3908
 3929SOL    HW223247   4.689   3.574   8.407 -0.5132  0.8987  0.2686
 3930SOL     OW23248   2.309   0.254   5.219 -0.0998 -0.0976  0.2660
 3930SOL    HW123249   2.349   0.204   5.148 -0.5794  0.5256 -0.4396
 3930SOL    HW223250   2.391   0.289   5.256 -0.5837  0.0636  1.1783
 3931SOL     OW23251   0.076   1.161  12.570 -0.0069  0.1629 -0.0425
 3931SOL    HW123252   0.011   1.230  12.585  1.4621  2.0525 -2.3531
 3931SOL    HW223253   0.141   1.192  12.508  1.4481 -2.7416  0.0213
 3932SOL     OW23254   2.172   2.263   2.194  0.4196  0.1743  0.1419
 3932SOL    HW123255   2.213   2.183   2.229  0.2997 -0.5009 -1.2865
 3932SOL    HW223256   2.086   2.249   2.235  1.0493  0.1141  1.4338
 3933SOL     OW23257   4.048   1.794   4.665 -0.2875  0.4950 -0.3193
 3933SOL    HW123258   4.142   1.804   4.649 -0.4714  0.5787 -1.3349
 3933SOL    HW223259   4.026   1.708   4.630  0.9636  0.0728 -0.0627
 3934SOL     OW23260   1.959   3.774  12.923  0.5421  0.0549  0.4757
 3934SOL    HW123261   1.926   3.693  12.885 -1.3570  2.1992 -2.5232
 3934SOL    HW223262   1.898   3.826  12.870  0.0863 -2.7518 -1.7229
 3935SOL     OW23263   4.177   4.555   6.640 -0.0976 -0.2921 -0.0003
 3935SOL    HW123264   4.135   4.476   6.675  3.4915 -3.2901 -2.5608
 3935SOL    HW223265   4.159   4.603   6.720 -2.7006  1.5629 -1.7006
 3936SOL     OW23266   4.272   1.626  17.671  0.5846  0.2416  0.6520
 3936SOL    HW123267   4.227   1.619  17.586 -0.2407 -1.8240  1.2446
 3936SOL    HW223268   4.294   1.536   0.003 -2.5832 -0.4907  0.8395
 3937SOL     OW23269   2.126   4.483   2.590 -0.1472 -0.0049  0.2847
 3937SOL    HW123270   2.122   4.391   2.618  0.5713 -0.0204  0.3412
 3937SOL    HW223271   2.136   4.473   2.495 -1.7779 -1.8570  0.2984
 3938SOL     OW23272   4.019   4.616   1.262 -0.2798  0.2047 -0.5885
 3938SOL    HW123273   4.047   4.687   1.205 -0.5664 -0.7059 -1.8572
 3938SOL    HW223274   4.052   4.651   1.345  0.6778  1.8100 -1.6707
 3939SOL     OW23275   3.365   1.678   7.029 -0.0144  0.2877  0.3029
 3939SOL    HW123276   3.450   1.721   7.022 -0.9816  1.7511 -2.3020
 3939SOL    HW223277   3.306   1.753   7.029 -0.6654 -0.2268  1.1814
 3940SOL     OW23278   1.687   2.491   2.852 -0.0480 -0.4271  0.0648
 3940SOL    HW123279   1.753   2.513   2.917  0.4300 -0.7039 -0.3245
 3940SOL    HW223280   1.609   2.533   2.888 -0.2547 -0.7029 -0.0600
 3941SOL     OW23281   3.543   0.236   1.747 -0.0482 -0.2760 -0.7661
 3941SOL    HW123282   3.568   0.265   1.835 -0.5040  1.5697 -1.2488
 3941SOL    HW223283   3.538   0.315   1.694  0.3647 -1.0827 -2.0018
 3942SOL     OW23284   4.543   0.141   8.029  0.0547  0.0045 -0.0090
 3942SOL    HW123285   4.562   0.077   8.096 -1.2576  0.0384  0.4084
 3942SOL    HW223286   4.542   0.085   7.951 -0.0278  0.5865 -0.4281
 3943SOL     OW23287   3.755   0.314   7.435 -0.2780  0.1439  0.0091
 3943SOL    HW123288   3.764   0.332   7.341  0.4536 -0.8968 -0.1095
 3943SOL    HW223289   3.734   0.221   7.435 -3.1889  0.8027  0.1136
 3944SOL     OW23290   3.791   3.552  14.263  0.0667 -0.3222 -0.1435
 3944SOL    HW123291   3.873   3.503  14.258  1.2862  1.3739  3.4122
 3944SOL    HW223292   3.731   3.478  14.250  0.1147 -0.9091  3.0410
 3945SOL     OW23293   1.772   4.057   0.857 -0.1879 -0.0764  0.7084
 3945SOL    HW123294   1.677   4.065   0.856 -0.1002  0.9897  0.9362
 3945SOL    HW223295   1.794   4.142   0.817 -1.7106  0.1688  0.4175
 3946SOL     OW23296   3.214   3.284   2.404  0.0853 -0.1787  0.0721
 3946SOL    HW123297   3.175   3.365   2.436  1.0891 -0.4230  1.9401
 3946SOL    HW223298   3.296   3.282   2.454 -1.3731 -3.3027  2.3603
 3947SOL     OW23299   1.342   4.617   0.590  0.3891  0.0324  0.2589
 3947SOL    HW123300   1.255   4.582   0.569 -0.2630  1.7551  0.0770
 3947SOL    HW223301   1.318   4.703   0.625  0.1832  1.2291 -2.8065
 3948SOL     OW23302   2.254   2.622  10.749 -0.1534  0.2727 -0.5076
 3948SOL    HW123303   2.198   2.615  10.672 -0.2051  0.7031 -0.5127
 3948SOL    HW223304   2.269   2.717  10.751  1.9979 -0.0980  0.2282
 3949SOL     OW23305   1.131   0.722   3.061 -0.0375  0.1337  0.2475
 3949SOL    HW123306   1.148   0.760   3.147  0.1471  1.9639 -0.5934
 3949SOL    HW223307   1.207   0.667   3.041 -1.3973 -1.6164 -0.1360
 3950SOL     OW23308   4.464   3.198   6.004 -0.1362  0.1056 -0.8075
 3950SOL    HW123309   4.399   3.127   6.009 -2.7287  2.5934  0.7394
 3950SOL    HW223310   4.413   3.259   6.059 -1.9085 -3.2154  1.2524
 3951SOL     OW23311   2.787   3.174  11.264  0.4126  0.0091 -0.2796
 3951SOL    HW123312   2.877   3.205  11.255  0.7886 -0.5803  1.5645
 3951SOL    HW223313   2.733   3.253  11.264 -0.6023 -0.6813 -1.1374
 3952SOL     OW23314   3.999   0.121   3.685  0.4782 -0.2794 -0.5489
 3952SOL    HW123315   3.979   0.076   3.603  1.5956 -1.1602 -0.3476
 3952SOL    HW223316   4.027   0.043   3.733  0.3899  0.4901  0.7333
 3953SOL     OW23317   4.466   1.205   4.631  0.0177 -0.0293  0.0205
 3953SOL    HW123318   4.371   1.201   4.622  0.0650  0.0511 -0.5319
 3953SOL    HW223319   4.496   1.118   4.602  1.2934  1.0458 -1.9091
 3954SOL     OW23320   3.909   2.021   5.020 -0.2665  0.3889 -0.1079
 3954SOL    HW123321   3.829   2.041   5.067 -1.0005 -1.7240 -0.4366
 3954SOL    HW223322   3.913   2.095   4.960  1.9096 -0.3557 -0.8968
 3955SOL     OW23323   3.284   1.901  14.770  0.5789  0.6293 -0.4753
 3955SOL    HW123324   3.270   1.807  14.762 -1.4779  0.9770 -0.8439
 3955SOL    HW223325   3.232   1.931  14.845  1.1181 -0.3251  0.2838
 3956SOL     OW23326   4.372   3.231   7.674  0.1020  0.3489  0.4152
 3956SOL    HW123327   4.297   3.190   7.631 -0.7411  3.2536 -0.8436
 3956SOL    HW223328   4.357   3.324   7.657 -3.2879 -0.0967  1.1107
 3957SOL     OW23329   1.090   0.976   4.502 -0.2799  0.1947  0.8146
 3957SOL    HW123330   1.073   0.945   4.413  1.4152 -1.1342  0.9589
 3957SOL    HW223331   1.179   1.008   4.487 -0.0234 -1.2271 -0.7804
 3958SOL     OW23332   0.006   3.081   0.018  0.9622 -0.1517  0.8250
 3958SOL    HW123333   0.050   3.154   0.062 -2.0502  2.8197 -1.0947
 3958SOL    HW223334   0.020   3.104  17.620 -1.2861 -0.8157  0.3245
 3959SOL     OW23335   2.633   0.189   2.869 -0.2812  0.6644 -0.1481
 3959SOL    HW123336   2.635   0.280   2.898 -0.0223  0.7950 -0.5739
 3959SOL    HW223337   2.606   0.198   2.778 -1.3950  1.1450  0.2355
 3960SOL     OW23338   0.760   2.000   7.332 -0.2879  0.1246  0.0035
 3960SOL    HW123339   0.726   1.981   7.244  0.1887  0.8535 -0.3454
 3960SOL    HW223340   0.747   2.095   7.339 -0.5125  0.1240 -0.3678
 3961SOL     OW23341   2.912   3.791   3.515 -0.2005  0.2055  0.8561
 3961SOL    HW123342   2.901   3.869   3.570  0.9647  0.9397  0.0430
 3961SOL    HW223343   2.829   3.743   3.518 -0.5534  0.6321 -2.5658
 3962SOL     OW23344   0.959   1.768   4.205  0.1647 -0.5171 -0.3469
 3962SOL    HW123345   0.941   1.736   4.294  1.0150  1.1393  0.4068
 3962SOL    HW223346   0.875   1.808   4.183 -0.9547 -1.7582  1.5748
 3963SOL     OW23347   0.877   4.050   7.022 -0.1118  0.1606  0.2303
 3963SOL    HW123348   0.835   4.106   7.087 -2.1350 -0.2671 -0.7017
 3963SOL    HW223349   0.838   4.088   6.943 -1.1446 -0.1917  0.5707
 3964SOL     OW23350   2.678   2.456   7.489  0.9120  0.1052  0.0852
 3964SOL    HW123351   2.712   2.396   7.422  0.9174  0.8597 -0.5960
 3964SOL    HW223352   2.585   2.434   7.490  0.4086  2.3714  1.8114
 3965SOL     OW23353   0.991   2.310   7.292 -0.1461  0.8153  0.0143
 3965SOL    HW123354   0.961   2.278   7.207  0.4906  1.7139 -0.5399
 3965SOL    HW223355   0.902   2.319   7.327 -0.2963 -1.7432  0.2735
 3966SOL     OW23356   0.042   3.748   6.336  0.1384 -0.0823  0.1673
 3966SOL    HW123357   4.684   3.785   6.302  0.5104 -0.2229 -0.8685
 3966SOL    HW223358   0.091   3.829   6.351  2.2586 -1.5534  1.2206
 3967SOL     OW23359   3.022   2.140   0.925 -0.2842 -0.0289  0.2267
 3967SOL    HW123360   2.968   2.175   0.854 -0.7605  1.2537  1.2126
 3967SOL    HW223361   2.970   2.062   0.944  1.0853 -1.4279 -1.8142
 3968SOL     OW23362   3.099   2.644   7.775 -0.0079 -0.7544  0.2194
 3968SOL    HW123363   3.092   2.549   7.766 -0.6233 -0.6705 -0.1819
 3968SOL    HW223364   3.153   2.648   7.854  0.9550 -0.1356 -0.4709
 3969SOL     OW23365   2.753   1.261  10.217  0.0231 -0.3899  0.1073
 3969SOL    HW123366   2.668   1.300  10.199  0.1906  0.1388  0.4258
 3969SOL    HW223367   2.772   1.289  10.307  0.4168  0.0173 -0.1001
 3970SOL     OW23368   4.558   4.172   0.600  0.0768  0.0685  0.0225
 3970SOL    HW123369   4.544   4.079   0.617  3.4159 -0.0562  2.1359
 3970SOL    HW223370   4.575   4.206   0.688 -0.3244 -1.4539  0.6996
 3971SOL     OW23371   3.257   4.403   3.779  0.0241  0.2840  0.1096
 3971SOL    HW123372   3.348   4.404   3.749 -0.0944  2.2875 -0.1731
 3971SOL    HW223373   3.243   4.309   3.791  0.9273 -0.2130 -2.7797
 3972SOL     OW23374   3.008   2.651   5.892 -0.4818  0.5576  1.0183
 3972SOL    HW123375   3.038   2.741   5.897  2.9728 -0.4635 -1.4408
 3972SOL    HW223376   3.051   2.614   5.970  2.6050  0.8835 -0.5475
 3973SOL     OW23377   2.851   1.389   5.217  0.0557  0.1917  0.3141
 3973SOL    HW123378   2.863   1.318   5.155 -0.9431 -0.5020  0.9207
 3973SOL    HW223379   2.758   1.388   5.239 -0.7689 -0.1942 -3.1978
 3974SOL     OW23380   1.705   4.431   1.052  0.4561  0.3876  0.9983
 3974SOL    HW123381   1.787   4.382   1.060  0.2534  0.1740  1.7698
 3974SOL    HW223382   1.718   4.495   1.122 -0.2046  1.2794  0.2908
 3975SOL     OW23383   3.869   3.701   3.625 -0.5282 -0.0643  0.6782
 3975SOL    HW123384   3.915   3.691   3.709 -1.4077 -2.4768  0.8699
 3975SOL    HW223385   3.792   3.753   3.648 -0.2283  1.0829 -0.9575
 3976SOL     OW23386   0.106   3.713   0.964 -0.2051  0.2417 -0.0368
 3976SOL    HW123387   0.129   3.799   1.000  1.2886 -0.6598  1.2035
 3976SOL    HW223388   0.078   3.741   0.877  0.6901 -1.6302 -0.9493
 3977SOL     OW23389   0.670   3.043  11.980  0.1214 -0.0406 -0.5284
 3977SOL    HW123390   0.675   2.948  11.991  1.0556  0.3416  2.4160
 3977SOL    HW223391   0.690   3.067  12.070  1.8554 -0.1652 -0.8792
 3978SOL     OW23392   4.465   4.600   5.652  0.3280  0.1447  0.2625
 3978SOL    HW123393   4.509   4.515   5.665 -1.0090 -0.8038 -1.3895
 3978SOL    HW223394   4.383   4.573   5.611  0.3724  1.4040 -0.6647
 3979SOL     OW23395   1.734   0.616   4.776 -0.1107 -0.2576 -0.8673
 3979SOL    HW123396   1.720   0.664   4.858 -1.0005 -0.1805 -1.0690
 3979SOL    HW223397   1.813   0.569   4.803  0.4459  0.9023 -0.4824
 3980SOL     OW23398   0.194   0.112   3.503  0.0930 -0.0812 -0.3656
 3980SOL    HW123399   0.237   0.124   3.418  0.3876  1.3070 -0.0216
 3980SOL    HW223400   0.198   0.200   3.540 -0.8615 -0.4381  0.5544
 3981SOL     OW23401   1.633   0.727   7.282 -0.0617 -0.1714  0.1016
 3981SOL    HW123402   1.726   0.706   7.284 -0.6235 -2.5640  1.4044
 3981SOL    HW223403   1.600   0.647   7.241 -0.1957  0.5487 -1.2035
 3982SOL     OW23404   2.352   2.918  13.007  0.3194  0.2535  0.0244
 3982SOL    HW123405   2.329   2.951  13.094 -1.5001 -1.5531  0.2225
 3982SOL    HW223406   2.357   2.997  12.954 -2.5101  1.0935  1.0379
 3983SOL     OW23407   2.887   0.047   5.036 -0.9772 -0.2877  0.6082
 3983SOL    HW123408   2.820   0.019   5.099 -1.7647  0.4038  0.0899
 3983SOL    HW223409   2.854   0.132   5.006  0.1014  0.3145  1.1382
 3984SOL     OW23410   2.523   2.988   7.146 -0.4149  0.4460 -0.2667
 3984SOL    HW123411   2.464   2.913   7.159  0.0672  0.3935  1.6334
 3984SOL    HW223412   2.567   2.962   7.065  0.9141  0.5817  0.4201
 3985SOL     OW23413   4.471   2.304   8.654 -0.0892  0.8353 -0.7713
 3985SOL    HW123414   4.423   2.274   8.577 -1.6165  2.7485 -0.5569
 3985SOL    HW223415   4.424   2.255   8.721  0.2739 -0.3170 -1.3634
 3986SOL     OW23416   3.055   1.320   4.877 -0.0282  0.1619  0.0223
 3986SOL    HW123417   3.003   1.334   4.797  0.7594  2.3882 -0.0982
 3986SOL    HW223418   2.989   1.270   4.923  1.4828 -1.8172  0.0269
 3987SOL     OW23419   1.627   2.283   9.566  0.3684 -0.4995 -0.4974
 3987SOL    HW123420   1.576   2.203   9.579 -0.0081  0.2160  2.4898
 3987SOL    HW223421   1.617   2.324   9.652  1.1651  2.3247 -1.7469
 3988SOL     OW23422   4.026   4.102   7.907 -0.5335 -0.0737  0.4556
 3988SOL    HW123423   4.086   4.060   7.969 -0.6984 -2.2411 -0.8846
 3988SOL    HW223424   4.002   4.028   7.852 -2.7082  1.1175 -0.2026
 3989SOL     OW23425   0.765   3.755   3.057  0.2745  0.0177  0.3520
 3989SOL    HW123426   0.699   3.688   3.070 -0.7513  0.8638 -0.4897
 3989SOL    HW223427   0.791   3.771   2.966 -2.9765  0.7138 -0.4710
 3990SOL     OW23428   3.459   0.583   7.584  0.2039  0.3958 -0.5763
 3990SOL    HW123429   3.552   0.605   7.579  0.5047 -0.2577  2.4887
 3990SOL    HW223430   3.447   0.590   7.678  0.1937 -0.0575 -0.5430
 3991SOL     OW23431   3.163   3.107  14.975 -0.4064  0.3028 -0.6299
 3991SOL    HW123432   3.207   3.177  15.024 -0.9523 -0.3008  0.7302
 3991SOL    HW223433   3.211   3.119  14.893 -2.7050  1.5241 -1.8016
 3992SOL     OW23434   2.319   3.223   0.748 -0.6007 -0.1005  0.1031
 3992SOL    HW123435   2.370   3.143   0.741 -1.9060 -0.9108 -0.1556
 3992SOL    HW223436   2.386   3.290   0.764  1.6381 -2.2095 -0.4545
 3993SOL     OW23437   3.759   4.141   2.957  0.3780  0.1950  0.1286
 3993SOL    HW123438   3.801   4.056   2.965 -1.5153 -0.7487  0.1303
 3993SOL    HW223439   3.724   4.126   2.869  2.1784  0.4853 -0.6364
 3994SOL     OW23440   3.086   4.598   5.293 -0.2318 -0.5755  0.3079
 3994SOL    HW123441   3.106   4.505   5.298  0.2678 -0.4984 -0.1908
 3994SOL    HW223442   3.045   4.598   5.206  1.3865  1.3773 -0.4625
 3995SOL     OW23443   1.554   4.229   4.068 -0.0672  0.0133 -0.4168
 3995SOL    HW123444   1.523   4.139   4.056  0.8423 -0.4699  0.7418
 3995SOL    HW223445   1.483   4.266   4.120 -0.6438  0.4288 -1.5179
 3996SOL     OW23446   2.919   4.059   5.659  0.1341 -0.2063 -0.4218
 3996SOL    HW123447   2.875   4.097   5.735 -2.4737  2.8884 -3.4595
 3996SOL    HW223448   2.854   3.989   5.648 -1.0404  0.4455  2.3956
 3997SOL     OW23449   2.022   2.533  15.304  0.3287  0.7158 -0.1400
 3997SOL    HW123450   2.113   2.563  15.310  0.7442 -0.7118  0.5655
 3997SOL    HW223451   1.995   2.599  15.240 -0.9091 -0.1473 -0.5007
 3998SOL     OW23452   2.052   3.046   4.725 -0.3216  0.1101  0.3411
 3998SOL    HW123453   2.108   2.985   4.774  1.3061  0.9105 -0.5610
 3998SOL    HW223454   1.971   3.037   4.775 -0.0952  0.1878  0.7228
 3999SOL     OW23455   0.017   1.613   4.893  0.5069  0.4738 -0.0731
 3999SOL    HW123456   4.709   1.523   4.907  1.4961 -0.0199 -1.0764
 3999SOL    HW223457   0.056   1.637   4.978  2.0589  0.1069 -0.6904
 4000SOL     OW23458   3.995   1.088   5.236 -0.0652 -0.0347 -0.0491
 4000SOL    HW123459   4.067   1.114   5.178  0.6365 -1.2024  0.3243
 4000SOL    HW223460   4.038   1.091   5.321 -1.8839 -0.1360  0.8613
 4001SOL     OW23461   4.429   0.815   9.336  0.1873 -0.2325  0.1020
 4001SOL    HW123462   4.381   0.785   9.258  0.8487 -1.6058  0.2260
 4001SOL    HW223463   4.468   0.896   9.302 -2.2518  0.9425  0.0887
 4002SOL     OW23464   2.570   3.673  11.069  0.1076  0.3431 -0.0457
 4002SOL    HW123465   2.565   3.661  11.163 -1.0810  0.4159 -0.0969
 4002SOL    HW223466   2.486   3.630  11.051  0.9959 -0.8178 -1.3331
 4003SOL     OW23467   1.676   2.091   5.480 -0.1219  0.5752 -0.0995
 4003SOL    HW123468   1.667   2.093   5.575  1.4982 -1.7198  0.0890
 4003SOL    HW223469   1.672   2.185   5.460  0.1260  0.2925 -1.4437
 4004SOL     OW23470   3.748   3.166   7.212 -0.0045  0.2753  0.3674
 4004SOL    HW123471   3.838   3.148   7.239 -0.1194  1.5058  1.5685
 4004SOL    HW223472   3.757   3.175   7.117 -2.6880 -0.8875 -0.0015
 4005SOL     OW23473   4.412   0.908   5.390  0.3486 -0.1269  0.6464
 4005SOL    HW123474   4.430   0.831   5.336  1.6589  0.9770 -0.5018
 4005SOL    HW223475   4.450   0.887   5.475  0.4846 -0.1819  0.5716
 4006SOL     OW23476   4.459   3.935   6.795  0.3934 -0.0398  0.5059
 4006SOL    HW123477   4.424   4.024   6.789  0.4393 -0.1385 -1.1641
 4006SOL    HW223478   4.379   3.884   6.803 -0.7498  1.5615 -0.5537
 4007SOL     OW23479   0.663   1.688   9.852  0.0839  0.2040  0.2932
 4007SOL    HW123480   0.750   1.678   9.813  0.5101  0.7109  1.0900
 4007SOL    HW223481   0.664   1.784   9.846  0.2190  0.3434  2.2646
 4008SOL     OW23482   4.201   3.369   3.894  0.1205  0.1176 -0.6760
 4008SOL    HW123483   4.114   3.371   3.933 -0.0094  1.6337 -1.0236
 4008SOL    HW223484   4.266   3.399   3.958  0.2956  0.9931 -1.2634
 4009SOL     OW23485   0.801   1.338   6.071  0.0989 -0.6460  0.0207
 4009SOL    HW123486   0.843   1.424   6.068 -0.1900 -0.5196 -0.5893
 4009SOL    HW223487   0.738   1.357   6.001  1.9633 -1.7741 -1.9505
 4010SOL     OW23488   2.825   0.161   9.418  0.1833  0.1231 -0.5896
 4010SOL    HW123489   2.744   0.144   9.465  1.2340  0.5993  1.4199
 4010SOL    HW223490   2.883   0.142   9.492 -0.5653  2.7601  0.6766
 4011SOL     OW23491   3.154   4.004   4.234  0.1371  0.0160  0.1108
 4011SOL    HW123492   3.215   3.931   4.225  0.2359  0.1904 -0.6073
 4011SOL    HW223493   3.121   3.982   4.321  0.6331 -1.8904 -0.1807
 4012SOL     OW23494   0.512   0.130   9.253  0.7204 -0.3413 -0.1131
 4012SOL    HW123495   0.541   0.052   9.207  0.0648 -0.9822  0.5378
 4012SOL    HW223496   0.585   0.182   9.285  0.5913  0.7302 -1.5906
 4013SOL     OW23497   1.855   3.049   0.899  0.7368 -0.5243  0.0442
 4013SOL    HW123498   1.942   3.068   0.864  0.8539 -1.6116 -0.2499
 4013SOL    HW223499   1.808   3.117   0.850 -1.3077 -0.2816  2.3110
 4014SOL     OW23500   2.766   3.598   1.774 -0.1335  0.1566 -0.2263
 4014SOL    HW123501   2.714   3.614   1.853  0.0546  2.1564 -0.5138
 4014SOL    HW223502   2.698   3.542   1.736 -1.8865 -0.3099  3.5057
 4015SOL     OW23503   3.754   4.277  12.392  0.0151 -0.3209 -0.0898
 4015SOL    HW123504   3.774   4.184  12.408  0.2680 -0.3093 -0.3280
 4015SOL    HW223505   3.702   4.300  12.468  0.8852 -1.4266  0.8491
 4016SOL     OW23506   3.501   0.072   6.928  0.5507 -0.5108 -0.1270
 4016SOL    HW123507   3.416   0.076   6.886  1.3200  3.0389 -1.2730
 4016SOL    HW223508   3.484   4.714   6.978 -0.2452  0.8231  1.7365
 4017SOL     OW23509   0.506   3.775   5.706 -0.6638  0.1833 -0.2198
 4017SOL    HW123510   0.497   3.749   5.798  0.0126 -1.7687 -0.6905
 4017SOL    HW223511   0.600   3.762   5.692 -0.6137  1.6661 -1.1955
 4018SOL     OW23512   0.113   3.962  12.102 -0.1565 -0.2017  0.6396
 4018SOL    HW123513   0.054   4.037  12.094 -1.4997 -1.1289  1.8421
 4018SOL    HW223514   0.070   3.896  12.048  0.4130 -1.7664  2.0888
 4019SOL     OW23515   0.911   0.957  11.209 -0.5904 -1.0345 -0.2423
 4019SOL    HW123516   0.835   0.928  11.157 -1.4757  0.7966  0.0392
 4019SOL    HW223517   0.988   0.943  11.154 -0.0379 -1.9518  0.7729
 4020SOL     OW23518   2.729   2.607   2.249 -0.3898 -0.1221 -0.3033
 4020SOL    HW123519   2.665   2.572   2.311 -0.6582  0.0766 -0.4691
 4020SOL    HW223520   2.813   2.578   2.285 -0.5755  0.5165  0.6685
 4021SOL     OW23521   2.645   2.077   9.331 -0.2817  0.1515 -0.4896
 4021SOL    HW123522   2.564   2.026   9.335  0.6157 -0.8295  4.8577
 4021SOL    HW223523   2.617   2.155   9.378  0.0902 -0.4235  0.6751
 4022SOL     OW23524   0.672   1.688   9.517  0.0456 -0.1358 -0.2036
 4022SOL    HW123525   0.739   1.751   9.488  1.6903 -1.4436  0.7645
 4022SOL    HW223526   0.599   1.721   9.465 -0.1922 -2.3791 -1.2731
 4023SOL     OW23527   3.315   0.557  12.609  0.0057 -0.0826 -0.4338
 4023SOL    HW123528   3.303   0.647  12.580 -0.2973  0.2184  0.6140
 4023SOL    HW223529   3.225   0.537  12.635 -0.2354 -1.3491 -2.2496
 4024SOL     OW23530   2.005   1.382  13.506  0.6172  0.4004  0.4539
 4024SOL    HW123531   2.031   1.473  13.519  1.8518  0.2833 -1.1867
 4024SOL    HW223532   2.079   1.349  13.455  0.8749  0.0697  1.0447
 4025SOL     OW23533   1.484   2.576   6.877 -1.0419  0.2055 -0.0645
 4025SOL    HW123534   1.439   2.506   6.924  0.2096  2.3367  4.3242
 4025SOL    HW223535   1.556   2.585   6.939 -0.2835 -0.6223 -0.8311
 4026SOL     OW23536   1.044   1.960   5.384 -0.4825  0.1353 -0.0919
 4026SOL    HW123537   1.054   1.876   5.430  1.0528 -0.5148 -1.6281
 4026SOL    HW223538   1.131   1.986   5.355 -0.5597  0.0284 -0.4237
 4027SOL     OW23539   1.886   3.326  14.965 -0.2941 -0.1147  0.1369
 4027SOL    HW123540   1.966   3.364  15.001  0.1527  0.0611 -1.0357
 4027SOL    HW223541   1.839   3.406  14.940  1.9076  0.8213 -1.0066
 4028SOL     OW23542   4.116   3.307  12.152 -0.0040  1.0263 -0.3656
 4028SOL    HW123543   4.212   3.306  12.149 -0.0717 -0.1359 -1.9233
 4028SOL    HW223544   4.103   3.346  12.066 -1.8151  0.0198 -0.5319
 4029SOL     OW23545   1.378   2.712   3.516 -0.3918 -0.1552  0.2816
 4029SOL    HW123546   1.287   2.712   3.544 -0.1054  0.0913  1.2055
 4029SOL    HW223547   1.391   2.621   3.488  1.1710  0.3289 -0.5641
 4030SOL     OW23548   0.817   4.619   3.092  0.1211 -0.4412 -1.0167
 4030SOL    HW123549   0.833   4.592   3.001 -2.8844  0.0405 -1.6955
 4030SOL    HW223550   0.898   4.610   3.142 -1.3743 -3.2071  0.8518
 4031SOL     OW23551   0.725   2.328   2.771  0.4692  0.3652 -0.0611
 4031SOL    HW123552   0.786   2.255   2.762 -1.3046 -1.0106 -1.1475
 4031SOL    HW223553   0.648   2.274   2.753  0.4584 -0.6561  2.9272
 4032SOL     OW23554   0.268   1.245  15.810  0.1561  0.5581 -0.1272
 4032SOL    HW123555   0.308   1.215  15.729  2.8389  0.7153  1.1398
 4032SOL    HW223556   0.314   1.198  15.879 -0.9296  0.4581  0.5304
 4033SOL     OW23557   2.959   2.203   8.892 -0.0816  0.5268 -0.1600
 4033SOL    HW123558   2.985   2.128   8.945 -0.3874  0.8334  0.4277
 4033SOL    HW223559   2.897   2.253   8.946 -3.0620 -1.1491 -2.0391
 4034SOL     OW23560   3.070   2.848  16.242 -0.7887 -0.4031  0.4651
 4034SOL    HW123561   2.977   2.871  16.241 -0.0628  2.4680 -0.2604
 4034SOL    HW223562   3.081   2.823  16.334  3.3511  2.5429  0.7683
 4035SOL     OW23563   4.062   2.823   6.524  0.1026 -0.6634 -0.3333
 4035SOL    HW123564   4.122   2.749   6.512  1.6376  0.3751  0.9685
 4035SOL    HW223565   3.987   2.778   6.564 -0.8354  1.2682  0.0767
 4036SOL     OW23566   1.550   2.893   5.790  0.3167  0.2901  0.3280
 4036SOL    HW123567   1.576   2.825   5.728 -3.3609  0.6398 -1.5858
 4036SOL    HW223568   1.465   2.855   5.812  1.0657 -2.6355 -1.8025
 4037SOL     OW23569   0.737   3.367   7.038  0.1842 -0.3429  0.0590
 4037SOL    HW123570   0.767   3.381   7.128  0.7725  1.4804 -0.4277
 4037SOL    HW223571   0.723   3.455   7.004  2.3869  0.4291  1.1555
 4038SOL     OW23572   4.678   0.880   4.994 -0.1485  0.5188 -0.1045
 4038SOL    HW123573   4.594   0.864   4.951  1.3009 -2.3147 -1.8539
 4038SOL    HW223574   4.715   0.793   5.011  0.4781  0.7444 -0.3314
 4039SOL     OW23575   1.771   3.299   8.023 -0.6715 -0.4479  0.4767
 4039SOL    HW123576   1.814   3.348   7.953 -0.6910 -1.3224 -0.1543
 4039SOL    HW223577   1.734   3.230   7.968 -1.8191  0.2666  0.3362
 4040SOL     OW23578   3.489   3.068   1.696  0.2430 -0.3167 -0.1085
 4040SOL    HW123579   3.574   3.103   1.671  0.7069  0.0304  1.9284
 4040SOL    HW223580   3.460   3.130   1.763  0.8323 -0.3355  0.1642
 4041SOL     OW23581   0.644   2.800   9.237 -0.4631 -0.2342 -0.2203
 4041SOL    HW123582   0.555   2.766   9.249 -0.2969 -0.5286  0.1486
 4041SOL    HW223583   0.697   2.727   9.203  0.4865  0.1905  0.3682
 4042SOL     OW23584   0.501   0.305   2.886  0.0881 -0.4997 -0.1740
 4042SOL    HW123585   0.445   0.376   2.855 -0.5331  0.1660  2.4801
 4042SOL    HW223586   0.472   0.290   2.976  2.2180 -0.1757  0.5542
 4043SOL     OW23587   3.872   4.135   4.810  0.1944  0.1701 -0.0730
 4043SOL    HW123588   3.802   4.187   4.849  0.1926  0.8308 -0.9542
 4043SOL    HW223589   3.825   4.052   4.804  2.4892 -1.3354  2.8510
 4044SOL     OW23590   3.771   2.442   6.959 -0.4623 -0.5198 -0.5622
 4044SOL    HW123591   3.800   2.522   6.914 -1.7675  1.3853  2.0014
 4044SOL    HW223592   3.833   2.377   6.927 -0.9525 -1.7731  1.0355
 4045SOL     OW23593   3.951   2.588  15.396  0.1549  0.4573 -0.6361
 4045SOL    HW123594   3.878   2.548  15.443  0.1474  2.1887  0.8324
 4045SOL    HW223595   4.017   2.521  15.410  0.3084  0.0659 -3.2531
 4046SOL     OW23596   0.183   0.315   9.369 -0.3552  0.1334  0.4492
 4046SOL    HW123597   0.255   0.274   9.417 -0.0522 -0.8960 -0.9026
 4046SOL    HW223598   0.216   0.404   9.385  0.8067  0.0475 -1.5023
 4047SOL     OW23599   1.031   3.831   5.059 -0.4439 -0.2452 -0.3378
 4047SOL    HW123600   1.078   3.822   4.976 -0.9174 -0.0875 -0.6220
 4047SOL    HW223601   1.013   3.746   5.099  0.4772 -0.1245  0.3152
 4048SOL     OW23602   0.917   0.113   4.341 -0.5535 -0.0377  0.0635
 4048SOL    HW123603   0.854   0.135   4.409 -2.4372  1.2784 -2.0954
 4048SOL    HW223604   0.871   0.125   4.258  0.6159  2.4168 -0.2081
 4049SOL     OW23605   3.899   3.481   4.500  0.3728  0.1787 -0.2599
 4049SOL    HW123606   3.845   3.558   4.483 -1.1940 -1.2794 -1.8378
 4049SOL    HW223607   3.925   3.490   4.592  0.2592  0.4404 -0.2557
 4050SOL     OW23608   4.550   3.801   3.921 -0.2416  0.0914 -0.6314
 4050SOL    HW123609   4.614   3.785   3.851 -0.2193  1.4110 -0.9004
 4050SOL    HW223610   4.552   3.896   3.915  0.9903 -0.0456 -2.5298
 4051SOL     OW23611   3.678   4.270   0.499 -0.1593  0.0220 -0.5137
 4051SOL    HW123612   3.608   4.333   0.512 -1.4327 -1.7544  1.2808
 4051SOL    HW223613   3.744   4.306   0.558 -1.1723 -1.3413  1.4406
 4052SOL     OW23614   0.060   3.482   1.075 -0.4153 -0.3112  0.4522
 4052SOL    HW123615   0.135   3.476   1.135 -0.7705  0.3654  0.9695
 4052SOL    HW223616   0.081   3.563   1.029  0.1612 -0.7306 -0.0191
 4053SOL     OW23617   1.048   1.729   1.782  0.1731  0.8305 -0.2133
 4053SOL    HW123618   1.042   1.634   1.770 -1.6632  0.6037  2.5081
 4053SOL    HW223619   1.027   1.766   1.696  0.2255  0.6073 -0.3232
 4054SOL     OW23620   1.101   2.813   6.613  0.1718 -0.3545  0.6651
 4054SOL    HW123621   1.077   2.874   6.543 -3.2600 -2.7231 -0.2317
 4054SOL    HW223622   1.015   2.791   6.649 -0.3033 -2.8411 -2.0191
 4055SOL     OW23623   0.105   4.582   3.519  0.0718  0.2686  0.5296
 4055SOL    HW123624   0.128   4.675   3.520 -1.0260  0.5579 -1.1686
 4055SOL    HW223625   0.090   4.574   3.425 -1.2749 -0.1315  0.7793
 4056SOL     OW23626   3.090   2.774   3.734 -0.1474  0.0493 -0.1907
 4056SOL    HW123627   3.003   2.810   3.750 -0.2452  0.5584 -1.8045
 4056SOL    HW223628   3.093   2.797   3.641 -1.7459 -0.2252 -0.3089
 4057SOL     OW23629   0.894   1.506   8.295  0.1767 -0.5079  0.5630
 4057SOL    HW123630   0.837   1.502   8.373  2.3939 -0.0811  2.2096
 4057SOL    HW223631   0.973   1.467   8.331  1.2527  0.7547 -0.4800
 4058SOL     OW23632   3.792   3.755   1.751  0.1562 -0.2312 -0.7931
 4058SOL    HW123633   3.858   3.737   1.818  0.7871 -0.8279 -1.5775
 4058SOL    HW223634   3.794   3.849   1.764 -0.9056 -0.4078  0.7014
 4059SOL     OW23635   2.174   2.338  11.265  0.1571  0.8505  0.4281
 4059SOL    HW123636   2.083   2.336  11.295  0.1434 -1.6132  0.2339
 4059SOL    HW223637   2.163   2.345  11.171 -0.9249  1.2114  0.5826
 4060SOL     OW23638   1.026   3.452  11.204  0.0218 -0.7628 -0.0611
 4060SOL    HW123639   1.036   3.545  11.181  1.5475 -0.8943  0.0591
 4060SOL    HW223640   1.114   3.438  11.238  1.1133  3.7894 -0.9250
 4061SOL     OW23641   1.620   0.925   7.521 -0.0035  0.4115 -0.2500
 4061SOL    HW123642   1.677   0.897   7.593 -1.0106  0.6202  0.6168
 4061SOL    HW223643   1.581   0.843   7.495 -1.6960  0.6960  1.4020
 4062SOL     OW23644   4.439   1.129   2.601 -0.4237  0.2109  0.1971
 4062SOL    HW123645   4.525   1.087   2.591 -0.5947  0.0872 -0.7472
 4062SOL    HW223646   4.380   1.062   2.568  2.0120 -3.0766  2.4620
 4063SOL     OW23647   3.476   0.551   6.035 -0.3505  0.1188  0.4572
 4063SOL    HW123648   3.533   0.508   6.098  1.6168  1.6097 -0.3138
 4063SOL    HW223649   3.421   0.603   6.093 -1.6417  1.6279 -2.0982
 4064SOL     OW23650   0.972   1.173  11.382  0.4469  0.4345  0.7877
 4064SOL    HW123651   0.957   1.115  11.308  0.2475  1.4858  0.0071
 4064SOL    HW223652   0.885   1.173  11.420 -0.2108 -1.8565 -0.7109
 4065SOL     OW23653   4.292   1.175   5.164  0.0161  0.5238 -0.2806
 4065SOL    HW123654   4.324   1.160   5.253  1.6240 -1.1879 -1.1362
 4065SOL    HW223655   4.312   1.091   5.123 -2.7680 -0.5298  0.5637
 4066SOL     OW23656   2.484   3.332   3.548 -0.3016  0.1782  0.1502
 4066SOL    HW123657   2.416   3.320   3.614 -0.9400  2.3660 -0.0959
 4066SOL    HW223658   2.443   3.301   3.467  2.6124 -1.9186 -0.5129
 4067SOL     OW23659   3.703   0.998   4.489  0.1991 -0.9722  0.4232
 4067SOL    HW123660   3.638   0.952   4.542  1.2911 -1.2919  1.4836
 4067SOL    HW223661   3.766   1.041   4.547  0.0603  0.9947 -0.8665
 4068SOL     OW23662   0.556   0.191   5.817 -0.2949 -0.2301  0.2173
 4068SOL    HW123663   0.587   0.278   5.845 -1.2057  0.6855 -1.6447
 4068SOL    HW223664   0.464   0.212   5.800 -0.2865  0.7387  1.3293
 4069SOL     OW23665   2.913   2.112   0.073  0.0014  0.2312 -0.6144
 4069SOL    HW123666   2.932   2.047   0.005 -0.6133 -1.5719  0.9410
 4069SOL    HW223667   2.919   2.057   0.151  2.1482  0.4151 -0.6533
 4070SOL     OW23668   4.038   2.238   6.579  0.1474  0.1429  0.1875
 4070SOL    HW123669   4.125   2.229   6.540  0.3947 -0.6465  0.9318
 4070SOL    HW223670   4.013   2.317   6.531 -0.8187 -0.0077  0.4434
 4071SOL     OW23671   1.559   1.292   6.409 -0.3351  0.3504 -0.5634
 4071SOL    HW123672   1.619   1.217   6.416 -0.3417  0.3226 -0.7821
 4071SOL    HW223673   1.509   1.281   6.489  0.2782 -0.1262 -0.2441
 4072SOL     OW23674   2.554   3.649  17.662  0.1287 -0.5089  0.1532
 4072SOL    HW123675   2.646   3.624  17.657  0.3632  0.5045 -0.5957
 4072SOL    HW223676   2.529   3.654  17.570  1.5439  0.4057 -0.1771
 4073SOL     OW23677   4.270   2.938  16.179  0.5906  0.1059  0.3336
 4073SOL    HW123678   4.191   2.906  16.135  2.0415 -2.2410 -0.5311
 4073SOL    HW223679   4.223   2.979  16.251 -0.4134 -0.2911 -0.0932
 4074SOL     OW23680   2.785   0.323   4.208  0.7930  0.2311 -0.2244
 4074SOL    HW123681   2.709   0.281   4.165 -0.3004  0.9252  1.0332
 4074SOL    HW223682   2.780   0.412   4.173  0.0719 -0.3646 -1.6534
 4075SOL     OW23683   2.330   0.557   5.243  0.0121  0.0988 -0.2527
 4075SOL    HW123684   2.403   0.495   5.243  0.6962  0.9101  0.5266
 4075SOL    HW223685   2.339   0.583   5.151 -2.5637 -2.3563 -1.1711
 4076SOL     OW23686   1.328   4.188   9.093 -0.2300 -0.0817 -0.1263
 4076SOL    HW123687   1.251   4.240   9.070 -0.5631 -0.3154  0.4734
 4076SOL    HW223688   1.282   4.117   9.138 -1.4117  1.2717  0.7966
 4077SOL     OW23689   0.296   3.745   1.454  0.0023  0.3874  0.0802
 4077SOL    HW123690   0.372   3.719   1.506  0.6608  1.2774 -0.4436
 4077SOL    HW223691   0.217   3.716   1.499 -0.1116 -0.5436 -0.7259
 4078SOL     OW23692   2.845   4.048  13.984  0.0928 -0.5500 -0.8156
 4078SOL    HW123693   2.900   3.981  14.026  1.1736  1.2353  0.6198
 4078SOL    HW223694   2.906   4.120  13.972  0.6873 -0.7991  0.6284
 4079SOL     OW23695   2.735   4.563   7.731  0.4953 -0.1198  0.1689
 4079SOL    HW123696   2.747   4.544   7.638  0.3240 -2.5623  0.6305
 4079SOL    HW223697   2.732   4.658   7.737  1.1971 -0.1012  0.2671
 4080SOL     OW23698   0.667   3.572   5.251  0.1158  0.3832 -0.0285
 4080SOL    HW123699   0.659   3.667   5.253  0.3676  0.4214 -0.7980
 4080SOL    HW223700   0.576   3.541   5.242  0.5906 -1.0676  0.2730
 4081SOL     OW23701   2.717   2.464   8.259  0.1138  0.2492 -0.3902
 4081SOL    HW123702   2.769   2.390   8.290 -0.4304  0.7745  1.7797
 4081SOL    HW223703   2.629   2.435   8.282  0.1501  0.6823  0.3033
 4082SOL     OW23704   0.752   2.540   7.190  0.1510  0.2205 -0.0523
 4082SOL    HW123705   0.680   2.532   7.252  1.4051 -0.1244  1.3668
 4082SOL    HW223706   0.705   2.567   7.111 -1.9623  0.5923  1.3727
 4083SOL     OW23707   2.039   2.253  15.705  0.0778  0.4232 -0.0472
 4083SOL    HW123708   2.091   2.326  15.739 -0.6977  1.3079 -0.7696
 4083SOL    HW223709   2.087   2.228  15.626 -0.9176 -0.3264 -0.4057
 4084SOL     OW23710   2.377   0.927  14.683 -0.2910 -0.5792 -0.0826
 4084SOL    HW123711   2.378   0.883  14.598 -0.2740 -0.1514 -0.3000
 4084SOL    HW223712   2.392   0.847  14.735  1.0597 -0.0077  0.4153
 4085SOL     OW23713   2.212   0.530   9.380 -0.0781  0.2307 -1.1159
 4085SOL    HW123714   2.154   0.456   9.362  0.0474 -0.3154  0.6521
 4085SOL    HW223715   2.284   0.475   9.412 -0.8091 -1.0896 -1.7389
 4086SOL     OW23716   0.670   1.612   7.242  0.3737 -0.6346 -0.0323
 4086SOL    HW123717   0.722   1.548   7.291 -0.9347 -3.3118 -2.0926
 4086SOL    HW223718   0.656   1.674   7.313 -1.4727 -1.0912  0.0217
 4087SOL     OW23719   2.524   3.696   3.720  0.3859 -0.1917  0.7351
 4087SOL    HW123720   2.438   3.735   3.707  1.0483  0.2692 -2.2806
 4087SOL    HW223721   2.561   3.752   3.789 -0.6593  0.7909  0.4936
 4088SOL     OW23722   4.424   0.528   8.727  0.5136 -0.0633  0.2302
 4088SOL    HW123723   4.439   0.579   8.648 -0.2741 -2.1813 -1.3085
 4088SOL    HW223724   4.352   0.477   8.690  1.3216 -1.0223 -0.0254
 4089SOL     OW23725   3.324   3.892   3.640 -1.1816  0.1313 -0.0622
 4089SOL    HW123726   3.335   3.797   3.629  1.2653  0.3414  0.6489
 4089SOL    HW223727   3.252   3.894   3.703  0.6029 -0.8615  1.9925
 4090SOL     OW23728   3.327   1.930   7.797 -0.3551  0.4081  0.1373
 4090SOL    HW123729   3.318   1.860   7.862 -1.0250  0.3571 -0.0115
 4090SOL    HW223730   3.352   1.874   7.723 -0.3532  2.7816 -1.6496
 4091SOL     OW23731   1.972   1.889  17.430 -0.1561  0.1053  0.3476
 4091SOL    HW123732   1.988   1.797  17.408  0.1477  0.2103  0.1246
 4091SOL    HW223733   1.996   1.923  17.344  0.1184  0.6685  0.6513
 4092SOL     OW23734   0.158   2.804   7.700  0.7002  0.1971  0.5716
 4092SOL    HW123735   0.123   2.719   7.676  4.0136 -1.1094  0.4532
 4092SOL    HW223736   0.090   2.858   7.659 -0.3291  0.3201  2.4152
 4093SOL     OW23737   3.389   1.970   3.691  0.0044  0.2586  0.8779
 4093SOL    HW123738   3.483   1.951   3.695 -0.0292  0.4664  2.3852
 4093SOL    HW223739   3.370   1.936   3.778  1.2017 -0.2327  0.9488
 4094SOL     OW23740   1.087   0.338  14.053 -0.5360  0.4597 -0.0135
 4094SOL    HW123741   1.062   0.425  14.020  0.0021  0.5077 -0.2962
 4094SOL    HW223742   1.045   0.339  14.138 -0.6914 -0.6685 -0.0766
 4095SOL     OW23743   2.205   2.851   6.872  0.3634 -0.4204  0.0496
 4095SOL    HW123744   2.117   2.822   6.896  1.2332 -0.9032  2.6364
 4095SOL    HW223745   2.204   2.943   6.901 -1.4978 -0.6128  0.5911
 4096SOL     OW23746   3.093   0.937  16.744  0.1765  0.2208 -0.6632
 4096SOL    HW123747   3.030   0.885  16.793 -0.5537  2.1641  0.4569
 4096SOL    HW223748   3.120   0.887  16.668 -0.3391 -1.0001 -0.0327
 4097SOL     OW23749   3.517   2.757   5.657 -0.5651 -0.5012  0.3815
 4097SOL    HW123750   3.442   2.722   5.705  0.3159 -0.2134  1.9542
 4097SOL    HW223751   3.500   2.850   5.670  1.7308  0.2073 -1.7300
 4098SOL     OW23752   0.567   3.878   8.824  0.4131 -0.0851  0.4724
 4098SOL    HW123753   0.613   3.944   8.772 -0.2584  0.6661  0.8418
 4098SOL    HW223754   0.628   3.806   8.809  0.8868  0.3208  0.4647
 4099SOL     OW23755   4.470   1.450  14.615 -0.0002 -0.4815 -0.0939
 4099SOL    HW123756   4.465   1.374  14.673  2.6531 -1.8251 -1.6009
 4099SOL    HW223757   4.453   1.405  14.533 -1.4137  0.2266 -0.1901
 4100SOL     OW23758   1.088   3.787   4.471 -0.0119 -0.2058  0.1491
 4100SOL    HW123759   1.138   3.853   4.423 -0.4984 -0.0362 -0.1203
 4100SOL    HW223760   1.075   3.831   4.555  0.4374 -0.3171  0.2774
 4101SOL     OW23761   3.100   1.540   5.129  0.2843 -0.0144 -0.0272
 4101SOL    HW123762   3.085   1.481   5.055  0.2308 -2.9307  2.3332
 4101SOL    HW223763   3.051   1.500   5.201 -3.1327  1.2467 -1.5934
 4102SOL     OW23764   1.220   4.347   3.120  0.4163  0.3906 -0.3867
 4102SOL    HW123765   1.174   4.264   3.128  0.2489  0.2214 -3.0902
 4102SOL    HW223766   1.293   4.319   3.065  0.4483  3.2470 -1.7789
 4103SOL     OW23767   1.448   1.179   6.637  0.2476  0.5448 -0.3842
 4103SOL    HW123768   1.470   1.087   6.653 -2.0874 -0.0061 -0.2851
 4103SOL    HW223769   1.469   1.223   6.720 -0.9469  0.1139  0.1552
 4104SOL     OW23770   3.591   1.486   4.424  0.1969  0.6045  0.3239
 4104SOL    HW123771   3.595   1.452   4.514  0.2847 -0.9997 -0.2969
 4104SOL    HW223772   3.644   1.565   4.433  1.0454  0.0802 -0.1722
 4105SOL     OW23773   2.986   0.865   9.442 -1.1474  0.3805 -0.2583
 4105SOL    HW123774   3.024   0.804   9.378 -2.4635  2.3360 -2.9123
 4105SOL    HW223775   2.923   0.805   9.480 -0.4347  0.4846  1.0741
 4106SOL     OW23776   2.408   1.688   6.900 -0.0696  0.1591 -0.3062
 4106SOL    HW123777   2.338   1.685   6.835  0.3696 -0.1768 -0.7650
 4106SOL    HW223778   2.419   1.596   6.921 -1.1238  0.1153  0.0746
 4107SOL     OW23779   3.104   3.924   4.483  0.0360 -0.2376  0.9607
 4107SOL    HW123780   3.029   3.865   4.489 -1.5387  1.6457 -0.2669
 4107SOL    HW223781   3.182   3.872   4.503 -0.4510 -1.2288  0.2807
 4108SOL     OW23782   4.288   4.705   7.622  0.8584  0.4431 -0.3200
 4108SOL    HW123783   4.253   4.693   7.710  1.3642  0.4358 -0.1177
 4108SOL    HW223784   4.251   4.629   7.577  0.4936  0.9474 -0.8699
 4109SOL     OW23785   0.057   3.496  15.118 -0.2040 -0.3365  0.1643
 4109SOL    HW123786   0.129   3.442  15.085  2.2209  2.3798  1.0222
 4109SOL    HW223787   0.022   3.539  15.040 -2.0862 -1.8102  0.2039
 4110SOL     OW23788   1.493   0.232   3.418 -0.0649 -0.8309  0.2520
 4110SOL    HW123789   1.478   0.146   3.381  0.3006  0.0423 -1.9275
 4110SOL    HW223790   1.543   0.219   3.499 -0.7365  2.5777  1.2528
 4111SOL     OW23791   0.047   1.762  11.788 -0.0980  0.2887  0.0450
 4111SOL    HW123792   4.687   1.811  11.788 -1.1845 -1.5736  1.6260
 4111SOL    HW223793   0.040   1.730  11.877  0.6583 -1.8381 -0.6719
 4112SOL     OW23794   2.214   1.690  12.585  0.0442  0.2560  0.0427
 4112SOL    HW123795   2.210   1.713  12.678 -0.8158  1.7473 -0.3502
 4112SOL    HW223796   2.248   1.774  12.555  1.5884 -0.5275 -0.3911
 4113SOL     OW23797   3.019   0.086   6.403 -0.1975 -0.0327  0.9762
 4113SOL    HW123798   2.958   0.022   6.439 -0.7035  0.3084  0.7278
 4113SOL    HW223799   3.105   0.047   6.420  0.0099  1.0565  2.3840
 4114SOL     OW23800   2.395   3.703   8.748  0.8102 -0.1977  0.1292
 4114SOL    HW123801   2.429   3.785   8.784  0.8947 -0.4210  0.5592
 4114SOL    HW223802   2.413   3.708   8.654 -0.7405 -1.0098 -0.2151
 4115SOL     OW23803   3.040   0.847   4.518 -0.1261  0.5109  0.3160
 4115SOL    HW123804   3.069   0.891   4.438  0.4649  0.6241  0.5899
 4115SOL    HW223805   2.984   0.781   4.478 -0.7421 -0.3700  2.6205
 4116SOL     OW23806   0.778   4.381  10.630 -0.2447 -0.3634  0.6569
 4116SOL    HW123807   0.726   4.305  10.603 -0.5011  0.3013 -0.7039
 4116SOL    HW223808   0.862   4.350  10.595 -0.4167 -2.1625  1.7975
 4117SOL     OW23809   4.472   1.452   1.542  0.3154 -0.3761  0.6378
 4117SOL    HW123810   4.496   1.360   1.549  1.7902 -0.0550 -0.1690
 4117SOL    HW223811   4.379   1.452   1.519  0.3312 -0.7354  0.5818
 4118SOL     OW23812   0.902   1.818   7.484  0.4185 -0.2996 -0.7420
 4118SOL    HW123813   0.852   1.871   7.420 -0.2692  0.1769  0.1894
 4118SOL    HW223814   0.829   1.801   7.543  1.3507  0.3376  0.5809
 4119SOL     OW23815   4.383   3.881   5.799  0.7428  0.0431  0.2630
 4119SOL    HW123816   4.381   3.969   5.836  1.6938  0.9907 -1.8886
 4119SOL    HW223817   4.448   3.902   5.731 -0.0513 -1.2856 -0.9225
 4120SOL     OW23818   1.650   4.610   8.127 -0.0723  0.0675 -0.2456
 4120SOL    HW123819   1.593   4.568   8.063 -0.5742  1.5251 -0.7494
 4120SOL    HW223820   1.597   4.611   8.207 -0.2180 -0.5421 -0.3321
 4121SOL     OW23821   0.491   1.611   8.120  0.3762  0.2068 -0.1410
 4121SOL    HW123822   0.488   1.687   8.062  1.1342 -0.5387 -1.1392
 4121SOL    HW223823   0.475   1.658   8.202  0.4725 -2.4818  1.4161
 4122SOL     OW23824   3.087   1.372  17.081  0.1743  0.2617 -0.4630
 4122SOL    HW123825   3.039   1.429  17.020  0.0010 -2.3973 -2.8320
 4122SOL    HW223826   3.013   1.334  17.128  0.4780 -0.4723 -0.5724
 4123SOL     OW23827   0.432   0.138   8.692 -0.4505 -0.2933  0.2302
 4123SOL    HW123828   0.381   0.176   8.763  0.9787  1.2468  0.4536
 4123SOL    HW223829   0.501   0.094   8.743 -0.1803 -0.9002 -0.6538
 4124SOL     OW23830   4.028   3.876   3.199 -0.1413  0.0775  0.0994
 4124SOL    HW123831   4.024   3.806   3.264  0.9363  0.5779  0.7012
 4124SOL    HW223832   4.044   3.944   3.264  1.5611 -1.2551  1.0808
 4125SOL     OW23833   1.379   4.305  13.850  0.5261 -0.1132 -0.7618
 4125SOL    HW123834   1.429   4.231  13.884 -1.7757 -0.7246  1.3521
 4125SOL    HW223835   1.313   4.248  13.810  1.8499 -2.8997  1.0245
 4126SOL     OW23836   3.999   2.057   6.196 -0.3378  0.0951  0.0969
 4126SOL    HW123837   3.995   2.152   6.213 -1.3983  0.4681 -2.1309
 4126SOL    HW223838   3.943   2.054   6.118  0.6950  2.9339 -0.7758
 4127SOL     OW23839   0.891   4.417   4.882 -0.6202 -0.0123 -0.1690
 4127SOL    HW123840   0.981   4.432   4.911 -0.9659  2.3589 -0.3460
 4127SOL    HW223841   0.908   4.349   4.817  2.2292  2.2443 -1.7912
 4128SOL     OW23842   2.174   4.597  15.838  0.2983  0.4461 -0.2948
 4128SOL    HW123843   2.152   4.571  15.927  2.1459  2.3743  0.7033
 4128SOL    HW223844   2.253   4.546  15.819  0.3998  0.0113  1.2892
 4129SOL     OW23845   3.057   0.761   3.586  0.6505 -0.0324  0.6476
 4129SOL    HW123846   3.101   0.696   3.641  0.4937 -0.1901  0.5887
 4129SOL    HW223847   3.121   0.832   3.579  0.1563  0.5581  2.0513
 4130SOL     OW23848   3.728   0.642   7.584  0.3195 -0.0350  0.0360
 4130SOL    HW123849   3.788   0.583   7.628 -0.4447 -0.4932  0.4558
 4130SOL    HW223850   3.780   0.722   7.578 -0.1616  0.2873  0.1508
 4131SOL     OW23851   0.223   0.452   6.207  0.2464 -0.1245  0.5777
 4131SOL    HW123852   0.245   0.396   6.281  0.1058 -1.7287 -0.5844
 4131SOL    HW223853   0.131   0.434   6.191  0.0489  1.0005  0.4935
 4132SOL     OW23854   2.165   4.266   0.395 -0.3040 -0.5426 -0.4099
 4132SOL    HW123855   2.118   4.329   0.342  1.9207 -0.3759 -2.1888
 4132SOL    HW223856   2.116   4.269   0.477 -2.3585 -0.1345 -1.6622
 4133SOL     OW23857   3.941   4.377  12.767 -0.2518  0.0942  0.1730
 4133SOL    HW123858   3.863   4.426  12.794 -1.5713 -1.4211 -0.9023
 4133SOL    HW223859   3.999   4.417  12.831 -0.9299 -1.4272  1.7245
 4134SOL     OW23860   4.193   1.963  16.846  0.3518 -0.3771  0.4736
 4134SOL    HW123861   4.266   2.013  16.808  1.4690 -2.7271 -0.4929
 4134SOL    HW223862   4.182   2.011  16.928  2.9469  0.6511  0.2135
 4135SOL     OW23863   1.527   1.649  11.277  0.4274 -0.2390 -0.3423
 4135SOL    HW123864   1.601   1.651  11.216 -0.8857  0.8633 -1.8790
 4135SOL    HW223865   1.546   1.722  11.336 -0.2239 -0.4338  0.1150
 4136SOL     OW23866   2.586   1.881  17.448  1.0580 -0.6254 -0.6753
 4136SOL    HW123867   2.551   1.933  17.375  3.4891 -1.0563 -2.1438
 4136SOL    HW223868   2.505   1.850  17.488  1.2550 -2.6090 -1.8337
 4137SOL     OW23869   0.160   4.102   5.439 -0.3474 -0.6093 -0.2281
 4137SOL    HW123870   0.188   4.025   5.489  0.6514 -1.4846 -2.1277
 4137SOL    HW223871   0.113   4.068   5.363 -2.3277  3.5312 -0.9134
 4138SOL     OW23872   3.555   0.120   8.842  0.1001  0.2567  0.6366
 4138SOL    HW123873   3.594   0.105   8.929  1.5608  0.9144  0.0964
 4138SOL    HW223874   3.576   0.211   8.821  1.7745 -0.7283 -1.9456
 4139SOL     OW23875   2.109   3.481   3.812 -0.2714  0.2353 -0.2706
 4139SOL    HW123876   2.059   3.524   3.742 -2.1475  0.4023  1.1718
 4139SOL    HW223877   2.148   3.561   3.846  0.4087 -0.7428  1.2231
 4140SOL     OW23878   1.693   3.128   7.839 -0.0484 -0.3102 -0.0099
 4140SOL    HW123879   1.638   3.052   7.858  0.3600 -0.3387  1.0804
 4140SOL    HW223880   1.714   3.114   7.747 -0.2792 -0.4287 -0.0439
 4141SOL     OW23881   0.597   1.024  11.894 -0.1684 -0.0040  0.5530
 4141SOL    HW123882   0.575   0.994  11.806  1.7865 -0.8253  0.3429
 4141SOL    HW223883   0.546   1.103  11.913  0.4914  0.1175  1.7960
 4142SOL     OW23884   4.447   2.749   4.064  0.1811 -0.0904 -0.5819
 4142SOL    HW123885   4.398   2.736   3.983 -0.2369  0.5377 -0.4305
 4142SOL    HW223886   4.377   2.720   4.122 -0.9041  1.4012 -1.1554
 4143SOL     OW23887   4.227   0.900  13.360  0.1966 -0.5326  0.4843
 4143SOL    HW123888   4.262   0.983  13.327 -1.1788 -0.3453 -0.4888
 4143SOL    HW223889   4.178   0.933  13.436 -0.8620  0.3196 -0.5812
 4144SOL     OW23890   2.488   3.360  12.672 -0.0069 -0.4555  0.4737
 4144SOL    HW123891   2.432   3.287  12.647  0.6260 -0.5739 -0.6097
 4144SOL    HW223892   2.463   3.369  12.764 -0.4714 -0.3953  0.3408
 4145SOL     OW23893   2.872   3.414  15.465 -0.5761  0.1695  0.2090
 4145SOL    HW123894   2.825   3.489  15.500 -2.1917 -1.1115  0.7515
 4145SOL    HW223895   2.797   3.377  15.419 -1.8133  2.3384  0.5100
 4146SOL     OW23896   0.217   2.579   6.677 -0.6520 -0.2751  0.0163
 4146SOL    HW123897   0.125   2.571   6.704 -0.9730  0.1768 -0.9546
 4146SOL    HW223898   0.217   2.668   6.711 -0.4555 -0.3988  0.3436
 4147SOL     OW23899   4.019   3.476  17.611 -0.5845  0.3823  0.0696
 4147SOL    HW123900   4.003   3.564  17.579  2.1617  0.8840  0.0165
 4147SOL    HW223901   4.028   3.437  17.524 -1.0554 -1.2533  0.7533
 4148SOL     OW23902   1.960   1.100   9.779  0.2512  0.0048  0.1069
 4148SOL    HW123903   1.947   1.023   9.834 -2.0904  0.2345 -0.1321
 4148SOL    HW223904   1.922   1.165   9.838  2.6840  2.2819 -0.8136
 4149SOL     OW23905   0.471   3.650  12.095 -0.1749  0.8009  0.2570
 4149SOL    HW123906   0.525   3.592  12.147  1.1254  1.4880 -0.3388
 4149SOL    HW223907   0.544   3.707  12.071  0.7840 -0.6806 -0.3308
 4150SOL     OW23908   0.726   2.116  11.326  0.5201  0.7729  0.2905
 4150SOL    HW123909   0.750   2.043  11.383 -1.6226 -0.3360 -0.2424
 4150SOL    HW223910   0.813   2.150  11.305  1.5855 -2.4865 -0.5906
 4151SOL     OW23911   0.840   2.996  16.546  0.4127  0.3365  0.2716
 4151SOL    HW123912   0.896   3.073  16.541 -1.5726  1.7332 -0.6043
 4151SOL    HW223913   0.761   3.041  16.514 -0.0285  0.3747  1.4343
 4152SOL     OW23914   1.469   2.479   3.677 -0.2906  0.2220  0.5695
 4152SOL    HW123915   1.547   2.470   3.623 -0.2734 -1.8292  0.9479
 4152SOL    HW223916   1.511   2.512   3.757  1.5220  1.4810 -0.8967
 4153SOL     OW23917   2.350   2.505   1.686  0.0979  0.3789  0.2997
 4153SOL    HW123918   2.371   2.425   1.733 -1.3746  0.6297  1.3843
 4153SOL    HW223919   2.303   2.465   1.613  0.4904  1.9407 -0.8150
 4154SOL     OW23920   1.241   0.993   3.929 -0.2897 -0.2644  0.9817
 4154SOL    HW123921   1.151   0.975   3.901  0.0622  0.3784 -0.6050
 4154SOL    HW223922   1.219   1.071   3.981 -3.7769 -0.7533  0.2709
 4155SOL     OW23923   1.360   4.182   1.690  0.6464  1.0963 -0.7748
 4155SOL    HW123924   1.380   4.101   1.643  2.9915  1.0575  0.3009
 4155SOL    HW223925   1.437   4.198   1.745 -0.6747  0.7276  1.2036
 4156SOL     OW23926   4.503   0.926  14.166 -0.3031  0.4099 -0.2517
 4156SOL    HW123927   4.543   1.008  14.194  1.3581 -0.0599 -1.2748
 4156SOL    HW223928   4.465   0.903  14.251 -0.8241 -3.8185 -1.6089
 4157SOL     OW23929   1.650   0.605  11.087 -0.3292 -0.0605 -0.5003
 4157SOL    HW123930   1.573   0.637  11.040 -1.3698 -0.2684  1.0630
 4157SOL    HW223931   1.716   0.622  11.019 -1.2677  2.4471 -0.7804
 4158SOL     OW23932   2.848   2.911   5.253 -0.1406  0.5550 -0.6167
 4158SOL    HW123933   2.903   2.844   5.213  1.4727  1.6774 -0.2680
 4158SOL    HW223934   2.840   2.876   5.342  1.8468 -0.7725 -0.9531
 4159SOL     OW23935   1.025   2.008  10.493 -0.0404  0.4311  0.2601
 4159SOL    HW123936   1.016   2.036  10.402  0.3626 -0.3620 -0.0290
 4159SOL    HW223937   1.047   2.097  10.519  1.6379 -0.1541  0.8544
 4160SOL     OW23938   2.275   3.694  13.164  0.0630  0.3422  0.3042
 4160SOL    HW123939   2.301   3.689  13.072  0.1959  1.5568  0.2749
 4160SOL    HW223940   2.195   3.747  13.167 -0.6983 -0.8408  0.7392
 4161SOL     OW23941   3.892   2.965   3.692  0.1986  0.3641  0.3430
 4161SOL    HW123942   3.867   2.873   3.707 -1.6220  0.8480  0.2835
 4161SOL    HW223943   3.828   2.987   3.625  1.2242 -0.1370 -0.7923
 4162SOL     OW23944   1.795   1.737  10.374 -0.4781 -0.4423 -0.0176
 4162SOL    HW123945   1.803   1.755  10.280 -2.0308 -1.1455 -0.2905
 4162SOL    HW223946   1.823   1.646  10.363  0.7817  0.1236 -1.5719
 4163SOL     OW23947   0.746   2.755   3.954  0.0820 -0.2716  0.0241
 4163SOL    HW123948   0.812   2.797   4.010  0.2858 -0.2864 -0.2031
 4163SOL    HW223949   0.723   2.680   4.008  1.1277 -0.0511  0.7717
 4164SOL     OW23950   4.187   0.803   2.385  0.2874 -0.4304  0.4438
 4164SOL    HW123951   4.217   0.748   2.458 -0.2087  0.5576  1.3954
 4164SOL    HW223952   4.240   0.754   2.322  0.7637 -1.5734  1.7312
 4165SOL     OW23953   3.675   0.860   5.447 -0.3628 -0.2339 -0.5401
 4165SOL    HW123954   3.734   0.827   5.379  0.2516 -1.5612  0.6301
 4165SOL    HW223955   3.637   0.937   5.404 -0.5186  0.6861  1.2363
 4166SOL     OW23956   2.275   1.843   2.949 -0.5621  0.0654  0.2114
 4166SOL    HW123957   2.302   1.886   2.868 -3.2429 -1.6637 -1.5807
 4166SOL    HW223958   2.214   1.779   2.912  0.1762  1.5531 -3.6099
 4167SOL     OW23959   3.446   2.423  11.563  0.4993 -0.6269 -0.0899
 4167SOL    HW123960   3.413   2.334  11.554 -2.8979  0.5524  0.4844
 4167SOL    HW223961   3.475   2.439  11.473  0.7503 -0.1059  0.0824
 4168SOL     OW23962   1.634   2.395   6.692 -0.0308  0.2619 -0.2180
 4168SOL    HW123963   1.587   2.453   6.751  0.3530  1.1437 -0.7919
 4168SOL    HW223964   1.667   2.342   6.765 -1.5842  0.5037  0.6620
 4169SOL     OW23965   3.278   1.928   6.129  0.4953 -0.2872  0.2479
 4169SOL    HW123966   3.327   1.880   6.063 -1.6966  0.2007 -1.7731
 4169SOL    HW223967   3.192   1.924   6.087  1.1433 -0.3657 -1.0810
 4170SOL     OW23968   3.407   4.378   7.952  0.6220 -0.0987  0.3584
 4170SOL    HW123969   3.386   4.449   7.892 -0.9671 -1.2315 -0.4326
 4170SOL    HW223970   3.345   4.386   8.025 -2.3400  0.3373 -2.2127
 4171SOL     OW23971   1.772   2.577   1.982  0.5717 -0.6644  0.8027
 4171SOL    HW123972   1.816   2.508   1.932  0.3899  0.0681 -0.3780
 4171SOL    HW223973   1.838   2.646   1.981 -1.2063  1.0652  1.0926
 4172SOL     OW23974   3.612   4.386   5.779  0.1316 -0.0125 -0.1739
 4172SOL    HW123975   3.587   4.316   5.719 -1.0558  0.0365  0.2598
 4172SOL    HW223976   3.641   4.324   5.847  0.1123  0.1609 -0.0099
 4173SOL     OW23977   2.138   4.146   4.821 -0.0182 -0.0738  0.1290
 4173SOL    HW123978   2.059   4.133   4.873 -1.5420 -1.7213 -2.5564
 4173SOL    HW223979   2.183   4.210   4.874 -0.8179 -0.1484  0.8981
 4174SOL     OW23980   1.485   2.915   6.494 -0.0646 -0.0878 -0.7660
 4174SOL    HW123981   1.455   2.928   6.405 -1.2002  3.1373  0.1007
 4174SOL    HW223982   1.439   2.982   6.545 -0.7540  0.2377 -1.8253
 4175SOL     OW23983   0.916   2.241   6.553 -0.2889  0.6767 -0.4768
 4175SOL    HW123984   0.889   2.179   6.621  1.4720 -1.0759 -1.3515
 4175SOL    HW223985   0.851   2.311   6.549 -0.0300  1.0649  1.9592
 4176SOL     OW23986   4.113   3.520  11.944  0.3166  0.0557  0.4369
 4176SOL    HW123987   4.087   3.532  11.853 -0.1191 -1.3028  0.3896
 4176SOL    HW223988   4.183   3.586  11.950  1.1028 -0.9143  1.9127
 4177SOL     OW23989   0.248   1.580  10.866 -0.1367 -0.3253 -0.8654
 4177SOL    HW123990   0.170   1.595  10.812 -0.5017  0.3308 -0.1482
 4177SOL    HW223991   0.271   1.664  10.905  1.2747 -1.1922  0.1484
 4178SOL     OW23992   2.727   3.877   5.605 -0.3342 -0.2731 -0.1887
 4178SOL    HW123993   2.636   3.845   5.606  0.6066 -2.9253  2.1314
 4178SOL    HW223994   2.749   3.857   5.514 -1.1352  0.7857 -0.6194
 4179SOL     OW23995   1.442   2.459   5.897 -0.3544 -0.1247  0.3850
 4179SOL    HW123996   1.505   2.423   5.835 -0.9414  0.0758 -0.3258
 4179SOL    HW223997   1.361   2.413   5.875  0.3052 -1.6900  1.1797
 4180SOL     OW23998   3.674   2.381   8.192  0.1384  0.4846 -0.1831
 4180SOL    HW123999   3.580   2.366   8.195  0.3871 -0.9416  0.3766
 4180SOL    HW224000   3.662   2.433   8.113  0.9031  1.2013  0.1694
 4181SOL     OW24001   2.228   2.932   0.929  0.5552 -0.1800  0.4643
 4181SOL    HW124002   2.311   2.938   0.881  0.4333  0.3300  0.3250
 4181SOL    HW224003   2.165   2.980   0.875  0.9473 -0.7806 -0.5363
 4182SOL     OW24004   0.840   3.443  17.670 -0.0828 -0.0332  0.6706
 4182SOL    HW124005   0.768   3.384  17.689 -0.1241  0.1618  1.1228
 4182SOL    HW224006   0.831   3.523   0.029 -1.4312 -1.7035  2.9601
 4183SOL     OW24007   2.325   4.717   6.961  0.1306 -0.3798  0.4590
 4183SOL    HW124008   2.307   0.056   6.890  4.1436 -0.9399 -1.0901
 4183SOL    HW224009   2.411   0.014   6.998  1.0392  0.2577 -2.0067
 4184SOL     OW24010   0.282   0.120   6.029  0.3123  0.5991  0.4149
 4184SOL    HW124011   0.199   0.165   6.047 -1.4760 -1.8793 -1.6299
 4184SOL    HW224012   0.318   0.180   5.964  0.2249 -0.3443 -0.5036
 4185SOL     OW24013   1.801   1.402  12.893  0.1819 -0.0041 -0.1730
 4185SOL    HW124014   1.810   1.479  12.950 -3.4212  0.1755  0.1285
 4185SOL    HW224015   1.849   1.336  12.943  1.7293  1.5309  0.3810
 4186SOL     OW24016   0.684   4.618  10.711  0.8200  0.8897  0.4024
 4186SOL    HW124017   0.717   4.531  10.688  0.1053  0.4519  1.0522
 4186SOL    HW224018   0.637   4.592  10.790  0.5513  1.1994  0.3454
 4187SOL     OW24019   2.367   3.518   8.490  0.4966  0.2327 -0.7315
 4187SOL    HW124020   2.445   3.574   8.488  1.5247 -1.0929  1.1844
 4187SOL    HW224021   2.410   3.432   8.489 -0.4779 -0.2774  0.8473
 4188SOL     OW24022   1.835   3.394   8.495  0.3157  0.6131  0.0582
 4188SOL    HW124023   1.913   3.410   8.441 -0.4516  0.4267 -1.1155
 4188SOL    HW224024   1.793   3.329   8.439  0.9686  0.7082 -0.5584
 4189SOL     OW24025   2.037   0.220   5.208  0.0922 -0.4377  0.7623
 4189SOL    HW124026   2.126   0.249   5.228  0.5505 -2.0890  1.1599
 4189SOL    HW224027   2.051   0.125   5.209  0.3573 -0.3789  2.4827
 4190SOL     OW24028   4.402   2.117   5.040 -0.3062  1.1229 -0.1373
 4190SOL    HW124029   4.379   2.029   5.070 -0.0360  0.3569 -2.2065
 4190SOL    HW224030   4.496   2.120   5.058 -0.2432 -1.0093 -0.0609
 4191SOL     OW24031   0.534   2.700   4.309  0.2317 -0.0882 -0.0414
 4191SOL    HW124032   0.593   2.770   4.338  1.0907 -0.8704  0.0700
 4191SOL    HW224033   0.518   2.706   4.215 -0.3393  2.0032  0.1739
 4192SOL     OW24034   0.934   3.792   2.554  0.3497  0.3188  0.2374
 4192SOL    HW124035   0.913   3.726   2.488 -3.2803  1.7131 -0.0359
 4192SOL    HW224036   0.918   3.874   2.506 -0.4186 -1.0095 -1.7640
 4193SOL     OW24037   2.633   3.791   4.302 -0.5304 -0.0093 -0.2597
 4193SOL    HW124038   2.631   3.696   4.294  3.4493 -0.0913 -0.2099
 4193SOL    HW224039   2.626   3.816   4.210  0.3184 -0.5524 -0.4649
 4194SOL     OW24040   3.900   2.905   4.015 -0.3134 -0.5358  0.1249
 4194SOL    HW124041   3.871   2.824   3.972 -0.6707  0.1553 -0.9335
 4194SOL    HW224042   3.905   2.967   3.942 -0.7112  0.3211  0.8358
 4195SOL     OW24043   0.033   1.309   1.656  0.2829 -0.3476  0.0842
 4195SOL    HW124044   4.671   1.291   1.617  0.1387 -0.7235  0.5637
 4195SOL    HW224045   0.032   1.234   1.716 -2.0919  0.7374  1.4082
 4196SOL     OW24046   1.184   3.168   8.491 -0.2649 -0.2444  0.3231
 4196SOL    HW124047   1.270   3.125   8.494  1.5332  3.3125  0.6533
 4196SOL    HW224048   1.187   3.219   8.573  0.7407  1.2523 -0.6369
 4197SOL     OW24049   4.689   1.937   9.252  0.5643  0.6930  0.0409
 4197SOL    HW124050   4.702   2.021   9.296 -0.1256  2.2886 -2.8509
 4197SOL    HW224051   0.010   1.963   9.171 -1.4142  0.5263 -1.0729
 4198SOL     OW24052   1.032   3.335  17.521  0.0408  0.0100  0.1171
 4198SOL    HW124053   0.950   3.369  17.558  1.4371  0.2896  2.9103
 4198SOL    HW224054   1.100   3.392  17.555 -1.8195  1.8191  0.7950
 4199SOL     OW24055   2.380   2.876   6.359 -0.1380 -0.5408  0.1518
 4199SOL    HW124056   2.337   2.846   6.439  1.3084 -3.5629 -0.2251
 4199SOL    HW224057   2.375   2.970   6.377  0.4936 -0.1406 -1.7622
 4200SOL     OW24058   3.186   0.951  11.431 -0.0221  0.0072 -0.0038
 4200SOL    HW124059   3.275   0.978  11.454 -0.2527  1.2502 -0.5728
 4200SOL    HW224060   3.195   0.923  11.340 -3.2215 -1.7571  0.2492
 4201SOL     OW24061   1.580   0.483   8.185 -0.4259  0.8517 -0.1945
 4201SOL    HW124062   1.494   0.464   8.148 -0.4759  3.3837 -1.3790
 4201SOL    HW224063   1.557   0.553   8.246 -0.7140 -0.0350  0.7112
 4202SOL     OW24064   0.992   2.912   7.065  0.1979  0.2932  0.0168
 4202SOL    HW124065   1.082   2.885   7.048  1.1867  2.8014  1.2904
 4202SOL    HW224066   0.978   2.852   7.138  0.0920  0.2730 -0.0201
 4203SOL     OW24067   4.091   0.079  16.256  0.9150 -0.1095  0.2555
 4203SOL    HW124068   4.139   0.039  16.183 -0.4813 -0.2764 -0.5728
 4203SOL    HW224069   4.103   0.170  16.229  1.9659 -0.7729 -1.5606
 4204SOL     OW24070   3.777   1.263   1.643  0.3610 -0.2436 -0.2604
 4204SOL    HW124071   3.824   1.185   1.615  0.4708  0.2936 -1.5728
 4204SOL    HW224072   3.762   1.245   1.736  0.4639 -3.1257 -0.8167
 4205SOL     OW24073   3.969   2.405   7.935 -0.0507  0.1823 -0.3725
 4205SOL    HW124074   4.029   2.411   8.010 -0.5036 -0.8341  0.0681
 4205SOL    HW224075   3.928   2.491   7.939  0.3804  0.3261  1.1430
 4206SOL     OW24076   1.789   0.384  15.343 -0.8217 -0.5042  0.9562
 4206SOL    HW124077   1.840   0.465  15.342 -0.9552 -0.4240 -0.1162
 4206SOL    HW224078   1.855   0.323  15.309  2.3541  2.0277  2.5944
 4207SOL     OW24079   2.710   4.363  13.297  0.6898  0.0808 -0.1430
 4207SOL    HW124080   2.678   4.295  13.356  1.8715  0.2943  0.7374
 4207SOL    HW224081   2.670   4.336  13.214 -0.8319 -1.3420  1.0702
 4208SOL     OW24082   4.588   3.126   4.989  0.3344  0.5887  0.5159
 4208SOL    HW124083   4.534   3.133   5.068  0.1283 -0.2277  0.4577
 4208SOL    HW224084   4.667   3.177   5.006 -0.2225  1.5171  0.2813
 4209SOL     OW24085   0.902   3.287   2.783 -0.4238 -0.4573  0.0342
 4209SOL    HW124086   0.812   3.322   2.782 -0.4401 -0.4746  1.2662
 4209SOL    HW224087   0.879   3.199   2.754 -0.1578 -0.1181 -1.2225
 4210SOL     OW24088   2.997   2.509   3.763 -0.0696 -0.3147 -0.1393
 4210SOL    HW124089   2.911   2.532   3.727  1.0394  1.1630 -1.8519
 4210SOL    HW224090   3.058   2.568   3.719  0.3142 -0.4894  0.1640
 4211SOL     OW24091   4.126   4.692   7.349  0.0666 -0.0964  0.2433
 4211SOL    HW124092   4.159   0.057   7.368  0.4999 -0.3054  0.4529
 4211SOL    HW224093   4.162   4.681   7.261  0.2505  1.3444  0.1481
 4212SOL     OW24094   1.655   4.262  12.032 -0.1938 -0.0311  0.1360
 4212SOL    HW124095   1.599   4.328  12.074  1.8805  1.4551  0.5372
 4212SOL    HW224096   1.602   4.182  12.035  0.4672 -0.3805  2.4250
 4213SOL     OW24097   0.445   1.799   2.960 -0.1307 -0.2989 -0.4040
 4213SOL    HW124098   0.539   1.783   2.966 -0.3605 -1.2233  0.7203
 4213SOL    HW224099   0.399   1.717   2.980 -0.3596 -0.2666 -0.7938
 4214SOL     OW24100   0.779   0.975   6.916 -0.0018 -0.1454  0.3122
 4214SOL    HW124101   0.765   0.925   6.835  0.6974 -0.6160  0.4810
 4214SOL    HW224102   0.861   1.020   6.895 -0.2772 -0.4621 -1.4273
 4215SOL     OW24103   2.303   2.018   3.157 -0.2570 -0.1199 -0.2996
 4215SOL    HW124104   2.212   2.045   3.147  0.6902  3.1001 -0.4371
 4215SOL    HW224105   2.317   1.960   3.083 -0.8947  0.5837 -0.9696
 4216SOL     OW24106   3.421   4.113  15.341  0.1849 -0.1610  0.0381
 4216SOL    HW124107   3.517   4.110  15.342  0.1110 -2.6385  0.1341
 4216SOL    HW224108   3.402   4.035  15.288 -1.8646  0.5190 -0.2268
 4217SOL     OW24109   1.891   0.956   9.057 -0.2719  0.0667  0.0287
 4217SOL    HW124110   1.952   0.996   9.120 -0.4784  2.2925 -1.2051
 4217SOL    HW224111   1.881   0.866   9.088  1.0222 -0.3747 -0.8287
 4218SOL     OW24112   2.597   3.669  11.340 -0.6062 -0.3612 -0.9115
 4218SOL    HW124113   2.608   3.764  11.344  0.5512 -0.5298  0.0775
 4218SOL    HW224114   2.663   3.641  11.403  1.2174  1.9595 -1.7873
 4219SOL     OW24115   2.401   2.428   3.098 -0.5321 -0.3799  0.4936
 4219SOL    HW124116   2.474   2.457   3.043  1.0294 -1.8553  1.7850
 4219SOL    HW224117   2.452   2.356   3.134  0.1746  0.1635  0.5804
 4220SOL     OW24118   3.284   0.780  13.883  0.1283 -0.6254  1.0097
 4220SOL    HW124119   3.286   0.688  13.859  1.1308 -0.4262  0.3419
 4220SOL    HW224120   3.297   0.824  13.799 -1.9517 -0.9510  0.5258
 4221SOL     OW24121   3.589   2.591  16.873  1.4114  0.2301  0.5208
 4221SOL    HW124122   3.653   2.530  16.909  1.6027 -1.8174 -3.3331
 4221SOL    HW224123   3.639   2.642  16.809  0.9825 -0.0321 -0.0224
 4222SOL     OW24124   3.759   1.585   0.561  0.3197 -0.2046  0.2492
 4222SOL    HW124125   3.688   1.632   0.517  1.5193  1.1491 -0.2242
 4222SOL    HW224126   3.749   1.626   0.647 -1.1781  0.5370 -0.2801
 4223SOL     OW24127   1.762   0.520   9.231  0.4853 -0.3306  0.4861
 4223SOL    HW124128   1.690   0.461   9.252 -0.3843 -0.0423 -1.6375
 4223SOL    HW224129   1.725   0.608   9.221  0.0148 -0.6220 -0.4547
 4224SOL     OW24130   4.499   4.186   0.073  0.4044 -0.3109 -0.0326
 4224SOL    HW124131   4.525   4.171   0.164  1.0430 -1.8279 -0.4663
 4224SOL    HW224132   4.407   4.208   0.085  0.3890 -0.5924  0.3510
 4225SOL     OW24133   3.449   0.716   3.035  0.0060 -0.4177 -0.0071
 4225SOL    HW124134   3.532   0.679   3.005 -1.0552 -1.5879 -1.5016
 4225SOL    HW224135   3.405   0.733   2.952 -1.9922 -2.2497  0.6547
 4226SOL     OW24136   4.446   4.507   8.351 -0.1271  0.2740 -0.1900
 4226SOL    HW124137   4.371   4.509   8.411  0.6711 -0.2846  0.8291
 4226SOL    HW224138   4.509   4.462   8.406  0.2382 -1.2646 -1.8722
 4227SOL     OW24139   3.984   3.218   4.543  0.2094 -0.1156  0.4159
 4227SOL    HW124140   4.060   3.222   4.484  0.0987 -0.6066  0.2396
 4227SOL    HW224141   3.949   3.304   4.522 -1.2664 -0.5672  1.0469
 4228SOL     OW24142   1.001   3.293   6.902  0.0914  0.1672 -0.1875
 4228SOL    HW124143   1.028   3.317   6.991 -0.2034 -2.0381  0.4916
 4228SOL    HW224144   0.947   3.369   6.878 -0.1680  0.4796  1.3259
 4229SOL     OW24145   0.605   2.736   8.440 -0.1608 -0.0898  0.2072
 4229SOL    HW124146   0.680   2.764   8.493  0.0260 -2.2113  1.0598
 4229SOL    HW224147   0.638   2.718   8.352  1.7457  1.0380  0.6790
 4230SOL     OW24148   1.297   1.841   3.463 -0.6863 -0.0037 -0.0264
 4230SOL    HW124149   1.238   1.904   3.505  0.1618  0.3147  0.6763
 4230SOL    HW224150   1.283   1.760   3.510  0.5996 -1.0444 -1.4200
 4231SOL     OW24151   1.722   4.135   5.221  0.3985  0.2864 -0.2581
 4231SOL    HW124152   1.724   4.229   5.239  0.4148 -0.1625  2.1222
 4231SOL    HW224153   1.734   4.157   5.129 -0.8858  0.2702 -0.4268
 4232SOL     OW24154   1.052   1.340   4.289  0.0065 -0.2559  0.3258
 4232SOL    HW124155   0.958   1.357   4.294 -0.3487 -2.5605  1.0837
 4232SOL    HW224156   1.082   1.420   4.333 -0.0162  0.4613 -0.9582
 4233SOL     OW24157   2.995   3.450   4.970 -0.2717 -0.1027 -0.6562
 4233SOL    HW124158   2.950   3.502   5.037  1.1012 -1.7435  1.5565
 4233SOL    HW224159   3.004   3.518   4.903  2.2674  0.9291  0.7080
 4234SOL     OW24160   3.179   4.060   9.705  0.4732 -0.0597  0.6584
 4234SOL    HW124161   3.119   4.038   9.633  2.4536  1.3248 -1.4234
 4234SOL    HW224162   3.183   4.152   9.678  1.7490 -0.1688  0.4792
 4235SOL     OW24163   3.839   1.232   4.572  0.4786 -0.2774 -0.1377
 4235SOL    HW124164   3.817   1.272   4.488  1.3597  0.7806  0.1279
 4235SOL    HW224165   3.919   1.180   4.563  2.1345  2.0164  1.2992
 4236SOL     OW24166   3.180   2.539   2.008  0.3798  0.6079  0.7128
 4236SOL    HW124167   3.124   2.615   1.990  0.7816  1.3930  2.7677
 4236SOL    HW224168   3.255   2.585   2.047  0.9275 -0.2860  0.7332
 4237SOL     OW24169   3.574   3.077   5.316 -0.3784 -0.0703  0.3406
 4237SOL    HW124170   3.583   3.113   5.228  1.3415  1.7621  1.2752
 4237SOL    HW224171   3.521   2.997   5.316 -0.6679  0.1174 -0.7230
 4238SOL     OW24172   0.420   1.753   6.923  0.2479  0.0745 -0.1092
 4238SOL    HW124173   0.361   1.799   6.863  0.3791  0.6251  0.1808
 4238SOL    HW224174   0.403   1.801   7.005 -0.6543  1.3911 -1.0736
 4239SOL     OW24175   3.851   2.951  12.858 -0.3097 -0.7582 -0.0156
 4239SOL    HW124176   3.880   2.972  12.947 -1.8282  1.7023 -0.1058
 4239SOL    HW224177   3.880   2.859  12.852  1.9972 -0.1457  1.5880
 4240SOL     OW24178   2.464   4.600   4.815  0.3453 -0.1937 -0.1043
 4240SOL    HW124179   2.431   4.660   4.748  0.1145  1.8067  1.8134
 4240SOL    HW224180   2.438   4.515   4.780 -0.4828 -0.3398  0.8761
 4241SOL     OW24181   2.163   0.550   7.281 -0.4110  0.2838  0.3294
 4241SOL    HW124182   2.231   0.505   7.231 -1.2467 -0.1116 -0.4413
 4241SOL    HW224183   2.165   0.499   7.362  3.2712  1.0010  0.6955
 4242SOL     OW24184   2.506   2.678   4.293 -0.0812 -0.3197 -0.2381
 4242SOL    HW124185   2.504   2.740   4.220 -0.9734  0.8663  0.7980
 4242SOL    HW224186   2.473   2.735   4.361 -0.8480 -0.3515 -0.5890
 4243SOL     OW24187   3.202   1.555   4.813 -0.4878 -0.0418 -0.1750
 4243SOL    HW124188   3.170   1.467   4.833  0.2929 -0.3014 -0.0616
 4243SOL    HW224189   3.287   1.549   4.857 -0.0894  0.3238 -0.9001
 4244SOL     OW24190   0.910   2.894   4.137 -0.5603  0.3915 -0.3968
 4244SOL    HW124191   0.938   2.983   4.157  0.0985 -0.2414  1.5463
 4244SOL    HW224192   0.899   2.857   4.225 -2.1884  0.8297 -0.4284
 4245SOL     OW24193   3.019   3.680   0.901  0.4909  0.1826  0.2092
 4245SOL    HW124194   3.048   3.619   0.970  0.3572  0.4892  0.5400
 4245SOL    HW224195   3.105   3.704   0.867 -0.1055  1.2908 -0.4826
 4246SOL     OW24196   0.409   2.383  15.452 -0.0681 -0.0208 -0.5531
 4246SOL    HW124197   0.347   2.368  15.381 -2.9266 -0.1941  2.0075
 4246SOL    HW224198   0.447   2.469  15.432  0.7331 -0.5585 -1.3253
 4247SOL     OW24199   0.862   0.789   5.504  0.7096 -0.3942  0.1700
 4247SOL    HW124200   0.770   0.793   5.478 -0.0166 -1.7476  2.4988
 4247SOL    HW224201   0.885   0.719   5.442 -2.2004 -1.9367  0.8232
 4248SOL     OW24202   2.589   2.903  11.300  0.6081 -0.2188  0.0315
 4248SOL    HW124203   2.556   2.899  11.210  2.8653 -1.9824 -0.7071
 4248SOL    HW224204   2.632   2.989  11.301  0.1915 -0.0607  2.9921
 4249SOL     OW24205   2.924   4.405   5.756 -0.2613  0.8381 -0.0370
 4249SOL    HW124206   2.894   4.390   5.666  1.9333  0.4644 -0.7197
 4249SOL    HW224207   2.994   4.470   5.746  1.2985 -1.0610 -1.4969
 4250SOL     OW24208   1.530   3.213  12.154  0.2888 -0.1863 -0.3769
 4250SOL    HW124209   1.558   3.124  12.174  0.2125 -0.2664 -0.6344
 4250SOL    HW224210   1.542   3.213  12.059  0.0340  0.2213 -0.4099
 4251SOL     OW24211   0.327   0.856   4.981  0.1858 -0.2448  0.3159
 4251SOL    HW124212   0.310   0.761   4.983 -2.2905  0.2308  2.7589
 4251SOL    HW224213   0.326   0.872   4.887  0.9797 -1.8236  0.0325
 4252SOL     OW24214   4.382   2.554   6.264  0.3073  0.5870  0.1275
 4252SOL    HW124215   4.466   2.535   6.223 -0.9117 -1.5431 -1.3472
 4252SOL    HW224216   4.383   2.649   6.274 -0.0054  0.7115 -1.0459
 4253SOL     OW24217   4.004   1.534  11.795  0.2953  0.0444  0.7497
 4253SOL    HW124218   4.088   1.528  11.840  0.0952  0.8241  1.2402
 4253SOL    HW224219   3.952   1.595  11.848  0.9524  1.0316  0.2583
 4254SOL     OW24220   4.206   1.034   7.774  0.1346  0.0187 -0.4276
 4254SOL    HW124221   4.158   1.026   7.856 -0.3361 -0.4732 -0.7438
 4254SOL    HW224222   4.146   1.079   7.715 -1.2303 -1.8031 -0.4558
 4255SOL     OW24223   0.511   4.203   2.049 -1.4119  0.6556  0.4387
 4255SOL    HW124224   0.502   4.161   1.963  1.0152  1.5331 -0.2463
 4255SOL    HW224225   0.474   4.147   2.117  1.7957  2.7971  3.9461
 4256SOL     OW24226   4.517   0.949   4.530 -0.0340 -0.5510 -0.5429
 4256SOL    HW124227   4.447   0.908   4.479 -2.1596  1.1603  0.9925
 4256SOL    HW224228   4.528   0.881   4.597 -1.0269  0.5881  0.7907
 4257SOL     OW24229   2.067   4.584   1.646  0.6678 -0.4459 -0.2099
 4257SOL    HW124230   2.144   4.526   1.647  0.4111 -0.7996 -1.1856
 4257SOL    HW224231   2.028   4.560   1.562  0.7415 -0.2523 -0.3011
 4258SOL     OW24232   0.070   2.157  12.706 -0.3531 -0.2798  0.6892
 4258SOL    HW124233   0.039   2.137  12.794  0.4114  1.0013  1.2514
 4258SOL    HW224234   4.711   2.196  12.676 -0.1283 -0.3219  0.0140
 4259SOL     OW24235   1.702   4.621  11.935  0.7416  0.3165  0.2388
 4259SOL    HW124236   1.634   4.592  11.873  0.3766  1.3428  0.1501
 4259SOL    HW224237   1.655   4.661  12.008 -0.6833  0.4699 -0.7525
 4260SOL     OW24238   1.991   3.430  11.735 -0.1349 -0.1226  0.2216
 4260SOL    HW124239   1.964   3.357  11.679  2.0977  0.6466 -1.8829
 4260SOL    HW224240   2.041   3.482  11.672 -3.1820  1.1304 -1.1693
 4261SOL     OW24241   2.208   4.256   7.418  0.4278 -0.0590  0.0045
 4261SOL    HW124242   2.153   4.263   7.496 -0.3419  1.1658 -0.6503
 4261SOL    HW224243   2.138   4.244   7.354  1.7819 -0.3230 -1.4019
 4262SOL     OW24244   4.078   0.014   5.361  0.0395  0.2980  0.0080
 4262SOL    HW124245   4.126   0.087   5.401 -1.6052  1.0004  0.7075
 4262SOL    HW224246   4.071   0.053   5.274 -0.0981  4.1382  1.7075
 4263SOL     OW24247   4.692   2.231  17.387  0.0683 -0.4920  0.1407
 4263SOL    HW124248   0.026   2.301  17.356  1.5855 -1.2388  1.1981
 4263SOL    HW224249   0.023   2.153  17.374 -0.8016 -1.1804  0.6761
 4264SOL     OW24250   0.599   1.578   7.869 -0.0445 -0.6712 -0.2099
 4264SOL    HW124251   0.680   1.528   7.880 -0.4083 -1.6383 -1.8937
 4264SOL    HW224252   0.562   1.564   7.956  1.1990 -2.9618 -0.0481
 4265SOL     OW24253   4.642   1.520  13.782 -0.1849  0.2232 -0.0367
 4265SOL    HW124254   4.620   1.440  13.830  1.7339 -0.6398 -0.5501
 4265SOL    HW224255   4.713   1.556  13.835 -1.7420  0.8720  1.6002
 4266SOL     OW24256   2.918   0.286  13.514  0.1978 -0.0593  0.2873
 4266SOL    HW124257   2.863   0.336  13.454  0.7634 -1.4869 -1.3895
 4266SOL    HW224258   2.856   0.221  13.547  3.8893 -2.5281  2.3528
 4267SOL     OW24259   2.025   4.688  11.596 -0.4925  0.4830  0.7410
 4267SOL    HW124260   2.038   4.641  11.678 -0.8121  0.8792  1.0173
 4267SOL    HW224261   2.111   0.004  11.578 -0.2108 -0.6113 -0.3207
 4268SOL     OW24262   0.770   0.505  11.844 -0.1599  0.6475 -0.4878
 4268SOL    HW124263   0.850   0.558  11.849 -2.0638  3.6245 -1.8274
 4268SOL    HW224264   0.752   0.496  11.937  3.8796  2.3439  0.4850
 4269SOL     OW24265   1.349   2.660   4.873 -1.2390  0.2471  0.1747
 4269SOL    HW124266   1.278   2.620   4.923 -1.3894  1.7113  1.1405
 4269SOL    HW224267   1.310   2.666   4.786 -1.1074  0.0896  0.1043
 4270SOL     OW24268   2.587   0.105   8.736 -0.0820  0.0623  0.1445
 4270SOL    HW124269   2.681   0.116   8.748 -0.1313  0.5880  0.0499
 4270SOL    HW224270   2.558   0.193   8.758  0.7886  0.3620  0.0885
 4271SOL     OW24271   1.167   3.107   5.617  0.2660 -0.0947  0.2151
 4271SOL    HW124272   1.243   3.165   5.624  1.1887 -1.5052  1.7070
 4271SOL    HW224273   1.187   3.049   5.543 -4.1399 -1.7135  0.3015
 4272SOL     OW24274   3.106   1.635   6.044 -0.5616 -0.4522  0.3037
 4272SOL    HW124275   3.059   1.623   6.127  0.2602  1.3886  1.0440
 4272SOL    HW224276   3.112   1.548   6.005 -0.5482  0.8024 -2.4767
 4273SOL     OW24277   3.846   2.997   4.650 -0.4485 -0.5857  0.1166
 4273SOL    HW124278   3.827   2.950   4.569 -0.9530 -0.0210 -0.0832
 4273SOL    HW224279   3.904   3.063   4.612 -0.9041 -0.8993 -1.1319
 4274SOL     OW24280   3.872   4.546   4.769  0.7824  0.0881  0.2261
 4274SOL    HW124281   3.791   4.562   4.816 -0.0420  3.6942 -2.4542
 4274SOL    HW224282   3.835   4.521   4.684 -0.4778  0.1002  0.7858
 4275SOL     OW24283   2.051   0.444  12.491 -0.3665 -0.0700 -0.1083
 4275SOL    HW124284   2.080   0.509  12.428 -0.8076  1.4875  1.2991
 4275SOL    HW224285   2.133   0.431  12.540 -0.5390 -2.2195 -0.3850
 4276SOL     OW24286   2.895   4.343   5.479 -0.2900  0.3158  0.1919
 4276SOL    HW124287   2.982   4.372   5.451 -0.9714  1.5017 -0.7369
 4276SOL    HW224288   2.909   4.275   5.544 -0.7458 -0.2337 -0.2783
 4277SOL     OW24289   3.684   1.315   5.385 -0.2855 -0.6680 -0.7986
 4277SOL    HW124290   3.737   1.379   5.338 -2.7924  0.3924 -2.1764
 4277SOL    HW224291   3.685   1.360   5.469  0.7686  0.4705 -1.4258
 4278SOL     OW24292   2.064   1.211   4.589 -0.3686 -0.3284 -0.0637
 4278SOL    HW124293   2.015   1.136   4.554  0.2187 -1.2234  1.0331
 4278SOL    HW224294   2.108   1.246   4.512 -0.0001  2.3140  1.3466
 4279SOL     OW24295   1.977   3.422  16.766  0.2026 -0.1506  0.2686
 4279SOL    HW124296   2.019   3.508  16.770  2.0858 -1.1319  1.7922
 4279SOL    HW224297   1.882   3.436  16.765  0.6326  2.7719 -0.1463
 4280SOL     OW24298   4.330   4.255   3.219 -0.2674 -0.7670  0.7991
 4280SOL    HW124299   4.265   4.194   3.254 -0.6422 -0.7558  0.1294
 4280SOL    HW224300   4.417   4.215   3.227 -0.3136 -1.3739 -1.4806
 4281SOL     OW24301   1.172   2.416   4.409  0.0569  0.2815  0.6381
 4281SOL    HW124302   1.150   2.502   4.374 -1.2800 -0.9377 -1.5328
 4281SOL    HW224303   1.094   2.366   4.388  1.2660 -1.7605  0.9668
 4282SOL     OW24304   2.279   4.162   2.763 -0.6312  0.5608  0.6808
 4282SOL    HW124305   2.248   4.210   2.841 -1.6774  1.5691 -0.3590
 4282SOL    HW224306   2.294   4.074   2.798  1.4409  1.8764  3.1368
 4283SOL     OW24307   0.691   1.778   7.645  0.1818 -0.0521 -0.2893
 4283SOL    HW124308   0.654   1.702   7.689 -0.7561 -0.8928 -2.5109
 4283SOL    HW224309   0.723   1.830   7.719  0.4321  0.5490 -0.8173
 4284SOL     OW24310   2.902   3.556   7.979  0.3635 -0.1771 -0.1930
 4284SOL    HW124311   2.853   3.571   8.060 -0.4174 -0.6018 -0.5765
 4284SOL    HW224312   2.898   3.460   7.985  1.4374 -0.1738  0.4202
 4285SOL     OW24313   0.072   0.424   2.807  0.0373  0.2971 -0.7594
 4285SOL    HW124314   0.165   0.439   2.787  0.2698  1.2936  1.0238
 4285SOL    HW224315   0.068   0.436   2.902  0.1693  0.4119 -0.7677
 4286SOL     OW24316   2.104   0.366   8.345 -0.2664 -0.6311 -0.0972
 4286SOL    HW124317   2.044   0.421   8.397  1.8078  1.7437 -0.2325
 4286SOL    HW224318   2.041   0.300   8.316 -1.8629  1.3582 -1.1735
 4287SOL     OW24319   0.815   0.462  13.535  0.0236  0.1413 -0.0172
 4287SOL    HW124320   0.780   0.546  13.566 -2.1803 -0.7837  0.0077
 4287SOL    HW224321   0.854   0.426  13.615 -1.5635 -0.7126  0.3670
 4288SOL     OW24322   3.044   1.007   5.755 -0.5773 -0.1420 -0.0012
 4288SOL    HW124323   3.069   0.937   5.816 -2.0858 -2.4853 -2.0819
 4288SOL    HW224324   3.086   0.980   5.674  0.1458 -2.1723  1.0385
 4289SOL     OW24325   4.371   3.833  12.821 -0.0977 -0.2301  0.2463
 4289SOL    HW124326   4.308   3.762  12.810  0.1009  0.2696 -3.8728
 4289SOL    HW224327   4.417   3.818  12.739 -0.3482  0.7112 -0.0696
 4290SOL     OW24328   2.264   1.095  11.359  0.4050  0.0756  0.0754
 4290SOL    HW124329   2.270   1.168  11.298  0.2769 -1.0599 -1.3062
 4290SOL    HW224330   2.220   1.138  11.432  0.9741 -0.2727  0.6188
 4291SOL     OW24331   4.274   0.031   2.326 -0.1779  0.0429  0.2114
 4291SOL    HW124332   4.296   0.036   2.233  1.4004  1.6000  0.6716
 4291SOL    HW224333   4.197   4.696   2.326  1.0772 -1.6453  0.8679
 4292SOL     OW24334   2.241   4.133  11.884 -1.1641 -0.2511  0.2790
 4292SOL    HW124335   2.207   4.222  11.874 -1.2563 -0.7974 -4.1749
 4292SOL    HW224336   2.314   4.132  11.822 -0.9561  0.3191  0.5177
 4293SOL     OW24337   4.673   0.697  14.729 -0.1361  0.5357 -0.0273
 4293SOL    HW124338   0.036   0.698  14.686  0.8507  1.7491  1.9132
 4293SOL    HW224339   4.649   0.611  14.695  0.5588  0.0419  0.7314
 4294SOL     OW24340   1.868   2.189   8.354 -0.0086  0.1390  0.2601
 4294SOL    HW124341   1.858   2.171   8.260  0.4087 -3.0035  0.8153
 4294SOL    HW224342   1.807   2.128   8.395  0.5236 -0.9682 -0.5629
 4295SOL     OW24343   0.371   4.646   5.712  0.6300  0.1135 -0.5397
 4295SOL    HW124344   0.387   4.587   5.638  2.2520 -0.3398  0.1830
 4295SOL    HW224345   0.413   0.006   5.689  0.5678 -0.0552 -1.2572
 4296SOL     OW24346   1.214   4.591   6.244  0.2408 -0.1551 -0.4509
 4296SOL    HW124347   1.242   4.558   6.158  0.2007 -0.1876 -0.4514
 4296SOL    HW224348   1.144   4.654   6.225  1.4211  1.2156 -0.2088
 4297SOL     OW24349   1.425   3.530   8.281 -0.3604 -0.6748 -0.3281
 4297SOL    HW124350   1.437   3.565   8.193 -1.1742  1.7564  0.5261
 4297SOL    HW224351   1.332   3.540   8.299 -0.3618 -1.2315 -0.0036
 4298SOL     OW24352   2.913   4.037   6.030  0.1419 -0.7840 -0.2790
 4298SOL    HW124353   2.906   4.132   6.040  0.1781 -0.8751  0.6607
 4298SOL    HW224354   3.001   4.020   5.996  0.4984  0.5646 -0.0325
 4299SOL     OW24355   3.609   1.239  13.347  0.5412 -0.4579  0.3079
 4299SOL    HW124356   3.696   1.257  13.381  1.3887 -0.1791 -2.0259
 4299SOL    HW224357   3.628   1.190  13.267  0.5426 -3.3594  2.0863
 4300SOL     OW24358   3.854   3.460   5.754 -0.2219 -0.0749  0.2014
 4300SOL    HW124359   3.949   3.468   5.753 -0.1909 -0.5132 -0.6131
 4300SOL    HW224360   3.822   3.498   5.672  0.0010 -1.8959 -0.7257
 4301SOL     OW24361   1.381   1.176   8.540  0.8195  0.3875  0.4351
 4301SOL    HW124362   1.321   1.233   8.587  0.4342  2.1986 -2.2442
 4301SOL    HW224363   1.447   1.242   8.518 -0.0741  1.1395  0.0292
 4302SOL     OW24364   0.730   2.858   4.425 -0.0272  0.7818 -0.5197
 4302SOL    HW124365   0.751   2.852   4.518  0.2580 -0.9337 -0.6921
 4302SOL    HW224366   0.733   2.953   4.411  1.8961  0.6831 -0.7554
 4303SOL     OW24367   2.194   3.796  17.013 -0.1386 -0.0619 -0.2761
 4303SOL    HW124368   2.123   3.843  16.969 -1.5329 -1.4857  0.4459
 4303SOL    HW224369   2.143   3.724  17.052 -1.0859  0.2152 -0.9859
 4304SOL     OW24370   1.274   1.150   2.087  0.3628 -0.0493 -0.7271
 4304SOL    HW124371   1.231   1.222   2.040 -1.8345  0.6998  2.4563
 4304SOL    HW224372   1.231   1.074   2.048  2.8161 -1.6098 -0.3698
 4305SOL     OW24373   0.008   4.434   7.901  0.2417  0.1734 -0.1959
 4305SOL    HW124374   0.076   4.473   7.956 -1.5530  3.4320 -0.2729
 4305SOL    HW224375   4.679   4.367   7.946  0.7123  0.0906  0.2300
 4306SOL     OW24376   4.040   4.089   4.590  0.1207  0.3222 -0.2170
 4306SOL    HW124377   3.980   4.060   4.521 -1.5413  0.5749  1.1050
 4306SOL    HW224378   3.977   4.090   4.662  0.4859  0.9733  0.0921
 4307SOL     OW24379   1.200   2.900   5.886 -0.7530  0.8134 -0.0509
 4307SOL    HW124380   1.227   2.816   5.923  1.3491  1.1034 -0.9221
 4307SOL    HW224381   1.152   2.869   5.809  0.5871 -0.8312 -0.2366
 4308SOL     OW24382   0.427   0.835   9.055  0.2465 -0.8497  0.0070
 4308SOL    HW124383   0.405   0.908   9.114 -1.1647 -1.6150  0.4282
 4308SOL    HW224384   0.427   0.758   9.113  0.5367 -1.0705 -0.2870
 4309SOL     OW24385   2.590   3.312   0.919  0.0645  0.1606  0.4963
 4309SOL    HW124386   2.560   3.375   0.984  0.0833  0.2372  0.4304
 4309SOL    HW224387   2.666   3.359   0.884 -0.9732  0.5442 -1.2206
 4310SOL     OW24388   0.059   4.065   1.146 -0.2315  0.2949 -0.3670
 4310SOL    HW124389   0.091   4.127   1.080  3.0657 -1.3048 -0.2396
 4310SOL    HW224390   0.127   3.998   1.143 -0.4535 -0.0083  1.6927
 4311SOL     OW24391   2.774   2.493   2.640 -0.6514 -0.2511  0.2129
 4311SOL    HW124392   2.797   2.451   2.557  0.6354 -1.0135  0.9662
 4311SOL    HW224393   2.689   2.454   2.665 -0.6144 -0.7737 -0.4786
 4312SOL     OW24394   0.112   3.002   4.565  0.1683  0.2980 -0.6768
 4312SOL    HW124395   0.048   2.957   4.620  1.2894 -3.2316 -2.2029
 4312SOL    HW224396   0.176   2.930   4.558 -1.7299 -1.4304 -0.3901
 4313SOL     OW24397   3.446   3.789  14.770 -0.4489 -0.3181 -0.3287
 4313SOL    HW124398   3.393   3.838  14.709  0.5680 -2.1864 -2.7180
 4313SOL    HW224399   3.532   3.782  14.727  0.8979  1.5508  2.0530
 4314SOL     OW24400   4.027   2.239   9.587  0.2365 -0.5773  0.0993
 4314SOL    HW124401   4.119   2.219   9.573  0.6036 -0.3887  2.2160
 4314SOL    HW224402   3.990   2.158   9.623  3.2752 -1.7347  0.6111
 4315SOL     OW24403   4.137   4.115   8.743  0.0538 -0.3111 -0.0109
 4315SOL    HW124404   4.072   4.047   8.761  1.5242 -1.6291  0.3161
 4315SOL    HW224405   4.076   4.173   8.699 -0.0510 -1.0443 -0.8327
 4316SOL     OW24406   0.972   1.065   1.017 -0.3078  0.5248 -0.2927
 4316SOL    HW124407   1.040   1.122   1.053 -2.0561  1.5742  1.3481
 4316SOL    HW224408   0.904   1.129   0.995 -0.4043 -0.4346 -2.7536
 4317SOL     OW24409   4.353   0.991  10.225 -0.1382 -0.0324  1.2869
 4317SOL    HW124410   4.262   1.017  10.210  0.2897  2.5673  3.1299
 4317SOL    HW224411   4.368   0.936  10.148 -0.0386  1.9302 -0.1136
 4318SOL     OW24412   3.463   1.092   5.339 -0.0654  0.8207  0.1775
 4318SOL    HW124413   3.535   1.149   5.310 -0.8108  0.0532 -3.1219
 4318SOL    HW224414   3.479   1.109   5.432  1.6934  1.4460 -0.2325
 4319SOL     OW24415   0.204   1.121   4.582 -0.1192  0.0949  0.0358
 4319SOL    HW124416   0.143   1.061   4.624  1.9969 -2.0385  0.0581
 4319SOL    HW224417   0.158   1.115   4.498  1.8690 -2.7055 -0.8478
 4320SOL     OW24418   0.098   3.417   2.872 -0.5474 -0.2076  0.0848
 4320SOL    HW124419   0.083   3.349   2.807 -0.6835 -0.0562 -0.0439
 4320SOL    HW224420   0.014   3.421   2.918  0.0419 -0.9709  1.2361
 4321SOL     OW24421   2.275   4.590   4.609  0.5510 -0.4119  0.5711
 4321SOL    HW124422   2.238   4.509   4.643  2.3169 -0.7526  1.6506
 4321SOL    HW224423   2.202   4.651   4.613  1.6956  1.1073 -1.3147
 4322SOL     OW24424   3.639   1.203  15.092 -0.1952  0.0313 -0.0370
 4322SOL    HW124425   3.591   1.232  15.014 -1.2474 -0.6377  0.3722
 4322SOL    HW224426   3.658   1.286  15.136 -1.3115 -0.3907  1.2156
 4323SOL     OW24427   3.692   3.128   6.361 -0.0002 -1.0096 -0.0787
 4323SOL    HW124428   3.754   3.099   6.294  0.8541 -2.3631  1.3038
 4323SOL    HW224429   3.736   3.199   6.408 -1.1157 -0.4669  0.1451
 4324SOL     OW24430   0.167   2.471  10.872  0.3404  0.1527  0.4477
 4324SOL    HW124431   0.203   2.437  10.954 -0.1538 -1.4256  0.0162
 4324SOL    HW224432   0.077   2.493  10.894 -0.5937 -0.5026 -2.8144
 4325SOL     OW24433   4.343   0.085   1.373  0.5307  0.7934 -0.2042
 4325SOL    HW124434   4.268   0.043   1.414 -2.5280  2.2997 -4.2933
 4325SOL    HW224435   4.301   0.141   1.307 -0.2567  1.4940  0.9007
 4326SOL     OW24436   4.204   3.830   4.502 -0.2363 -0.0143  0.0431
 4326SOL    HW124437   4.182   3.835   4.595 -0.3158 -0.3636  0.0416
 4326SOL    HW224438   4.182   3.738   4.489 -1.9061 -0.0921  3.4138
 4327SOL     OW24439   2.165   2.232   3.365 -0.0815 -0.0668  0.1807
 4327SOL    HW124440   2.093   2.169   3.363  1.4724 -1.9345  2.1577
 4327SOL    HW224441   2.208   2.214   3.281 -0.1096  0.8681 -0.0349
 4328SOL     OW24442   0.320   4.700   6.418 -0.1175  0.0759 -0.4689
 4328SOL    HW124443   0.252   0.035   6.452 -0.1475  0.6763 -1.5376
 4328SOL    HW224444   0.402   0.026   6.431 -0.5814  1.2170 -1.7846
 4329SOL     OW24445   0.360   0.259   4.452  0.5222 -0.2574 -0.0203
 4329SOL    HW124446   0.362   0.183   4.393 -2.4875 -1.2242  1.0855
 4329SOL    HW224447   0.267   0.253   4.476  1.2520  0.5835  2.9206
 4330SOL     OW24448   1.064   2.791   0.695  0.0686  0.4328  0.6562
 4330SOL    HW124449   0.993   2.764   0.638  1.5638  1.2944 -1.6360
 4330SOL    HW224450   1.012   2.845   0.754  2.2502  1.8564  1.3067
 4331SOL     OW24451   1.482   2.563   7.665  0.4722  0.0749 -0.3109
 4331SOL    HW124452   1.497   2.526   7.578  1.7175  0.7831 -0.4051
 4331SOL    HW224453   1.498   2.490   7.724 -0.3887  0.0577 -0.1026
 4332SOL     OW24454   1.618   4.008   3.149 -0.2636  0.2153  0.1195
 4332SOL    HW124455   1.704   3.999   3.107  0.7063  1.7841  1.7747
 4332SOL    HW224456   1.585   3.921   3.127  0.2220 -0.2614  1.2968
 4333SOL     OW24457   1.127   2.558  16.906 -0.2386  0.1533 -0.3745
 4333SOL    HW124458   1.157   2.647  16.887  0.0381 -0.2402 -1.7249
 4333SOL    HW224459   1.179   2.538  16.984 -0.7778  1.5278  0.3567
 4334SOL     OW24460   4.390   1.189   5.406  0.3109 -0.3251 -0.3063
 4334SOL    HW124461   4.401   1.209   5.499 -0.4931 -0.8766 -0.0927
 4334SOL    HW224462   4.391   1.094   5.405  0.2261 -0.3363  0.4136
 4335SOL     OW24463   2.813   1.138   7.756  0.1820 -0.1336 -0.7786
 4335SOL    HW124464   2.878   1.173   7.696  1.1031  1.0614  0.8931
 4335SOL    HW224465   2.859   1.133   7.840 -0.3629 -3.3024 -0.6608
 4336SOL     OW24466   2.157   1.589   2.816 -0.3052 -0.2039  0.2971
 4336SOL    HW124467   2.135   1.516   2.873 -0.6998  0.2600  0.7437
 4336SOL    HW224468   2.076   1.639   2.804  0.4182  0.6818 -0.9292
 4337SOL     OW24469   1.665   3.710   3.731  0.1409 -0.3506  0.4037
 4337SOL    HW124470   1.615   3.770   3.786  2.1103 -0.4092  2.2577
 4337SOL    HW224471   1.657   3.626   3.776 -0.1742 -0.0737  0.8630
 4338SOL     OW24472   2.801   3.185   2.162  0.0716 -0.7760  0.2903
 4338SOL    HW124473   2.760   3.102   2.139  0.8197 -1.2161  0.5273
 4338SOL    HW224474   2.874   3.159   2.218 -0.7723 -0.5909  1.4633
 4339SOL     OW24475   0.734   4.485   7.251 -0.5002  0.0029  0.0452
 4339SOL    HW124476   0.693   4.509   7.334 -0.5454 -2.6831  0.7859
 4339SOL    HW224477   0.829   4.480   7.266 -0.5765 -0.5759  0.3199
 4340SOL     OW24478   3.277   4.630   7.910  0.3388 -0.3886  0.3130
 4340SOL    HW124479   3.181   4.631   7.908  0.3338 -1.9417 -0.2020
 4340SOL    HW224480   3.295   4.645   7.818 -2.1134 -0.4803 -0.1860
 4341SOL     OW24481   1.505   1.398   3.681  0.0846  0.1253  0.2010
 4341SOL    HW124482   1.580   1.416   3.738 -0.2676 -2.1246  1.3628
 4341SOL    HW224483   1.478   1.487   3.655  0.9392 -0.0028 -1.1328
 4342SOL     OW24484   4.475   2.532   3.118 -0.0159  0.2038  0.5039
 4342SOL    HW124485   4.519   2.560   3.199  0.2394 -0.5797  0.6363
 4342SOL    HW224486   4.430   2.609   3.084 -1.3098 -0.8987 -0.2739
 4343SOL     OW24487   0.409   4.483  11.652  0.2796 -0.0981  0.5753
 4343SOL    HW124488   0.460   4.448  11.579 -1.2364 -0.2851 -0.3738
 4343SOL    HW224489   0.412   4.412  11.716 -4.6260 -0.5679  0.2466
 4344SOL     OW24490   3.975   4.379   8.332 -0.3779 -0.0216 -0.0185
 4344SOL    HW124491   3.894   4.390   8.282 -0.8897  0.2487  0.8808
 4344SOL    HW224492   4.022   4.462   8.329 -1.7402  0.7595  0.2248
 4345SOL     OW24493   2.100   0.554   4.512  0.0438 -0.5628  0.5150
 4345SOL    HW124494   2.193   0.530   4.514  0.1415 -0.1879  0.6335
 4345SOL    HW224495   2.074   0.549   4.604 -1.4656 -1.3103  0.0398
 4346SOL     OW24496   2.175   3.784   2.313  0.0744 -0.0663  0.0539
 4346SOL    HW124497   2.153   3.741   2.231 -1.0776 -1.4393  1.0872
 4346SOL    HW224498   2.111   3.854   2.305 -0.5419 -0.4696  1.4251
 4347SOL     OW24499   3.634   1.493   1.922  0.1951  0.2254 -0.4196
 4347SOL    HW124500   3.721   1.456   1.940  1.6470  2.7407 -2.0942
 4347SOL    HW224501   3.585   1.419   1.887  1.0968 -0.7334  0.3603
 4348SOL     OW24502   4.580   2.701   6.862 -0.1291  0.1165 -0.1987
 4348SOL    HW124503   4.563   2.613   6.828 -1.7358  0.3343  0.0529
 4348SOL    HW224504   4.675   2.704   6.873 -0.1190 -2.6478  0.2852
 4349SOL     OW24505   1.839   1.870   7.536 -0.2665 -0.0887 -0.1267
 4349SOL    HW124506   1.866   1.916   7.457 -1.6682 -0.0838 -0.5913
 4349SOL    HW224507   1.919   1.832   7.573  0.9235  1.5160 -1.0858
 4350SOL     OW24508   4.046   1.649   1.832 -0.1267 -0.6353  0.0879
 4350SOL    HW124509   4.127   1.698   1.817 -0.5652 -0.0139 -0.2605
 4350SOL    HW224510   4.021   1.620   1.745 -0.7041 -0.0446  0.0576
 4351SOL     OW24511   2.394   3.293   1.877 -0.0162 -0.3881 -0.6463
 4351SOL    HW124512   2.458   3.232   1.840 -0.6436 -0.5061 -1.5340
 4351SOL    HW224513   2.320   3.233   1.865 -0.4874  0.3541 -1.5127
 4352SOL     OW24514   3.269   0.519   6.394 -0.2723 -0.2042 -0.0028
 4352SOL    HW124515   3.207   0.451   6.368 -0.7165 -0.3806  1.5154
 4352SOL    HW224516   3.252   0.519   6.488 -1.0520 -1.3975 -0.1427
 4353SOL     OW24517   2.803   0.148  11.182  0.8081 -0.2200 -0.4751
 4353SOL    HW124518   2.860   0.188  11.248  2.1379 -1.5505 -0.8301
 4353SOL    HW224519   2.847   0.155  11.098 -0.2611  0.5658 -0.9753
 4354SOL     OW24520   4.563   3.566   1.527  0.2013 -0.4650  0.1730
 4354SOL    HW124521   4.622   3.493   1.547 -1.3588 -0.6758  3.9917
 4354SOL    HW224522   4.485   3.524   1.563 -0.3942  1.1762  0.7823
 4355SOL     OW24523   2.400   1.526   0.300 -0.1318 -0.1315  0.5036
 4355SOL    HW124524   2.397   1.460   0.370 -0.8339 -1.1854 -0.5163
 4355SOL    HW224525   2.320   1.576   0.320 -1.1870 -2.1010  1.2299
 4356SOL     OW24526   1.679   1.093   8.941  0.4635  0.3934 -0.1223
 4356SOL    HW124527   1.668   1.026   8.874  2.2171  1.2483 -1.2474
 4356SOL    HW224528   1.766   1.074   8.976 -0.6274 -1.9647  1.3174
 4357SOL     OW24529   1.950   1.861   6.430  0.2738 -0.9957  0.5136
 4357SOL    HW124530   1.958   1.938   6.487  1.3606  1.1533 -2.5575
 4357SOL    HW224531   1.932   1.793   6.494  0.9324 -0.2496  1.5057
 4358SOL     OW24532   2.102   4.619  12.408  0.0516 -0.5341  0.3107
 4358SOL    HW124533   2.073   4.548  12.351 -2.9086 -0.6036  1.8872
 4358SOL    HW224534   2.186   4.596  12.448  0.2670  0.4640  0.4287
 4359SOL     OW24535   3.070   1.257   9.147  0.3532  0.0160  0.0253
 4359SOL    HW124536   2.996   1.208   9.182  0.4692 -0.8398 -0.9036
 4359SOL    HW224537   3.143   1.201   9.175 -0.3600  0.0477  1.9385
 4360SOL     OW24538   2.239   3.123   5.633  0.2478  0.2414 -0.8272
 4360SOL    HW124539   2.181   3.172   5.690  1.6209  1.1404 -0.2054
 4360SOL    HW224540   2.303   3.086   5.693  1.1940  2.9552 -0.1573
 4361SOL     OW24541   0.791   2.483  15.537  0.2852  0.1606  0.1213
 4361SOL    HW124542   0.728   2.426  15.580 -1.2625  0.5573 -1.6147
 4361SOL    HW224543   0.874   2.444  15.563  0.2459 -1.8857 -2.9101
 4362SOL     OW24544   3.904   0.002  15.293  0.8149  0.4574 -0.3370
 4362SOL    HW124545   3.827   4.689  15.248  1.0001  0.6121 -0.7801
 4362SOL    HW224546   3.866   0.054  15.363  1.6008 -0.8952  1.0902
 4363SOL     OW24547   4.657   2.014   2.804 -0.0637  0.3519 -0.5292
 4363SOL    HW124548   4.578   1.981   2.847  0.8543 -1.6628 -0.3955
 4363SOL    HW224549   4.667   1.946   2.738 -1.1629 -0.0830 -0.2407
 4364SOL     OW24550   0.534   4.711   9.987 -0.3397 -0.3225 -0.6368
 4364SOL    HW124551   0.447   4.678   9.963 -0.8180  0.2550  0.2830
 4364SOL    HW224552   0.551   0.054   9.921  0.5537 -0.5592 -0.6408
 4365SOL     OW24553   1.712   0.962   5.434  0.2034  0.0495 -0.5559
 4365SOL    HW124554   1.696   1.004   5.350 -0.5522  1.1279  0.1312
 4365SOL    HW224555   1.727   1.039   5.489  0.7072  0.1078 -0.7777
 4366SOL     OW24556   3.726   0.049   6.518 -0.4245 -0.0659 -0.4725
 4366SOL    HW124557   3.711   0.044   6.423 -1.5526 -0.2217 -0.2898
 4366SOL    HW224558   3.672   0.126   6.535  2.0148  1.8939 -1.6110
 4367SOL     OW24559   1.227   3.758   7.334  0.0183 -0.2887  0.0643
 4367SOL    HW124560   1.132   3.749   7.322  0.0931 -0.8654 -0.0597
 4367SOL    HW224561   1.269   3.717   7.259 -0.4859 -0.4715 -0.1218
 4368SOL     OW24562   1.269   1.787  15.530  0.0048 -0.7728  1.1668
 4368SOL    HW124563   1.298   1.785  15.622  0.1076 -0.8174  1.1340
 4368SOL    HW224564   1.308   1.705  15.498 -0.0583 -0.6746  0.8503
 4369SOL     OW24565   4.175   1.608   9.435  0.0855  0.3067 -0.2139
 4369SOL    HW124566   4.125   1.526   9.440  1.6569 -0.5742  1.1181
 4369SOL    HW224567   4.099   1.661   9.459  0.6012  0.6779  0.5864
 4370SOL     OW24568   2.667   4.248  11.332 -0.5308 -0.0417  0.1341
 4370SOL    HW124569   2.738   4.275  11.390 -0.5772  2.4264 -0.9573
 4370SOL    HW224570   2.605   4.320  11.343 -1.1073 -0.5044 -0.0899
 4371SOL     OW24571   2.436   1.959   5.447  0.5788 -0.4986  0.0126
 4371SOL    HW124572   2.508   1.957   5.510  1.5206 -0.1589 -1.0455
 4371SOL    HW224573   2.472   1.901   5.379 -1.1825 -1.0421 -0.4491
 4372SOL     OW24574   0.610   0.438   0.240  0.6252 -0.2849 -0.1326
 4372SOL    HW124575   0.520   0.435   0.271  0.0410  0.3536 -1.7316
 4372SOL    HW224576   0.656   0.380   0.300  2.4465 -0.4912 -1.7071
 4373SOL     OW24577   3.374   4.358  11.309  0.1730  0.0132  0.2852
 4373SOL    HW124578   3.444   4.363  11.374 -0.0152 -2.4288  0.6695
 4373SOL    HW224579   3.341   4.446  11.327 -0.8500 -0.1327 -0.8515
 4374SOL     OW24580   4.696   3.573   7.541  0.1862  0.4962  0.1844
 4374SOL    HW124581   4.703   3.597   7.633  0.0456 -0.3551  0.4103
 4374SOL    HW224582   4.603   3.575   7.519  0.5933  0.1741 -1.6259
 4375SOL     OW24583   2.509   1.773   7.650 -0.1071 -0.6516 -0.4192
 4375SOL    HW124584   2.586   1.796   7.599  0.4899 -1.5072  0.0885
 4375SOL    HW224585   2.547   1.697   7.694  0.9291  0.5674  0.7490
 4376SOL     OW24586   2.264   3.334  10.623  0.8743  0.0815  0.1823
 4376SOL    HW124587   2.334   3.379  10.577  1.9437 -0.9199  0.8367
 4376SOL    HW224588   2.197   3.402  10.616 -0.1410 -0.9332  0.0398
 4377SOL     OW24589   1.212   2.765   6.948  0.0775 -0.3419  0.7826
 4377SOL    HW124590   1.248   2.770   7.036  2.2091 -0.8327 -0.0640
 4377SOL    HW224591   1.211   2.673   6.923 -0.8641  0.0157 -0.5388
 4378SOL     OW24592   3.048   1.551   9.256  0.0772 -0.1855 -0.5139
 4378SOL    HW124593   3.109   1.492   9.212  0.4964 -0.2344  0.1348
 4378SOL    HW224594   3.018   1.608   9.185  0.4088  0.3699 -0.1994
 4379SOL     OW24595   2.163   1.070  13.013 -0.4264 -0.0848  0.0979
 4379SOL    HW124596   2.224   1.001  13.038  0.4460  0.3185 -0.9100
 4379SOL    HW224597   2.219   1.147  13.002  0.1544 -0.8321 -2.2161
 4380SOL     OW24598   0.592   1.315  13.325  0.1960  0.2934 -0.0224
 4380SOL    HW124599   0.651   1.321  13.249 -1.2201  0.2267 -1.1256
 4380SOL    HW224600   0.515   1.358  13.288 -0.8783 -1.7608 -0.1552
 4381SOL     OW24601   2.434   2.175   9.754 -0.0914 -0.1114  0.2767
 4381SOL    HW124602   2.448   2.110   9.823  2.1077  2.1083  1.9019
 4381SOL    HW224603   2.349   2.147   9.720  0.4023 -0.1128 -0.9757
 4382SOL     OW24604   1.936   3.174   5.981  0.4135  0.7916  0.1387
 4382SOL    HW124605   1.865   3.155   5.919 -0.0463 -0.8041  1.1546
 4382SOL    HW224606   1.982   3.237   5.926  0.3853 -0.5589 -1.4348
 4383SOL     OW24607   2.725   3.048   4.892 -0.2311  0.0096  0.5989
 4383SOL    HW124608   2.809   3.073   4.931  0.8606 -2.3286 -0.2870
 4383SOL    HW224609   2.660   3.084   4.953 -0.7910  0.8909 -0.5290
 4384SOL     OW24610   0.918   4.480   2.328  0.4377  0.6047 -0.1390
 4384SOL    HW124611   0.939   4.389   2.309 -1.3195  0.1632  0.0053
 4384SOL    HW224612   0.906   4.530   2.248  0.5761 -1.7553 -1.6124
 4385SOL     OW24613   3.513   1.249   6.791  0.1357 -0.5406 -0.0946
 4385SOL    HW124614   3.507   1.286   6.879  2.6741 -0.6070  0.0969
 4385SOL    HW224615   3.441   1.300   6.755 -0.1158  0.1765  1.4343
 4386SOL     OW24616   2.292   2.727   6.616  0.0804  0.1343  0.2616
 4386SOL    HW124617   2.310   2.753   6.706 -0.6463 -0.0466  0.4491
 4386SOL    HW224618   2.348   2.650   6.601 -0.2923  0.3786 -2.4398
 4387SOL     OW24619   2.541   3.990   6.692  0.1944  0.2608 -0.1052
 4387SOL    HW124620   2.633   4.015   6.702  0.4836 -0.1370 -1.8207
 4387SOL    HW224621   2.550   3.958   6.603 -2.5849 -0.8006  0.0046
 4388SOL     OW24622   0.681   4.319  14.367 -0.1394  0.3523  0.3435
 4388SOL    HW124623   0.675   4.300  14.274 -0.6986 -2.7812  1.0148
 4388SOL    HW224624   0.629   4.255  14.416 -1.2869 -0.0692 -1.4273
 4389SOL     OW24625   4.170   1.056   9.064 -0.7599 -0.1039 -0.1144
 4389SOL    HW124626   4.221   0.975   9.074 -0.8564 -0.4886 -2.7380
 4389SOL    HW224627   4.227   1.104   9.004  1.1370 -1.3160  0.7097
 4390SOL     OW24628   1.254   2.672   6.421 -0.2685 -0.3137  0.2646
 4390SOL    HW124629   1.336   2.622   6.418  0.4285  0.8525 -0.0038
 4390SOL    HW224630   1.249   2.705   6.510  0.1069  1.1820 -0.2771
 4391SOL     OW24631   2.887   0.053   0.365  0.1460  0.3323  0.0944
 4391SOL    HW124632   2.806   0.070   0.317 -0.0860  0.9610  0.7077
 4391SOL    HW224633   2.941   0.030   0.289 -0.0194 -0.6994  0.2999
 4392SOL     OW24634   3.100   4.447  11.846  0.5144  0.9081 -0.5125
 4392SOL    HW124635   3.018   4.414  11.810  1.5825 -1.3052 -0.8886
 4392SOL    HW224636   3.123   4.358  11.870 -1.9481  1.1444  2.7228
 4393SOL     OW24637   1.978   1.848  13.105 -0.2958 -0.1323 -0.5896
 4393SOL    HW124638   1.918   1.922  13.110 -0.4323 -0.1982 -1.2984
 4393SOL    HW224639   2.045   1.886  13.049 -0.5822  1.5740  0.2227
 4394SOL     OW24640   2.926   1.269  11.323 -0.0811  0.3248  0.1416
 4394SOL    HW124641   2.929   1.257  11.418  0.2615  1.6225  0.2860
 4394SOL    HW224642   2.936   1.179  11.290  0.1220 -1.0676  3.9109
 4395SOL     OW24643   0.166   3.596   6.134  0.3685 -0.3436  0.5566
 4395SOL    HW124644   0.079   3.571   6.101 -0.8441  2.2891  1.7119
 4395SOL    HW224645   0.140   3.607   6.226 -2.5811 -2.1805 -0.0654
 4396SOL     OW24646   1.927   2.509   4.194  0.6373 -0.7111  0.2132
 4396SOL    HW124647   1.932   2.418   4.222 -0.1948 -0.5919  0.7377
 4396SOL    HW224648   1.965   2.558   4.267  2.4219 -0.3067 -0.9875
 4397SOL     OW24649   4.621   0.747   4.697  0.2587  0.0356  0.1334
 4397SOL    HW124650   4.557   0.675   4.701  0.6383 -0.4774 -3.0923
 4397SOL    HW224651   4.701   0.696   4.700 -0.7762 -1.4773  2.2580
 4398SOL     OW24652   0.831   1.767   8.173 -0.4840  0.0281  0.3402
 4398SOL    HW124653   0.825   1.688   8.227 -1.0921 -0.0834  0.1107
 4398SOL    HW224654   0.757   1.819   8.204 -2.3426 -2.7839  0.5622
 4399SOL     OW24655   3.646   1.430  15.254 -0.3120 -0.1658  0.5815
 4399SOL    HW124656   3.602   1.415  15.338 -0.4069  0.3483  0.6240
 4399SOL    HW224657   3.736   1.450  15.278 -0.9711  0.5006  2.5301
 4400SOL     OW24658   2.807   0.387   8.261  0.0973  0.1335 -0.4591
 4400SOL    HW124659   2.792   0.295   8.280 -0.9221  0.0294 -1.7220
 4400SOL    HW224660   2.885   0.408   8.313 -0.3270 -0.4677  0.4153
 4401SOL     OW24661   1.219   2.656   8.400 -0.2618 -0.0989 -0.8658
 4401SOL    HW124662   1.292   2.623   8.347 -0.2867  0.4197 -1.2254
 4401SOL    HW224663   1.144   2.603   8.373 -0.2618  0.8054 -2.6759
 4402SOL     OW24664   4.289   2.288   7.577 -0.5152  0.1307 -0.4345
 4402SOL    HW124665   4.224   2.223   7.552  0.7912 -0.3939 -2.4405
 4402SOL    HW224666   4.313   2.240   7.656  1.6445  3.3398  0.8898
 4403SOL     OW24667   0.199   3.672   5.316  0.1672  0.3971 -0.1141
 4403SOL    HW124668   0.256   3.743   5.289  1.2307 -0.4874 -0.1864
 4403SOL    HW224669   0.156   3.714   5.390  1.9214  2.0560 -0.0235
 4404SOL     OW24670   3.827   2.767  10.992 -0.3567  0.4904  0.1863
 4404SOL    HW124671   3.835   2.677  11.024  0.1650  0.1229 -0.9784
 4404SOL    HW224672   3.916   2.793  11.018  0.0988 -1.3908  0.5228
 4405SOL     OW24673   3.694   2.158   7.992 -0.2855  0.2132 -0.2956
 4405SOL    HW124674   3.728   2.226   8.049 -0.5983 -0.0460  0.2080
 4405SOL    HW224675   3.646   2.198   7.919 -0.3461  0.8974  0.1256
 4406SOL     OW24676   2.312   2.876   3.310 -0.8598  0.0556 -0.1095
 4406SOL    HW124677   2.384   2.936   3.289 -1.1465  0.3756 -0.1703
 4406SOL    HW224678   2.276   2.859   3.223  1.5147 -1.7875 -0.7314
 4407SOL     OW24679   0.016   1.151  15.162  0.1693  0.5527 -0.8234
 4407SOL    HW124680   0.106   1.125  15.144 -0.0285 -0.1932 -0.7206
 4407SOL    HW224681   0.040   1.222  15.222  0.8266  0.7241 -1.2921
 4408SOL     OW24682   1.585   1.262  13.490 -0.4293 -0.5834  0.1186
 4408SOL    HW124683   1.594   1.304  13.576  3.5427 -1.5880  0.1979
 4408SOL    HW224684   1.571   1.335  13.429  0.0292 -0.0284  0.6725
 4409SOL     OW24685   3.422   3.383  16.656  0.1381 -0.6123 -0.0315
 4409SOL    HW124686   3.360   3.453  16.679  1.1424  0.6022 -1.0858
 4409SOL    HW224687   3.489   3.389  16.724 -0.0579 -0.0105  0.1131
 4410SOL     OW24688   2.781   0.243  10.487 -0.2862 -0.1324  0.0179
 4410SOL    HW124689   2.779   0.189  10.408 -0.9348  1.2375 -0.8888
 4410SOL    HW224690   2.714   0.193  10.534 -0.1186 -0.1188  0.2689
 4411SOL     OW24691   2.542   1.196   7.074 -0.1516 -0.3015 -0.0675
 4411SOL    HW124692   2.477   1.171   7.140  2.5419 -0.7947  2.3780
 4411SOL    HW224693   2.502   1.278   7.042 -2.2771 -1.2249  0.2033
 4412SOL     OW24694   2.021   2.291   5.037 -0.1483 -0.0760 -0.3809
 4412SOL    HW124695   2.000   2.372   5.083 -0.3357 -2.4419  3.7030
 4412SOL    HW224696   2.033   2.325   4.948 -1.7024  1.6427  0.0652
 4413SOL     OW24697   1.853   4.549   0.520  0.0539  1.0589 -0.2678
 4413SOL    HW124698   1.837   4.643   0.511  0.1250  1.1837  0.8734
 4413SOL    HW224699   1.775   4.525   0.568 -0.4741  1.8086 -0.7430
 4414SOL     OW24700   1.253   4.617   3.696  0.3871  0.2702  0.7529
 4414SOL    HW124701   1.206   4.547   3.651  0.2131  0.5026  0.5786
 4414SOL    HW224702   1.211   4.702   3.682  0.6366  0.5383  1.5884
 4415SOL     OW24703   4.663   0.349   7.850  0.2000  0.3166 -0.1060
 4415SOL    HW124704   4.626   0.285   7.910  0.5843  0.2515  0.0592
 4415SOL    HW224705   4.608   0.427   7.852 -2.0568 -1.3770  3.0083
 4416SOL     OW24706   1.263   3.602  16.573 -0.5422 -0.1346 -0.4058
 4416SOL    HW124707   1.334   3.618  16.636  0.7510  1.2358 -2.1934
 4416SOL    HW224708   1.195   3.608  16.640  0.3678  2.7378  0.2953
 4417SOL     OW24709   4.040   0.899  16.149 -0.2852  0.2961 -0.3684
 4417SOL    HW124710   4.045   0.982  16.196  3.8430 -0.8510  1.1394
 4417SOL    HW224711   4.132   0.885  16.127 -0.5691 -1.0955 -0.6632
 4418SOL     OW24712   2.631   2.152   6.744  0.0558 -0.0282  0.4343
 4418SOL    HW124713   2.538   2.154   6.721 -0.3015 -0.2016  1.8557
 4418SOL    HW224714   2.653   2.062   6.719 -0.3892 -0.3571  1.2276
 4419SOL     OW24715   4.156   4.168   2.422  0.2151  1.1567 -0.3980
 4419SOL    HW124716   4.203   4.118   2.489 -1.6892 -2.1621 -1.5691
 4419SOL    HW224717   4.188   4.256   2.443 -0.5254  1.0487  1.2110
 4420SOL     OW24718   0.620   1.409   4.043  0.6046  0.3001  0.4062
 4420SOL    HW124719   0.664   1.409   3.958  0.5877 -2.0038  0.3922
 4420SOL    HW224720   0.609   1.502   4.064  1.6646  0.3144  0.9487
 4421SOL     OW24721   1.163   1.483   5.539 -0.0125 -0.4672 -0.1781
 4421SOL    HW124722   1.207   1.416   5.487 -0.6926 -1.2397  0.2248
 4421SOL    HW224723   1.226   1.551   5.562 -0.8696  0.9460 -2.0609
 4422SOL     OW24724   4.243   3.128   7.415 -0.2944 -0.4407 -0.7230
 4422SOL    HW124725   4.242   3.155   7.323 -2.7903  0.8329 -0.3452
 4422SOL    HW224726   4.240   3.032   7.406  1.5818 -0.3157 -2.6602
 4423SOL     OW24727   1.930   4.570   8.441  0.1790 -0.0320 -1.0442
 4423SOL    HW124728   1.870   4.509   8.484  2.0826 -0.0923  1.5506
 4423SOL    HW224729   1.991   4.509   8.398  0.7856  2.0388 -3.1391
 4424SOL     OW24730   2.779   0.653   7.110  0.0103 -0.2860 -0.3369
 4424SOL    HW124731   2.775   0.629   7.018 -0.6438  0.3295 -0.4648
 4424SOL    HW224732   2.748   0.743   7.103 -0.7175 -0.3990  1.4183
 4425SOL     OW24733   2.185   1.562   6.515  0.3063  0.5171 -0.0877
 4425SOL    HW124734   2.145   1.549   6.601  1.1532  0.5650  0.3100
 4425SOL    HW224735   2.167   1.655   6.504  0.1181  0.1667 -2.7396
 4426SOL     OW24736   2.212   2.657  12.148  0.1240 -0.3537 -0.3292
 4426SOL    HW124737   2.255   2.743  12.154  0.5245 -0.5966  0.2884
 4426SOL    HW224738   2.279   2.597  12.181 -1.1444 -2.6230 -1.9047
 4427SOL     OW24739   2.565   3.096   4.430 -0.1641  0.4258 -0.2131
 4427SOL    HW124740   2.599   3.137   4.510 -2.0156 -0.6990  1.1414
 4427SOL    HW224741   2.554   3.170   4.370  0.4872 -0.2185 -1.1218
 4428SOL     OW24742   2.578   2.363   6.921  0.1097 -0.4758 -0.6049
 4428SOL    HW124743   2.598   2.323   6.837  0.1836 -2.6658  0.4467
 4428SOL    HW224744   2.603   2.280   6.963 -2.0641 -0.5616  0.5222
 4429SOL     OW24745   2.067   3.384   6.865 -0.5886 -0.5264  0.3775
 4429SOL    HW124746   2.049   3.476   6.844  4.8965  0.6361  0.6680
 4429SOL    HW224747   2.042   3.335   6.787 -0.4574 -1.7970  1.1325
 4430SOL     OW24748   4.222   2.401   3.087 -0.6679  0.2782 -0.3257
 4430SOL    HW124749   4.198   2.478   3.034 -0.4869 -1.5600 -3.0944
 4430SOL    HW224750   4.304   2.437   3.119  0.3265 -1.3844 -1.0371
 4431SOL     OW24751   0.177   4.553   8.136 -0.4672  0.4528 -0.0388
 4431SOL    HW124752   0.179   4.649   8.132  1.9385  0.4871  1.9377
 4431SOL    HW224753   0.159   4.533   8.227  1.0006 -0.7364 -0.0110
 4432SOL     OW24754   3.955   2.603   2.866  0.1800 -0.1031 -0.2935
 4432SOL    HW124755   3.954   2.511   2.840  0.2420 -0.1525 -0.1219
 4432SOL    HW224756   3.860   2.618   2.870  0.4983  1.6310  0.9666
 4433SOL     OW24757   0.015   0.911   9.904 -0.1378 -0.1951  0.5687
 4433SOL    HW124758   0.070   0.946   9.974  0.3470  0.2093 -0.0221
 4433SOL    HW224759   4.650   0.938   9.935 -1.2429 -0.8861 -1.9931
 4434SOL     OW24760   2.841   1.163   6.127  0.1861  0.0708 -0.0156
 4434SOL    HW124761   2.819   1.256   6.132 -4.3996 -1.1164  1.9263
 4434SOL    HW224762   2.935   1.167   6.108  0.1948  1.5035  0.3339
 4435SOL     OW24763   4.315   1.460   2.504  1.1918  0.2309 -0.3122
 4435SOL    HW124764   4.251   1.529   2.521  0.1644  0.1043 -3.6660
 4435SOL    HW224765   4.263   1.397   2.453  0.8490 -0.7136  1.2257
 4436SOL     OW24766   1.130   1.685   7.323 -0.4505  0.2267 -0.0632
 4436SOL    HW124767   1.063   1.753   7.317  0.3589  1.1093  0.9286
 4436SOL    HW224768   1.129   1.666   7.417  1.6825 -1.9244 -0.4518
 4437SOL     OW24769   3.333   1.502  13.399  0.5781 -0.3176  0.1868
 4437SOL    HW124770   3.240   1.483  13.411  0.4192 -1.1936 -2.5128
 4437SOL    HW224771   3.341   1.593  13.429  1.1917 -0.6071  0.9081
 4438SOL     OW24772   4.300   3.895   7.623 -0.4970 -0.4730  0.1525
 4438SOL    HW124773   4.321   3.803   7.635 -0.6979 -0.5598 -0.1655
 4438SOL    HW224774   4.232   3.877   7.558  1.1935 -0.2729 -1.6797
 4439SOL     OW24775   0.059   0.784   3.653 -0.1478 -0.0018  0.0372
 4439SOL    HW124776   0.126   0.814   3.592 -1.0408  0.0666 -0.9146
 4439SOL    HW224777   0.092   0.714   3.709  0.6118 -1.0182 -1.6931
 4440SOL     OW24778   3.248   2.541   3.617  0.2646  0.0860  0.1062
 4440SOL    HW124779   3.308   2.540   3.542 -1.2839 -1.3628 -1.1159
 4440SOL    HW224780   3.219   2.450   3.612  2.5233 -0.5795 -1.0593
 4441SOL     OW24781   0.713   4.408   3.771 -0.0282 -0.1224  0.1924
 4441SOL    HW124782   0.668   4.402   3.856 -0.5756  0.6330 -0.0474
 4441SOL    HW224783   0.668   4.346   3.714 -0.8363 -0.8200  1.5760
 4442SOL     OW24784   2.610   1.607   6.497 -0.4253 -0.2990 -0.1019
 4442SOL    HW124785   2.587   1.693   6.532  1.8917 -0.3592  1.5967
 4442SOL    HW224786   2.631   1.625   6.405  0.9122 -2.5618 -0.2523
 4443SOL     OW24787   2.158   1.578  16.569 -0.0774  0.2236  0.1192
 4443SOL    HW124788   2.126   1.488  16.571  0.5036  0.0029 -0.2653
 4443SOL    HW224789   2.076   1.622  16.589 -0.7607  0.1756 -2.4862
 4444SOL     OW24790   0.087   2.228  11.767 -0.1076 -0.3210 -0.5575
 4444SOL    HW124791   0.001   2.224  11.725 -1.6543 -1.3806  2.7050
 4444SOL    HW224792   0.059   2.188  11.849  0.1764  0.3310 -0.1445
 4445SOL     OW24793   0.422   1.117   4.280 -0.2506  0.4562  0.0902
 4445SOL    HW124794   0.415   1.073   4.195  1.3023 -2.2731  1.4060
 4445SOL    HW224795   0.355   1.185   4.269  0.1079  1.0828  1.7430
 4446SOL     OW24796   3.714   2.416   4.406  0.2850 -0.0550  0.6597
 4446SOL    HW124797   3.729   2.486   4.343  1.2033 -1.4421 -0.6573
 4446SOL    HW224798   3.705   2.467   4.486 -3.0803 -0.4962  0.5644
 4447SOL     OW24799   0.024   4.303  16.083  0.1996 -0.2235 -0.3494
 4447SOL    HW124800   0.006   4.397  16.070  0.8716  0.1350  1.2909
 4447SOL    HW224801   0.119   4.305  16.074  0.0106  0.1861 -2.3813
 4448SOL     OW24802   4.032   0.679   9.387 -0.8549  0.2080 -0.0338
 4448SOL    HW124803   4.021   0.769   9.356 -1.1076  0.0475 -0.4084
 4448SOL    HW224804   4.064   0.642   9.305 -2.4156 -1.0177 -0.0881
 4449SOL     OW24805   1.785   0.855   1.940  0.1158 -0.2516 -1.0736
 4449SOL    HW124806   1.818   0.890   2.023  1.3461 -0.9465 -1.2697
 4449SOL    HW224807   1.704   0.906   1.935  0.6330  0.9481  2.6947
 4450SOL     OW24808   4.240   2.598   2.871  0.2076  0.1972  0.0074
 4450SOL    HW124809   4.271   2.645   2.794 -0.1334 -2.1482 -1.5502
 4450SOL    HW224810   4.147   2.620   2.867 -0.4596 -2.8168 -0.9607
 4451SOL     OW24811   0.671   4.059   1.797 -0.5302  0.1202  0.0188
 4451SOL    HW124812   0.753   4.028   1.758 -0.6340 -1.6358  1.1935
 4451SOL    HW224813   0.670   4.002   1.873  1.6355 -1.8091 -1.4017
 4452SOL     OW24814   0.827   1.426   2.909 -0.6837  0.6079 -0.1862
 4452SOL    HW124815   0.828   1.501   2.969  3.0249  1.9001 -1.7898
 4452SOL    HW224816   0.824   1.355   2.972 -0.7879 -1.2528 -2.2998
 4453SOL     OW24817   3.969   3.477   5.328 -0.5107  0.1961  0.0310
 4453SOL    HW124818   4.016   3.403   5.369  2.3377  2.0184  0.0434
 4453SOL    HW224819   4.016   3.479   5.245 -1.9514 -2.0885 -0.8458
 4454SOL     OW24820   1.193   1.690   4.657 -0.3466  0.1228  0.0817
 4454SOL    HW124821   1.274   1.741   4.653 -0.4153  0.0709 -1.8851
 4454SOL    HW224822   1.186   1.695   4.753 -1.0695  1.0248 -0.0248
 4455SOL     OW24823   0.374   3.211  10.308 -1.1093  0.5006  0.6378
 4455SOL    HW124824   0.396   3.267  10.382  0.2606 -0.6409  1.0954
 4455SOL    HW224825   0.318   3.142  10.345 -0.1211  0.2459  1.6627
 4456SOL     OW24826   4.392   1.773  10.446 -0.5833 -0.0870 -0.0248
 4456SOL    HW124827   4.383   1.746  10.537  0.6670  0.9429  0.3956
 4456SOL    HW224828   4.335   1.849  10.436 -0.3806  0.0059 -0.4603
 4457SOL     OW24829   2.678   1.648   2.182  0.5980  0.0665  0.1327
 4457SOL    HW124830   2.737   1.600   2.123  1.4655  2.4220 -0.9101
 4457SOL    HW224831   2.607   1.584   2.184  0.4136  0.2954  1.0241
 4458SOL     OW24832   0.594   3.424   3.280 -0.6291  0.5506  0.8301
 4458SOL    HW124833   0.552   3.339   3.263 -1.0324  0.9593 -0.2044
 4458SOL    HW224834   0.519   3.468   3.320 -3.3571 -2.3469 -1.0098
 4459SOL     OW24835   0.519   4.007   9.076  0.1836  0.2325 -0.5843
 4459SOL    HW124836   0.540   3.946   9.005  3.8492  0.8614 -0.0439
 4459SOL    HW224837   0.479   3.949   9.141 -0.7410  1.0795 -0.4031
 4460SOL     OW24838   4.190   2.406   6.874 -0.0996 -0.1373 -0.2552
 4460SOL    HW124839   4.200   2.438   6.784  2.6484  0.0634  0.1282
 4460SOL    HW224840   4.249   2.455   6.930 -0.8315  0.0916  0.3032
 4461SOL     OW24841   1.365   1.339   3.412  0.6177 -0.4600 -0.1289
 4461SOL    HW124842   1.398   1.365   3.326 -0.7697 -2.7777 -1.3675
 4461SOL    HW224843   1.418   1.391   3.473 -0.1767  1.6155 -1.2097
 4462SOL     OW24844   0.330   0.826   6.581  0.2954  0.6525  0.3390
 4462SOL    HW124845   0.402   0.840   6.521  1.5477  0.0436  1.6961
 4462SOL    HW224846   0.307   0.735   6.562  1.8143 -0.0132  1.6567
 4463SOL     OW24847   1.660   0.276   5.190  0.0402  0.4791 -0.0821
 4463SOL    HW124848   1.585   0.271   5.250  1.6019  0.9687  1.9247
 4463SOL    HW224849   1.706   0.200   5.226 -1.2924 -0.3385 -0.0758
 4464SOL     OW24850   3.634   2.960   2.930  0.2571  0.7479 -0.3852
 4464SOL    HW124851   3.634   2.865   2.943 -3.9368  0.7131 -0.6935
 4464SOL    HW224852   3.726   2.986   2.926  0.7029 -0.8722 -0.7338
 4465SOL     OW24853   0.262   0.052   4.768 -0.6267 -0.0890  0.3958
 4465SOL    HW124854   0.197   0.009   4.712 -1.8940  4.2837 -1.4455
 4465SOL    HW224855   0.259   0.007   4.852  0.2023 -1.4870 -0.3231
 4466SOL     OW24856   2.304   4.226   5.805 -0.0310 -0.6153  0.0548
 4466SOL    HW124857   2.280   4.224   5.712 -1.7048 -0.5394  0.4718
 4466SOL    HW224858   2.386   4.178   5.805  0.4507  0.2110  0.5251
 4467SOL     OW24859   1.215   3.039   8.816 -0.0506 -0.1569 -0.3895
 4467SOL    HW124860   1.276   3.067   8.884 -1.3294 -0.3624  0.8158
 4467SOL    HW224861   1.202   3.123   8.773  1.0350  0.2064 -0.0004
 4468SOL     OW24862   3.152   2.800  15.282  0.5930 -0.2143 -0.6485
 4468SOL    HW124863   3.212   2.728  15.305  2.1401  0.5258 -2.3394
 4468SOL    HW224864   3.172   2.827  15.193 -0.0169 -0.7599 -0.9522
 4469SOL     OW24865   2.609   3.607   3.157 -0.6373  0.4043 -0.3209
 4469SOL    HW124866   2.516   3.597   3.179 -0.1707  0.2366  1.5832
 4469SOL    HW224867   2.598   3.654   3.074  2.3101  1.5440 -0.0628
 4470SOL     OW24868   0.783   3.606   7.462 -0.4219  0.9018 -0.5961
 4470SOL    HW124869   0.688   3.615   7.473 -0.5750 -2.7567  1.1623
 4470SOL    HW224870   0.821   3.619   7.549  0.4913  1.8643 -1.1441
 4471SOL     OW24871   3.028   3.060   8.551 -0.2478  0.0542  0.2809
 4471SOL    HW124872   2.972   3.017   8.615 -2.1118  0.1367 -1.2829
 4471SOL    HW224873   3.035   3.147   8.589 -0.3585  0.5914 -0.9161
 4472SOL     OW24874   0.431   4.050   6.645  0.2778 -0.8327  0.3971
 4472SOL    HW124875   0.507   4.000   6.614 -0.4274 -2.5839  1.5114
 4472SOL    HW224876   0.478   4.133   6.655 -0.4058 -0.0587 -2.8204
 4473SOL     OW24877   3.199   1.383   2.434 -0.2808 -0.2084 -0.0831
 4473SOL    HW124878   3.138   1.374   2.360 -0.2362  0.5656 -0.2208
 4473SOL    HW224879   3.240   1.464   2.404  3.5842 -2.6124 -1.2531
 4474SOL     OW24880   2.818   1.628   2.727 -0.2848  0.1064 -0.2511
 4474SOL    HW124881   2.854   1.547   2.764 -0.9931  0.6891  1.7350
 4474SOL    HW224882   2.879   1.653   2.657  0.3070  2.8195  1.2267
 4475SOL     OW24883   3.077   3.512   3.311 -0.3116 -0.0887  0.0243
 4475SOL    HW124884   3.116   3.441   3.259 -0.7111  0.1862 -0.6471
 4475SOL    HW224885   2.987   3.516   3.278 -0.5514  0.2073  0.7311
 4476SOL     OW24886   3.910   3.192  17.606  0.5155  0.2266 -0.0789
 4476SOL    HW124887   3.985   3.243  17.638 -0.8876  2.3193 -0.1003
 4476SOL    HW224888   3.869   3.251  17.542 -1.3954  1.6384  2.4002
 4477SOL     OW24889   2.593   1.289   4.656 -0.8110 -0.3062  0.2440
 4477SOL    HW124890   2.557   1.377   4.672  0.7524  0.3269  0.2724
 4477SOL    HW224891   2.685   1.315   4.655 -0.5745 -1.1428  0.5287
 4478SOL     OW24892   1.657   0.803  14.304  0.7069  0.7879  0.2507
 4478SOL    HW124893   1.687   0.838  14.220 -0.3307 -0.6425 -0.7142
 4478SOL    HW224894   1.712   0.726  14.316 -2.3585 -1.5693 -0.6750
 4479SOL     OW24895   2.336   2.451   8.846  0.0303 -0.2561 -0.6488
 4479SOL    HW124896   2.252   2.430   8.805 -1.5146  0.0274  2.3762
 4479SOL    HW224897   2.308   2.515   8.911 -0.1897  0.0081 -1.0027
 4480SOL     OW24898   4.311   3.548   7.657 -0.7038  0.3790 -0.4804
 4480SOL    HW124899   4.230   3.515   7.695 -0.6031 -0.0863 -0.6776
 4480SOL    HW224900   4.351   3.599   7.728  2.0385 -1.7562 -0.4904
 4481SOL     OW24901   0.620   4.592   7.803  0.3530  0.1547  0.2494
 4481SOL    HW124902   0.559   4.659   7.832  0.5919  0.0511  0.9863
 4481SOL    HW224903   0.699   4.627   7.844 -0.3374  2.4370 -0.4034
 4482SOL     OW24904   1.352   0.667  15.569 -0.0818 -0.4457  0.1163
 4482SOL    HW124905   1.410   0.605  15.613  1.6799  0.7637 -0.4632
 4482SOL    HW224906   1.312   0.711  15.644 -0.0423 -0.1681 -0.0250
 4483SOL     OW24907   2.810   3.515   5.192 -0.0074 -0.3196  0.4478
 4483SOL    HW124908   2.722   3.485   5.173  0.9977 -2.4689 -0.8597
 4483SOL    HW224909   2.808   3.510   5.287 -3.7317  0.5241  0.3847
 4484SOL     OW24910   2.415   1.158   6.288 -0.0683  0.3416  0.0532
 4484SOL    HW124911   2.403   1.234   6.346 -0.0688 -0.0196  0.5298
 4484SOL    HW224912   2.432   1.092   6.356  0.2435 -0.1248 -0.4790
 4485SOL     OW24913   1.737   0.419  15.079 -0.2175 -0.0186  0.4617
 4485SOL    HW124914   1.741   0.413  15.175  0.6105  0.7563  0.4735
 4485SOL    HW224915   1.694   0.334  15.063  1.7536 -0.9639  0.1472
 4486SOL     OW24916   2.748   3.834   3.248  0.5960  0.0159 -0.0074
 4486SOL    HW124917   2.720   3.749   3.214 -0.9799  0.8681 -0.8393
 4486SOL    HW224918   2.767   3.879   3.166  2.0581 -0.1126  0.2624
 4487SOL     OW24919   1.879   2.464   6.517  0.1700  0.6066 -0.0592
 4487SOL    HW124920   1.901   2.534   6.454  3.2601  0.5576  0.9376
 4487SOL    HW224921   1.844   2.501   6.597  0.9818 -0.2733  0.7061
 4488SOL     OW24922   2.878   3.756   4.469 -0.3392  0.6140 -0.0290
 4488SOL    HW124923   2.822   3.759   4.391 -0.0700  0.0020 -0.2464
 4488SOL    HW224924   2.880   3.661   4.481  0.4134  0.4216 -1.6765
 4489SOL     OW24925   2.871   2.287   6.276  0.0712 -0.4863 -0.1214
 4489SOL    HW124926   2.857   2.370   6.229  2.8144  0.2020  0.2752
 4489SOL    HW224927   2.935   2.237   6.227 -0.5982  1.3064 -2.8022
 4490SOL     OW24928   1.750   0.988  17.056  0.0251  0.4206 -0.4028
 4490SOL    HW124929   1.710   0.971  17.141  2.2674 -2.6671  0.0386
 4490SOL    HW224930   1.831   1.026  17.091  0.8642 -1.7831  0.0527
 4491SOL     OW24931   3.563   0.161   3.695 -0.2006  0.2960  0.7551
 4491SOL    HW124932   3.604   0.115   3.622 -0.7521  1.2585 -0.1428
 4491SOL    HW224933   3.565   0.253   3.670  1.5302  0.4304  1.3263
 4492SOL     OW24934   3.624   0.865  11.709  0.0604  0.8274 -0.1265
 4492SOL    HW124935   3.664   0.855  11.623  2.4974 -1.6365  1.2790
 4492SOL    HW224936   3.662   0.948  11.738  1.4067 -0.3524  1.5167
 4493SOL     OW24937   0.926   4.644  10.592  0.0947  0.4648 -0.6934
 4493SOL    HW124938   0.843   4.654  10.638  0.7176  1.6402  0.1542
 4493SOL    HW224939   0.930   4.548  10.589  0.5155  0.4585  0.1968
 4494SOL     OW24940   0.721   0.938   8.542 -0.6001 -0.8550 -0.7214
 4494SOL    HW124941   0.750   0.907   8.456 -0.6029 -1.5827 -0.4629
 4494SOL    HW224942   0.641   0.887   8.554  1.3010 -2.9575  2.9057
 4495SOL     OW24943   4.564   2.048   1.858 -0.0114 -0.1809  0.4910
 4495SOL    HW124944   4.547   1.995   1.936  0.3424 -1.6601 -0.4315
 4495SOL    HW224945   4.528   1.995   1.787  1.4983  0.1281 -0.4864
 4496SOL     OW24946   1.907   2.663   6.313  0.3135 -1.1068 -0.1398
 4496SOL    HW124947   1.931   2.711   6.233  0.0467 -0.1110  0.3732
 4496SOL    HW224948   1.852   2.727   6.358  1.3085 -1.6044  1.7688
 4497SOL     OW24949   0.372   3.458   6.007 -0.0612 -0.3512 -0.1938
 4497SOL    HW124950   0.294   3.507   6.032  1.9746  2.3118  0.8812
 4497SOL    HW224951   0.334   3.397   5.944  0.4390  0.0445 -0.8723
 4498SOL     OW24952   1.237   1.581  16.996  0.4680  0.2443 -0.0433
 4498SOL    HW124953   1.213   1.592  17.088 -2.7133 -1.7949 -0.6136
 4498SOL    HW224954   1.159   1.534  16.966 -0.3990  1.5866  0.0876
 4499SOL     OW24955   2.427   4.270   2.061  0.4853  0.0773  0.2152
 4499SOL    HW124956   2.371   4.342   2.093 -0.7775 -2.0316  2.7801
 4499SOL    HW224957   2.426   4.205   2.131  2.5861 -2.2756 -1.9642
 4500SOL     OW24958   4.559   4.695   2.772  0.2606  0.4564 -0.3136
 4500SOL    HW124959   4.571   0.003   2.862 -1.9027 -0.3637  0.2494
 4500SOL    HW224960   4.465   4.709   2.768  0.4135  1.0704 -1.7520
 4501SOL     OW24961   3.946   4.674   6.112  0.0374  0.2362  0.1169
 4501SOL    HW124962   3.934   0.046   6.108 -0.9587  0.0666 -0.9591
 4501SOL    HW224963   4.010   4.669   6.041 -0.7167  1.9804 -0.6886
 4502SOL     OW24964   3.942   1.542   3.165  0.2961  0.2807 -0.2696
 4502SOL    HW124965   3.945   1.516   3.257 -0.3513  0.3777 -0.2192
 4502SOL    HW224966   3.971   1.633   3.163  1.8612 -0.2472 -1.1861
 4503SOL     OW24967   4.525   2.717   9.272  0.2171  0.7585  0.0613
 4503SOL    HW124968   4.448   2.710   9.216  0.8641  0.6215 -0.8017
 4503SOL    HW224969   4.506   2.802   9.312  1.3508  0.5650  1.0284
 4504SOL     OW24970   3.564   2.566   4.914  0.2520  0.1355 -0.0261
 4504SOL    HW124971   3.526   2.613   4.988  0.0172  1.0337 -0.7165
 4504SOL    HW224972   3.647   2.542   4.954  0.7707 -0.2526 -1.3245
 4505SOL     OW24973   4.174   4.453   5.667  0.1416 -0.1357 -0.2677
 4505SOL    HW124974   4.159   4.446   5.762  0.9709 -0.6701 -0.1802
 4505SOL    HW224975   4.132   4.536   5.643 -0.7348 -0.9104 -1.3639
 4506SOL     OW24976   1.125   4.506   4.963  0.4474  0.3413  0.0089
 4506SOL    HW124977   1.107   4.563   5.038 -0.2143  0.4129 -0.2023
 4506SOL    HW224978   1.204   4.544   4.925  2.3585 -0.6592  3.0265
 4507SOL     OW24979   1.544   1.746  11.940 -0.1517 -0.2560  0.0354
 4507SOL    HW124980   1.502   1.766  11.857 -1.7210  1.1303  1.1609
 4507SOL    HW224981   1.633   1.752  11.906 -0.0522 -4.1761 -0.3819
 4508SOL     OW24982   0.684   4.202   2.601  0.6414 -0.1977 -0.1668
 4508SOL    HW124983   0.746   4.187   2.530  0.7570  1.8523 -0.5037
 4508SOL    HW224984   0.665   4.293   2.578  1.9543 -0.0408 -0.6241
 4509SOL     OW24985   2.660   3.362  15.320 -0.4679 -0.0350  0.4813
 4509SOL    HW124986   2.661   3.403  15.234  1.5249 -1.8520 -0.3696
 4509SOL    HW224987   2.567   3.346  15.333 -0.3658 -0.5944  0.5255
 4510SOL     OW24988   4.633   0.310   2.359  0.4516 -0.0021 -0.1263
 4510SOL    HW124989   4.561   0.257   2.392  1.9779 -1.8185  0.2438
 4510SOL    HW224990   4.711   0.271   2.399 -1.0070 -1.1583  1.6090
 4511SOL     OW24991   0.398   2.115   6.979  0.2632 -0.3572 -0.2828
 4511SOL    HW124992   0.373   2.166   6.902  1.4124 -0.3737 -0.6727
 4511SOL    HW224993   0.414   2.191   7.034 -0.4977 -0.0852 -0.4417
 4512SOL     OW24994   4.385   2.083   4.613 -0.5952 -0.3020 -0.2870
 4512SOL    HW124995   4.410   2.016   4.550  1.4144  0.3764 -0.2114
 4512SOL    HW224996   4.351   2.153   4.557  2.6246  1.4682 -0.0188
 4513SOL     OW24997   4.639   1.576  10.597  0.5599  0.2043 -0.3557
 4513SOL    HW124998   4.552   1.611  10.616  0.5920 -2.0872  4.0267
 4513SOL    HW224999   4.660   1.542  10.684 -0.8995 -0.0169 -0.1011
 4514SOL     OW25000   1.959   0.925   8.332  0.1425  0.3373 -0.5485
 4514SOL    HW125001   1.893   0.990   8.356  1.3559  1.8338 -1.3402
 4514SOL    HW225002   1.916   0.846   8.367  0.7159 -0.6519 -2.0716
 4515SOL     OW25003   4.521   2.347   1.157  0.6743  0.1420  0.4389
 4515SOL    HW125004   4.544   2.255   1.139 -0.2835  0.5584 -2.9826
 4515SOL    HW225005   4.602   2.387   1.189  0.0096 -1.3351  3.9687
 4516SOL     OW25006   2.880   4.419   4.120 -0.0253 -0.4048 -0.6788
 4516SOL    HW125007   2.883   4.350   4.186  1.1368  1.4188  1.1528
 4516SOL    HW225008   2.947   4.481   4.147 -2.2005  0.1697  3.3602
 4517SOL     OW25009   1.760   1.212   4.165  0.3054 -0.3065  0.1144
 4517SOL    HW125010   1.666   1.192   4.171  0.1379  0.8642  1.4234
 4517SOL    HW225011   1.759   1.296   4.212  4.3603  1.7030 -3.3765
 4518SOL     OW25012   0.107   1.076   0.752  0.3410  0.3626 -0.8677
 4518SOL    HW125013   0.095   1.041   0.664 -0.7002  2.3961 -1.5476
 4518SOL    HW225014   0.048   1.152   0.752 -1.6933 -1.2231  0.9889
 4519SOL     OW25015   0.870   4.243  14.614  0.1461  0.0575  0.5430
 4519SOL    HW125016   0.818   4.291  14.678  0.7653  0.9373  0.3957
 4519SOL    HW225017   0.819   4.244  14.533  0.8518 -3.2949  0.0429
 4520SOL     OW25018   1.779   3.705  10.561  0.2139 -0.0710 -0.4794
 4520SOL    HW125019   1.851   3.690  10.623 -0.3154 -0.8846 -0.0483
 4520SOL    HW225020   1.803   3.795  10.541  0.8060  0.0153  0.6290
 4521SOL     OW25021   3.434   1.536  15.089 -0.4455 -0.2847  0.0142
 4521SOL    HW125022   3.426   1.497  15.002 -0.3723 -1.9849  0.7574
 4521SOL    HW225023   3.528   1.526  15.103  0.0620  1.6379 -2.1555
 4522SOL     OW25024   3.971   1.893   9.283 -0.1727  0.5660  0.2596
 4522SOL    HW125025   4.043   1.881   9.221 -0.7095 -2.7662  0.2688
 4522SOL    HW225026   4.011   1.862   9.364 -4.1494 -0.9432  1.6620
 4523SOL     OW25027   4.439   0.866   4.863 -0.3444  0.0985 -0.6313
 4523SOL    HW125028   4.485   0.826   4.790  0.0689  0.1056 -0.3706
 4523SOL    HW225029   4.405   0.792   4.912  1.1884 -0.0199  0.2253
 4524SOL     OW25030   4.627   1.677  15.689 -0.0002 -0.5421  0.4598
 4524SOL    HW125031   4.548   1.663  15.742 -0.4470  1.7757  0.3971
 4524SOL    HW225032   4.684   1.602  15.704  1.3279  0.2364 -0.6652
 4525SOL     OW25033   3.767   0.727   4.810  0.3873  0.1736  0.9139
 4525SOL    HW125034   3.712   0.785   4.757 -1.4323  0.2774  2.9263
 4525SOL    HW225035   3.717   0.723   4.892 -1.2619  1.1024 -0.0573
 4526SOL     OW25036   3.949   3.123   7.728 -0.0776  0.0765  0.7115
 4526SOL    HW125037   3.972   3.172   7.649  1.3032 -1.3325  0.2262
 4526SOL    HW225038   3.854   3.131   7.740  0.2486  1.8134  2.1052
 4527SOL     OW25039   1.241   3.469   2.368  0.2601 -0.2298  0.2416
 4527SOL    HW125040   1.221   3.376   2.381 -0.6737 -0.2001 -1.0211
 4527SOL    HW225041   1.220   3.511   2.452 -0.8084  0.2882 -0.2834
 4528SOL     OW25042   3.372   1.440   9.099 -0.0555 -0.0019 -0.1258
 4528SOL    HW125043   3.423   1.444   9.180 -2.0467  2.3401  1.0202
 4528SOL    HW225044   3.324   1.358   9.110  0.2952 -0.0020  1.3206
 4529SOL     OW25045   4.158   0.772  15.513  0.2580  0.4677  0.6452
 4529SOL    HW125046   4.185   0.712  15.583  0.3618  0.9691  1.0322
 4529SOL    HW225047   4.236   0.763  15.459  0.1207  1.4304  0.2973
 4530SOL     OW25048   3.655   2.897   3.490  0.2698 -0.0802  0.1421
 4530SOL    HW125049   3.598   2.968   3.460  0.5475  0.3260  0.5766
 4530SOL    HW225050   3.623   2.892   3.580 -0.4644  0.6434 -0.0754
 4531SOL     OW25051   4.304   2.802   3.146 -0.0472  0.6590 -0.2493
 4531SOL    HW125052   4.304   2.879   3.202 -0.1915  0.2396  0.3314
 4531SOL    HW225053   4.325   2.840   3.060  1.1862  1.0887  0.2373
 4532SOL     OW25054   0.772   1.259   0.995 -0.2672 -0.4004 -0.2344
 4532SOL    HW125055   0.749   1.249   1.088  0.9041 -0.7305  0.0271
 4532SOL    HW225056   0.763   1.353   0.980  0.3318 -0.1857  0.7153
 4533SOL     OW25057   3.686   2.577   1.188  0.3155  0.2277 -0.4320
 4533SOL    HW125058   3.622   2.529   1.241  2.8883 -1.9507  0.7017
 4533SOL    HW225059   3.661   2.669   1.193 -2.1099 -0.3759 -1.4015
 4534SOL     OW25060   1.098   4.137   1.504 -0.1319  0.3396 -0.8971
 4534SOL    HW125061   1.073   4.045   1.518  0.5769  0.4398  1.0742
 4534SOL    HW225062   1.185   4.130   1.464  0.4379  2.0631  0.0564
 4535SOL     OW25063   3.541   2.155  14.942  0.2622 -0.3661 -0.0054
 4535SOL    HW125064   3.525   2.248  14.957 -3.2518 -1.0794  0.5393
 4535SOL    HW225065   3.461   2.124  14.984 -0.1426  0.6411 -0.0428
 4536SOL     OW25066   2.668   4.214   5.325  0.1789 -0.2967 -0.7394
 4536SOL    HW125067   2.718   4.290   5.355 -1.2601  0.8744 -1.2934
 4536SOL    HW225068   2.721   4.180   5.253 -0.6758  1.5021 -2.2250
 4537SOL     OW25069   4.226   2.400  10.351  0.2898  0.0384  0.3106
 4537SOL    HW125070   4.168   2.465  10.310  1.6906  0.9546 -0.2065
 4537SOL    HW225071   4.153   2.340  10.364  1.2942 -0.8032  2.0058
 4538SOL     OW25072   4.595   2.179   5.316  0.4594 -0.3926 -0.1624
 4538SOL    HW125073   4.577   2.086   5.323 -0.3613 -0.4354 -2.6858
 4538SOL    HW225074   4.613   2.184   5.222 -0.8308  2.7672 -0.2742
 4539SOL     OW25075   2.088   1.174   3.138  0.0585  0.5158  0.3216
 4539SOL    HW125076   2.115   1.263   3.116 -0.0743  0.9406  1.8326
 4539SOL    HW225077   2.156   1.122   3.095 -1.1434 -0.9478  0.1865
 4540SOL     OW25078   3.725   1.755   6.122  0.1655 -0.5588 -0.3962
 4540SOL    HW125079   3.706   1.815   6.050 -0.2753  0.6125  0.7015
 4540SOL    HW225080   3.686   1.799   6.197  1.0273  0.3589 -0.4804
 4541SOL     OW25081   4.543   1.496  10.003  0.4987 -0.1488  0.3283
 4541SOL    HW125082   4.603   1.569  10.014 -0.8149  0.9416  0.2601
 4541SOL    HW225083   4.505   1.494  10.091  0.8118  0.5492  0.4831
 4542SOL     OW25084   3.273   2.048   2.251 -0.1974  0.1179 -0.7354
 4542SOL    HW125085   3.260   2.126   2.305  0.0617 -0.3758  0.0415
 4542SOL    HW225086   3.345   2.082   2.197  0.8445 -0.7841  0.0838
 4543SOL     OW25087   4.170   1.151   3.986  0.2238  0.2017 -0.4632
 4543SOL    HW125088   4.077   1.128   3.985 -0.8053  4.2412  3.1508
 4543SOL    HW225089   4.208   1.068   4.017 -1.4408 -0.1719  0.5658
 4544SOL     OW25090   4.714   2.860   8.266  0.0291 -0.7247 -0.6610
 4544SOL    HW125091   0.073   2.910   8.258 -0.0179 -0.3189  1.3287
 4544SOL    HW225092   4.693   2.859   8.359 -1.2874  0.0532 -0.9452
 4545SOL     OW25093   3.554   0.582   2.795  0.1411 -0.7786 -0.1227
 4545SOL    HW125094   3.597   0.654   2.748  1.4858 -0.6075  1.3568
 4545SOL    HW225095   3.467   0.595   2.757 -0.2250  0.2814  1.0647
 4546SOL     OW25096   3.905   0.364   7.978 -0.0337  0.7648  0.1338
 4546SOL    HW125097   3.965   0.389   8.048  2.2847 -2.0102 -0.8608
 4546SOL    HW225098   3.849   0.301   8.025 -0.2486 -0.0962 -1.2786
 4547SOL     OW25099   0.017   2.407   0.399 -0.2691 -0.2804  0.5879
 4547SOL    HW125100   4.676   2.466   0.438  1.9409  2.1639  0.5188
 4547SOL    HW225101   0.001   2.422   0.306 -0.9271 -1.5205  0.5059
 4548SOL     OW25102   3.703   0.477   8.349 -0.3055  0.7384 -0.8318
 4548SOL    HW125103   3.714   0.515   8.436 -1.6953 -0.4967 -0.1243
 4548SOL    HW225104   3.718   0.385   8.367  2.3444  1.2132 -0.6404
 4549SOL     OW25105   1.944   0.766   6.860 -0.0512 -0.2767 -0.0602
 4549SOL    HW125106   1.893   0.687   6.880 -0.6432  0.3313  0.7987
 4549SOL    HW225107   1.998   0.768   6.939  0.1016 -2.1177 -0.1053
 4550SOL     OW25108   0.761   1.173   7.136 -0.1223 -0.1430 -0.1375
 4550SOL    HW125109   0.790   1.090   7.098  1.2528  0.5115 -0.5112
 4550SOL    HW225110   0.677   1.153   7.177 -0.0876 -0.2730 -0.1291
 4551SOL     OW25111   1.245   1.398   2.648 -0.0390 -0.4701 -0.0162
 4551SOL    HW125112   1.309   1.377   2.580 -1.9900 -1.4686 -1.5409
 4551SOL    HW225113   1.195   1.462   2.599 -0.1915 -1.3247 -0.9703
 4552SOL     OW25114   1.579   1.823   9.226  0.3972  0.1060  0.1031
 4552SOL    HW125115   1.490   1.824   9.261  0.2025 -1.3266 -0.3423
 4552SOL    HW225116   1.579   1.730   9.203 -0.7459 -0.2879  1.7307
 4553SOL     OW25117   0.024   0.805   5.912 -0.8297  0.6628 -0.6078
 4553SOL    HW125118   4.710   0.853   5.986  1.3485  1.4852 -0.0632
 4553SOL    HW225119   0.093   0.865   5.884 -0.9212 -0.0728 -2.4371
 4554SOL     OW25120   3.533   1.715   1.608 -0.7997  0.3545 -0.0514
 4554SOL    HW125121   3.608   1.763   1.572 -1.7688  1.4981 -0.5597
 4554SOL    HW225122   3.533   1.754   1.695 -0.8605 -1.0673  0.5775
 4555SOL     OW25123   3.836   3.362  13.006 -0.2433 -0.1553  0.1869
 4555SOL    HW125124   3.871   3.395  13.089 -0.6525  1.7888 -0.4221
 4555SOL    HW225125   3.819   3.273  13.036 -2.3468  0.1227 -0.1792
 4556SOL     OW25126   1.820   2.287   2.318 -0.1444 -0.2057  0.2407
 4556SOL    HW125127   1.767   2.358   2.282 -1.2005 -1.9175 -1.5892
 4556SOL    HW225128   1.761   2.255   2.385 -0.5855  0.0130 -0.0442
 4557SOL     OW25129   1.863   0.221   7.372  0.4912  0.1422  0.2663
 4557SOL    HW125130   1.868   0.126   7.371 -1.1993  0.0578  0.9200
 4557SOL    HW225131   1.829   0.242   7.459 -0.7704 -0.4281 -0.0985
 4558SOL     OW25132   2.101   0.939   5.199  0.9836  0.4484 -0.7562
 4558SOL    HW125133   2.020   0.976   5.163  0.4234  0.4826  0.5365
 4558SOL    HW225134   2.168   0.956   5.133 -0.5167  2.4227 -1.7591
 4559SOL     OW25135   2.816   4.712   1.887  0.8872  0.5953  0.1849
 4559SOL    HW125136   2.838   0.082   1.901  1.3030  0.5589 -0.2172
 4559SOL    HW225137   2.894   4.677   1.845  0.7184 -1.2038  1.3918
 4560SOL     OW25138   4.449   2.272   4.813  0.3666  0.0144 -0.2648
 4560SOL    HW125139   4.406   2.233   4.737  1.0893 -0.5963 -0.3594
 4560SOL    HW225140   4.441   2.203   4.879  0.7778 -0.3517 -0.5903
 4561SOL     OW25141   1.262   4.355   6.001 -0.4304 -0.4705  0.7986
 4561SOL    HW125142   1.196   4.341   6.070 -0.3605  0.9533  1.1597
 4561SOL    HW225143   1.316   4.279   6.022 -0.0631 -0.2048  0.8031
 4562SOL     OW25144   3.823   0.057   2.313  0.2654 -0.1866  0.0715
 4562SOL    HW125145   3.745   0.071   2.259 -0.1448 -1.3484  0.3643
 4562SOL    HW225146   3.850   0.145   2.340 -0.5221  0.0679  0.0315
 4563SOL     OW25147   4.371   2.598  15.169  0.2468  0.5125  0.2470
 4563SOL    HW125148   4.384   2.689  15.143 -2.0551  1.3930  2.1739
 4563SOL    HW225149   4.371   2.618  15.262  1.2691  1.4190  0.0545
 4564SOL     OW25150   0.187   2.544   4.272  0.2140  0.2196 -0.0176
 4564SOL    HW125151   0.166   2.504   4.357 -2.7539  0.4549 -0.6306
 4564SOL    HW225152   0.120   2.612   4.272 -0.5565 -0.5414 -0.8290
 4565SOL     OW25153   0.167   4.317   6.856 -0.4382 -0.2095  0.0774
 4565SOL    HW125154   0.222   4.370   6.798 -0.5469 -0.0514  0.1173
 4565SOL    HW225155   0.095   4.378   6.874  1.2218  1.7119  0.2815
 4566SOL     OW25156   3.965   3.992   2.013 -0.1296 -0.4178 -0.0146
 4566SOL    HW125157   3.874   3.985   2.042 -1.0847  1.9502 -2.4255
 4566SOL    HW225158   3.986   3.906   1.976 -1.2187 -0.2605 -0.9892
 4567SOL     OW25159   1.906   3.424  11.165 -0.0719  0.2703 -0.1020
 4567SOL    HW125160   1.900   3.351  11.227  0.1815  0.3176 -0.0212
 4567SOL    HW225161   1.998   3.409  11.145  0.7095  2.7473  1.5198
 4568SOL     OW25162   0.988   2.450  16.689  0.7337 -0.7407  0.0837
 4568SOL    HW125163   1.052   2.500  16.639  0.3312 -1.2938 -1.0070
 4568SOL    HW225164   1.033   2.471  16.770  0.1264  0.0551  0.2078
 4569SOL     OW25165   2.434   3.124  10.584  0.1798  0.2012 -0.1372
 4569SOL    HW125166   2.389   3.046  10.552 -1.0748  1.4950 -1.5427
 4569SOL    HW225167   2.368   3.193  10.592  0.6397  0.4769  1.3085
 4570SOL     OW25168   1.334   1.972   5.101 -0.4016 -0.0551  0.1513
 4570SOL    HW125169   1.396   1.965   5.029  2.8453  2.1894  2.7379
 4570SOL    HW225170   1.343   1.888   5.146  1.5458  0.2514  0.3392
 4571SOL     OW25171   4.126   0.759   7.886  0.4145 -0.1054  0.1185
 4571SOL    HW125172   4.128   0.854   7.895  1.7318 -0.1764  0.5198
 4571SOL    HW225173   4.191   0.740   7.818 -0.1425 -1.0136 -0.1613
 4572SOL     OW25174   0.228   4.684  10.198 -0.0584 -0.2029  0.6257
 4572SOL    HW125175   0.137   4.667  10.219 -0.6051  1.2207 -0.5879
 4572SOL    HW225176   0.236   4.605  10.144 -0.6717  2.1070 -2.8894
 4573SOL     OW25177   4.361   1.616  11.292 -0.5041  0.2092  0.7787
 4573SOL    HW125178   4.301   1.553  11.251 -1.9431  1.7194  0.5356
 4573SOL    HW225179   4.412   1.634  11.213 -0.9619  1.5087  0.7812
 4574SOL     OW25180   3.372   3.225  12.938  0.3927  0.2861 -0.3497
 4574SOL    HW125181   3.347   3.173  12.862 -0.2237 -1.5050  1.0560
 4574SOL    HW225182   3.352   3.314  12.910 -1.5624 -0.5666 -1.6684
 4575SOL     OW25183   1.168   2.319  11.611 -0.1930 -0.3890  0.0500
 4575SOL    HW125184   1.236   2.386  11.617 -1.0968  0.5514 -0.3020
 4575SOL    HW225185   1.182   2.297  11.519 -0.5429 -0.9914  0.1460
 4576SOL     OW25186   2.000   2.726   2.849  0.1496 -0.2414  0.5955
 4576SOL    HW125187   2.038   2.811   2.873  0.4587 -0.6155  1.4250
 4576SOL    HW225188   2.028   2.712   2.758 -2.9400 -0.2787 -0.3338
 4577SOL     OW25189   4.257   1.114  14.215 -0.2554  0.0923  0.5620
 4577SOL    HW125190   4.332   1.162  14.180  0.8598 -1.5163  0.7388
 4577SOL    HW225191   4.239   1.043  14.154 -2.1018  0.4974  0.6537
 4578SOL     OW25192   0.472   1.833   2.080  0.0956 -0.0471  0.6068
 4578SOL    HW125193   0.424   1.772   2.025  0.4080  0.3776 -0.1269
 4578SOL    HW225194   0.436   1.916   2.051 -0.6190 -1.0943 -1.5075
 4579SOL     OW25195   0.105   1.703  17.672 -0.6914 -0.3385 -0.3812
 4579SOL    HW125196   0.090   1.724  17.581 -0.0871  0.0181 -0.4009
 4579SOL    HW225197   0.030   1.648  17.693 -1.3041  0.9342  0.8099
 4580SOL     OW25198   2.690   1.134   8.339 -0.4520 -0.7749 -0.2709
 4580SOL    HW125199   2.779   1.164   8.322 -0.1447 -1.6455 -0.2104
 4580SOL    HW225200   2.673   1.103   8.251  0.5096  0.2249 -0.8140
 4581SOL     OW25201   3.918   0.781   0.737 -0.1146  0.2656  0.3089
 4581SOL    HW125202   3.902   0.687   0.728  0.3393  0.3970 -1.8705
 4581SOL    HW225203   4.013   0.768   0.741  0.0351  0.9849 -0.7782
 4582SOL     OW25204   1.107   1.975   3.576 -0.0503  0.0143 -0.4707
 4582SOL    HW125205   1.110   2.071   3.581 -0.1572  0.0918 -1.7892
 4582SOL    HW225206   1.037   1.960   3.639 -0.8876  1.2312 -1.1085
 4583SOL     OW25207   4.647   1.888   0.108  0.0043  0.1743 -0.0695
 4583SOL    HW125208   4.691   1.881   0.193  0.4711  0.9025 -0.2510
 4583SOL    HW225209   0.001   1.863   0.056 -0.9901 -2.4037 -0.2998
 4584SOL     OW25210   2.463   3.323   7.684  0.2270  0.3376 -0.3123
 4584SOL    HW125211   2.511   3.241   7.681 -2.1331 -1.0495 -0.4957
 4584SOL    HW225212   2.515   3.368   7.618 -3.1556  0.3317 -3.0166
 4585SOL     OW25213   1.644   4.706   7.345 -0.2847  0.2596 -0.0145
 4585SOL    HW125214   1.657   4.617   7.378 -1.1297  0.1776  0.0986
 4585SOL    HW225215   1.554   4.709   7.377 -0.3339 -1.2628  0.0267
 4586SOL     OW25216   0.245   1.076   2.485  0.3309 -0.3512 -0.0398
 4586SOL    HW125217   0.312   1.078   2.417  0.9299  0.1818  0.5745
 4586SOL    HW225218   0.292   1.065   2.568 -0.4805 -1.7980  0.2438
 4587SOL     OW25219   4.551   2.398   0.789 -0.0306 -0.6921 -0.2639
 4587SOL    HW125220   4.604   2.335   0.837  0.1792 -0.5296 -0.2820
 4587SOL    HW225221   4.593   2.474   0.830  1.1347 -0.8883 -1.0928
 4588SOL     OW25222   0.063   2.770   3.556  0.9977 -0.5424 -0.1489
 4588SOL    HW125223   0.044   2.686   3.598  1.3007  0.5098  2.0399
 4588SOL    HW225224   0.109   2.734   3.480  2.2066 -1.6457  1.0990
 4589SOL     OW25225   1.508   1.179   4.944 -0.6741 -0.2750  0.4535
 4589SOL    HW125226   1.530   1.153   4.854 -0.0360  0.3533  0.4187
 4589SOL    HW225227   1.420   1.216   4.940 -0.1681  0.6907 -2.1784
 4590SOL     OW25228   0.377   3.517   8.687  0.2005 -0.2295 -0.2277
 4590SOL    HW125229   0.457   3.545   8.732  0.2901  1.8103 -1.6976
 4590SOL    HW225230   0.400   3.430   8.653  2.0877  0.3281 -0.3678
 4591SOL     OW25231   3.293   2.643   4.869 -0.1780  0.1095  0.6190
 4591SOL    HW125232   3.342   2.723   4.849 -2.0589  1.4983  1.5753
 4591SOL    HW225233   3.364   2.579   4.864  0.0570  0.4283 -0.1474
 4592SOL     OW25234   2.364   3.677   1.949 -0.8423 -0.4129  0.9722
 4592SOL    HW125235   2.362   3.726   2.031  2.9945  0.0818  0.7744
 4592SOL    HW225236   2.448   3.635   1.966 -1.3137 -0.8809  2.1150
 4593SOL     OW25237   0.300   1.148   1.164 -0.1895 -0.5218  0.3834
 4593SOL    HW125238   0.300   1.064   1.117 -0.3759 -0.4682  0.2844
 4593SOL    HW225239   0.382   1.136   1.211 -0.2206 -1.3720  0.2310
 4594SOL     OW25240   0.570   0.849   7.815 -0.9516 -0.1710 -0.6734
 4594SOL    HW125241   0.556   0.944   7.813 -1.5103 -0.2307  0.0541
 4594SOL    HW225242   0.480   0.822   7.836 -0.7298 -0.0967  0.3839
 4595SOL     OW25243   0.659   2.051   7.078 -0.3279 -0.2161  0.2502
 4595SOL    HW125244   0.592   2.037   7.011  1.1740  1.0591 -1.5603
 4595SOL    HW225245   0.649   2.144   7.095  1.9266  0.1328 -0.2008
 4596SOL     OW25246   1.459   2.989  15.283  0.2443  0.4565 -0.3218
 4596SOL    HW125247   1.548   2.952  15.278  0.0405 -0.2454  1.1352
 4596SOL    HW225248   1.420   2.923  15.341 -1.5928  2.2683  0.4706
 4597SOL     OW25249   0.215   3.276  16.870  0.1129 -0.3260 -0.8370
 4597SOL    HW125250   0.264   3.307  16.945  1.1259 -0.6919 -1.3442
 4597SOL    HW225251   0.190   3.188  16.900  1.3838 -0.4813 -0.2473
 4598SOL     OW25252   1.018   0.818   5.043  0.1644  0.2108  0.2092
 4598SOL    HW125253   0.963   0.862   4.979 -0.6823 -0.4961  0.4464
 4598SOL    HW225254   1.013   0.891   5.105 -0.1561 -1.4780  2.1857
 4599SOL     OW25255   2.064   3.188   5.104 -0.5276  0.2652 -0.3197
 4599SOL    HW125256   2.022   3.124   5.161  0.8293 -0.9573 -0.6654
 4599SOL    HW225257   1.988   3.237   5.074 -2.5960 -2.8091 -0.1572
 4600SOL     OW25258   3.210   1.147   2.585  0.0535  0.4767 -0.0437
 4600SOL    HW125259   3.177   1.236   2.571  0.7976  0.8910  0.7866
 4600SOL    HW225260   3.254   1.136   2.501  3.5718  3.4975  1.3982
 4601SOL     OW25261   2.030   2.435   4.788  0.1813 -0.3783 -0.0184
 4601SOL    HW125262   1.935   2.441   4.787 -0.1032 -4.7788 -2.6455
 4601SOL    HW225263   2.052   2.527   4.771 -1.3672 -0.2252 -1.2431
 4602SOL     OW25264   0.122   1.944   7.752 -0.7681 -0.0272 -0.2246
 4602SOL    HW125265   0.137   1.933   7.658 -0.7769 -1.0779 -0.1039
 4602SOL    HW225266   0.186   2.014   7.763 -0.6821 -0.1169 -0.1584
 4603SOL     OW25267   4.463   2.368  14.946  0.3022 -0.0441  0.0100
 4603SOL    HW125268   4.552   2.384  14.913  0.6579 -1.1066  0.4730
 4603SOL    HW225269   4.449   2.454  14.986 -0.0448  0.0570 -0.3344
 4604SOL     OW25270   4.458   1.171   7.353 -0.0287 -0.7179  0.3201
 4604SOL    HW125271   4.510   1.165   7.273 -0.7669  0.9367 -0.2761
 4604SOL    HW225272   4.487   1.257   7.385 -1.3809 -0.5627  1.0988
 4605SOL     OW25273   3.889   3.648  16.453 -0.6414  0.2599  0.2322
 4605SOL    HW125274   3.939   3.670  16.532 -1.4985 -1.1189  1.1734
 4605SOL    HW225275   3.805   3.675  16.491 -0.7972 -1.8469  1.3918
 4606SOL     OW25276   1.852   0.627   2.357 -0.1834  0.0090 -0.0147
 4606SOL    HW125277   1.874   0.537   2.335 -2.1362  0.4546 -3.9258
 4606SOL    HW225278   1.797   0.642   2.279 -0.8492 -2.9411 -0.0962
 4607SOL     OW25279   0.116   0.655  11.373 -0.0907 -0.1577  0.6118
 4607SOL    HW125280   0.175   0.595  11.329  0.8140  0.1068  1.4573
 4607SOL    HW225281   0.064   0.683  11.298 -0.8162  1.6065  1.7584
 4608SOL     OW25282   3.048   3.626   1.864  0.3430  0.2192 -0.2248
 4608SOL    HW125283   3.105   3.554   1.841  0.6258  0.2890  0.2568
 4608SOL    HW225284   2.976   3.615   1.802  1.0420 -3.7029 -0.3366
 4609SOL     OW25285   0.801   2.634   8.256  0.3447  0.0598  0.2084
 4609SOL    HW125286   0.867   2.574   8.289  0.3745 -0.4409 -0.7737
 4609SOL    HW225287   0.728   2.576   8.234 -0.5282  1.8477 -1.6076
 4610SOL     OW25288   4.605   2.226   7.493  0.3035 -0.7456 -0.6419
 4610SOL    HW125289   4.514   2.254   7.483  1.0900  1.0109 -3.0521
 4610SOL    HW225290   4.602   2.166   7.567  0.7937  0.0908  0.0607
 4611SOL     OW25291   3.953   1.619  13.446 -0.3322  0.3130 -0.0094
 4611SOL    HW125292   3.980   1.547  13.389 -1.5881  1.1519 -1.6624
 4611SOL    HW225293   4.039   1.641  13.481 -0.9662  0.3516  1.5386
 4612SOL     OW25294   0.989   0.475   2.010 -0.3001  0.8582 -0.6143
 4612SOL    HW125295   0.967   0.388   2.044 -2.1823  1.2484 -0.8130
 4612SOL    HW225296   1.074   0.491   2.051  0.8660 -2.1606 -1.8334
 4613SOL     OW25297   0.954   0.027   5.857 -0.0372 -0.3880  0.3005
 4613SOL    HW125298   0.984   0.041   5.947  2.1213 -1.1769 -0.2995
 4613SOL    HW225299   0.892   0.096   5.835 -2.5442 -1.8222  2.9274
 4614SOL     OW25300   0.617   3.886   2.001  0.3403  0.8612 -0.1585
 4614SOL    HW125301   0.556   3.894   2.075  1.0610 -0.1137  0.5443
 4614SOL    HW225302   0.696   3.875   2.054  0.8627 -2.6744 -1.6828
 4615SOL     OW25303   4.181   1.672   5.109  0.0457 -0.2144 -0.0471
 4615SOL    HW125304   4.185   1.659   5.014 -1.9477  0.2573 -0.1926
 4615SOL    HW225305   4.205   1.584   5.137 -1.6898  0.1327  2.4642
 4616SOL     OW25306   1.277   3.147  15.140  0.7139 -0.1617  0.7221
 4616SOL    HW125307   1.343   3.182  15.080 -0.7762 -1.1280 -1.4749
 4616SOL    HW225308   1.322   3.087  15.199 -0.1916 -0.0293  1.5334
 4617SOL     OW25309   1.796   1.318   6.735  0.1476 -0.6613  0.2615
 4617SOL    HW125310   1.764   1.406   6.756 -0.3792 -0.6079 -0.7356
 4617SOL    HW225311   1.748   1.267   6.800  1.6046 -1.0454  1.0335
 4618SOL     OW25312   3.107   0.819   2.309  0.3581 -0.1391 -0.4404
 4618SOL    HW125313   3.013   0.830   2.292  0.3000 -1.3257 -0.8679
 4618SOL    HW225314   3.135   0.911   2.307 -1.1351  0.3674  1.5787
 4619SOL     OW25315   3.279   3.768   0.841  0.7706  0.3889  0.1318
 4619SOL    HW125316   3.266   3.780   0.747  2.1843 -0.4103 -0.1696
 4619SOL    HW225317   3.362   3.723   0.823  1.3793  1.0524  1.3573
 4620SOL     OW25318   1.503   2.072   3.349  0.2428  0.6390 -0.1886
 4620SOL    HW125319   1.540   2.136   3.287  0.1773  0.7583 -0.1047
 4620SOL    HW225320   1.433   2.019   3.311  2.2474 -1.7254 -0.6011
 4621SOL     OW25321   2.497   1.629   5.953  0.4290 -0.3820  0.1513
 4621SOL    HW125322   2.437   1.588   6.015 -0.8236 -0.7120 -1.2964
 4621SOL    HW225323   2.445   1.624   5.873 -1.8880 -1.0859  1.6953
 4622SOL     OW25324   0.524   2.618   9.445  0.2621  0.4137 -0.0952
 4622SOL    HW125325   0.544   2.529   9.471  0.4900  0.7262  0.8101
 4622SOL    HW225326   0.569   2.619   9.360  1.5490  1.4639  0.5947
 4623SOL     OW25327   0.817   1.462   8.027  0.2511  0.3794 -0.3582
 4623SOL    HW125328   0.840   1.380   8.071 -1.8551 -0.2278 -0.4102
 4623SOL    HW225329   0.861   1.512   8.096 -1.8250 -0.9219  1.9000
 4624SOL     OW25330   2.137   2.830   4.889 -0.3363  0.5115  0.2934
 4624SOL    HW125331   2.128   2.846   4.983  0.1168  2.3900  0.0154
 4624SOL    HW225332   2.232   2.825   4.882 -0.5113 -0.6957 -1.2453
 4625SOL     OW25333   3.091   2.258   2.759 -0.1325 -0.3178  0.0785
 4625SOL    HW125334   3.066   2.205   2.835 -0.6485  0.4247  0.4299
 4625SOL    HW225335   3.073   2.200   2.686  1.3450 -1.3659  0.5355
 4626SOL     OW25336   3.571   3.501   5.071  0.9328 -0.0729  0.2014
 4626SOL    HW125337   3.501   3.548   5.025  0.7799  1.0926  1.6199
 4626SOL    HW225338   3.519   3.470   5.145 -1.6232  1.0155 -1.0974
 4627SOL     OW25339   4.308   1.012  14.707 -0.4499 -0.2338 -0.1867
 4627SOL    HW125340   4.319   0.925  14.670 -0.8505 -1.6796  3.0901
 4627SOL    HW225341   4.298   1.069  14.631  1.9371 -0.2780 -0.5174
 4628SOL     OW25342   0.472   0.246   2.626 -0.0527 -0.8079 -0.1889
 4628SOL    HW125343   0.404   0.179   2.621 -1.1137  0.1265  1.9099
 4628SOL    HW225344   0.488   0.242   2.720  1.1905 -0.9715 -0.4061
 4629SOL     OW25345   2.004   2.129  13.531  0.3057  0.7775  0.1515
 4629SOL    HW125346   1.993   2.040  13.564 -0.5079  0.4503 -0.9904
 4629SOL    HW225347   1.918   2.168  13.545 -0.0878 -0.7195  1.8612
 4630SOL     OW25348   2.666   2.750   2.806  0.4612  0.0873  0.5494
 4630SOL    HW125349   2.708   2.822   2.758  1.5547 -0.3026  0.9290
 4630SOL    HW225350   2.697   2.682   2.746 -0.8772 -0.3984  0.4132
 4631SOL     OW25351   1.978   3.896   8.230  0.0665  0.7792 -0.5148
 4631SOL    HW125352   1.890   3.868   8.203  0.2782  0.5888 -1.0005
 4631SOL    HW225353   2.032   3.827   8.191  2.0738  1.4049  1.2061
 4632SOL     OW25354   1.900   3.719   7.990  0.1747  0.1944 -0.2343
 4632SOL    HW125355   1.957   3.794   7.975 -0.9064  1.1290  0.3454
 4632SOL    HW225356   1.952   3.645   7.959  0.3078  0.1243  0.1479
 4633SOL     OW25357   2.591   1.605   9.014  0.2643  0.5431 -0.2047
 4633SOL    HW125358   2.586   1.596   8.919 -1.0078 -1.7762  0.0769
 4633SOL    HW225359   2.499   1.619   9.038  0.0690 -1.3104  0.1645
 4634SOL     OW25360   0.748   4.635   6.537 -0.2798 -0.4143 -0.1370
 4634SOL    HW125361   0.694   4.608   6.611 -0.3405 -1.6460 -0.6344
 4634SOL    HW225362   0.696   4.710   6.505  0.6944  0.6026  0.6621
 4635SOL     OW25363   2.239   3.482   8.801  0.0045  1.1903 -0.1241
 4635SOL    HW125364   2.245   3.421   8.728 -0.9129 -0.4600  1.1879
 4635SOL    HW225365   2.310   3.540   8.774  2.2897 -1.7919 -0.4720
 4636SOL     OW25366   0.400   3.926   6.338 -0.4974 -0.1530 -0.0701
 4636SOL    HW125367   0.368   3.873   6.411 -1.2665 -0.8003 -0.8801
 4636SOL    HW225368   0.483   3.884   6.316  1.2528  2.1983  2.0012
 4637SOL     OW25369   0.898   4.642  15.675  0.0830 -0.3569 -0.5031
 4637SOL    HW125370   0.987   4.607  15.670  0.0678 -0.2209 -1.6577
 4637SOL    HW225371   0.912   0.012  15.688 -2.9161  0.2105 -1.2598
 4638SOL     OW25372   0.538   2.352  13.397 -0.3789  1.0436  0.1685
 4638SOL    HW125373   0.497   2.438  13.398 -0.8844  0.7843  1.4578
 4638SOL    HW225374   0.613   2.382  13.345 -0.1520 -0.2386 -0.2578
 4639SOL     OW25375   4.293   3.481   7.030 -0.2569  0.5378 -0.3139
 4639SOL    HW125376   4.213   3.485   6.977 -0.1381 -2.6605 -0.7346
 4639SOL    HW225377   4.287   3.388   7.052 -2.3878  1.3274  2.3837
 4640SOL     OW25378   0.909   3.294   4.726 -0.2239  0.2230 -0.5486
 4640SOL    HW125379   0.816   3.289   4.707  0.2484  2.4494 -3.5720
 4640SOL    HW225380   0.948   3.243   4.655  0.9060 -1.1413  1.0269
 4641SOL     OW25381   1.352   0.298  15.877 -0.0909 -0.8262 -0.2794
 4641SOL    HW125382   1.298   0.314  15.799 -2.3071 -0.9926  1.2159
 4641SOL    HW225383   1.290   0.251  15.934  0.1543  0.7211  1.2392
 4642SOL     OW25384   2.834   2.662  14.076  0.4418 -0.3811 -0.4887
 4642SOL    HW125385   2.774   2.612  14.021 -1.2056  1.0371  0.0048
 4642SOL    HW225386   2.900   2.673  14.008  1.3684 -3.1244 -0.0319
 4643SOL     OW25387   1.009   0.573  13.959  0.1608  0.0835 -0.2316
 4643SOL    HW125388   1.063   0.593  14.036 -0.5468  0.9884  0.0324
 4643SOL    HW225389   0.961   0.654  13.944  0.0234  0.1361  0.4743
 4644SOL     OW25390   3.787   1.617   9.478  0.1926 -0.1267  0.1210
 4644SOL    HW125391   3.866   1.667   9.498  0.3148 -1.0127  1.8126
 4644SOL    HW225392   3.819   1.530   9.502  2.2607  1.0917  1.6817
 4645SOL     OW25393   4.017   1.749   0.381  0.1943 -0.1964 -0.0396
 4645SOL    HW125394   4.039   1.824   0.326 -2.0702  0.6224  0.1939
 4645SOL    HW225395   4.033   1.778   0.471  0.7227 -1.2035  0.1857
 4646SOL     OW25396   3.811   0.600  17.202  0.0193 -0.6152  0.5342
 4646SOL    HW125397   3.854   0.568  17.281  0.3512  0.7234  0.9008
 4646SOL    HW225398   3.880   0.648  17.156 -0.9404  0.0665 -0.1946
 4647SOL     OW25399   2.749   0.748  10.883  0.2483  0.0148 -0.6794
 4647SOL    HW125400   2.703   0.770  10.964 -1.1441  0.2748 -1.5527
 4647SOL    HW225401   2.753   0.654  10.902 -0.9940  0.4969  2.1211
 4648SOL     OW25402   3.039   0.349   6.420 -0.5023  0.6964 -0.0096
 4648SOL    HW125403   2.980   0.372   6.492 -0.9988  1.3896 -0.6480
 4648SOL    HW225404   3.026   0.255   6.407  0.0593  0.6307 -0.0894
 4649SOL     OW25405   0.637   0.110   0.671  0.2106  0.1408 -0.2382
 4649SOL    HW125406   0.594   0.026   0.685 -1.5928  1.1184  0.1870
 4649SOL    HW225407   0.722   0.091   0.710 -0.1314 -2.6542 -0.8876
 4650SOL     OW25408   3.812   0.369   6.854 -0.7204  0.5238 -0.6544
 4650SOL    HW125409   3.810   0.290   6.801  0.6324  0.9298 -1.3015
 4650SOL    HW225410   3.750   0.347   6.923  1.4841  0.3012  1.2267
 4651SOL     OW25411   2.245   0.988   2.378 -0.5655  0.2327 -0.1932
 4651SOL    HW125412   2.290   1.071   2.360 -1.5099  0.3466 -2.0909
 4651SOL    HW225413   2.187   1.015   2.449 -0.9936 -2.6107  0.5277
 4652SOL     OW25414   2.228   2.675   7.450  0.3326  0.4220 -0.2216
 4652SOL    HW125415   2.181   2.608   7.401  1.3831 -1.0327  0.7708
 4652SOL    HW225416   2.160   2.743   7.457 -0.2644 -0.1969  0.0443
 4653SOL     OW25417   2.301   0.465   6.575 -0.2848  0.2137 -0.7757
 4653SOL    HW125418   2.301   0.435   6.484  0.1047 -2.3767  0.0847
 4653SOL    HW225419   2.228   0.526   6.571 -2.0602 -1.8767 -0.0710
 4654SOL     OW25420   3.493   2.600  10.317  0.2251  0.3864  0.1887
 4654SOL    HW125421   3.441   2.677  10.339  0.6287  1.1269 -1.4955
 4654SOL    HW225422   3.474   2.586  10.224 -0.1396  1.1115  0.1586
 4655SOL     OW25423   2.860   0.071   0.863  0.4622 -0.0318  0.0304
 4655SOL    HW125424   2.906   0.094   0.943  0.6872 -0.8321  0.1241
 4655SOL    HW225425   2.825   4.712   0.898 -2.5394  1.6031  0.8657
 4656SOL     OW25426   0.466   1.984   7.497 -0.0625  0.0740 -0.6487
 4656SOL    HW125427   0.458   1.889   7.503  2.8673 -0.0725  0.7570
 4656SOL    HW225428   0.552   1.994   7.456  0.4309  0.6023  0.5107
 4657SOL     OW25429   1.569   0.619   4.018 -0.1419  0.2630  0.0270
 4657SOL    HW125430   1.574   0.709   3.984  0.3468 -0.4673 -1.8173
 4657SOL    HW225431   1.480   0.632   4.051  0.0005  1.6018 -0.1230
 4658SOL     OW25432   2.256   0.748   7.482  0.1584  0.5484  0.8017
 4658SOL    HW125433   2.333   0.710   7.523 -0.4982  0.6101  2.0908
 4658SOL    HW225434   2.282   0.763   7.391 -1.2387  1.3352  0.5158
 4659SOL     OW25435   1.945   2.329  13.306  0.1467  0.1756  0.0152
 4659SOL    HW125436   1.913   2.256  13.358 -3.3978  1.7178 -0.0038
 4659SOL    HW225437   1.954   2.398  13.372 -1.0183 -0.6784  1.0543
 4660SOL     OW25438   4.237   1.876  13.977 -1.0596  0.1182  0.1652
 4660SOL    HW125439   4.327   1.868  13.945 -1.0950  1.1158 -0.1847
 4660SOL    HW225440   4.178   1.856  13.905  0.5427  0.2027 -1.1566
 4661SOL     OW25441   4.327   3.892   8.629  0.1428 -0.1145  0.6594
 4661SOL    HW125442   4.248   3.853   8.593  0.3387 -0.1927  0.3133
 4661SOL    HW225443   4.292   3.971   8.670 -1.1493 -0.0769 -0.5088
 4662SOL     OW25444   4.609   2.942  12.213 -0.0894  0.1160  0.1865
 4662SOL    HW125445   4.598   2.895  12.296 -0.1291 -1.1690 -0.5403
 4662SOL    HW225446   4.525   2.941  12.167  0.1029  0.2400 -0.1620
 4663SOL     OW25447   2.120   4.498  11.368 -0.2525  0.4624  0.6490
 4663SOL    HW125448   2.150   4.583  11.337 -0.9722  0.6563  0.4807
 4663SOL    HW225449   2.191   4.476  11.428  0.6034 -0.5776 -0.7549
 4664SOL     OW25450   1.278   0.918  13.085  0.0473  0.0675 -0.4380
 4664SOL    HW125451   1.309   0.840  13.039  2.6539  0.8838 -0.1146
 4664SOL    HW225452   1.361   0.967  13.089 -0.7891  1.3767  0.8311
 4665SOL     OW25453   0.682   1.252   2.412  0.4828  0.3851  0.0454
 4665SOL    HW125454   0.760   1.205   2.441 -0.8771 -2.7604 -1.3291
 4665SOL    HW225455   0.676   1.247   2.316  0.1389  3.0217 -0.0574
 4666SOL     OW25456   4.548   0.001   9.226  0.3438  0.2538 -0.1923
 4666SOL    HW125457   4.632   4.712   9.270 -0.9559 -2.5903  1.5867
 4666SOL    HW225458   4.548   0.096   9.238 -1.2165  0.0042  1.8176
 4667SOL     OW25459   4.110   0.124   4.045 -0.0853 -0.3860  0.0044
 4667SOL    HW125460   4.081   0.077   3.967  1.0776  0.2065 -0.8018
 4667SOL    HW225461   4.205   0.130   4.038  0.1308 -2.2840  1.4963
 4668SOL     OW25462   0.369   3.284  12.053 -0.8098  0.3325 -0.1929
 4668SOL    HW125463   0.413   3.315  11.973  0.0984 -1.1730 -0.2688
 4668SOL    HW225464   0.434   3.223  12.086 -1.4625 -0.2884 -0.0442
 4669SOL     OW25465   1.332   1.069   7.502 -0.0421 -0.3731  0.2358
 4669SOL    HW125466   1.329   1.058   7.597  0.3193  0.4787  0.3526
 4669SOL    HW225467   1.416   1.113   7.491  0.0771 -1.0654 -1.5725
 4670SOL     OW25468   1.934   1.586   9.187 -0.2675 -0.3293  0.3499
 4670SOL    HW125469   1.884   1.568   9.108  0.9860 -0.4809 -0.4131
 4670SOL    HW225470   1.988   1.507   9.182 -0.2309 -0.2675 -0.3040
 4671SOL     OW25471   1.903   2.549   3.022  0.0263 -0.2096 -0.3279
 4671SOL    HW125472   1.933   2.622   2.968 -2.4698  0.2434 -1.1018
 4671SOL    HW225473   1.981   2.494   3.010 -0.6778 -1.6619  1.7492
 4672SOL     OW25474   0.019   0.749   5.296 -0.5551 -0.2956  0.1275
 4672SOL    HW125475   0.031   0.654   5.299  0.6511 -0.2262 -1.8339
 4672SOL    HW225476   4.651   0.762   5.267 -1.2034 -2.2180  1.3596
 4673SOL     OW25477   3.837   3.890  15.467 -0.1210  0.0827 -0.0680
 4673SOL    HW125478   3.897   3.841  15.523  0.0221  0.9286  0.5187
 4673SOL    HW225479   3.838   3.971  15.518 -0.3334 -0.9264  1.5367
 4674SOL     OW25480   2.896   3.582   4.205 -0.2039  0.3825  0.1317
 4674SOL    HW125481   2.961   3.522   4.241 -0.2863 -0.4533 -1.1251
 4674SOL    HW225482   2.939   3.613   4.125 -0.8059  2.6900  0.6907
 4675SOL     OW25483   2.335   4.129   7.616  0.1015  0.1190  0.1178
 4675SOL    HW125484   2.323   4.136   7.522 -3.5160 -0.4390  0.5418
 4675SOL    HW225485   2.244   4.121   7.644  0.1425  2.4743  0.9464
 4676SOL     OW25486   2.465   1.731   4.836  0.2125 -0.0639 -0.2654
 4676SOL    HW125487   2.410   1.658   4.807 -0.4999  0.4072 -0.0993
 4676SOL    HW225488   2.402   1.803   4.841  1.3676  0.8864  0.5431
 4677SOL     OW25489   1.159   4.275  17.115 -0.2455 -0.5268 -0.2009
 4677SOL    HW125490   1.246   4.251  17.148 -0.4828 -0.4648  0.4704
 4677SOL    HW225491   1.137   4.339  17.183  0.2698 -2.7656  2.0944
 4678SOL     OW25492   3.832   4.564   2.891  0.4173  0.3142  0.2629
 4678SOL    HW125493   3.926   4.580   2.876  1.4455 -3.5410  2.5071
 4678SOL    HW225494   3.784   4.641   2.862 -0.3310  0.2981  1.4734
 4679SOL     OW25495   3.069   0.919   4.267  0.1641  0.9192 -0.0993
 4679SOL    HW125496   3.146   0.873   4.234 -0.1489 -0.2294  0.7638
 4679SOL    HW225497   2.995   0.920   4.206 -0.1353  2.3941  0.2972
 4680SOL     OW25498   2.315   0.745   2.289  0.0941  0.2102 -0.0538
 4680SOL    HW125499   2.287   0.831   2.318  1.2842  0.7376 -0.4604
 4680SOL    HW225500   2.409   0.745   2.308  0.2994 -0.4688 -1.0696
 4681SOL     OW25501   1.150   3.368   9.517 -0.1086 -0.1566 -0.1210
 4681SOL    HW125502   1.207   3.329   9.583  1.2850 -0.5548 -1.5299
 4681SOL    HW225503   1.151   3.291   9.459 -0.7718 -0.9443  0.9141
 4682SOL     OW25504   1.676   0.529  13.969  0.6866  0.2647  0.0655
 4682SOL    HW125505   1.604   0.538  13.906  0.7363 -1.1528 -0.2079
 4682SOL    HW225506   1.725   0.608  13.952  1.2177 -0.2450 -0.7428
 4683SOL     OW25507   3.187   3.815   1.215 -0.0541 -0.6047 -0.2586
 4683SOL    HW125508   3.278   3.807   1.243  0.1140  0.8020 -0.3744
 4683SOL    HW225509   3.177   3.726   1.183  0.4607 -0.2363 -1.4525
 4684SOL     OW25510   0.118   4.155   0.424 -0.5607  0.0455  0.2812
 4684SOL    HW125511   0.176   4.082   0.448 -2.7503 -0.8363  2.9466
 4684SOL    HW225512   0.183   4.225   0.434  1.0274 -1.4248  0.3430
 4685SOL     OW25513   1.615   0.079   8.954 -1.1125 -0.3991 -0.2329
 4685SOL    HW125514   1.647   0.169   8.947 -1.0846 -0.4205 -0.3821
 4685SOL    HW225515   1.699   0.043   8.982 -0.7148  0.8604  0.2125
 4686SOL     OW25516   1.310   4.076   6.091  0.3040 -0.1315  0.2402
 4686SOL    HW125517   1.400   4.063   6.063 -0.1300  1.1727 -1.7432
 4686SOL    HW225518   1.328   4.097   6.183  1.4106 -0.4539  0.0963
 4687SOL     OW25519   1.700   4.063  14.930 -0.0150  0.0176  0.2063
 4687SOL    HW125520   1.606   4.048  14.937  0.0027 -1.1973 -2.1995
 4687SOL    HW225521   1.706   4.109  14.846  1.3058  0.1159  0.3506
 4688SOL     OW25522   0.963   2.108   4.058 -0.1605  0.3597 -0.0567
 4688SOL    HW125523   0.888   2.152   4.096 -0.0962 -0.4894  1.0773
 4688SOL    HW225524   0.915   2.060   3.991  0.8910  2.3521 -2.2235
 4689SOL     OW25525   4.105   0.592  11.716 -0.2299  0.4869 -0.2523
 4689SOL    HW125526   4.170   0.549  11.772 -0.8433  0.6810  0.6129
 4689SOL    HW225527   4.125   0.682  11.742  0.9143  0.5857 -1.4251
 4690SOL     OW25528   1.057   2.027   0.549  0.6720  0.4175  0.1226
 4690SOL    HW125529   1.056   1.958   0.482  3.0913  1.2707 -0.8299
 4690SOL    HW225530   0.986   2.077   0.509  2.3107  1.4239 -1.6059
 4691SOL     OW25531   1.081   0.684  11.474 -0.4326 -0.4535 -0.5248
 4691SOL    HW125532   1.143   0.692  11.402 -0.2544 -0.7314 -0.4054
 4691SOL    HW225533   1.143   0.695  11.546  0.6879  0.5853 -1.6481
 4692SOL     OW25534   1.999   2.569  11.127  0.4521 -0.4565 -0.0100
 4692SOL    HW125535   2.076   2.522  11.095  0.2519 -2.3872  2.3221
 4692SOL    HW225536   1.969   2.617  11.051  2.0243 -0.0079 -0.3380
 4693SOL     OW25537   3.627   3.624  11.865 -0.2523 -0.2307 -0.1703
 4693SOL    HW125538   3.561   3.562  11.834  0.2832 -0.5890 -0.5919
 4693SOL    HW225539   3.667   3.552  11.913 -0.4789 -0.5017 -0.3846
 4694SOL     OW25540   0.754   1.020   0.125 -0.1940  0.2710  0.2111
 4694SOL    HW125541   0.782   1.092   0.182  0.1530  1.1740 -1.0833
 4694SOL    HW225542   0.767   0.941   0.176 -0.0775 -0.2535 -0.6369
 4695SOL     OW25543   3.329   2.026   3.446  0.0075  0.5115  0.4916
 4695SOL    HW125544   3.364   1.992   3.529 -0.8930  0.3697  0.8098
 4695SOL    HW225545   3.413   2.037   3.402 -0.5870  1.2500 -0.4551
 4696SOL     OW25546   3.395   0.379  13.806 -0.0648  0.4833  0.6818
 4696SOL    HW125547   3.440   0.295  13.819  1.2440  1.2924  1.3710
 4696SOL    HW225548   3.441   0.426  13.736  1.6027 -1.4951  0.4569
 4697SOL     OW25549   2.287   4.361   4.928  0.4060 -0.0843  0.1749
 4697SOL    HW125550   2.233   4.437   4.907 -3.3142 -3.1815 -1.4480
 4697SOL    HW225551   2.352   4.393   4.991  1.0726  1.2324 -1.1945
 4698SOL     OW25552   1.185   0.768  10.700  0.0787  0.0398 -0.2397
 4698SOL    HW125553   1.217   0.753  10.611 -0.6481  1.0706 -0.6820
 4698SOL    HW225554   1.170   0.674  10.712  1.2566 -0.4967 -2.8783
 4699SOL     OW25555   3.925   2.409   7.407 -0.2459 -0.2128  0.5546
 4699SOL    HW125556   3.927   2.376   7.497 -1.1845  0.5689  0.8494
 4699SOL    HW225557   3.940   2.325   7.363 -0.0162  0.5095 -0.7550
 4700SOL     OW25558   2.591   2.135   5.882 -0.2130 -0.1107 -0.0585
 4700SOL    HW125559   2.502   2.158   5.856 -0.8009 -0.3969  1.6897
 4700SOL    HW225560   2.621   2.222   5.910 -0.0059 -0.4870  0.9054
 4701SOL     OW25561   4.307   3.533  10.483  0.4629 -0.7575  0.1439
 4701SOL    HW125562   4.241   3.601  10.468  0.5327 -0.2803  1.9808
 4701SOL    HW225563   4.317   3.493  10.397  1.5969  1.4123 -0.7110
 4702SOL     OW25564   2.659   1.776   7.039  0.0911 -0.3851  0.6722
 4702SOL    HW125565   2.650   1.767   7.133  2.6142 -2.7539  0.6593
 4702SOL    HW225566   2.574   1.744   7.008 -0.7549  1.2211  1.3172
 4703SOL     OW25567   4.607   4.001  13.671  0.0499  0.3621 -0.3533
 4703SOL    HW125568   4.534   4.002  13.734  2.4327 -0.3134  2.4176
 4703SOL    HW225569   4.678   3.961  13.720 -0.1288  1.3013  0.6583
 4704SOL     OW25570   1.814   1.171   5.978 -0.5451 -0.8225 -0.4907
 4704SOL    HW125571   1.872   1.191   6.051  0.1945 -0.1709 -1.2589
 4704SOL    HW225572   1.867   1.115   5.921  1.9604  0.3715  0.6790
 4705SOL     OW25573   1.623   2.424   9.081 -0.3818 -0.2694 -0.0020
 4705SOL    HW125574   1.666   2.413   9.165  0.4606  1.2278 -0.2412
 4705SOL    HW225575   1.579   2.506   9.102  0.5107  0.6920 -1.9270
 4706SOL     OW25576   4.447   1.274   7.705  0.0949 -0.6511  0.4277
 4706SOL    HW125577   4.501   1.274   7.626 -1.4344  0.2624 -0.5991
 4706SOL    HW225578   4.438   1.184   7.735  0.8901 -0.9038 -0.0990
 4707SOL     OW25579   2.907   1.136   2.250 -0.4789 -0.2204 -0.0830
 4707SOL    HW125580   2.887   1.075   2.321  0.7324 -0.7358 -0.1900
 4707SOL    HW225581   2.926   1.083   2.173  1.4488  1.4291 -0.7169
 4708SOL     OW25582   0.802   3.976   4.909  0.0051 -0.5408 -0.1371
 4708SOL    HW125583   0.864   3.908   4.936  0.5664  0.5091  1.2147
 4708SOL    HW225584   0.753   3.994   4.989 -1.0664 -1.7757 -0.5185
 4709SOL     OW25585   2.616   1.511   7.757 -0.7291 -0.3493 -0.1430
 4709SOL    HW125586   2.620   1.417   7.777 -1.6482 -0.4148 -0.2706
 4709SOL    HW225587   2.707   1.531   7.778 -0.6252 -1.6938  0.6620
 4710SOL     OW25588   4.110   2.091   7.574 -0.5153  0.4499 -0.5292
 4710SOL    HW125589   4.048   2.082   7.646 -0.6242  1.8321 -0.4454
 4710SOL    HW225590   4.112   2.008   7.527  0.7172 -0.2729  0.8132
 4711SOL     OW25591   4.011   1.235   8.532 -0.7091  0.1768 -0.3005
 4711SOL    HW125592   4.051   1.242   8.445 -1.9055 -0.6248 -0.9150
 4711SOL    HW225593   4.060   1.314   8.556  0.2168 -1.2709  2.6334
 4712SOL     OW25594   3.591   4.189   2.576 -0.0804 -0.0622  0.0738
 4712SOL    HW125595   3.615   4.278   2.600 -2.0875  0.2359  0.9919
 4712SOL    HW225596   3.629   4.137   2.647 -1.9841 -0.0292  1.1117
 4713SOL     OW25597   2.528   2.509   2.424 -0.3040  0.4818  0.6753
 4713SOL    HW125598   2.469   2.582   2.443 -1.4913 -0.8947  2.2110
 4713SOL    HW225599   2.514   2.441   2.490  0.6095 -0.6623 -0.3265
 4714SOL     OW25600   3.777   2.407  16.273 -0.4591 -0.1573  0.1347
 4714SOL    HW125601   3.722   2.435  16.200  0.1600  1.5310  0.3371
 4714SOL    HW225602   3.864   2.435  16.246 -0.9479  0.9880 -0.2405
 4715SOL     OW25603   4.484   0.696   5.242  0.3928 -0.0980 -0.3305
 4715SOL    HW125604   4.430   0.686   5.164 -1.8937 -1.2217  1.3692
 4715SOL    HW225605   4.431   0.641   5.300 -1.2623  1.4013 -0.3840
 4716SOL     OW25606   2.959   2.840  14.905 -0.1563  0.4432  0.4320
 4716SOL    HW125607   3.002   2.820  14.987  1.1521  0.5628 -0.2265
 4716SOL    HW225608   3.033   2.869  14.852 -0.2859 -0.7344 -0.3916
 4717SOL     OW25609   0.331   0.762   8.366 -0.0589 -0.7228 -0.0669
 4717SOL    HW125610   0.390   0.725   8.432 -1.4884 -2.0484  0.4705
 4717SOL    HW225611   0.265   0.805   8.421  0.5880  0.0976  0.0658
 4718SOL     OW25612   0.131   4.653   3.964 -0.4865  0.2030 -0.0410
 4718SOL    HW125613   0.194   4.588   3.935 -0.7434 -0.6304  1.2944
 4718SOL    HW225614   0.082   4.662   3.882 -0.3357 -1.6246 -0.3272
 4719SOL     OW25615   0.342   1.636   1.960  0.8354  0.3314  0.0580
 4719SOL    HW125616   0.311   1.663   1.873  0.1395  1.8814  0.7937
 4719SOL    HW225617   0.422   1.596   1.924  0.6883  1.8426 -1.9336
 4720SOL     OW25618   2.799   1.567   5.551 -0.2568 -0.1455  0.2958
 4720SOL    HW125619   2.735   1.630   5.584 -0.2938 -0.3956  0.6976
 4720SOL    HW225620   2.817   1.612   5.468 -2.0712  1.6557  0.8697
 4721SOL     OW25621   2.255   3.068   8.847 -0.3780  0.3340  0.6535
 4721SOL    HW125622   2.269   3.143   8.791 -1.5971  1.2133  1.5241
 4721SOL    HW225623   2.193   3.106   8.909  1.7655  1.1372  2.3083
 4722SOL     OW25624   2.874   2.426   1.465  0.0088  0.2061  0.0678
 4722SOL    HW125625   2.823   2.442   1.386  2.1424 -5.0063 -2.3559
 4722SOL    HW225626   2.801   2.430   1.528  0.7687 -0.1825  0.9840
 4723SOL     OW25627   0.282   0.202  15.173 -0.4154 -0.2992 -0.1931
 4723SOL    HW125628   0.271   0.107  15.180 -0.1211 -0.3844 -0.9314
 4723SOL    HW225629   0.241   0.212  15.087  2.5439  0.4633 -1.5025
 4724SOL     OW25630   1.930   1.712   2.950 -0.2901 -0.6632  0.4272
 4724SOL    HW125631   1.861   1.654   2.917 -0.1486  0.2872 -1.5726
 4724SOL    HW225632   1.902   1.731   3.040  2.1673  1.6608  0.7065
 4725SOL     OW25633   0.405   1.298  11.735 -0.4304 -0.7243 -0.1027
 4725SOL    HW125634   0.413   1.216  11.686 -0.1405 -0.0758 -1.1324
 4725SOL    HW225635   0.480   1.338  11.692 -0.4720 -0.5967 -0.0548
 4726SOL     OW25636   2.828   3.963   5.369  0.0601 -0.3423  0.1696
 4726SOL    HW125637   2.823   3.977   5.274  0.7731 -2.8793 -0.2343
 4726SOL    HW225638   2.923   3.966   5.380  0.2946  0.0258 -2.0095
 4727SOL     OW25639   3.929   0.861   4.346  0.4212 -0.3021 -0.0588
 4727SOL    HW125640   3.842   0.887   4.373  0.2450 -0.7167 -0.2198
 4727SOL    HW225641   3.913   0.769   4.323  0.1050 -0.2257 -0.1419
 4728SOL     OW25642   1.804   2.990   5.757 -0.5046 -0.2652 -0.3386
 4728SOL    HW125643   1.709   2.980   5.756 -0.3123 -1.9885 -0.4346
 4728SOL    HW225644   1.830   2.907   5.797 -0.4521 -0.5792 -1.0219
 4729SOL     OW25645   1.592   3.455   4.143 -0.4111  0.5012  0.2043
 4729SOL    HW125646   1.615   3.416   4.058 -0.7433  0.2501  0.2290
 4729SOL    HW225647   1.674   3.449   4.191  0.7225 -0.9313 -1.8745
 4730SOL     OW25648   4.162   0.028  12.782 -0.2173  0.3481 -0.6002
 4730SOL    HW125649   4.122   0.033  12.695 -0.4308 -0.7341 -0.5603
 4730SOL    HW225650   4.244   4.703  12.770 -1.5710 -2.2008  0.4724
 4731SOL     OW25651   0.340   1.839  17.671  0.2835 -0.1047 -0.0221
 4731SOL    HW125652   0.257   1.792  17.677 -0.1444  0.5290 -1.1066
 4731SOL    HW225653   0.311   1.927   0.004 -1.0522 -0.7952  0.8265
 4732SOL     OW25654   3.501   3.537   9.048 -0.4419 -0.0841  0.1982
 4732SOL    HW125655   3.519   3.502   8.961  0.7058  2.6899 -0.7010
 4732SOL    HW225656   3.586   3.559   9.086 -0.3603  1.5647 -0.9227
 4733SOL     OW25657   1.316   3.550  11.143  0.6522 -0.3771  0.1479
 4733SOL    HW125658   1.355   3.632  11.173  0.1142 -0.0434 -0.0680
 4733SOL    HW225659   1.385   3.489  11.168  0.5052 -0.9006 -0.7376
 4734SOL     OW25660   1.945   1.232  13.027  0.6752 -0.1056  0.5151
 4734SOL    HW125661   1.928   1.242  13.121  2.1945  0.7353  0.6903
 4734SOL    HW225662   2.029   1.186  13.028  0.1499 -1.0716  0.3664
 4735SOL     OW25663   4.474   2.138   4.074  0.1219  0.1227  0.0059
 4735SOL    HW125664   4.487   2.221   4.027 -2.1528  0.4450 -0.0905
 4735SOL    HW225665   4.388   2.108   4.044  0.3821  0.5315 -1.1746
 4736SOL     OW25666   3.135   0.034   4.936  0.0122 -0.3262  0.0092
 4736SOL    HW125667   3.185   0.072   5.009 -1.3593 -0.7102  1.1286
 4736SOL    HW225668   3.045   0.044   4.966  0.2116  0.1230  0.4805
 4737SOL     OW25669   2.246   4.689   9.878  0.3876  0.1841  0.2687
 4737SOL    HW125670   2.204   4.618   9.927  1.6403 -0.8070 -0.0775
 4737SOL    HW225671   2.198   0.042   9.911 -0.6533  0.5304 -2.0811
 4738SOL     OW25672   2.653   3.849   4.003 -0.6180 -0.1011 -0.5246
 4738SOL    HW125673   2.604   3.925   3.971 -1.8860 -0.9445 -0.6098
 4738SOL    HW225674   2.742   3.883   4.004 -0.8177  0.4722 -1.9683
 4739SOL     OW25675   2.358   3.465   0.039  0.0060 -0.2294 -0.0338
 4739SOL    HW125676   2.307   3.532  17.686 -1.5704 -0.0872  1.9367
 4739SOL    HW225677   2.414   3.520   0.094  1.0199  0.4451 -1.7414
 4740SOL     OW25678   2.439   3.480   1.141  0.3665 -0.7828  0.0427
 4740SOL    HW125679   2.423   3.409   1.203 -1.2758  0.4383  1.0055
 4740SOL    HW225680   2.432   3.552   1.203 -2.4468 -1.4327  0.5120
 4741SOL     OW25681   0.221   0.340   5.352 -0.1797  0.5440  0.9591
 4741SOL    HW125682   0.269   0.386   5.422 -1.5722  1.3989  1.3601
 4741SOL    HW225683   0.236   0.249   5.376  2.6225  0.6380 -0.4447
 4742SOL     OW25684   1.522   1.162   3.128  0.1416  0.1411 -0.0078
 4742SOL    HW125685   1.457   1.214   3.080  2.4069 -0.9260 -4.2449
 4742SOL    HW225686   1.578   1.237   3.150  1.6843 -1.5775  1.9043
 4743SOL     OW25687   3.903   1.175   2.479 -0.7302  0.2434 -0.6237
 4743SOL    HW125688   3.926   1.158   2.571  0.1467 -0.5526 -0.9917
 4743SOL    HW225689   3.898   1.081   2.463  1.1165  0.2716 -1.2844
 4744SOL     OW25690   1.170   4.463   1.812  0.6900  0.0887 -0.2237
 4744SOL    HW125691   1.127   4.530   1.758  2.7652  0.2148 -1.6788
 4744SOL    HW225692   1.217   4.410   1.748  1.0984  0.9968 -0.6750
 4745SOL     OW25693   0.215   2.796  16.151 -0.1700  0.6504 -0.0394
 4745SOL    HW125694   0.237   2.828  16.238  1.1747 -3.1847  1.0358
 4745SOL    HW225695   0.121   2.780  16.160  0.0681 -0.7713 -0.0694
 4746SOL     OW25696   1.535   4.347  15.352 -0.3822 -0.6177 -0.1033
 4746SOL    HW125697   1.576   4.403  15.286 -0.3976 -0.9261 -0.3723
 4746SOL    HW225698   1.582   4.264  15.345  0.7546 -0.0652  0.9910
 4747SOL     OW25699   0.910   3.479   1.659  0.2180  0.8366 -0.2142
 4747SOL    HW125700   0.980   3.458   1.597 -2.1441  0.8982 -2.8674
 4747SOL    HW225701   0.849   3.408   1.641  3.4552 -2.2555  0.9040
 4748SOL     OW25702   1.672   3.424   6.247 -0.3121  0.6835 -0.1324
 4748SOL    HW125703   1.713   3.338   6.248 -1.7160  0.0110  3.3356
 4748SOL    HW225704   1.685   3.432   6.153  2.2468 -2.3633 -0.0158
 4749SOL     OW25705   1.114   1.405   5.027  0.5564  0.0703 -0.3769
 4749SOL    HW125706   1.126   1.328   4.971  2.3853 -1.6465  2.3933
 4749SOL    HW225707   1.161   1.370   5.102  0.9403  0.9979 -0.1842
 4750SOL     OW25708   0.155   4.081   4.201 -0.2556  0.3273  0.1704
 4750SOL    HW125709   0.141   4.108   4.292  0.1369  0.2400  0.2545
 4750SOL    HW225710   0.183   3.996   4.233  1.6766  1.5130  1.6573
 4751SOL     OW25711   0.944   0.532  15.166 -0.0196 -0.1094  0.3396
 4751SOL    HW125712   0.937   0.553  15.259 -1.7203 -0.8574  0.3904
 4751SOL    HW225713   0.984   0.608  15.125 -0.5413  0.3035  0.6100
 4752SOL     OW25714   4.623   3.495   6.126  0.0395  0.0315 -0.4096
 4752SOL    HW125715   4.551   3.440   6.096  0.4886 -1.7627  1.7313
 4752SOL    HW225716   4.665   3.432   6.185  0.0203  0.9766  0.6268
 4753SOL     OW25717   0.265   1.198   9.036 -0.1675  0.0100  0.1422
 4753SOL    HW125718   0.215   1.175   9.114 -1.0981 -0.2577 -0.5311
 4753SOL    HW225719   0.197   1.167   8.976 -0.6962  0.9182  0.2628
 4754SOL     OW25720   3.738   1.365   5.871 -0.3828  0.0374  0.6921
 4754SOL    HW125721   3.732   1.346   5.964 -0.1109 -1.7701  0.3401
 4754SOL    HW225722   3.802   1.436   5.870 -0.4195  0.0669  0.2039
 4755SOL     OW25723   1.404   1.381   2.406  0.0571 -1.2429 -0.0025
 4755SOL    HW125724   1.488   1.370   2.362 -0.1709  0.3616 -0.8273
 4755SOL    HW225725   1.352   1.421   2.336 -0.3941 -1.4834  0.1939
 4756SOL     OW25726   3.025   0.146   4.057 -0.2065  0.2412 -0.5035
 4756SOL    HW125727   3.009   0.206   3.984 -1.3054 -2.8405 -2.7939
 4756SOL    HW225728   3.009   0.064   4.010  0.9256 -1.3873  1.9231
 4757SOL     OW25729   4.327   1.430  10.845  0.4928  0.0257  0.3620
 4757SOL    HW125730   4.384   1.380  10.904  0.5986 -1.9534 -1.4462
 4757SOL    HW225731   4.260   1.436  10.914 -0.8216 -1.1262 -0.8241
 4758SOL     OW25732   2.051   1.127   0.788 -0.0695 -0.1893 -0.3689
 4758SOL    HW125733   2.130   1.167   0.822 -1.2079  0.4790  1.4969
 4758SOL    HW225734   2.008   1.199   0.742  0.0767  0.3739  0.3705
 4759SOL     OW25735   3.637   4.605   4.876  0.5350  0.4732 -0.4914
 4759SOL    HW125736   3.591   4.657   4.942 -1.0059  1.2701 -2.1936
 4759SOL    HW225737   3.631   4.650   4.792 -0.1710  0.0059 -0.6973
 4760SOL     OW25738   1.262   3.057   9.145  0.0397 -0.5050 -0.2981
 4760SOL    HW125739   1.324   3.074   9.074  1.6529 -2.5773  0.6144
 4760SOL    HW225740   1.265   2.962   9.157 -0.3263 -0.3359  1.1391
 4761SOL     OW25741   2.925   1.023  12.765  0.1269 -0.4768  0.1798
 4761SOL    HW125742   2.876   0.993  12.842 -2.3261  0.1429 -1.1715
 4761SOL    HW225743   2.955   1.109  12.794  0.3096 -0.7008  0.6676
 4762SOL     OW25744   1.724   0.434   3.104 -0.3997  0.0630 -0.2702
 4762SOL    HW125745   1.758   0.428   3.014  2.7180  0.6382  0.8438
 4762SOL    HW225746   1.667   0.358   3.110 -1.0935  0.5456 -0.7180
 4763SOL     OW25747   1.051   3.046   7.437  0.1124  0.3387 -0.5468
 4763SOL    HW125748   0.956   3.055   7.430 -0.1902 -2.0433  0.7236
 4763SOL    HW225749   1.052   2.951   7.437  0.8110  0.3454 -0.9683
 4764SOL     OW25750   0.251   3.966   2.555 -0.1755  0.5742  0.4785
 4764SOL    HW125751   0.260   3.917   2.636 -2.6995  0.0515  0.4434
 4764SOL    HW225752   0.337   4.007   2.565 -0.0713 -0.3855  3.5284
 4765SOL     OW25753   2.414   0.054   5.693 -0.1640 -0.3573 -1.3337
 4765SOL    HW125754   2.357   4.722   5.747 -1.1490  0.0889 -1.9238
 4765SOL    HW225755   2.457   0.103   5.763 -1.2921 -0.9971 -0.1853
 4766SOL     OW25756   0.388   2.729   9.206 -0.2496 -0.3113  0.0892
 4766SOL    HW125757   0.312   2.759   9.258  0.2021  1.0287 -0.0115
 4766SOL    HW225758   0.356   2.647   9.170  0.4070 -1.3561  1.9003
 4767SOL     OW25759   1.515   3.573   6.506 -0.1097 -0.2704  0.1370
 4767SOL    HW125760   1.558   3.502   6.457  0.4933 -2.2265  3.5537
 4767SOL    HW225761   1.570   3.648   6.481 -0.8915 -0.8433 -3.2734
 4768SOL     OW25762   0.041   2.231  11.447  0.2700  0.3180  0.2464
 4768SOL    HW125763   0.014   2.271  11.530 -1.9668 -1.4477  0.3916
 4768SOL    HW225764   0.082   2.302  11.398  1.1910 -0.8639 -0.7138
 4769SOL     OW25765   3.394   3.716   7.888 -0.0513 -0.1893 -0.5445
 4769SOL    HW125766   3.422   3.771   7.814 -0.6568  1.6369  0.5601
 4769SOL    HW225767   3.304   3.746   7.901 -0.6919 -1.1900 -2.7451
 4770SOL     OW25768   2.991   1.677   2.520 -0.4440 -0.4886  0.1788
 4770SOL    HW125769   3.067   1.668   2.577 -0.4860 -1.6268  0.0694
 4770SOL    HW225770   3.016   1.755   2.472 -0.7507 -0.5466 -0.0740
 4771SOL     OW25771   2.196   3.314  14.661 -0.1334 -0.9659 -0.5286
 4771SOL    HW125772   2.120   3.287  14.712  1.4253 -1.4932  1.5158
 4771SOL    HW225773   2.269   3.309  14.723 -0.6580 -0.5956  0.1120
 4772SOL     OW25774   3.504   3.499  16.437 -0.3387 -0.3769  0.0697
 4772SOL    HW125775   3.488   3.469  16.526  0.5392  0.9887  0.6931
 4772SOL    HW225776   3.593   3.476  16.409 -0.6203 -0.0471 -1.1070
 4773SOL     OW25777   2.725   0.940  11.484  0.2839  0.1527  0.6039
 4773SOL    HW125778   2.778   0.874  11.439 -1.7135 -1.9579  1.3341
 4773SOL    HW225779   2.778   1.019  11.473  2.6331 -1.4969  0.1569
 4774SOL     OW25780   0.213   2.515   6.269 -0.0400 -0.2431  0.2845
 4774SOL    HW125781   0.294   2.495   6.316 -0.7898 -0.9995  1.2757
 4774SOL    HW225782   0.162   2.444   6.309 -2.2057  2.1668  1.8516
 4775SOL     OW25783   2.879   2.170  13.734 -0.0558 -0.0497  0.1763
 4775SOL    HW125784   2.801   2.118  13.717  0.9160 -0.7321 -2.1879
 4775SOL    HW225785   2.904   2.206  13.649 -3.4815 -2.6120 -1.8466
 4776SOL     OW25786   2.727   3.026  12.099 -0.0522  0.6076 -0.0023
 4776SOL    HW125787   2.650   3.009  12.045  1.0571  2.0253 -2.0180
 4776SOL    HW225788   2.762   2.939  12.119  2.2099  1.4123 -0.3689
 4777SOL     OW25789   3.257   0.953  14.082  0.1537 -0.5632 -0.1267
 4777SOL    HW125790   3.203   1.024  14.046  1.4857 -0.9929 -2.9600
 4777SOL    HW225791   3.277   0.899  14.005  2.1965  1.9671 -1.3813
 4778SOL     OW25792   4.170   1.428   4.653  0.2721  0.6062  0.4325
 4778SOL    HW125793   4.144   1.337   4.663  1.0502  0.2132 -1.2320
 4778SOL    HW225794   4.102   1.461   4.712 -0.6668 -0.6988  0.0655
 4779SOL     OW25795   0.242   0.615   8.854  0.0795 -0.5115  0.8612
 4779SOL    HW125796   0.181   0.599   8.782  0.4347  1.9243  0.0350
 4779SOL    HW225797   0.182   0.606   8.929  1.1628 -1.5273  1.6157
 4780SOL     OW25798   4.367   1.308  10.522 -0.1670 -0.3668  0.8311
 4780SOL    HW125799   4.397   1.229  10.476  0.7602  0.7017 -0.4167
 4780SOL    HW225800   4.403   1.381  10.471  0.4902 -1.7459 -0.6588
 4781SOL     OW25801   4.385   1.246  11.111  0.5462 -0.3567 -0.2479
 4781SOL    HW125802   4.340   1.164  11.093 -1.0137  1.1442 -3.1436
 4781SOL    HW225803   4.323   1.283  11.174  1.1912  0.4712 -0.0989
 4782SOL     OW25804   0.257   3.547   3.060  0.0440  0.2142 -0.2854
 4782SOL    HW125805   0.197   3.622   3.054 -1.3805 -0.8979 -0.1605
 4782SOL    HW225806   0.220   3.469   3.019  0.9304 -0.7825  0.8168
 4783SOL     OW25807   4.594   2.711   6.433 -0.6997 -0.2869 -0.2066
 4783SOL    HW125808   4.586   2.798   6.470  0.2702  0.1825 -1.1014
 4783SOL    HW225809   4.684   2.704   6.401 -0.8239  1.2419 -0.8582
 4784SOL     OW25810   2.122   4.216   1.963  0.1817  0.4087 -0.1901
 4784SOL    HW125811   2.052   4.275   1.937  0.7295  1.0586 -0.1915
 4784SOL    HW225812   2.168   4.278   2.020 -0.3241  1.1670 -0.6177
 4785SOL     OW25813   2.932   2.117   5.162  0.8436  0.3724 -0.3465
 4785SOL    HW125814   2.982   2.174   5.220  1.4092 -1.1735  0.6937
 4785SOL    HW225815   2.905   2.175   5.091  1.9259 -0.0594 -1.1083
 4786SOL     OW25816   1.403   4.647   1.351  0.3661 -0.1363 -0.0732
 4786SOL    HW125817   1.365   4.596   1.279 -2.6250  1.6661  0.2313
 4786SOL    HW225818   1.495   4.626   1.337 -0.1024 -0.8248 -2.2546
 4787SOL     OW25819   3.789   1.610   6.971 -0.0081 -0.3519  0.2205
 4787SOL    HW125820   3.743   1.527   6.962 -0.5614  0.1037 -1.2059
 4787SOL    HW225821   3.875   1.575   6.992  0.9494  0.4040 -2.3384
 4788SOL     OW25822   1.147   0.589  15.393  0.4330  0.0053  0.4883
 4788SOL    HW125823   1.224   0.590  15.450 -0.3447  3.0732  1.5037
 4788SOL    HW225824   1.195   0.577  15.311  0.6735  1.5959  0.3777
 4789SOL     OW25825   0.953   3.129  14.372 -0.3314 -0.7845 -0.5153
 4789SOL    HW125826   1.027   3.094  14.420 -0.6091  0.7276  0.9774
 4789SOL    HW225827   0.977   3.092  14.287 -0.5795  0.4645 -1.1347
 4790SOL     OW25828   1.715   1.262  16.517  0.1650 -0.1562 -0.1936
 4790SOL    HW125829   1.788   1.201  16.528 -0.7495 -1.0805  0.8207
 4790SOL    HW225830   1.678   1.254  16.605 -1.2174 -1.9333 -0.9408
 4791SOL     OW25831   3.411   4.079   6.262 -0.2697  0.6207  0.2961
 4791SOL    HW125832   3.353   4.016   6.221  0.3779 -0.1612  0.5749
 4791SOL    HW225833   3.402   4.153   6.203 -0.2415 -0.2922 -0.8458
 4792SOL     OW25834   0.488   2.761   2.778 -0.5786  0.3790  0.7434
 4792SOL    HW125835   0.550   2.696   2.744  0.7010  1.8529  0.2169
 4792SOL    HW225836   0.451   2.723   2.857 -0.3178  0.8233  1.0796
 4793SOL     OW25837   1.000   3.330   3.669 -0.1017  0.0884  0.5282
 4793SOL    HW125838   1.012   3.417   3.708 -1.6136  0.3089  0.4825
 4793SOL    HW225839   0.952   3.356   3.591  1.3654  0.1276 -0.3615
 4794SOL     OW25840   3.816   0.233   4.692  0.0783  0.3562 -0.1751
 4794SOL    HW125841   3.786   0.151   4.652  0.5202 -0.2662  0.7638
 4794SOL    HW225842   3.776   0.300   4.637  1.2005  0.7435 -0.5099
 4795SOL     OW25843   1.650   4.194   4.358  0.4162  0.2024 -0.0910
 4795SOL    HW125844   1.652   4.189   4.263 -3.9075 -0.7298 -0.1266
 4795SOL    HW225845   1.555   4.199   4.372  0.3008 -1.3992 -0.3330
 4796SOL     OW25846   1.509   3.812  14.728  0.2240  0.4625 -0.3488
 4796SOL    HW125847   1.500   3.888  14.785 -3.0494 -0.2723  0.1185
 4796SOL    HW225848   1.603   3.802  14.712  0.6503  1.8472  1.2829
 4797SOL     OW25849   0.395   0.964   0.644  0.2709 -0.1091  0.0691
 4797SOL    HW125850   0.395   0.963   0.548  0.5558 -1.1721  0.0803
 4797SOL    HW225851   0.372   0.872   0.654 -0.1372 -0.0001  0.1371
 4798SOL     OW25852   1.797   0.620  15.733  0.2071  0.6653 -0.2861
 4798SOL    HW125853   1.868   0.616  15.797  0.4986 -0.0410 -0.6443
 4798SOL    HW225854   1.834   0.664  15.655 -0.2733  1.6663  0.0538
 4799SOL     OW25855   2.320   4.533   3.143 -0.2466 -0.9674  0.4204
 4799SOL    HW125856   2.303   4.583   3.222 -0.5833 -0.1468 -0.1721
 4799SOL    HW225857   2.349   4.605   3.087  0.3918 -0.1194  1.8340
 4800SOL     OW25858   0.623   1.259   2.131  0.2571  0.0755  0.5683
 4800SOL    HW125859   0.694   1.320   2.112  0.3672  0.3760  1.9336
 4800SOL    HW225860   0.560   1.276   2.061  1.3710 -0.6381 -0.5847
 4801SOL     OW25861   1.217   1.985  16.321 -0.2105 -0.1042 -0.5147
 4801SOL    HW125862   1.178   1.988  16.408  0.0849  1.4468 -0.4290
 4801SOL    HW225863   1.142   1.983  16.262 -0.8813 -2.0699  0.4210
 4802SOL     OW25864   3.392   0.710   6.653  0.0396  0.0592  0.1946
 4802SOL    HW125865   3.397   0.767   6.576  1.7551 -2.5098 -1.6163
 4802SOL    HW225866   3.308   0.666   6.645 -0.2952  0.7708 -0.1897
 4803SOL     OW25867   3.981   3.330   4.222  0.0389 -0.1934 -0.8337
 4803SOL    HW125868   3.911   3.268   4.241 -1.0550  1.9692  2.1833
 4803SOL    HW225869   4.055   3.276   4.251 -0.2166 -0.1458 -0.0974
 4804SOL     OW25870   0.708   1.240   0.381  0.2236  0.6409  0.0041
 4804SOL    HW125871   0.785   1.235   0.324 -1.1407 -3.5718 -1.5027
 4804SOL    HW225872   0.725   1.325   0.422 -1.7002  0.1744  1.7474
 4805SOL     OW25873   1.016   4.046  17.047  0.7136  0.3013 -0.0442
 4805SOL    HW125874   1.034   4.140  17.043  1.3633  0.0864 -2.1457
 4805SOL    HW225875   1.095   4.020  17.001  1.0202 -0.6896  1.0554
 4806SOL     OW25876   4.077   4.623  17.176  0.2033 -0.0667 -0.1148
 4806SOL    HW125877   4.116   4.554  17.229 -2.7483 -0.9235  0.9657
 4806SOL    HW225878   4.120   4.611  17.091  2.3137 -2.3537  1.2793
 4807SOL     OW25879   3.793   0.425   4.943  0.3812 -0.5508 -0.1166
 4807SOL    HW125880   3.850   0.470   5.005 -0.1406  0.9578 -0.7538
 4807SOL    HW225881   3.849   0.412   4.867 -0.2815 -3.1822 -0.1639
 4808SOL     OW25882   0.317   3.359   3.744  0.5859  0.0921  0.0917
 4808SOL    HW125883   0.284   3.403   3.822 -0.8925 -0.2853 -0.3204
 4808SOL    HW225884   0.308   3.431   3.682  1.0702  0.8821  0.9345
 4809SOL     OW25885   2.635   2.119   7.827 -1.3626 -0.6608  0.5895
 4809SOL    HW125886   2.665   2.039   7.871  1.8577  1.1068  1.5897
 4809SOL    HW225887   2.605   2.167   7.904  1.5308  0.8061  0.8179
 4810SOL     OW25888   1.450   2.951   4.982  0.1607 -0.1525 -0.3658
 4810SOL    HW125889   1.473   2.969   4.891 -1.9273 -0.4075 -0.9491
 4810SOL    HW225890   1.423   2.860   4.974 -0.0186 -0.1463  0.1553
 4811SOL     OW25891   0.223   4.683  15.999  0.5978  0.1814  0.3886
 4811SOL    HW125892   0.135   4.664  16.033  0.8367  0.5284  1.2182
 4811SOL    HW225893   0.208   0.029  15.935  1.3280 -1.0749 -1.1185
 4812SOL     OW25894   3.506   3.477   5.356 -0.2140 -0.4805 -0.1045
 4812SOL    HW125895   3.453   3.480   5.436 -1.0434  0.2131 -0.6784
 4812SOL    HW225896   3.501   3.570   5.337 -0.7584 -0.8934 -1.9768
 4813SOL     OW25897   1.881   0.292  13.999 -0.3914  0.1290  0.3221
 4813SOL    HW125898   1.818   0.361  13.979  0.1524  0.0909 -1.5857
 4813SOL    HW225899   1.823   0.217  13.987 -1.0295  1.0692 -2.6012
 4814SOL     OW25900   0.313   0.638   7.337  0.4601 -0.5439  0.4421
 4814SOL    HW125901   0.332   0.546   7.358 -1.9105 -0.8752  1.0630
 4814SOL    HW225902   0.381   0.675   7.393  1.2182  0.4369 -1.1010
 4815SOL     OW25903   3.872   1.952  16.826 -0.7644  0.3943  0.4113
 4815SOL    HW125904   3.891   1.859  16.833  0.0441  0.7183  2.5282
 4815SOL    HW225905   3.939   1.980  16.763 -1.9390  0.9297 -0.6106
 4816SOL     OW25906   2.124   4.219   1.550 -0.0804  0.0341  0.3990
 4816SOL    HW125907   2.151   4.235   1.460 -1.2834 -1.5884 -0.2495
 4816SOL    HW225908   2.184   4.151   1.580 -0.4128 -0.7381 -0.7190
 4817SOL     OW25909   1.735   1.121   5.648  0.2567  0.2261 -0.2529
 4817SOL    HW125910   1.817   1.115   5.698 -1.0228 -1.0928  1.7003
 4817SOL    HW225911   1.667   1.147   5.711 -0.8048 -0.6866 -1.0343
 4818SOL     OW25912   1.650   4.238   8.228 -0.2791  0.2492  0.2649
 4818SOL    HW125913   1.613   4.320   8.196  0.6264 -0.8154 -3.5011
 4818SOL    HW225914   1.584   4.172   8.204 -0.4770  1.1314 -1.6294
 4819SOL     OW25915   2.277   2.085  13.507  0.3360 -0.5274 -0.4011
 4819SOL    HW125916   2.189   2.122  13.503  1.1248  1.6732  2.4610
 4819SOL    HW225917   2.262   1.993  13.530  0.5846  0.2952  3.0982
 4820SOL     OW25918   1.714   1.033   8.451 -0.1925  0.1819  0.0574
 4820SOL    HW125919   1.671   1.001   8.530 -0.3390 -1.7175 -0.7733
 4820SOL    HW225920   1.659   0.982   8.391  2.3263 -0.4873 -1.7037
 4821SOL     OW25921   3.980   0.201   3.289 -0.5327 -0.1909  0.3301
 4821SOL    HW125922   4.062   0.250   3.289 -1.1566  0.8405  3.3353
 4821SOL    HW225923   3.942   0.259   3.223 -0.1741  1.2249  1.3761
 4822SOL     OW25924   2.127   2.211  15.036 -0.1418  0.0796 -0.6501
 4822SOL    HW125925   2.057   2.261  14.993  1.4102  0.8992 -2.2309
 4822SOL    HW225926   2.079   2.151  15.093 -1.1922  0.6228 -0.9564
 4823SOL     OW25927   1.562   0.677   3.282 -0.0380  0.1431 -0.6575
 4823SOL    HW125928   1.469   0.694   3.294 -0.0959 -0.0969 -0.7697
 4823SOL    HW225929   1.564   0.642   3.193  0.4054 -2.0087  0.1904
 4824SOL     OW25930   0.303   4.697  14.067  0.2790 -0.2778 -0.6576
 4824SOL    HW125931   0.319   4.705  14.161  1.0357  2.3400 -1.0064
 4824SOL    HW225932   0.211   4.721  14.061  0.1339 -0.2256  2.1352
 4825SOL     OW25933   1.704   2.583   7.199  0.5122 -0.1358 -0.1638
 4825SOL    HW125934   1.795   2.567   7.224  0.6418  1.7582  0.5847
 4825SOL    HW225935   1.710   2.605   7.105  0.8814  1.5886  0.2608
 4826SOL     OW25936   4.502   0.979   4.137  0.2482  0.0404 -0.2169
 4826SOL    HW125937   4.552   0.933   4.205 -0.0161  0.4271  0.2475
 4826SOL    HW225938   4.532   0.931   4.060  0.6372 -0.8028  0.4575
 4827SOL     OW25939   2.785   3.515   6.292  0.5947 -0.1937 -0.3175
 4827SOL    HW125940   2.730   3.447   6.253 -0.6569  0.8781 -0.4042
 4827SOL    HW225941   2.780   3.483   6.382  0.5776  0.8618  0.0505
 4828SOL     OW25942   0.183   2.902  10.234  0.4216 -0.7976  0.4300
 4828SOL    HW125943   0.213   2.814  10.255 -0.0162 -0.8368  0.8915
 4828SOL    HW225944   0.215   2.955  10.307 -0.7264 -3.2816  2.7443
 4829SOL     OW25945   1.880   0.217   5.694  0.0070 -0.4074 -0.0159
 4829SOL    HW125946   1.971   0.238   5.673  0.6711 -0.8634  2.3414
 4829SOL    HW225947   1.880   0.128   5.729  3.4890  1.7970  5.7515
 4830SOL     OW25948   3.350   4.174   8.298 -0.4723 -0.4910 -0.5973
 4830SOL    HW125949   3.338   4.094   8.348  1.7742  0.9231  2.1899
 4830SOL    HW225950   3.365   4.147   8.207 -2.3756 -0.2826 -0.9616
 4831SOL     OW25951   1.654   0.111   3.604 -0.3002 -0.2673 -0.3584
 4831SOL    HW125952   1.730   0.108   3.547 -0.5235 -2.8330 -0.5294
 4831SOL    HW225953   1.691   0.169   3.670 -0.3757  1.4400 -1.8251
 4832SOL     OW25954   1.421   1.328   6.895 -0.0560  0.2513 -0.4970
 4832SOL    HW125955   1.431   1.270   6.971 -1.3194 -0.4757 -0.8824
 4832SOL    HW225956   1.326   1.341   6.897  0.1141  1.6472 -1.9651
 4833SOL     OW25957   0.730   4.388  12.901 -0.7377 -0.7736  0.6659
 4833SOL    HW125958   0.642   4.424  12.886 -0.2318 -0.3705 -1.3678
 4833SOL    HW225959   0.746   4.346  12.817 -0.5182  0.2067  0.2246
 4834SOL     OW25960   4.577   1.411   3.808 -0.1182 -0.3246  0.4541
 4834SOL    HW125961   4.571   1.504   3.830  1.3983  0.1473 -1.0920
 4834SOL    HW225962   4.485   1.395   3.786 -0.7562  3.3687  0.4308
 4835SOL     OW25963   0.783   2.337   4.405 -0.1686 -0.5493  0.8541
 4835SOL    HW125964   0.848   2.292   4.351 -1.0596  0.0372 -0.7279
 4835SOL    HW225965   0.811   2.428   4.394  2.0551 -1.4528 -0.9219
 4836SOL     OW25966   0.617   0.632  14.988 -0.1004 -0.1252  0.1963
 4836SOL    HW125967   0.563   0.673  14.920  0.0566 -3.2052 -1.7353
 4836SOL    HW225968   0.586   0.542  14.983 -0.5935  0.2012 -2.4032
 4837SOL     OW25969   2.757   1.049  16.337 -0.4702 -0.0834  0.3590
 4837SOL    HW125970   2.728   0.978  16.279 -0.1987  0.1901 -0.1034
 4837SOL    HW225971   2.809   1.000  16.401  0.6464 -0.1354 -0.5846
 4838SOL     OW25972   3.947   0.994   3.285 -1.0106 -0.2052  0.1421
 4838SOL    HW125973   4.022   1.018   3.339 -0.9372 -0.1480  0.0123
 4838SOL    HW225974   3.882   1.061   3.308 -0.5960 -0.1196  1.0847
 4839SOL     OW25975   3.924   0.314   2.419  0.0006  0.4636  0.3090
 4839SOL    HW125976   3.858   0.379   2.445 -1.5976  0.0443 -2.6745
 4839SOL    HW225977   4.003   0.362   2.394  0.3971 -1.5212 -2.2056
 4840SOL     OW25978   2.389   1.409   6.435  0.0263  0.5800  0.1523
 4840SOL    HW125979   2.316   1.458   6.472  1.2547  1.5398  1.3149
 4840SOL    HW225980   2.456   1.467   6.473  0.3860 -0.5788  1.2896
 4841SOL     OW25981   4.417   3.938   0.675  0.0955 -0.3307  0.1962
 4841SOL    HW125982   4.448   3.853   0.642  1.6596 -0.2806  1.5079
 4841SOL    HW225983   4.447   3.937   0.767  0.2302 -2.8625  0.1386
 4842SOL     OW25984   0.604   0.481  11.622  0.0583  0.1596  0.6600
 4842SOL    HW125985   0.669   0.498  11.690  0.1319  2.6366 -0.0580
 4842SOL    HW225986   0.556   0.563  11.620  0.6988  0.4788 -1.2974
 4843SOL     OW25987   2.752   4.228  10.743  0.0193  0.3288  0.2939
 4843SOL    HW125988   2.747   4.172  10.665 -0.5686  1.4102 -0.4421
 4843SOL    HW225989   2.769   4.156  10.804 -0.6989  1.0071  1.2791
 4844SOL     OW25990   1.034   1.887   0.313 -0.2531 -0.0706 -0.1504
 4844SOL    HW125991   1.035   1.951   0.241 -0.6888 -0.4366 -0.4899
 4844SOL    HW225992   1.042   1.799   0.274 -0.4604  0.0187 -0.4002
 4845SOL     OW25993   4.092   4.522  12.951  0.6364  0.1106  0.0103
 4845SOL    HW125994   4.131   4.607  12.932 -0.1816  0.6529  0.7830
 4845SOL    HW225995   4.165   4.483  12.999  2.0168  0.7542 -1.5700
 4846SOL     OW25996   0.606   0.690   3.879  0.4356  0.5993 -0.2196
 4846SOL    HW125997   0.612   0.762   3.943  0.3561 -1.4947  2.1487
 4846SOL    HW225998   0.692   0.703   3.838  0.1105  1.5440 -0.5980
 4847SOL     OW25999   0.273   2.326  17.202 -0.1230 -0.0200 -0.4534
 4847SOL    HW126000   0.302   2.238  17.227 -0.5066 -0.0242 -0.0283
 4847SOL    HW226001   0.248   2.368  17.284 -3.7576 -3.3552  0.1698
 4848SOL     OW26002   2.800   0.781  16.236  0.0337 -0.2041  0.3540
 4848SOL    HW126003   2.796   0.721  16.161 -0.7037  0.2730  0.0139
 4848SOL    HW226004   2.782   0.728  16.314 -1.2617  1.7144  1.3491
 4849SOL     OW26005   4.339   1.965  14.293 -0.2933 -0.6203  0.1309
 4849SOL    HW126006   4.428   1.936  14.273 -0.3063 -0.6428  0.1068
 4849SOL    HW226007   4.361   2.040  14.348 -0.9568 -0.5442  0.2923
 4850SOL     OW26008   2.607   4.498  11.479 -0.2171  0.7670 -0.4357
 4850SOL    HW126009   2.573   4.570  11.426  0.0337  0.3725 -1.1293
 4850SOL    HW226010   2.598   4.530  11.569  0.6968  0.7120 -0.3165
 4851SOL     OW26011   3.023   1.690   8.655  0.4659  0.3252 -0.1737
 4851SOL    HW126012   3.079   1.720   8.726 -0.9792 -1.0102  1.5230
 4851SOL    HW226013   3.093   1.676   8.591 -2.4295  0.0061 -3.2660
 4852SOL     OW26014   1.459   3.231   8.648 -0.5775 -0.3701  0.4469
 4852SOL    HW126015   1.521   3.159   8.656 -0.1787  0.0665  1.4307
 4852SOL    HW226016   1.464   3.238   8.553 -3.4275 -0.0774  0.3167
 4853SOL     OW26017   4.087   2.964   6.970 -0.0288  0.1206  0.0621
 4853SOL    HW126018   4.109   2.874   6.945 -0.7825  0.8725 -3.3348
 4853SOL    HW226019   4.047   2.986   6.886  0.6033 -2.3353 -0.8848
 4854SOL     OW26020   1.575   0.346   2.821 -0.7657 -0.1358  0.1756
 4854SOL    HW126021   1.574   0.280   2.891 -3.1591  2.8431  2.9347
 4854SOL    HW226022   1.667   0.375   2.826 -0.7762 -0.2040  0.7870
 4855SOL     OW26023   0.548   1.511  14.798 -0.4846 -0.5916  0.0133
 4855SOL    HW126024   0.617   1.551  14.850 -1.3586 -1.0702  1.5637
 4855SOL    HW226025   0.510   1.585  14.751 -0.5043  0.4124  1.6268
 4856SOL     OW26026   3.254   2.437   9.232  0.3619 -0.2673 -0.2235
 4856SOL    HW126027   3.275   2.345   9.243 -1.4019 -0.6343  0.0872
 4856SOL    HW226028   3.276   2.478   9.316 -1.3783  1.0719 -0.4198
 4857SOL     OW26029   0.778   1.320  13.126 -0.3129  0.1161  0.2349
 4857SOL    HW126030   0.858   1.267  13.117 -0.4518  0.4138 -2.9422
 4857SOL    HW226031   0.803   1.399  13.078  1.6316  1.3257  3.2916
 4858SOL     OW26032   1.723   3.112  11.504  0.4137  0.2299  0.5073
 4858SOL    HW126033   1.633   3.137  11.482  0.7679  1.1131  0.0793
 4858SOL    HW226034   1.704   3.023  11.534  2.3099  0.1586  1.4793
 4859SOL     OW26035   2.576   0.403   6.179 -0.4463 -0.0990 -0.3620
 4859SOL    HW126036   2.627   0.484   6.178 -1.2836  0.4257 -0.7640
 4859SOL    HW226037   2.581   0.376   6.088 -0.1938 -0.2671 -0.2974
 4860SOL     OW26038   2.765   3.142   8.814 -0.2520 -0.5279 -0.2406
 4860SOL    HW126039   2.861   3.148   8.815 -0.1537 -2.6899  2.2339
 4860SOL    HW226040   2.762   3.050   8.790  0.5636  0.3326 -3.6386
 4861SOL     OW26041   3.701   4.500  10.003 -0.2054  0.1195  0.1054
 4861SOL    HW126042   3.694   4.489   9.908 -0.3977 -0.7942  0.2205
 4861SOL    HW226043   3.744   4.416  10.019  1.5804  0.4752 -2.6801
 4862SOL     OW26044   0.846   4.670   2.043  0.2720 -0.1672  0.6893
 4862SOL    HW126045   0.921   4.611   2.045 -0.0009 -0.4703  1.9851
 4862SOL    HW226046   0.789   4.618   1.985 -0.5079  2.6174 -1.0160
 4863SOL     OW26047   2.892   1.492   4.001  0.3522 -0.2595 -1.1070
 4863SOL    HW126048   2.898   1.438   3.922  0.9636 -0.8913 -0.6409
 4863SOL    HW226049   2.808   1.535   3.991  0.3053  0.3411  1.8767
 4864SOL     OW26050   4.102   3.946   2.266  0.0467 -0.1321 -0.2848
 4864SOL    HW126051   4.079   3.974   2.177  0.7386 -1.0728 -0.7673
 4864SOL    HW226052   4.117   4.032   2.305  2.3728 -0.2187 -0.9837
 4865SOL     OW26053   3.952   4.440  15.660  0.0629  0.2221  0.3329
 4865SOL    HW126054   3.983   4.496  15.589 -1.3105 -0.7953 -1.0533
 4865SOL    HW226055   3.923   4.505  15.725 -1.3169 -0.5062  0.4323
 4866SOL     OW26056   2.449   2.761   2.526  0.2212  0.5877  0.1673
 4866SOL    HW126057   2.530   2.801   2.494  0.7183 -1.1975 -0.7966
 4866SOL    HW226058   2.378   2.821   2.504  1.1716  2.3813  1.9252
 4867SOL     OW26059   3.124   2.205   5.754 -0.0988  0.3928 -0.3609
 4867SOL    HW126060   3.088   2.258   5.684 -2.0206 -2.3071 -1.4305
 4867SOL    HW226061   3.171   2.144   5.697  1.4612  0.7259  0.5770
 4868SOL     OW26062   4.101   0.562  11.209 -0.2838  0.3707  0.2082
 4868SOL    HW126063   4.192   0.584  11.189 -0.1054 -2.9309 -2.5754
 4868SOL    HW226064   4.113   0.584  11.301 -1.8282 -0.2681  0.5646
 4869SOL     OW26065   4.131   1.248  13.430 -0.1000  0.0432  0.7491
 4869SOL    HW126066   4.193   1.292  13.488  1.3619 -2.2161  0.9013
 4869SOL    HW226067   4.185   1.241  13.352 -1.7184 -3.1572 -0.0784
 4870SOL     OW26068   3.274   2.400  13.989 -0.4736 -0.3544 -0.6802
 4870SOL    HW126069   3.264   2.411  14.084  0.4016  2.9366 -0.9591
 4870SOL    HW226070   3.339   2.330  13.990 -0.7403 -0.5996 -0.2628
 4871SOL     OW26071   1.416   3.101  12.838 -0.3033 -0.4774  0.0353
 4871SOL    HW126072   1.395   3.013  12.872 -2.9092  0.0027 -0.3230
 4871SOL    HW226073   1.446   3.083  12.749  0.6688  0.1511  0.2451
 4872SOL     OW26074   4.425   2.037   0.921 -0.4330 -0.1665 -0.2789
 4872SOL    HW126075   4.355   2.061   0.981  0.0281 -0.3169  0.3180
 4872SOL    HW226076   4.385   2.056   0.836 -0.7742  3.7310  0.7779
 4873SOL     OW26077   0.658   0.621   7.705  0.1532 -0.0420 -0.1599
 4873SOL    HW126078   0.669   0.555   7.774 -0.5313 -0.5493 -0.5294
 4873SOL    HW226079   0.624   0.694   7.756  0.3871 -0.3039  0.3628
 4874SOL     OW26080   2.842   1.302   0.733  0.0406 -0.2967  0.5230
 4874SOL    HW126081   2.887   1.228   0.773  0.2920  0.2029  1.1664
 4874SOL    HW226082   2.902   1.370   0.765 -1.3272 -0.0835  2.5990
 4875SOL     OW26083   0.841   0.844   2.019 -0.1267 -0.4935 -0.4334
 4875SOL    HW126084   0.762   0.871   1.972  0.6052  0.8634 -0.8718
 4875SOL    HW226085   0.812   0.760   2.055 -1.3487 -0.4184 -1.2487
 4876SOL     OW26086   0.282   3.593   2.731 -0.1329 -0.4083 -0.2088
 4876SOL    HW126087   0.191   3.566   2.728 -0.1019 -0.6449  1.2101
 4876SOL    HW226088   0.273   3.654   2.804 -0.0809  0.0979 -0.6237
 4877SOL     OW26089   2.935   4.412   1.258 -0.0375 -0.2288 -0.3114
 4877SOL    HW126090   2.948   4.477   1.327 -1.6267 -1.2711  0.9588
 4877SOL    HW226091   2.906   4.335   1.307  0.1489  1.0233  1.7937
 4878SOL     OW26092   3.317   4.210   5.061 -0.3714  0.3359  0.1311
 4878SOL    HW126093   3.405   4.185   5.089 -0.4236 -0.0043 -0.0066
 4878SOL    HW226094   3.316   4.303   5.039 -1.1528  0.3778  0.3358
 4879SOL     OW26095   3.467   1.628   6.054 -0.3972  0.1898  0.3229
 4879SOL    HW126096   3.482   1.634   6.149 -1.2204  1.4920  0.3750
 4879SOL    HW226097   3.554   1.650   6.019 -0.3210  0.6281  0.7796
 4880SOL     OW26098   3.634   0.485  11.595 -0.3257 -0.3791  0.6420
 4880SOL    HW126099   3.691   0.416  11.562  0.8485 -0.4688  2.8587
 4880SOL    HW226100   3.678   0.564  11.563 -0.6842 -1.0616 -1.5216
 4881SOL     OW26101   1.930   0.329   4.251  0.3092 -0.0943  0.4605
 4881SOL    HW126102   1.944   0.414   4.293  0.7476 -0.2883  0.7025
 4881SOL    HW226103   1.857   0.356   4.195  0.9618  0.0036 -0.3384
 4882SOL     OW26104   3.341   2.943   6.013  0.5981 -0.0121  0.0085
 4882SOL    HW126105   3.333   2.958   6.107  1.1785  0.0649  0.0410
 4882SOL    HW226106   3.420   2.890   6.016 -2.1104 -4.2111 -1.6375
 4883SOL     OW26107   0.041   0.263   5.023 -0.6904 -0.1106  1.0506
 4883SOL    HW126108   0.030   0.210   5.102 -0.8492 -0.5621  0.7250
 4883SOL    HW226109   4.690   0.232   4.971 -0.3532 -0.0385  0.5276
 4884SOL     OW26110   2.879   3.406   2.910  0.4430 -0.0051 -0.7477
 4884SOL    HW126111   2.803   3.388   2.854 -0.5399  0.1949  0.5334
 4884SOL    HW226112   2.946   3.446   2.855 -0.1073 -0.3404 -1.6708
 4885SOL     OW26113   3.412   1.177   8.781 -0.2266 -0.9268  0.3970
 4885SOL    HW126114   3.321   1.151   8.798 -0.4019  0.5974  1.7673
 4885SOL    HW226115   3.402   1.212   8.693 -0.3114 -0.0980  0.7361
 4886SOL     OW26116   4.471   1.377  13.263  0.2641 -0.2593 -0.4150
 4886SOL    HW126117   4.533   1.416  13.325  1.1080  1.0935 -2.0909
 4886SOL    HW226118   4.487   1.431  13.186  0.0314  1.3918  0.6698
 4887SOL     OW26119   1.491   1.562   9.194  0.1397  0.3805 -0.2188
 4887SOL    HW126120   1.399   1.590   9.186  0.1806  0.6125  0.1112
 4887SOL    HW226121   1.491   1.474   9.158  0.2205  0.3685 -0.1886
 4888SOL     OW26122   2.984   3.250   7.482 -0.0415  0.3433  0.0217
 4888SOL    HW126123   2.978   3.334   7.436  3.0350  0.9607  0.7534
 4888SOL    HW226124   2.922   3.197   7.432 -0.8485  1.1382  0.1975
 4889SOL     OW26125   2.441   2.740   0.620 -0.1941  0.6833 -0.3890
 4889SOL    HW126126   2.427   2.646   0.632 -1.5215  0.8372 -0.7532
 4889SOL    HW226127   2.385   2.757   0.544 -0.9074 -0.9327 -0.2266
 4890SOL     OW26128   4.189   1.335  11.307  0.2941  0.1340  0.4372
 4890SOL    HW126129   4.197   1.406  11.370  1.3034  0.9726 -0.6276
 4890SOL    HW226130   4.133   1.272  11.351  0.0889 -0.5861 -0.8395
 4891SOL     OW26131   0.584   1.903   0.122  0.3809  0.3476 -0.3035
 4891SOL    HW126132   0.612   1.835   0.183 -3.0058 -1.7376 -1.0976
 4891SOL    HW226133   0.512   1.858   0.079  0.3111 -0.9753  1.2289
 4892SOL     OW26134   3.655   4.264  14.378  0.5388 -0.3546  0.3545
 4892SOL    HW126135   3.737   4.247  14.424  2.0726  1.2281 -1.7779
 4892SOL    HW226136   3.689   4.280  14.290 -3.5792 -2.5528 -1.6382
 4893SOL     OW26137   1.884   4.401   1.933  0.3221  0.5452 -0.2125
 4893SOL    HW126138   1.867   4.493   1.914 -0.7126  0.2331 -0.7676
 4893SOL    HW226139   1.803   4.367   1.895  1.1230  1.6153 -2.8392
 4894SOL     OW26140   4.105   0.650  11.471 -0.6107  0.2425 -0.2199
 4894SOL    HW126141   4.149   0.734  11.479  0.5356 -0.3698 -0.0374
 4894SOL    HW226142   4.129   0.616  11.558  1.5492 -0.9767 -1.2941
 4895SOL     OW26143   1.464   3.928   4.006  0.4959  0.1324 -0.0862
 4895SOL    HW126144   1.548   3.949   3.966  1.0855 -1.1932  0.4938
 4895SOL    HW226145   1.449   3.851   3.951  4.2311 -1.4936  1.2221
 4896SOL     OW26146   1.942   0.634   9.057  0.2076  0.3452 -0.4106
 4896SOL    HW126147   1.882   0.581   9.109  1.0049 -2.7390 -2.6278
 4896SOL    HW226148   1.939   0.589   8.972  0.5483  2.8643 -1.7650
 4897SOL     OW26149   1.041   4.483   2.040  0.0590  0.6789  0.4230
 4897SOL    HW126150   1.125   4.505   2.079 -0.9646  0.7525  2.5519
 4897SOL    HW226151   1.074   4.459   1.953 -2.1922 -2.9825  0.5689
 4898SOL     OW26152   1.322   0.666  12.972  0.4274  0.3369  0.4722
 4898SOL    HW126153   1.291   0.605  13.039 -0.2974  0.5188  0.2988
 4898SOL    HW226154   1.341   0.596  12.909  0.5305  0.3730  0.4627
 4899SOL     OW26155   4.029   0.918   7.149 -0.0987  0.6762  0.2071
 4899SOL    HW126156   3.975   0.996   7.156 -1.5808 -0.4570  1.2729
 4899SOL    HW226157   4.117   0.956   7.152  1.0311 -1.8473 -0.4669
 4900SOL     OW26158   0.570   0.199   0.083 -0.4063 -0.5250  0.0903
 4900SOL    HW126159   0.561   0.143   0.160 -0.1033  0.8033  1.0767
 4900SOL    HW226160   0.597   0.278   0.129 -2.7861  0.7239 -0.6867
 4901SOL     OW26161   0.031   2.447   4.964  0.1889  0.4748 -0.5979
 4901SOL    HW126162   4.705   2.529   4.971 -0.2529 -0.0371  1.9882
 4901SOL    HW226163   0.052   2.419   5.053 -2.4507 -0.4276 -0.2577
 4902SOL     OW26164   3.294   3.319   7.692  0.0774  0.0662 -0.5963
 4902SOL    HW126165   3.211   3.281   7.722 -1.0875  2.0415 -1.2876
 4902SOL    HW226166   3.302   3.263   7.615  3.2877  0.0602 -0.2603
 4903SOL     OW26167   2.665   4.412   7.191  0.2813 -0.3508 -0.0401
 4903SOL    HW126168   2.678   4.493   7.141 -1.5515  0.5052  0.8770
 4903SOL    HW226169   2.569   4.408   7.190  0.2796 -0.2192 -1.2345
 4904SOL     OW26170   1.007   2.347  15.612 -0.1470  0.5723 -0.1787
 4904SOL    HW126171   0.968   2.316  15.694  1.6114  0.0321  0.4648
 4904SOL    HW226172   1.098   2.363  15.638 -0.3922 -1.3448  1.9159
 4905SOL     OW26173   2.386   1.586   7.308 -0.0002  0.2877  0.5508
 4905SOL    HW126174   2.448   1.532   7.356  1.4927  0.8035 -0.8096
 4905SOL    HW226175   2.304   1.557   7.348  0.0022 -0.2822  0.1536
 4906SOL     OW26176   4.204   2.671   7.992 -0.3104 -0.1293  0.0539
 4906SOL    HW126177   4.146   2.662   8.068 -0.2091  0.5083  0.2037
 4906SOL    HW226178   4.176   2.605   7.929  2.7584 -0.6743 -0.7576
 4907SOL     OW26179   0.990   1.573  16.217  0.1208 -0.2771 -0.2310
 4907SOL    HW126180   0.946   1.490  16.234 -0.0891 -0.3385 -1.0689
 4907SOL    HW226181   0.976   1.619  16.300 -0.2309 -1.0724  0.1562
 4908SOL     OW26182   4.448   1.743  13.671  0.1112 -0.1454  0.1709
 4908SOL    HW126183   4.480   1.830  13.649  0.5991 -0.9910 -2.4387
 4908SOL    HW226184   4.453   1.751  13.766 -0.6985 -0.1796  0.2202
 4909SOL     OW26185   2.059   4.635   6.346  0.4044  0.0725 -0.1408
 4909SOL    HW126186   2.153   4.653   6.346  0.6838 -1.3355  0.7771
 4909SOL    HW226187   2.062   4.544   6.317 -0.5304 -0.4527  1.4047
 4910SOL     OW26188   0.794   4.474   5.875  0.6282 -0.2092 -0.2076
 4910SOL    HW126189   0.811   4.508   5.787  0.5894  0.8647  0.2083
 4910SOL    HW226190   0.749   4.541   5.925 -0.4998 -0.4938 -0.8366
 4911SOL     OW26191   1.059   0.185   8.184  0.0792 -0.4333  0.1787
 4911SOL    HW126192   1.059   0.212   8.276  0.2358  0.2394 -0.0176
 4911SOL    HW226193   1.131   0.122   8.176  0.4204  0.2304 -1.9859
 4912SOL     OW26194   1.349   2.855  12.923 -0.3747  0.1433 -0.1019
 4912SOL    HW126195   1.256   2.832  12.929 -0.3431  0.1473  0.4457
 4912SOL    HW226196   1.379   2.785  12.864 -0.2358 -0.0649  0.2140
 4913SOL     OW26197   2.597   1.779  10.844  0.6008 -0.3418 -0.0141
 4913SOL    HW126198   2.657   1.713  10.878  0.4654 -0.2058  0.4965
 4913SOL    HW226199   2.525   1.766  10.906 -0.1036 -1.9463 -1.1580
 4914SOL     OW26200   2.878   1.319   4.660  0.6992 -0.0911 -0.1452
 4914SOL    HW126201   2.906   1.397   4.613  1.1246  0.4156  0.9401
 4914SOL    HW226202   2.877   1.256   4.588 -2.0822 -0.6134  0.3485
 4915SOL     OW26203   3.418   1.434   7.471  0.7026 -0.0051  0.2990
 4915SOL    HW126204   3.414   1.486   7.391 -2.7700 -1.6796 -0.6057
 4915SOL    HW226205   3.363   1.484   7.531 -0.5370  0.9057 -1.5978
 4916SOL     OW26206   3.116   0.043  16.842 -0.2524  0.1784 -0.1758
 4916SOL    HW126207   3.089   0.096  16.917 -1.2116 -1.2375  0.4819
 4916SOL    HW226208   3.160   4.695  16.891  0.9794 -0.2844 -1.9477
 4917SOL     OW26209   2.130   1.329   8.904 -0.0442 -0.2037 -0.0477
 4917SOL    HW126210   2.110   1.413   8.862 -1.9958 -0.3366  0.6217
 4917SOL    HW226211   2.108   1.337   8.997  0.6311 -2.8441  0.3559
 4918SOL     OW26212   2.677   2.934   3.940 -0.1064 -0.4019 -0.6329
 4918SOL    HW126213   2.641   2.869   3.880 -0.0051  0.4318 -1.6084
 4918SOL    HW226214   2.753   2.886   3.974 -0.6669 -0.7488  0.1420
 4919SOL     OW26215   4.515   3.860   0.283  0.0655 -0.3686  0.1014
 4919SOL    HW126216   4.521   3.790   0.347  0.1855  1.4621  2.1091
 4919SOL    HW226217   4.572   3.930   0.316  0.4258 -0.7665  0.3147
 4920SOL     OW26218   3.245   2.330   4.704 -0.3038  0.0101 -0.2597
 4920SOL    HW126219   3.275   2.302   4.791  1.3675  0.5003 -0.6777
 4920SOL    HW226220   3.151   2.318   4.714 -0.2244  0.1911  0.8044
 4921SOL     OW26221   2.746   4.145   0.731  0.0769  0.0383 -0.0180
 4921SOL    HW126222   2.744   4.222   0.788  0.0363 -0.4917  0.6919
 4921SOL    HW226223   2.682   4.083   0.766  0.8943 -1.2345 -0.7543
 4922SOL     OW26224   2.068   3.775  14.307  0.1382 -0.1033  0.1709
 4922SOL    HW126225   2.150   3.765  14.356 -0.9894 -1.2961  1.8191
 4922SOL    HW226226   2.005   3.772  14.378  0.5607 -2.8974  0.4397
 4923SOL     OW26227   1.263   2.347   8.464  0.2758 -0.2418  0.5215
 4923SOL    HW126228   1.232   2.422   8.515  0.0476  0.4415 -0.6249
 4923SOL    HW226229   1.313   2.288   8.520 -3.6171 -2.2353  1.8573
 4924SOL     OW26230   4.401   2.895   6.859 -0.4082  0.2215  0.0744
 4924SOL    HW126231   4.456   2.965   6.825 -0.1462  0.0540  0.1565
 4924SOL    HW226232   4.456   2.817   6.848 -1.5742 -0.8711  2.1110
 4925SOL     OW26233   1.268   3.196   8.202  0.1338  0.0927  0.1569
 4925SOL    HW126234   1.266   3.199   8.298 -3.4916  0.0528  0.1077
 4925SOL    HW226235   1.185   3.154   8.181  1.4616 -2.1307 -0.6040
 4926SOL     OW26236   3.308   2.098  10.044 -0.0145 -0.1367 -0.3406
 4926SOL    HW126237   3.341   2.009  10.057 -2.8909 -1.1873 -0.1665
 4926SOL    HW226238   3.220   2.077  10.013 -0.7308  0.4830  1.3285
 4927SOL     OW26239   1.113   1.371   8.435  0.0215  0.1287  0.0797
 4927SOL    HW126240   1.179   1.372   8.504  1.7401 -4.4374 -1.5044
 4927SOL    HW226241   1.090   1.278   8.440 -2.3078  0.6300 -1.1388
 4928SOL     OW26242   3.951   2.835   0.387  0.0416 -0.1622 -0.2154
 4928SOL    HW126243   4.028   2.778   0.388  1.2566  1.4934 -1.0739
 4928SOL    HW226244   3.904   2.797   0.461  0.8882 -1.0693 -0.1410
 4929SOL     OW26245   4.610   3.324   5.443 -0.1394  0.3574 -0.3595
 4929SOL    HW126246   4.696   3.323   5.402  0.4655  0.6851  0.9071
 4929SOL    HW226247   4.587   3.231   5.448 -3.3069  1.0688 -1.7356
 4930SOL     OW26248   3.265   3.053   3.976 -0.0376  0.7724  0.5141
 4930SOL    HW126249   3.188   3.086   3.929 -0.2797 -0.0378  0.3269
 4930SOL    HW226250   3.333   3.098   3.926  0.5699 -1.8809 -1.0342
 4931SOL     OW26251   0.953   0.651   0.177 -0.0929  0.0771 -0.0960
 4931SOL    HW126252   0.882   0.625   0.118 -1.2880  0.8829  0.9782
 4931SOL    HW226253   1.017   0.686   0.116 -0.5247  0.0919 -0.5431
 4932SOL     OW26254   2.384   2.877  17.501 -0.3956 -0.0929 -0.0485
 4932SOL    HW126255   2.437   2.876  17.580  3.6501 -2.1324 -2.7769
 4932SOL    HW226256   2.433   2.933  17.441 -1.8568  1.5642  0.3128
 4933SOL     OW26257   1.466   1.823  11.694 -0.1954  0.3417  0.0909
 4933SOL    HW126258   1.464   1.915  11.720 -0.1328 -0.1494  1.8094
 4933SOL    HW226259   1.509   1.835  11.609 -2.2966  2.1076 -0.7180
 4934SOL     OW26260   0.486   4.693  10.342 -0.1019  0.4741 -0.4817
 4934SOL    HW126261   0.393   4.717  10.350  0.5280  2.5702  0.5349
 4934SOL    HW226262   0.483   4.601  10.315  0.9630  0.1254  0.5885
 4935SOL     OW26263   4.129   0.467   7.045  0.2131 -0.2720 -0.5685
 4935SOL    HW126264   4.037   0.449   7.029 -0.0207 -1.1839  1.7321
 4935SOL    HW226265   4.134   0.560   7.068  2.0975 -0.5211  0.0794
 4936SOL     OW26266   3.685   2.822   0.901 -0.2232 -0.6715  0.2570
 4936SOL    HW126267   3.718   2.912   0.894 -4.3262  0.9585  1.6885
 4936SOL    HW226268   3.603   2.843   0.945  1.1512  1.8372  1.6559
 4937SOL     OW26269   1.801   1.761   9.852  0.2197 -0.6921 -0.3342
 4937SOL    HW126270   1.726   1.750   9.794  1.1340  1.0729 -1.8599
 4937SOL    HW226271   1.842   1.683   9.815  1.0924 -0.5389  0.2903
 4938SOL     OW26272   4.095   3.891  12.648  0.1232 -0.1580 -0.3894
 4938SOL    HW126273   4.181   3.927  12.668  0.1497 -0.7033  0.4861
 4938SOL    HW226274   4.115   3.811  12.601 -1.7105 -0.8059 -0.0606
 4939SOL     OW26275   3.919   1.888   8.333  0.4055 -0.2546  0.2395
 4939SOL    HW126276   3.845   1.948   8.327  0.5643 -0.2376 -1.5467
 4939SOL    HW226277   3.901   1.840   8.414 -2.5289 -0.8640 -0.7528
 4940SOL     OW26278   4.187   4.265   3.960 -0.1879  0.6816 -0.1250
 4940SOL    HW126279   4.188   4.226   4.048  2.7215 -0.4413 -0.6588
 4940SOL    HW226280   4.098   4.298   3.948  0.0062  1.5950  0.9526
 4941SOL     OW26281   2.155   0.238   5.609  0.4984 -0.1204  0.6898
 4941SOL    HW126282   2.135   0.154   5.569 -1.3227  1.4741 -1.7439
 4941SOL    HW226283   2.221   0.221   5.676  1.6169  2.5593  0.2590
 4942SOL     OW26284   4.380   2.361   7.953  0.4544 -0.2509  0.1650
 4942SOL    HW126285   4.345   2.279   7.918  0.0306 -1.1747  2.7043
 4942SOL    HW226286   4.319   2.374   8.026  1.2130  3.4142  0.1306
 4943SOL     OW26287   2.880   0.264  15.219  0.6106  0.3928 -0.6024
 4943SOL    HW126288   2.934   0.259  15.140 -1.3829 -0.2303 -1.9218
 4943SOL    HW226289   2.833   0.343  15.191 -0.5396  0.4159  1.3864
 4944SOL     OW26290   1.071   0.833  15.319 -0.3733  0.4638  0.1525
 4944SOL    HW126291   1.042   0.834  15.228  1.7407  1.2994 -0.4928
 4944SOL    HW226292   1.101   0.742  15.329 -0.9900  0.0764 -1.5312
 4945SOL     OW26293   2.311   1.731   9.525  0.2374  0.6971  0.4941
 4945SOL    HW126294   2.231   1.710   9.573  1.0395 -1.9753  0.6546
 4945SOL    HW226295   2.370   1.734   9.600  0.1358 -0.8152  0.6412
 4946SOL     OW26296   0.388   0.841   1.914 -0.7624 -0.5148  0.2225
 4946SOL    HW126297   0.449   0.911   1.936 -1.5577 -0.3098  1.7504
 4946SOL    HW226298   0.315   0.846   1.976 -0.1940  0.7499  0.7919
 4947SOL     OW26299   1.645   4.027   6.658  0.5625 -0.0138 -0.1382
 4947SOL    HW126300   1.642   4.039   6.563  0.1456 -0.1216 -0.1373
 4947SOL    HW226301   1.663   4.115   6.689  0.6609 -0.8441  2.1050
 4948SOL     OW26302   0.743   3.096  10.482  0.0044 -0.1097  0.7252
 4948SOL    HW126303   0.800   3.023  10.507  1.0316  0.1233 -0.9224
 4948SOL    HW226304   0.691   3.046  10.419 -1.5889  3.1475 -0.5643
 4949SOL     OW26305   3.872   1.825   1.930 -0.3288 -0.4768  0.8027
 4949SOL    HW126306   3.929   1.901   1.928 -1.1735  0.0851 -1.4254
 4949SOL    HW226307   3.929   1.760   1.889  0.2688  1.3379 -1.2030
 4950SOL     OW26308   4.534   2.241   6.968 -0.0403  0.1394  0.4900
 4950SOL    HW126309   4.561   2.156   7.001  1.3190  1.0231  1.6351
 4950SOL    HW226310   4.484   2.216   6.890 -4.2075  1.2073  2.8363
 4951SOL     OW26311   1.733   2.888   1.568  0.5973 -0.5157 -0.4227
 4951SOL    HW126312   1.658   2.941   1.596 -0.8996 -0.4703 -4.4778
 4951SOL    HW226313   1.710   2.817   1.629 -0.7418  0.9975  0.8203
 4952SOL     OW26314   3.175   4.710   4.485 -0.2892  0.4659 -0.4031
 4952SOL    HW126315   3.116   4.656   4.538  0.4239 -1.4343 -1.6012
 4952SOL    HW226316   3.233   4.643   4.449  0.8344  2.2271 -1.8718
 4953SOL     OW26317   1.168   1.511  13.020 -0.2581 -0.0274 -0.4828
 4953SOL    HW126318   1.207   1.597  13.001  1.6212 -0.9646 -0.8250
 4953SOL    HW226319   1.078   1.542  13.027 -0.2944 -0.2841  0.1101
 4954SOL     OW26320   1.221   4.105   2.078  0.1555 -0.0141 -0.2334
 4954SOL    HW126321   1.216   4.086   1.985 -1.9299  0.5238 -0.2393
 4954SOL    HW226322   1.276   4.029   2.098 -0.1416 -0.8766 -2.7297
 4955SOL     OW26323   3.699   0.978   1.768 -0.3779  0.0208 -0.0785
 4955SOL    HW126324   3.704   1.054   1.826  0.6560 -0.2015  0.1293
 4955SOL    HW226325   3.747   1.012   1.693 -0.0371 -0.0824  0.0932
 4956SOL     OW26326   3.124   0.350   5.537 -0.1592  0.1161  0.3031
 4956SOL    HW126327   3.134   0.255   5.535 -1.9685 -0.0580 -0.7454
 4956SOL    HW226328   3.079   0.362   5.620 -0.2357  1.1173  0.1246
 4957SOL     OW26329   1.842   3.757   4.166  0.1540 -0.0885  0.1927
 4957SOL    HW126330   1.917   3.774   4.222  1.0133 -2.1184 -0.3271
 4957SOL    HW226331   1.776   3.718   4.223 -0.1241  1.6559  1.0419
 4958SOL     OW26332   2.129   2.785   3.148  0.1841 -0.0520  0.0152
 4958SOL    HW126333   2.110   2.835   3.069 -2.8508  1.0565  1.4650
 4958SOL    HW226334   2.124   2.695   3.115  3.9456 -0.0244 -0.6100
 4959SOL     OW26335   1.925   3.261   3.870 -0.3993 -0.2067  0.1897
 4959SOL    HW126336   1.982   3.337   3.871 -1.7332  0.7936  0.0118
 4959SOL    HW226337   1.981   3.191   3.836 -1.3751  0.4721 -2.7448
 4960SOL     OW26338   2.840   2.776   4.094  0.1226  0.6034 -0.0377
 4960SOL    HW126339   2.825   2.683   4.110  0.1548  0.8789  1.6015
 4960SOL    HW226340   2.935   2.786   4.102 -0.0121 -0.2943  2.6952
 4961SOL     OW26341   0.185   1.135   9.290 -0.0045  0.0780  0.0007
 4961SOL    HW126342   0.107   1.088   9.320 -0.3880 -0.2837 -1.5852
 4961SOL    HW226343   0.170   1.222   9.327 -0.1268  1.0205 -2.2913
 4962SOL     OW26344   4.655   4.179   2.997  0.2912  0.3043  0.5320
 4962SOL    HW126345   4.646   4.252   2.936  0.8067  0.5447  0.7450
 4962SOL    HW226346   0.022   4.188   3.028 -0.2706  1.8200  1.6748
 4963SOL     OW26347   4.353   2.085   2.609 -0.0775 -0.6264 -0.3314
 4963SOL    HW126348   4.368   2.004   2.560  0.7245 -1.7305  1.7483
 4963SOL    HW226349   4.379   2.140   2.535 -0.6942 -0.5009 -0.4534
 4964SOL     OW26350   2.201   3.109   1.766 -0.4766 -0.1006 -0.3704
 4964SOL    HW126351   2.142   3.065   1.827 -0.5332  1.2801  0.5926
 4964SOL    HW226352   2.222   3.027   1.721 -1.6095 -0.3304 -0.4610
 4965SOL     OW26353   3.815   1.267   6.136  0.4453  0.1025 -0.4937
 4965SOL    HW126354   3.863   1.194   6.174 -1.1786 -1.2556 -1.0479
 4965SOL    HW226355   3.750   1.285   6.204  1.1368  1.4178 -0.1827
 4966SOL     OW26356   2.235   0.904   5.562  0.2382  0.1544 -0.7143
 4966SOL    HW126357   2.269   0.839   5.623  1.6204  0.1194 -1.5294
 4966SOL    HW226358   2.204   0.843   5.495 -1.1322  0.2342 -0.1524
 4967SOL     OW26359   1.196   0.276   9.178  0.1763 -0.6823  0.1696
 4967SOL    HW126360   1.230   0.294   9.266  2.2260 -1.6809 -0.4137
 4967SOL    HW226361   1.205   0.364   9.142  0.1268 -1.1131 -0.8966
 4968SOL     OW26362   4.509   1.583  11.004 -0.3407  0.2375  0.2175
 4968SOL    HW126363   4.519   1.668  11.047 -4.2057  0.8034 -0.0657
 4968SOL    HW226364   4.423   1.588  10.963  0.2005 -1.1469 -1.1077
 4969SOL     OW26365   0.188   1.842  16.260 -0.5441 -0.1448  0.0559
 4969SOL    HW126366   0.127   1.823  16.188  1.0697  0.2729 -1.4417
 4969SOL    HW226367   0.271   1.829  16.214  1.4684  1.4411  3.3024
 4970SOL     OW26368   3.940   3.157   3.898  0.0220  0.0290  0.3574
 4970SOL    HW126369   3.922   3.125   3.810  0.1570  1.4955 -0.2054
 4970SOL    HW226370   3.954   3.250   3.879  1.3000 -0.3118 -0.3372
 4971SOL     OW26371   4.258   2.243   9.135  0.0178 -0.3676 -0.6580
 4971SOL    HW126372   4.250   2.201   9.221 -0.3716  3.1064  0.9909
 4971SOL    HW226373   4.338   2.204   9.099 -0.9705 -1.3000 -1.8350
 4972SOL     OW26374   4.320   3.677   3.941  0.1192  0.1365 -0.4511
 4972SOL    HW126375   4.333   3.586   3.913  1.5494  0.2779 -0.2528
 4972SOL    HW226376   4.411   3.707   3.940  0.5177 -0.9723  0.9975
 4973SOL     OW26377   1.253   2.420  15.700  0.0103 -0.2165 -0.0428
 4973SOL    HW126378   1.307   2.496  15.679  1.2191 -1.3309 -0.9825
 4973SOL    HW226379   1.242   2.419  15.795  0.4545  1.8255  0.0222
 4974SOL     OW26380   1.500   4.481   5.631  0.4352  1.0849  0.6576
 4974SOL    HW126381   1.547   4.401   5.607  0.4882  1.1915  0.3986
 4974SOL    HW226382   1.488   4.526   5.547  0.5085  0.1531  0.1421
 4975SOL     OW26383   0.278   0.118   7.012 -0.3520 -0.2457 -0.3610
 4975SOL    HW126384   0.287   0.213   7.002 -1.0851 -0.0775  0.5906
 4975SOL    HW226385   0.245   0.123   7.102 -0.0970 -1.5369 -0.1922
 4976SOL     OW26386   0.558   1.372   8.186 -0.5906  0.1011  0.1207
 4976SOL    HW126387   0.539   1.377   8.280 -1.0914 -3.1006  0.1917
 4976SOL    HW226388   0.521   1.455   8.156  1.3506  0.7423 -0.4553
 4977SOL     OW26389   3.285   3.158   7.476 -0.5329  0.0879 -0.2701
 4977SOL    HW126390   3.218   3.154   7.408  0.7442  0.9270 -1.5907
 4977SOL    HW226391   3.358   3.125   7.424 -0.4607  1.2287 -0.9050
 4978SOL     OW26392   1.444   1.378  13.855 -0.0254  0.2359 -0.1355
 4978SOL    HW126393   1.411   1.422  13.934  0.6752  0.1425  0.2098
 4978SOL    HW226394   1.445   1.287  13.885 -1.1719 -0.2809 -1.6727
 4979SOL     OW26395   2.669   3.163   3.670  0.3274 -0.0643  0.1178
 4979SOL    HW126396   2.604   3.232   3.689  0.0260 -0.5404  0.8085
 4979SOL    HW226397   2.611   3.104   3.622 -0.0022  0.8415 -0.6047
 4980SOL     OW26398   1.487   3.925   1.091 -0.2899  0.4315  0.1046
 4980SOL    HW126399   1.474   3.933   0.996  0.6581  1.9059  0.1038
 4980SOL    HW226400   1.575   3.962   1.098 -1.8341  4.3575 -1.4934
 4981SOL     OW26401   1.783   3.239   8.281 -0.2490  0.1404 -0.1083
 4981SOL    HW126402   1.766   3.262   8.190  0.3626  1.9327  0.2261
 4981SOL    HW226403   1.830   3.156   8.270 -1.2897 -0.4815  0.1112
 4982SOL     OW26404   0.568   3.544   3.003  0.0336 -0.7493  0.1350
 4982SOL    HW126405   0.582   3.476   3.069  0.3647 -2.1674 -1.3799
 4982SOL    HW226406   0.473   3.552   3.008  0.1420  0.6809 -0.2493
 4983SOL     OW26407   3.805   4.305   4.236 -0.5217 -0.2845 -0.5642
 4983SOL    HW126408   3.720   4.338   4.267  0.0212  0.0316  0.5807
 4983SOL    HW226409   3.865   4.375   4.260  0.6405 -1.3741 -0.2880
 4984SOL     OW26410   0.333   2.362   9.773 -0.0317 -0.3590 -0.6880
 4984SOL    HW126411   0.378   2.293   9.821  1.7018  0.7506 -0.7351
 4984SOL    HW226412   0.390   2.438   9.783 -0.6555 -0.0355  0.3570
 4985SOL     OW26413   3.179   0.656  14.481  0.5353  0.1467  0.1426
 4985SOL    HW126414   3.257   0.632  14.430 -0.1173 -1.4726 -0.0777
 4985SOL    HW226415   3.185   0.752  14.487  1.0740  0.2410 -1.6830
 4986SOL     OW26416   2.326   4.385  11.509  0.1451 -0.3265  0.8383
 4986SOL    HW126417   2.368   4.447  11.568  0.8625  1.0113 -1.0456
 4986SOL    HW226418   2.391   4.383  11.438  0.4479 -2.4637  1.1897
 4987SOL     OW26419   1.490   4.135   7.552 -0.7604 -0.1354 -0.0223
 4987SOL    HW126420   1.473   4.120   7.459  0.2617  3.4251 -0.8003
 4987SOL    HW226421   1.502   4.230   7.558 -3.0879  0.2159 -0.8478
 4988SOL     OW26422   1.468   3.557  16.841 -0.5537 -0.1887  0.6215
 4988SOL    HW126423   1.404   3.546  16.911  0.9255 -2.0835  1.6432
 4988SOL    HW226424   1.461   3.653  16.834 -1.6392 -0.3948 -1.3385
 4989SOL     OW26425   4.119   3.439   5.798 -0.8068 -0.3769 -0.4973
 4989SOL    HW126426   4.192   3.498   5.778 -1.5872  1.6172  2.6022
 4989SOL    HW226427   4.099   3.450   5.891  2.4763 -0.5771  0.2262
 4990SOL     OW26428   1.713   0.322   2.408 -0.0189 -0.0909 -0.5506
 4990SOL    HW126429   1.703   0.300   2.316 -1.4551 -1.4720 -0.0681
 4990SOL    HW226430   1.802   0.358   2.416  0.2439 -0.6024 -1.2532
 4991SOL     OW26431   0.837   2.814   5.789  0.2074  0.0083 -0.3483
 4991SOL    HW126432   0.919   2.805   5.740  0.0355 -1.6517 -0.3190
 4991SOL    HW226433   0.870   2.805   5.878  0.0585  0.6866 -0.2235
 4992SOL     OW26434   0.168   1.001   8.664  0.4135 -0.2126  0.4807
 4992SOL    HW126435   0.240   0.941   8.686 -0.3881 -0.7332  1.6713
 4992SOL    HW226436   0.097   0.948   8.627  0.0710  1.0971 -0.6951
 4993SOL     OW26437   2.348   0.192   8.501  0.2644 -0.1173  0.3620
 4993SOL    HW126438   2.319   0.110   8.462  1.9208 -0.5207 -0.0385
 4993SOL    HW226439   2.418   0.169   8.563  0.7609  1.0792  0.2607
 4994SOL     OW26440   3.578   4.574   2.358 -0.2068 -0.0015 -0.6204
 4994SOL    HW126441   3.577   4.483   2.326  0.5758 -0.2597  0.0808
 4994SOL    HW226442   3.604   4.625   2.282  1.4042  0.4360  0.2331
 4995SOL     OW26443   2.090   2.159   9.203 -0.4601  0.5615 -0.4630
 4995SOL    HW126444   2.185   2.150   9.197 -0.5467 -0.8165  0.0988
 4995SOL    HW226445   2.072   2.176   9.111 -0.5273  1.0116 -0.3649
 4996SOL     OW26446   1.683   1.376  13.738  0.0798 -0.3072  0.1987
 4996SOL    HW126447   1.721   1.414  13.817 -1.4794 -2.0227  1.7555
 4996SOL    HW226448   1.591   1.362  13.757 -0.3503  0.4741 -1.2606
 4997SOL     OW26449   3.508   1.923  15.246  0.5740  0.0099  0.6436
 4997SOL    HW126450   3.469   2.008  15.267  0.5565  0.6438 -1.8866
 4997SOL    HW226451   3.567   1.909  15.319  1.6674  1.6744  0.1062
 4998SOL     OW26452   1.072   1.063   3.603 -0.0688  0.4675 -0.4887
 4998SOL    HW126453   1.139   1.118   3.643 -0.9515  0.7298  0.6441
 4998SOL    HW226454   1.098   1.065   3.511  1.2525 -0.9016 -0.1567
 4999SOL     OW26455   0.811   0.081   6.874 -0.0256  0.1007 -0.3897
 4999SOL    HW126456   0.733   0.029   6.893  1.3587 -0.9567  2.4701
 4999SOL    HW226457   0.781   0.161   6.832  0.5684  2.0714  2.9078
 5000SOL     OW26458   4.182   3.035  14.313  0.0794 -0.0710  0.2888
 5000SOL    HW126459   4.210   3.035  14.221 -2.1896  0.3863 -0.3944
 5000SOL    HW226460   4.110   2.973  14.322 -0.3566  0.3100 -0.6163
 5001SOL     OW26461   2.225   1.739  12.860  0.0896 -0.4909  0.7978
 5001SOL    HW126462   2.231   1.716  12.953  2.1815  0.0266  0.7802
 5001SOL    HW226463   2.183   1.825  12.868  0.0824 -0.5381  1.2954
 5002SOL     OW26464   2.620   4.375   5.737 -0.0100  0.1314  0.0018
 5002SOL    HW126465   2.715   4.379   5.740 -0.0433 -0.8130  1.9075
 5002SOL    HW226466   2.597   4.287   5.768 -0.6966 -0.1652 -1.3450
 5003SOL     OW26467   0.123   0.375   4.268 -0.2176 -0.2514  0.2773
 5003SOL    HW126468   0.115   0.343   4.357 -1.7975 -4.1279 -1.2615
 5003SOL    HW226469   0.150   0.295   4.224  0.2712 -0.2102  0.4998
 5004SOL     OW26470   3.045   2.585   4.590  0.0560 -0.4891  0.4456
 5004SOL    HW126471   3.019   2.675   4.610 -1.6715 -0.7365 -0.6600
 5004SOL    HW226472   3.088   2.560   4.672  1.0089 -0.4738 -0.0538
 5005SOL     OW26473   2.657   1.161   9.608  0.2334 -0.8059  0.0882
 5005SOL    HW126474   2.570   1.192   9.633  0.4427 -0.0432 -0.1335
 5005SOL    HW226475   2.643   1.086   9.551  2.3180 -2.5381  1.8471
 5006SOL     OW26476   1.302   1.602   3.652 -0.1330  0.3429  0.1433
 5006SOL    HW126477   1.301   1.670   3.718  0.6362  0.6754 -0.1979
 5006SOL    HW226478   1.258   1.532   3.701 -1.3744  1.5764  0.8020
 5007SOL     OW26479   2.684   0.700  13.790 -0.7566 -0.7097 -0.4364
 5007SOL    HW126480   2.739   0.774  13.815  0.7703 -1.9960 -0.0128
 5007SOL    HW226481   2.727   0.630  13.838  0.1541 -0.1547 -0.4517
 5008SOL     OW26482   0.518   3.932   7.923  0.3928  0.0726 -0.4436
 5008SOL    HW126483   0.492   3.999   7.859 -0.3629  1.5127  1.3722
 5008SOL    HW226484   0.445   3.938   7.984  1.4865 -1.5106  1.0166
 5009SOL     OW26485   3.539   2.026   4.215  0.1563 -0.4100  0.5932
 5009SOL    HW126486   3.588   2.008   4.135 -0.4248 -2.0475  0.6200
 5009SOL    HW226487   3.565   1.957   4.276 -1.1321  0.1510  1.7723
 5010SOL     OW26488   2.941   4.033  14.945  0.2583  0.3826 -0.2344
 5010SOL    HW126489   2.858   4.011  14.903  0.6510 -0.2235 -0.7174
 5010SOL    HW226490   2.981   4.084  14.874  0.8133 -0.9053 -0.8592
 5011SOL     OW26491   1.376   2.577   9.640  0.4243  0.3142  0.4347
 5011SOL    HW126492   1.378   2.595   9.734 -0.6124  2.1159  0.1051
 5011SOL    HW226493   1.462   2.606   9.609  0.9697 -1.7534  0.0035
 5012SOL     OW26494   2.020   2.828   7.425  0.3727  0.0790 -0.3949
 5012SOL    HW126495   1.965   2.870   7.359 -1.6338  0.6972  1.7028
 5012SOL    HW226496   1.951   2.768   7.451 -1.1899  1.9813 -0.1711
 5013SOL     OW26497   4.224   1.950   5.667  0.0392  0.0270  0.0859
 5013SOL    HW126498   4.236   2.019   5.602 -0.5197  0.3938  0.3682
 5013SOL    HW226499   4.227   1.877   5.606 -2.2024  0.4371 -0.5138
 5014SOL     OW26500   2.759   2.758   7.186 -0.1700 -0.8521 -0.1958
 5014SOL    HW126501   2.707   2.796   7.257  0.4923  0.9267 -0.6930
 5014SOL    HW226502   2.847   2.794   7.192  0.4188 -2.0088 -1.9590
 5015SOL     OW26503   2.862   2.721   0.387  0.5478 -0.1800  0.2403
 5015SOL    HW126504   2.904   2.807   0.391 -0.0807  0.1400 -0.2064
 5015SOL    HW226505   2.941   2.666   0.393  0.7823  0.1079 -0.2381
 5016SOL     OW26506   3.113   2.869   4.089 -0.1839 -0.0477  0.2121
 5016SOL    HW126507   3.118   2.896   4.181  0.3165 -0.5680  0.3398
 5016SOL    HW226508   3.185   2.922   4.053 -0.5234  0.3671  0.1479
 5017SOL     OW26509   4.681   2.763  16.171 -0.0996  0.3538  0.0842
 5017SOL    HW126510   4.609   2.721  16.123  1.2096 -0.4165 -1.2226
 5017SOL    HW226511   4.627   2.841  16.182 -0.9032  0.0791 -1.7538
 5018SOL     OW26512   1.014   0.436   8.022  0.4905  0.0530 -0.4759
 5018SOL    HW126513   0.939   0.389   8.058  1.1333 -1.2143 -0.7659
 5018SOL    HW226514   1.090   0.417   8.077  0.5190  1.2328 -0.1084
 5019SOL     OW26515   3.367   0.407   2.187  0.6138  0.0379 -0.6750
 5019SOL    HW126516   3.374   0.427   2.094  1.6895 -1.3551 -0.8854
 5019SOL    HW226517   3.294   0.465   2.212 -1.5783 -2.8277 -0.3757
 5020SOL     OW26518   2.607   3.141   1.710 -0.3783 -0.1549  0.0775
 5020SOL    HW126519   2.575   3.090   1.636  1.1183  1.7033 -1.8762
 5020SOL    HW226520   2.699   3.137   1.682 -0.4697  0.1107 -0.2658
 5021SOL     OW26521   2.630   3.553   8.811 -0.0915 -0.8038 -0.4208
 5021SOL    HW126522   2.549   3.603   8.803  0.8013  0.6469 -0.3012
 5021SOL    HW226523   2.647   3.550   8.905 -0.5603  0.8406 -0.2901
 5022SOL     OW26524   1.711   1.860  13.243  0.1566  0.4103 -0.6801
 5022SOL    HW126525   1.671   1.911  13.314  1.7058  1.3496 -0.4834
 5022SOL    HW226526   1.782   1.811  13.285  1.1187  1.5016 -1.0490
 5023SOL     OW26527   1.707   4.230  12.379 -0.7559 -0.4161  0.1142
 5023SOL    HW126528   1.745   4.288  12.314 -0.3214 -0.9879 -0.1376
 5023SOL    HW226529   1.783   4.189  12.421 -0.1445  3.0136  2.4164
 5024SOL     OW26530   3.070   4.129   2.434  0.9886 -0.0694  0.2189
 5024SOL    HW126531   3.164   4.114   2.426  1.3317  2.2336 -0.0771
 5024SOL    HW226532   3.039   4.119   2.343 -2.4685  0.9072  1.2779
 5025SOL     OW26533   0.641   0.535   9.406 -0.0147 -0.4092  0.3507
 5025SOL    HW126534   0.670   0.458   9.356 -0.1665 -1.0193  1.2029
 5025SOL    HW226535   0.613   0.495   9.488  0.8514  2.6296  2.1190
 5026SOL     OW26536   3.602   4.524   2.038 -0.5363  0.6697 -0.2320
 5026SOL    HW126537   3.524   4.467   2.037 -1.2335  1.6226  0.5496
 5026SOL    HW226538   3.555   4.607   2.040 -1.7392  0.0145 -0.8567
 5027SOL     OW26539   4.533   2.054   1.189 -0.1393  0.4525 -0.4285
 5027SOL    HW126540   4.440   2.052   1.165 -0.2569 -0.9155  0.1051
 5027SOL    HW226541   4.516   2.052   1.284 -0.5558 -1.9050 -0.5508
 5028SOL     OW26542   3.625   3.708  14.081  0.6584 -0.8141  0.0761
 5028SOL    HW126543   3.695   3.686  14.142  0.1538  1.7664  1.5992
 5028SOL    HW226544   3.647   3.641  14.016  1.1853 -0.7794  0.2186
 5029SOL     OW26545   1.921   3.866  16.961  0.1567 -0.1948  0.2614
 5029SOL    HW126546   1.869   3.799  17.006  0.8451 -1.0362 -0.1717
 5029SOL    HW226547   1.937   3.822  16.877 -0.9467 -1.2070  0.5881
 5030SOL     OW26548   1.484   0.729   6.373  0.0101 -0.0655 -0.0009
 5030SOL    HW126549   1.553   0.764   6.317 -0.6047 -1.1365 -1.4408
 5030SOL    HW226550   1.537   0.674   6.431  2.1975  0.1559 -1.7875
 5031SOL     OW26551   2.568   3.772   1.303  0.8964 -0.1716  0.0754
 5031SOL    HW126552   2.516   3.708   1.352 -1.9764  1.4855 -0.8322
 5031SOL    HW226553   2.655   3.732   1.298  0.4359 -1.2472  0.6457
 5032SOL     OW26554   4.474   0.676  17.102  0.2196 -0.0784  0.1846
 5032SOL    HW126555   4.506   0.596  17.142 -2.8690 -0.9355  0.9483
 5032SOL    HW226556   4.562   0.715  17.102  0.2483 -0.1439 -0.7898
 5033SOL     OW26557   2.696   3.962   3.640 -0.0570  0.0332  0.3326
 5033SOL    HW126558   2.641   3.920   3.574  0.6213 -0.3019 -0.0198
 5033SOL    HW226559   2.651   4.046   3.654 -2.8142 -1.4102  0.1297
 5034SOL     OW26560   2.861   1.538   0.510 -0.4674  0.2730  0.4290
 5034SOL    HW126561   2.769   1.560   0.501 -0.7611  0.6110  4.2266
 5034SOL    HW226562   2.862   1.500   0.598  0.6576  1.3571  0.8936
 5035SOL     OW26563   4.082   4.315   3.676 -1.0160 -0.4434 -0.0370
 5035SOL    HW126564   4.016   4.266   3.627 -0.0805 -1.0570 -0.7132
 5035SOL    HW226565   4.038   4.331   3.759 -0.5029  1.5487 -0.1541
 5036SOL     OW26566   1.979   1.460   4.152 -0.0596 -0.6367 -0.0511
 5036SOL    HW126567   2.029   1.541   4.138 -1.9319  0.5761  0.1802
 5036SOL    HW226568   1.895   1.495   4.121  0.7539  1.1249 -0.2645
 5037SOL     OW26569   3.103   2.897   5.905 -0.1164 -0.0615  0.0357
 5037SOL    HW126570   3.075   2.986   5.883  1.4884  0.5748  0.5438
 5037SOL    HW226571   3.194   2.916   5.929 -0.5206  1.0423  0.7063
 5038SOL     OW26572   4.530   2.977   9.427  0.5567 -0.3546 -0.4020
 5038SOL    HW126573   4.448   3.012   9.460  0.3914 -0.3951 -0.7703
 5038SOL    HW226574   4.589   3.031   9.480 -0.1849  0.5072 -0.4559
 5039SOL     OW26575   4.389   2.355   1.407 -0.0492  0.3348  0.0130
 5039SOL    HW126576   4.358   2.446   1.410 -0.2915  0.2159  1.0500
 5039SOL    HW226577   4.425   2.350   1.318  0.3111  0.5050  0.1487
 5040SOL     OW26578   2.255   4.701   6.631  0.2482 -0.0293 -0.0773
 5040SOL    HW126579   2.256   4.625   6.573 -2.2391 -0.4300  0.4011
 5040SOL    HW226580   2.343   0.014   6.617  0.6644 -0.8606  0.4099
 5041SOL     OW26581   4.318   2.831   6.263  0.3952  0.8002  0.2587
 5041SOL    HW126582   4.380   2.837   6.336  0.4305  0.6004  0.2464
 5041SOL    HW226583   4.252   2.897   6.284 -2.3532 -0.9202 -2.7712
 5042SOL     OW26584   0.696   0.949   1.040 -0.1700  0.6519  0.1662
 5042SOL    HW126585   0.644   0.976   1.116 -1.2729  0.8617 -0.6622
 5042SOL    HW226586   0.652   0.987   0.964 -0.6664 -0.7229 -0.2502
 5043SOL     OW26587   3.768   3.897   3.381 -0.3820  0.3664  0.5724
 5043SOL    HW126588   3.749   3.815   3.426  0.6029 -1.2426 -1.9950
 5043SOL    HW226589   3.840   3.887   3.319 -2.3250  0.3749 -1.6943
 5044SOL     OW26590   2.544   3.384   3.830 -0.2971 -0.5650  0.5767
 5044SOL    HW126591   2.458   3.341   3.827 -0.6023  0.2295 -2.5775
 5044SOL    HW226592   2.529   3.442   3.755 -1.3086 -0.2622  1.0073
 5045SOL     OW26593   3.628   4.021  17.486 -0.3700 -0.3368  0.9314
 5045SOL    HW126594   3.584   3.969  17.419  0.1748  0.7283 -0.2468
 5045SOL    HW226595   3.661   3.960  17.552  3.5614  0.7752 -0.0178
 5046SOL     OW26596   3.008   4.186   0.190  0.4759 -0.0565 -0.1652
 5046SOL    HW126597   3.025   4.181   0.285  0.3361 -1.3908 -0.2087
 5046SOL    HW226598   2.990   4.093   0.176  0.2657 -0.4000  2.2626
 5047SOL     OW26599   4.075   1.680  14.801  1.0177  0.2759 -0.1098
 5047SOL    HW126600   4.121   1.632  14.869  0.6193  1.6710  1.1640
 5047SOL    HW226601   4.097   1.628  14.724 -1.4576  1.6645 -1.7743
 5048SOL     OW26602   2.290   4.581   7.281  0.1136  0.3652 -0.3071
 5048SOL    HW126603   2.321   4.491   7.272 -0.8105 -0.1214  1.3646
 5048SOL    HW226604   2.240   4.566   7.201 -1.3961  3.2908  0.0608
 5049SOL     OW26605   0.275   2.286   6.794 -0.6047 -0.2981  0.3668
 5049SOL    HW126606   0.243   2.252   6.710 -0.3878  2.0458 -0.6844
 5049SOL    HW226607   0.233   2.371   6.808  2.2686  1.5947 -2.2194
 5050SOL     OW26608   0.351   2.597  16.014  0.1322 -0.6423 -0.3763
 5050SOL    HW126609   0.260   2.569  16.029  0.6043 -1.7531  0.4754
 5050SOL    HW226610   0.339   2.682  16.057  0.4839 -0.1105 -1.3485
 5051SOL     OW26611   1.499   3.987  13.763 -0.0134 -0.1548 -0.0872
 5051SOL    HW126612   1.484   4.052  13.696  2.6309  1.1328  0.5492
 5051SOL    HW226613   1.477   4.038  13.841  0.9491  0.1716 -0.0315
 5052SOL     OW26614   3.626   3.243   1.357  0.0782  0.0333  0.3349
 5052SOL    HW126615   3.622   3.208   1.269 -1.9258  1.2313 -0.0380
 5052SOL    HW226616   3.594   3.332   1.340 -1.6895 -0.4415  1.1829
 5053SOL     OW26617   3.028   2.694   0.870  0.6410 -0.1395 -0.1800
 5053SOL    HW126618   3.038   2.599   0.876  1.3411  0.0811  2.0501
 5053SOL    HW226619   2.957   2.707   0.932 -0.9886  0.1018 -2.0986
 5054SOL     OW26620   0.943   0.528   3.900 -0.3525  0.3725  0.3005
 5054SOL    HW126621   1.027   0.575   3.900  0.2253 -0.6853 -0.9469
 5054SOL    HW226622   0.907   0.544   3.813 -0.0724 -0.1725  0.0860
 5055SOL     OW26623   0.640   0.059   3.766 -0.2879 -0.0861 -0.2649
 5055SOL    HW126624   0.546   0.044   3.780 -0.5020 -0.6180 -2.2373
 5055SOL    HW226625   0.656   0.096   3.853  2.0541 -4.5516  1.2416
 5056SOL     OW26626   4.637   3.441  17.499  0.9758  0.8037  0.2474
 5056SOL    HW126627   4.668   3.470  17.413 -0.7511 -1.2149 -1.0424
 5056SOL    HW226628   4.703   3.374  17.511  0.6666  0.2958 -0.8827
 5057SOL     OW26629   0.248   2.920   1.439 -0.3465 -0.0923  0.4509
 5057SOL    HW126630   0.259   2.843   1.382  0.4491  1.3172 -1.3014
 5057SOL    HW226631   0.298   2.988   1.394 -3.0566  2.0493  0.7022
 5058SOL     OW26632   1.230   2.282  17.418 -0.0667  0.1605 -0.1208
 5058SOL    HW126633   1.227   2.375  17.399  0.9003  0.0537 -0.8123
 5058SOL    HW226634   1.138   2.282  17.445 -0.1970 -0.0179 -0.5614
 5059SOL     OW26635   3.641   3.279   9.811 -0.1272  0.1301  0.0581
 5059SOL    HW126636   3.646   3.189   9.780  0.1553  0.2412 -0.2165
 5059SOL    HW226637   3.735   3.294   9.820 -0.1216 -0.7788  1.6322
 5060SOL     OW26638   2.222   4.310   2.999  0.3251  0.4332 -0.2855
 5060SOL    HW126639   2.148   4.287   3.055  1.5398 -3.5897 -0.2879
 5060SOL    HW226640   2.236   4.394   3.042  0.7711  0.3472 -0.2639
 5061SOL     OW26641   4.186   1.889   9.151 -0.2049  0.3489  0.2463
 5061SOL    HW126642   4.259   1.905   9.092 -1.5017  1.2520 -1.1292
 5061SOL    HW226643   4.211   1.947   9.224 -2.1967  0.0835  1.1626
 5062SOL     OW26644   0.325   1.930  12.416  0.1136  0.8491 -0.2447
 5062SOL    HW126645   0.279   1.928  12.500  2.3778  0.3651  0.9710
 5062SOL    HW226646   0.366   2.015  12.428  1.0469  0.2710  0.6461
 5063SOL     OW26647   2.558   0.532  12.442  0.0030  0.1079  0.2956
 5063SOL    HW126648   2.604   0.515  12.360  0.3929 -0.2770  0.5960
 5063SOL    HW226649   2.625   0.513  12.507  1.1035 -0.6491 -1.0729
 5064SOL     OW26650   4.074   2.213   5.570  0.4169 -0.2678 -0.2557
 5064SOL    HW126651   4.031   2.267   5.504  0.6931 -0.1539 -0.3388
 5064SOL    HW226652   4.162   2.208   5.534  0.7745 -0.7551  0.6757
 5065SOL     OW26653   2.739   4.706   3.035 -0.0982  0.0890  0.1642
 5065SOL    HW126654   2.698   0.062   3.001 -0.4950  0.1144  0.7035
 5065SOL    HW226655   2.783   4.674   2.956  1.5265  0.0451  1.0726
 5066SOL     OW26656   0.141   4.458   4.202  0.1297  0.8000  0.3543
 5066SOL    HW126657   0.052   4.424   4.203 -0.4072  2.0725 -2.8579
 5066SOL    HW226658   0.128   4.525   4.135  2.5992  1.3236  0.3663
 5067SOL     OW26659   3.425   2.126   6.233  0.0456  0.4178  0.2772
 5067SOL    HW126660   3.378   2.051   6.198  1.3954  0.9832 -2.7033
 5067SOL    HW226661   3.386   2.201   6.187 -1.0501 -0.2451  0.1424
 5068SOL     OW26662   3.885   2.251   5.780 -0.0257 -0.6177 -0.5553
 5068SOL    HW126663   3.954   2.247   5.714 -1.0280 -1.6063 -1.5340
 5068SOL    HW226664   3.814   2.225   5.721  0.7183 -1.1401 -1.2237
 5069SOL     OW26665   0.684   3.873   4.381  0.7243  0.6445 -0.2795
 5069SOL    HW126666   0.694   3.886   4.475  0.1229 -0.2316 -0.0964
 5069SOL    HW226667   0.718   3.958   4.352  3.9387 -0.0395  1.5384
 5070SOL     OW26668   2.431   2.338   7.471  0.0175 -0.1498 -0.3002
 5070SOL    HW126669   2.354   2.377   7.429  0.0433  1.2899  0.9790
 5070SOL    HW226670   2.389   2.258   7.502  1.2841 -0.6671  0.0935
 5071SOL     OW26671   1.839   4.439  12.224  0.0995  0.0977 -0.3367
 5071SOL    HW126672   1.789   4.452  12.143  0.7005 -1.7251 -0.9979
 5071SOL    HW226673   1.926   4.435  12.183  1.0018  1.3453  1.4768
 5072SOL     OW26674   2.537   2.366   4.893 -0.5105  0.3336 -0.4893
 5072SOL    HW126675   2.482   2.337   4.820 -2.6548 -2.5305  2.2590
 5072SOL    HW226676   2.572   2.444   4.850 -0.0597  0.7517  0.6451
 5073SOL     OW26677   4.247   2.094   6.903  0.1757  0.0332 -0.1179
 5073SOL    HW126678   4.300   2.131   6.832 -1.4094  2.6458  0.0657
 5073SOL    HW226679   4.189   2.169   6.918  0.9696  0.8564 -1.1930
 5074SOL     OW26680   0.006   0.194   8.615  0.4770 -0.2611 -0.4707
 5074SOL    HW126681   0.051   0.185   8.699 -2.6295  3.2050  1.5987
 5074SOL    HW226682   0.056   0.143   8.552  1.0693 -1.2362  0.8117
 5075SOL     OW26683   4.418   4.400   7.720  0.1667 -0.3633  0.0563
 5075SOL    HW126684   4.409   4.314   7.679  0.5823 -0.7749  0.8228
 5075SOL    HW226685   4.406   4.375   7.812  1.9441 -2.7373 -0.3617
 5076SOL     OW26686   0.666   2.265   4.671  0.2630  0.1508  0.3024
 5076SOL    HW126687   0.696   2.292   4.584 -0.8898  1.4962  0.3284
 5076SOL    HW226688   0.572   2.280   4.679  0.0201 -1.2959  0.1030
 5077SOL     OW26689   1.606   1.953  12.317  0.4584 -0.0387  0.7680
 5077SOL    HW126690   1.665   1.993  12.253 -0.0945 -3.0647 -1.5955
 5077SOL    HW226691   1.587   1.865  12.285  1.2112  0.8886 -2.2020
 5078SOL     OW26692   2.387   0.389   7.224 -0.2539  0.0390  0.3152
 5078SOL    HW126693   2.424   0.302   7.241 -0.1531  0.1443  0.6294
 5078SOL    HW226694   2.461   0.450   7.221 -2.4391  2.6317 -0.9290
 5079SOL     OW26695   2.234   1.602   5.208 -0.4518  0.2730 -0.2876
 5079SOL    HW126696   2.141   1.611   5.187 -0.3798 -0.1996 -0.7997
 5079SOL    HW226697   2.230   1.603   5.304  1.3281  0.3530 -0.2158
 5080SOL     OW26698   1.816   2.187   6.499  0.7048  0.1737 -0.2366
 5080SOL    HW126699   1.812   2.282   6.512 -0.1766  0.1711 -0.4814
 5080SOL    HW226700   1.722   2.170   6.493  0.9326 -0.9316 -0.6566
 5081SOL     OW26701   4.634   1.685   4.213  0.1037 -0.3146  0.1544
 5081SOL    HW126702   4.594   1.758   4.259  0.8544 -0.6325  1.3114
 5081SOL    HW226703   0.002   1.686   4.242 -0.1127 -0.3507  0.8224
 5082SOL     OW26704   1.308   0.604   2.378  0.1472 -0.2479  0.3966
 5082SOL    HW126705   1.273   0.650   2.454  0.1391 -0.2824  0.4136
 5082SOL    HW226706   1.376   0.667   2.353 -0.2693  0.3056  0.6685
 5083SOL     OW26707   2.494   1.096   4.405 -0.1035  0.5442  0.2326
 5083SOL    HW126708   2.560   1.135   4.347  0.4266 -3.8532 -2.1785
 5083SOL    HW226709   2.538   1.107   4.489  4.2333 -2.8357 -1.5962
 5084SOL     OW26710   0.393   3.457   7.313  0.3043  0.2309  0.1793
 5084SOL    HW126711   0.314   3.406   7.333  1.5432 -1.8174 -0.1688
 5084SOL    HW226712   0.367   3.498   7.231  1.2825  1.0353  0.2740
 5085SOL     OW26713   2.179   0.139  12.262 -0.2721  0.0498  0.0885
 5085SOL    HW126714   2.150   0.085  12.335 -0.8200 -0.9690 -0.8879
 5085SOL    HW226715   2.109   0.144  12.196 -0.7576  0.1141  0.6037
 5086SOL     OW26716   3.364   1.695   7.315 -0.1618  0.2608  0.4313
 5086SOL    HW126717   3.320   1.690   7.230 -1.0814  0.9574  0.8734
 5086SOL    HW226718   3.448   1.736   7.291 -0.7669  1.3733  0.2249
 5087SOL     OW26719   1.415   0.751   1.321  0.2528 -0.0201 -0.4149
 5087SOL    HW126720   1.385   0.661   1.308  1.2714 -0.5677  1.0926
 5087SOL    HW226721   1.472   0.736   1.396  1.8260 -0.5866 -1.7146
 5088SOL     OW26722   0.099   3.267   5.012  0.7609 -0.2156  0.6966
 5088SOL    HW126723   0.150   3.318   4.949  2.3323 -0.7693  1.5006
 5088SOL    HW226724   0.107   3.321   5.091 -0.6565  0.8802  0.0734
 5089SOL     OW26725   0.884   1.141   5.517  0.3955  0.4261  0.0683
 5089SOL    HW126726   0.927   1.103   5.440  1.0683 -0.6237  0.9804
 5089SOL    HW226727   0.812   1.079   5.530 -0.4002  0.9600 -1.7202
 5090SOL     OW26728   0.380   2.773   1.971 -0.0390  0.6379  0.1962
 5090SOL    HW126729   0.291   2.742   1.985  1.8610 -3.6554  2.9030
 5090SOL    HW226730   0.387   2.801   1.879  1.3784  1.6921  0.6248
 5091SOL     OW26731   0.461   4.185   7.491  0.0390 -0.1361 -0.4737
 5091SOL    HW126732   0.424   4.272   7.475  0.8534  0.1554 -0.7706
 5091SOL    HW226733   0.523   4.167   7.420 -0.0759  0.6128 -0.7666
 5092SOL     OW26734   0.901   0.595   3.062  0.1617  0.4630  0.3899
 5092SOL    HW126735   0.888   0.587   2.967 -0.3310  2.7615  0.2631
 5092SOL    HW226736   0.981   0.647   3.062  0.5109 -0.0766  1.5302
 5093SOL     OW26737   2.952   1.558   4.546 -0.1008  0.5247  0.2837
 5093SOL    HW126738   2.940   1.630   4.608  2.8186  0.1448  1.3116
 5093SOL    HW226739   3.027   1.594   4.498  0.6291 -1.0073  0.3092
 5094SOL     OW26740   4.706   1.891  15.525  0.2452  0.2948 -0.1562
 5094SOL    HW126741   4.668   1.843  15.598  0.3745 -0.6938 -0.7331
 5094SOL    HW226742   4.688   1.984  15.542  1.9245  0.0751  2.8205
 5095SOL     OW26743   1.986   3.191   3.221 -0.0973 -0.4328  0.2713
 5095SOL    HW126744   1.985   3.287   3.221 -1.2232 -0.4398 -0.1041
 5095SOL    HW226745   2.074   3.174   3.188 -0.1428  0.4124 -0.2684
 5096SOL     OW26746   1.762   0.999  14.775  0.3126  0.2372  0.1832
 5096SOL    HW126747   1.725   0.990  14.687  0.0452  0.1698  0.3032
 5096SOL    HW226748   1.718   0.923  14.814 -1.1661  0.8477 -0.2650
 5097SOL     OW26749   1.252   2.537  17.173  0.1967 -0.1707 -0.3830
 5097SOL    HW126750   1.202   2.528  17.254  0.3063 -2.1452 -0.5291
 5097SOL    HW226751   1.307   2.613  17.188 -0.8977  0.5373  0.0744
 5098SOL     OW26752   3.643   1.763   2.752 -0.1648  0.2666  0.3707
 5098SOL    HW126753   3.568   1.705   2.765 -0.8041  1.1688  0.6911
 5098SOL    HW226754   3.716   1.707   2.725 -0.6080  0.5955 -1.5308
 5099SOL     OW26755   1.092   2.126   8.983 -0.2584  0.3469  0.4800
 5099SOL    HW126756   1.131   2.058   9.037  2.1588  2.1825  1.0336
 5099SOL    HW226757   1.076   2.197   9.045 -3.3871 -0.4437  0.6006
 5100SOL     OW26758   0.698   4.637  12.720 -0.6516  0.0120 -0.9013
 5100SOL    HW126759   0.723   4.561  12.772 -1.2842 -0.1589 -0.8559
 5100SOL    HW226760   0.785   4.669  12.694 -0.7224 -0.7434 -2.0813
 5101SOL     OW26761   1.999   3.764   6.183  0.3906 -0.0601 -0.2430
 5101SOL    HW126762   2.028   3.805   6.102  0.6945  0.8392  0.3193
 5101SOL    HW226763   1.913   3.730   6.155  1.0159 -1.0970 -0.9077
 5102SOL     OW26764   3.204   0.400   2.870  0.3628 -0.0696 -0.5853
 5102SOL    HW126765   3.130   0.379   2.813  0.9042  0.2496 -1.4055
 5102SOL    HW226766   3.222   0.488   2.836 -2.6084  1.0568  0.7189
 5103SOL     OW26767   4.256   3.504   8.318 -0.5464  0.1412  0.0789
 5103SOL    HW126768   4.202   3.581   8.336 -1.1665  0.1664 -1.9044
 5103SOL    HW226769   4.187   3.441   8.295 -3.3699  2.4218  2.2905
 5104SOL     OW26770   4.107   1.157   4.725 -0.1306  0.3073 -0.3930
 5104SOL    HW126771   4.081   1.096   4.794 -3.2646 -1.1472 -2.8433
 5104SOL    HW226772   4.096   1.098   4.650 -1.7040 -0.0869  0.1564
 5105SOL     OW26773   1.334   0.226   4.051 -0.4374 -0.6919  0.4083
 5105SOL    HW126774   1.397   0.227   4.123  0.6909  1.6101 -0.6108
 5105SOL    HW226775   1.332   0.133   4.030 -0.2083 -0.2658 -1.5269
 5106SOL     OW26776   1.550   2.181   5.215  0.0633 -0.4834 -0.7500
 5106SOL    HW126777   1.597   2.104   5.245  0.8512  0.3476  0.1287
 5106SOL    HW226778   1.613   2.252   5.218  0.4103 -0.7966 -0.6794
 5107SOL     OW26779   0.199   1.675   4.528  0.2598  0.3754 -0.3770
 5107SOL    HW126780   0.120   1.715   4.566  0.5467  0.9966 -0.4333
 5107SOL    HW226781   0.211   1.591   4.572  0.9958 -0.1022 -1.4905
 5108SOL     OW26782   1.593   1.157   7.372 -0.2930 -0.1288 -0.0038
 5108SOL    HW126783   1.676   1.204   7.367 -1.0153  1.2205  0.5401
 5108SOL    HW226784   1.617   1.071   7.405 -1.3873  0.3122  1.9331
 5109SOL     OW26785   2.912   4.443   3.846 -0.1012  0.3029  0.1019
 5109SOL    HW126786   2.916   4.436   3.941 -2.1657 -2.6612 -0.0168
 5109SOL    HW226787   2.941   4.532   3.827  0.6145 -0.0026 -0.2444
 5110SOL     OW26788   1.283   2.899   4.175  0.4067  0.2115  0.1467
 5110SOL    HW126789   1.302   2.923   4.085  0.9823  2.1772  0.7970
 5110SOL    HW226790   1.247   2.811   4.163  2.1535 -0.6020  0.7747
 5111SOL     OW26791   2.515   2.384  10.992  0.1280 -0.0339  0.2617
 5111SOL    HW126792   2.560   2.420  11.068  1.5542  1.1987 -1.1453
 5111SOL    HW226793   2.558   2.299  10.979  1.3615  0.6290  0.0159
 5112SOL     OW26794   0.529   0.318   3.484  0.4924 -0.2380 -0.8191
 5112SOL    HW126795   0.530   0.366   3.567  1.5622 -2.3014  0.3432
 5112SOL    HW226796   0.514   0.381   3.414 -0.3735  1.8096  1.1850
 5113SOL     OW26797   2.117   3.657  14.824  0.0811 -0.1234  0.3717
 5113SOL    HW126798   2.208   3.630  14.816  0.1080 -0.8992  3.3461
 5113SOL    HW226799   2.083   3.607  14.899 -1.2699 -2.1165 -1.5773
 5114SOL     OW26800   3.197   2.024   5.546 -0.2556 -0.5144  0.1409
 5114SOL    HW126801   3.276   1.971   5.545 -0.2617 -0.5307  0.5373
 5114SOL    HW226802   3.213   2.066   5.462 -0.5214 -0.0049  0.3427
 5115SOL     OW26803   2.526   1.656   5.557  0.3795  0.5802  0.3808
 5115SOL    HW126804   2.447   1.710   5.555 -1.6420 -2.4393 -1.8827
 5115SOL    HW226805   2.493   1.573   5.523  1.8821  0.5410 -0.9861
 5116SOL     OW26806   3.602   3.687   3.519  0.1611  0.5116  0.5687
 5116SOL    HW126807   3.580   3.697   3.426  0.4884 -2.4667  0.1706
 5116SOL    HW226808   3.515   3.674   3.557 -1.0375  1.4028 -1.8416
 5117SOL     OW26809   2.180   0.417   9.024 -0.5471 -0.1087  0.0800
 5117SOL    HW126810   2.133   0.363   9.088 -1.1860 -1.1340 -1.2511
 5117SOL    HW226811   2.112   0.477   8.993 -2.1125 -3.6453 -3.2710
 5118SOL     OW26812   1.297   3.142   9.422 -0.1781  0.0845  0.1187
 5118SOL    HW126813   1.293   3.133   9.327 -1.7033 -0.1918  0.2130
 5118SOL    HW226814   1.332   3.056   9.447 -0.0160 -0.3569 -1.6119
 5119SOL     OW26815   3.029   4.183  15.258  0.0296 -0.2592  0.0488
 5119SOL    HW126816   2.982   4.255  15.299  0.0904  1.1074 -2.3049
 5119SOL    HW226817   3.099   4.231  15.214  0.1377 -2.0578 -1.7568
 5120SOL     OW26818   3.455   0.229   7.255  0.4163 -0.3610 -0.2158
 5120SOL    HW126819   3.513   0.153   7.266  1.3591  0.6241  1.5956
 5120SOL    HW226820   3.448   0.246   7.349 -2.9037 -0.3253 -0.4597
 5121SOL     OW26821   2.155   1.415  13.080  0.2480 -0.5670 -0.5914
 5121SOL    HW126822   2.230   1.406  13.021 -0.2276 -1.9718 -0.9766
 5121SOL    HW226823   2.082   1.429  13.021  0.3946  0.7541 -0.4474
 5122SOL     OW26824   1.758   3.552   7.716  0.1231  0.3602 -0.2098
 5122SOL    HW126825   1.825   3.616   7.692  0.7678  0.8990  3.0285
 5122SOL    HW226826   1.813   3.500   7.775 -1.7014  1.5465  2.5170
 5123SOL     OW26827   1.591   2.992  10.840  0.1268 -0.1819  0.4131
 5123SOL    HW126828   1.523   2.925  10.828 -2.0155  1.8925  1.0382
 5123SOL    HW226829   1.674   2.956  10.809 -0.0857 -0.1627 -0.1786
 5124SOL     OW26830   4.371   1.645   4.776  0.3372 -0.4525 -0.4853
 5124SOL    HW126831   4.424   1.567   4.789 -1.3338 -1.8858 -2.3097
 5124SOL    HW226832   4.326   1.630   4.693  0.0544 -0.7153 -0.2851
 5125SOL     OW26833   2.773   4.026   4.677 -0.0189 -0.2352  0.0227
 5125SOL    HW126834   2.818   3.965   4.619 -0.5817  1.1768 -1.9561
 5125SOL    HW226835   2.685   4.027   4.640 -0.1749 -1.1304  0.3734
 5126SOL     OW26836   1.715   0.177   6.762 -0.1613  0.2628  0.2415
 5126SOL    HW126837   1.801   0.138   6.779 -0.4331 -1.4198 -2.2349
 5126SOL    HW226838   1.726   0.221   6.678  0.4931  4.2513  2.3750
 5127SOL     OW26839   0.833   3.377   7.313  0.7095 -0.3186 -0.8167
 5127SOL    HW126840   0.814   3.447   7.376 -1.0732 -1.5989  0.0441
 5127SOL    HW226841   0.775   3.307   7.340  1.6397 -1.7182 -2.4489
 5128SOL     OW26842   1.982   1.613  17.371 -0.2684 -0.1091 -0.4068
 5128SOL    HW126843   1.931   1.543  17.330  0.6418 -0.6594 -0.5917
 5128SOL    HW226844   2.070   1.577  17.363 -0.3308 -0.6367  1.3697
 5129SOL     OW26845   1.963   3.893   3.933 -0.0131  0.4535 -0.3110
 5129SOL    HW126846   1.939   3.820   3.991  2.6623  1.0435  1.5832
 5129SOL    HW226847   1.913   3.967   3.968 -0.1495  0.1123  0.2225
 5130SOL     OW26848   3.216   2.550   5.750 -0.6492 -0.3089 -0.3375
 5130SOL    HW126849   3.229   2.511   5.663 -1.0284  0.6965 -0.8316
 5130SOL    HW226850   3.121   2.548   5.762 -0.3407  0.3542  2.1871
 5131SOL     OW26851   4.568   4.299   7.133 -0.2241 -0.3048 -0.0215
 5131SOL    HW126852   4.501   4.324   7.197  1.3355  0.0209  1.5095
 5131SOL    HW226853   4.619   4.235   7.183  0.5854 -0.5963 -1.2250
 5132SOL     OW26854   2.595   2.825   5.977  0.3890  0.6256  0.0839
 5132SOL    HW126855   2.508   2.793   6.001  0.6985 -0.0639  0.2990
 5132SOL    HW226856   2.643   2.745   5.958  0.8795  0.9261  0.0741
 5133SOL     OW26857   2.858   1.357  17.287  0.5856 -0.6377  0.1136
 5133SOL    HW126858   2.919   1.300  17.334 -0.3122 -1.6832  0.0192
 5133SOL    HW226859   2.767   1.344  17.316  0.3910  1.3718  0.3824
 5134SOL     OW26860   3.003   0.211  10.997  0.2676  0.6607 -0.2500
 5134SOL    HW126861   3.018   0.250  10.911  1.6552  3.0504  1.0902
 5134SOL    HW226862   3.086   0.239  11.036  1.0211  0.8443 -2.0162
 5135SOL     OW26863   2.559   2.313   2.629 -0.1349  0.3019  0.2170
 5135SOL    HW126864   2.602   2.245   2.577  1.0909  1.7785 -0.6810
 5135SOL    HW226865   2.492   2.256   2.666 -0.1822  1.4377  1.8527
 5136SOL     OW26866   4.333   0.528   0.872  0.4846  0.4762  0.0585
 5136SOL    HW126867   4.263   0.485   0.921 -0.7501  1.7249 -0.5977
 5136SOL    HW226868   4.384   0.450   0.890  0.5934  0.4240 -0.4616
 5137SOL     OW26869   1.482   3.262  15.427  0.0807  0.3334  0.1240
 5137SOL    HW126870   1.470   3.172  15.396  0.5169  0.4391 -0.3393
 5137SOL    HW226871   1.400   3.307  15.409  0.0539  0.5039  0.6763
 5138SOL     OW26872   3.976   3.971  17.004  0.0276  0.1294  0.2222
 5138SOL    HW126873   4.055   3.985  16.951 -0.1049  0.7156  0.1741
 5138SOL    HW226874   4.007   4.008  17.087 -0.5359 -0.2140  0.5876
 5139SOL     OW26875   3.590   1.467   6.616  0.6291 -0.2740 -0.0459
 5139SOL    HW126876   3.651   1.540   6.609  1.0567 -0.5998  0.2526
 5139SOL    HW226877   3.530   1.499   6.684  1.4572 -5.4816  3.1926
 5140SOL     OW26878   1.924   3.753   2.636  0.0548  0.4480  0.2811
 5140SOL    HW126879   1.881   3.711   2.562  0.5085 -0.3110  0.4449
 5140SOL    HW226880   2.012   3.744   2.599  0.3900 -2.0086  1.6478
 5141SOL     OW26881   0.648   2.650   7.715 -0.4152  0.2427  0.6451
 5141SOL    HW126882   0.692   2.726   7.754  1.1338 -0.7360  0.8163
 5141SOL    HW226883   0.560   2.686   7.711  0.4291  2.3937  1.2515
 5142SOL     OW26884   3.184   4.361   8.105  0.1822  0.5487  0.4875
 5142SOL    HW126885   3.123   4.435   8.098 -0.1977  0.2124  0.2649
 5142SOL    HW226886   3.149   4.305   8.175  2.1320  0.9888  1.8139
 5143SOL     OW26887   0.933   3.590   3.213 -0.3980 -0.1517  0.3275
 5143SOL    HW126888   0.938   3.524   3.144 -0.3078 -2.6210  2.6904
 5143SOL    HW226889   0.925   3.667   3.157 -1.1162 -0.4261  0.0549
 5144SOL     OW26890   3.550   2.419   1.350  0.2217 -0.2019  0.1683
 5144SOL    HW126891   3.533   2.348   1.412 -1.3937 -1.2324 -1.4575
 5144SOL    HW226892   3.463   2.458   1.343  0.7151  0.8761  0.1080
 5145SOL     OW26893   1.958   3.327   7.106 -0.4937 -1.2160 -0.3543
 5145SOL    HW126894   1.957   3.421   7.123 -0.7761 -1.4527  0.9439
 5145SOL    HW226895   1.996   3.325   7.018 -0.1067  0.4208 -0.2260
 5146SOL     OW26896   4.154   3.158   9.354 -0.7929  0.0855 -0.7346
 5146SOL    HW126897   4.174   3.109   9.434 -0.9899 -0.4836 -1.0356
 5146SOL    HW226898   4.121   3.237   9.396  2.1239  0.6425  0.5057
 5147SOL     OW26899   2.973   4.337   6.011 -0.2646 -0.1063 -0.3921
 5147SOL    HW126900   3.061   4.372   5.998 -0.1042 -0.0916  0.7142
 5147SOL    HW226901   2.941   4.362   5.925  0.4371  0.0330 -0.6111
 5148SOL     OW26902   4.191   1.822  11.890 -0.6003  0.0008  0.0777
 5148SOL    HW126903   4.192   1.728  11.874  2.0397 -0.0582  0.6881
 5148SOL    HW226904   4.233   1.828  11.975 -0.1623  0.1720 -0.1484
 5149SOL     OW26905   2.026   3.124   9.653 -0.4358  0.4733  0.2556
 5149SOL    HW126906   2.026   3.045   9.600  0.0170  0.6049  0.0612
 5149SOL    HW226907   2.094   3.169   9.604 -0.1348  0.2953  0.5154
 5150SOL     OW26908   3.551   2.620   6.636 -0.0487  0.7070 -0.4541
 5150SOL    HW126909   3.521   2.618   6.545 -0.2169  1.2527 -0.4117
 5150SOL    HW226910   3.471   2.657   6.673  0.0649 -1.2002  1.7549
 5151SOL     OW26911   3.162   3.337   9.053 -0.1590 -1.2356 -0.3295
 5151SOL    HW126912   3.075   3.315   9.086  0.4899 -0.6903  1.7298
 5151SOL    HW226913   3.145   3.401   8.984 -3.7055  0.3727  2.0325
 5152SOL     OW26914   2.847   0.474   7.721 -0.5247 -1.1156 -0.1611
 5152SOL    HW126915   2.833   0.475   7.816 -1.3927  0.1364 -0.3004
 5152SOL    HW226916   2.930   0.433   7.697  0.0578  0.5222 -0.9460
 5153SOL     OW26917   1.979   4.508   8.871 -0.2621  0.0504 -0.0413
 5153SOL    HW126918   2.052   4.468   8.823  0.0871  1.0093 -0.3020
 5153SOL    HW226919   1.918   4.434   8.865 -0.2976  0.0540  0.2795
 5154SOL     OW26920   4.173   0.127  13.044  0.2171 -0.4157 -0.0692
 5154SOL    HW126921   4.144   0.213  13.014 -0.3290 -0.4215  0.4382
 5154SOL    HW226922   4.181   0.072  12.966 -0.5931 -0.9189  0.2018
 5155SOL     OW26923   3.007   4.162   1.045  0.4157 -0.4979  0.2911
 5155SOL    HW126924   2.998   4.083   0.990  0.0405  0.3860 -0.9135
 5155SOL    HW226925   3.034   4.118   1.125  0.4695 -2.6863 -0.8982
 5156SOL     OW26926   3.402   3.806  17.563 -0.5184  0.3381  0.2797
 5156SOL    HW126927   3.355   3.875  17.517 -0.5599  0.1753  0.0767
 5156SOL    HW226928   3.333   3.743  17.584  0.6710 -1.8770 -2.5404
 5157SOL     OW26929   1.529   1.344   7.667  0.4611 -0.6970  0.7752
 5157SOL    HW126930   1.438   1.334   7.640  1.9164 -2.9571 -3.2461
 5157SOL    HW226931   1.554   1.419   7.613  0.6257 -0.7362  0.7952
 5158SOL     OW26932   2.903   3.398   3.607 -0.0147  0.3177  0.3530
 5158SOL    HW126933   2.847   3.443   3.669 -2.1379 -0.9482 -0.6538
 5158SOL    HW226934   2.935   3.480   3.568  0.7542 -1.9484 -3.7904
 5159SOL     OW26935   2.647   1.355  15.400 -0.6064 -0.1469  0.3576
 5159SOL    HW126936   2.648   1.415  15.474 -1.7336 -1.7543  1.6750
 5159SOL    HW226937   2.737   1.322  15.400 -1.0703 -1.4195  0.1668
 5160SOL     OW26938   0.787   1.039   6.324 -0.0611 -1.0723  0.5373
 5160SOL    HW126939   0.839   1.007   6.250 -1.3573  1.2295 -1.3722
 5160SOL    HW226940   0.851   1.021   6.392 -0.0901  0.3931  0.9516
 5161SOL     OW26941   0.991   3.490   5.522 -0.0723 -0.0629  0.5529
 5161SOL    HW126942   1.048   3.451   5.455 -0.1845  1.8860 -0.6855
 5161SOL    HW226943   1.053   3.503   5.593 -0.8595 -3.7967  1.9014
 5162SOL     OW26944   4.026   3.767   0.398  0.7686 -0.1084  0.4397
 5162SOL    HW126945   4.072   3.688   0.370  1.5238  0.4069  0.2431
 5162SOL    HW226946   4.100   3.825   0.414  1.9083 -1.4711  0.0960
 5163SOL     OW26947   4.558   0.729   6.535  0.2063 -0.0609 -0.1777
 5163SOL    HW126948   4.482   0.768   6.493 -0.5516  0.4192  1.6263
 5163SOL    HW226949   4.631   0.786   6.509 -0.0928 -0.1628 -1.2376
 5164SOL     OW26950   3.989   0.445   5.140  0.1580  0.1277  0.4618
 5164SOL    HW126951   4.066   0.390   5.125 -1.1693 -1.3416 -0.9988
 5164SOL    HW226952   4.018   0.510   5.205  3.4734 -2.1833  1.3053
 5165SOL     OW26953   2.795   1.586  10.952 -0.1570  0.7675  0.5849
 5165SOL    HW126954   2.817   1.673  10.986  2.5128  0.0259  0.7489
 5165SOL    HW226955   2.829   1.537  11.027 -3.8216  0.0637  1.8071
 5166SOL     OW26956   2.511   0.488   1.798 -0.1685  0.3212 -0.0054
 5166SOL    HW126957   2.495   0.554   1.731  0.8789  0.6988  0.1158
 5166SOL    HW226958   2.500   0.403   1.754  1.0904 -0.0430  0.3877
 5167SOL     OW26959   4.426   1.397   9.316 -0.4835 -0.1478  0.7573
 5167SOL    HW126960   4.492   1.361   9.257 -2.1419 -0.7834 -0.7070
 5167SOL    HW226961   4.458   1.487   9.313 -1.9125  0.2903 -1.2199
 5168SOL     OW26962   3.399   3.516   4.276  1.0182  0.1031 -0.2305
 5168SOL    HW126963   3.415   3.470   4.194  0.7089 -0.4025 -0.0087
 5168SOL    HW226964   3.410   3.449   4.343  0.8120  1.6101  1.3297
 5169SOL     OW26965   2.489   2.240   8.642  0.3053  1.2647  0.1177
 5169SOL    HW126966   2.469   2.204   8.556  1.4385 -1.6999  1.0764
 5169SOL    HW226967   2.582   2.261   8.641  0.9085 -1.5869 -3.0047
 5170SOL     OW26968   3.840   3.329   3.658 -0.2977 -0.5007  0.2077
 5170SOL    HW126969   3.920   3.380   3.649 -0.0004 -1.2935 -1.6619
 5170SOL    HW226970   3.822   3.316   3.565 -0.6872  1.8000 -0.0192
 5171SOL     OW26971   1.868   4.626   4.125  0.2609 -0.0848  0.1326
 5171SOL    HW126972   1.774   4.633   4.109  0.3853 -2.0989 -1.4982
 5171SOL    HW226973   1.889   4.640   4.033  2.1512 -0.1873  0.5508
 5172SOL     OW26974   0.660   2.871   1.225  0.6509  0.0234 -0.0626
 5172SOL    HW126975   0.667   2.839   1.315  0.1212 -2.3199 -0.8454
 5172SOL    HW226976   0.753   2.892   1.228  0.7528  0.0188 -3.0355
 5173SOL     OW26977   2.109   2.571   5.903 -0.0273 -0.6104 -0.4948
 5173SOL    HW126978   2.175   2.587   5.836 -0.7005 -1.1216 -1.2801
 5173SOL    HW226979   2.032   2.564   5.846 -1.9501  1.8073  1.8435
 5174SOL     OW26980   0.074   0.496   8.607 -0.2150 -0.2691  0.9176
 5174SOL    HW126981   0.133   0.489   8.532 -0.9537 -2.8178  0.5705
 5174SOL    HW226982   0.040   0.408   8.595 -0.0024 -0.1295 -0.7805
 5175SOL     OW26983   3.207   3.268   4.888  0.2547 -0.5596  0.5230
 5175SOL    HW126984   3.147   3.326   4.934 -0.6736  0.1076 -1.5374
 5175SOL    HW226985   3.206   3.194   4.949 -0.3312  0.2153  1.4379
 5176SOL     OW26986   3.786   1.129   5.764 -0.3110 -0.2946  0.7923
 5176SOL    HW126987   3.742   1.099   5.843 -0.1399  1.0371  1.3864
 5176SOL    HW226988   3.788   1.221   5.789  0.4769 -0.3823  1.0481
 5177SOL     OW26989   0.649   0.039   8.313  0.4918  0.1726  0.3931
 5177SOL    HW126990   0.701   0.023   8.392 -0.9698 -1.5292  1.0037
 5177SOL    HW226991   0.589   0.101   8.354  1.0844  0.8680  0.2071
 5178SOL     OW26992   1.100   4.663   5.169 -0.4365 -0.5416  0.2849
 5178SOL    HW126993   1.161   4.695   5.236 -0.4212 -2.0670  1.0066
 5178SOL    HW226994   1.038   4.615   5.225 -1.6214 -0.1995 -0.7459
 5179SOL     OW26995   4.310   0.924  16.084  0.2421 -0.5428  0.0476
 5179SOL    HW126996   4.376   0.979  16.041  0.3911 -0.8369 -0.1034
 5179SOL    HW226997   4.360   0.868  16.143  1.2224  0.5844  0.2684
 5180SOL     OW26998   1.405   0.910   7.239  0.2822 -0.6838 -0.9880
 5180SOL    HW126999   1.355   0.884   7.316  3.5511 -1.7763  0.7731
 5180SOL    HW227000   1.477   0.847   7.246 -1.2244 -2.2291  0.7483
 5181SOL     OW27001   3.670   3.836  16.094  0.0609  0.3345 -0.0449
 5181SOL    HW127002   3.663   3.745  16.125 -0.1001  0.5573  0.5556
 5181SOL    HW227003   3.751   3.860  16.139 -0.7212 -1.4073  2.3090
 5182SOL     OW27004   2.545   2.258   8.077 -0.7503  0.6304 -0.4041
 5182SOL    HW127005   2.524   2.269   8.170  3.9246  2.5998  0.3925
 5182SOL    HW227006   2.473   2.315   8.050 -0.9732 -0.1114 -1.3628
 5183SOL     OW27007   0.408   1.637  11.784  0.0936 -0.5304  0.0043
 5183SOL    HW127008   0.498   1.617  11.760  0.4901  1.4708 -0.1673
 5183SOL    HW227009   0.407   1.581  11.862  2.0828  0.2651  0.5982
 5184SOL     OW27010   2.681   2.937   9.776 -0.0510 -0.7992  0.4518
 5184SOL    HW127011   2.709   2.951   9.686  0.5624 -2.2796  0.4268
 5184SOL    HW227012   2.585   2.935   9.767 -0.1861  2.2573  1.1995
 5185SOL     OW27013   1.403   4.500  11.889  0.0680  0.4033  0.1171
 5185SOL    HW127014   1.460   4.452  11.828 -0.0627  0.3212  0.0582
 5185SOL    HW227015   1.386   4.576  11.833  1.2885  0.3513 -0.3441
 5186SOL     OW27016   3.878   2.755  13.203 -0.5032 -0.4330 -0.3740
 5186SOL    HW127017   3.947   2.732  13.265  1.3663  2.6265 -1.2834
 5186SOL    HW227018   3.907   2.845  13.187 -0.1924 -0.3443  0.6776
 5187SOL     OW27019   4.179   0.732   4.488  0.2958  0.3221  0.6255
 5187SOL    HW127020   4.240   0.759   4.418 -1.7646 -0.1787 -1.3544
 5187SOL    HW227021   4.103   0.787   4.471 -0.9373 -1.4004  0.6387
 5188SOL     OW27022   0.065   1.541   5.845 -0.1369 -0.5806 -0.0949
 5188SOL    HW127023   0.153   1.574   5.830  0.4053 -2.8221 -1.7076
 5188SOL    HW227024   0.009   1.572   5.774  0.6689 -0.6608 -0.7546
 5189SOL     OW27025   0.901   2.651  12.114  0.5797 -0.3534 -0.1959
 5189SOL    HW127026   0.951   2.732  12.102 -0.3217 -0.2081 -2.8560
 5189SOL    HW227027   0.973   2.602  12.153 -0.0444 -0.9611  0.1968
 5190SOL     OW27028   2.433   4.053  11.129 -0.1280 -0.3711  0.4930
 5190SOL    HW127029   2.345   4.082  11.105  0.6685  0.1391 -1.9020
 5190SOL    HW227030   2.491   4.119  11.089  1.1232 -2.2082 -0.7168
 5191SOL     OW27031   1.448   1.624   3.991  0.2984  0.2793 -0.1624
 5191SOL    HW127032   1.465   1.675   3.912 -0.6413 -1.2051 -1.3180
 5191SOL    HW227033   1.435   1.692   4.058  1.7205  1.4620 -1.0804
 5192SOL     OW27034   1.770   3.331   0.811  0.3752 -0.3274  0.9684
 5192SOL    HW127035   1.809   3.329   0.724 -0.2855 -0.6458  0.6763
 5192SOL    HW227036   1.838   3.372   0.865 -0.7140  1.3756  1.0438
 5193SOL     OW27037   2.215   3.504  10.942 -0.4052  0.3003  0.4430
 5193SOL    HW127038   2.205   3.599  10.953  0.9054  0.3782  0.9132
 5193SOL    HW227039   2.291   3.505  10.883 -1.8226  1.3191 -1.3480
 5194SOL     OW27040   1.490   1.800   3.787 -0.0451  0.3791  0.3528
 5194SOL    HW127041   1.480   1.884   3.742  1.3654  0.6885  0.5996
 5194SOL    HW227042   1.582   1.780   3.770 -0.4044  0.1508 -1.2967
 5195SOL     OW27043   1.979   4.632   4.594 -0.0485 -0.2069  0.2094
 5195SOL    HW127044   1.966   4.686   4.516 -0.8762 -0.2262  0.3262
 5195SOL    HW227045   1.890   4.597   4.602 -0.3991  0.8383  0.8857
 5196SOL     OW27046   1.319   1.960   4.440  0.3662  0.0264  0.4317
 5196SOL    HW127047   1.226   1.960   4.463  0.9149 -3.8423  2.6615
 5196SOL    HW227048   1.326   2.006   4.356  2.6373 -1.6536 -0.3078
 5197SOL     OW27049   2.443   3.857   4.786 -0.5886 -0.2506 -0.2631
 5197SOL    HW127050   2.456   3.951   4.795  1.0453 -0.4256 -0.8351
 5197SOL    HW227051   2.416   3.833   4.874 -0.4491 -0.1389 -0.1918
 5198SOL     OW27052   1.023   4.349  10.550  0.1116 -0.2387 -0.3278
 5198SOL    HW127053   1.106   4.386  10.521  0.0277  0.0647 -0.1808
 5198SOL    HW227054   1.033   4.274  10.492 -0.5864 -1.9666  1.8016
 5199SOL     OW27055   3.408   3.453   7.948 -0.5582 -0.4202  0.0048
 5199SOL    HW127056   3.361   3.420   7.871  1.5266 -1.4969 -0.8124
 5199SOL    HW227057   3.419   3.545   7.926  0.6601 -0.7439 -0.7819
 5200SOL     OW27058   1.943   2.037   7.321  0.6058 -0.1956  0.0071
 5200SOL    HW127059   2.024   2.036   7.271  1.6695  3.1382  1.6542
 5200SOL    HW227060   1.970   2.080   7.402 -1.2534 -2.0517  1.6140
 5201SOL     OW27061   4.339   1.052   6.946 -0.5185 -0.3113  0.0110
 5201SOL    HW127062   4.318   1.110   6.873  1.5565  2.3765  1.5362
 5201SOL    HW227063   4.426   1.021   6.921 -0.5526 -0.5281  0.1625
 5202SOL     OW27064   4.230   1.925  11.139 -0.0831  0.3949 -0.2279
 5202SOL    HW127065   4.259   1.996  11.196  3.7978 -1.6622  0.3190
 5202SOL    HW227066   4.303   1.864  11.136 -0.5893 -0.2266  0.0217
 5203SOL     OW27067   2.203   1.019   8.360  0.5102  0.1546  0.1237
 5203SOL    HW127068   2.120   0.971   8.354 -0.6507  2.1134  0.5003
 5203SOL    HW227069   2.267   0.950   8.378 -0.9661 -0.5442  2.6667
 5204SOL     OW27070   0.223   1.105   3.920 -0.5877 -0.1029  0.3194
 5204SOL    HW127071   0.139   1.124   3.877  0.1084  0.9276 -0.5875
 5204SOL    HW227072   0.206   1.139   4.008 -1.5894 -0.7858  0.3963
 5205SOL     OW27073   2.905   2.282   0.701  0.2154  0.1038 -0.1750
 5205SOL    HW127074   2.840   2.352   0.699  0.7138  0.5992  1.1339
 5205SOL    HW227075   2.892   2.258   0.609 -0.3672 -0.5926  0.0852
 5206SOL     OW27076   2.958   2.275   3.899  0.5761 -0.2622  0.1525
 5206SOL    HW127077   2.897   2.240   3.835 -0.4809  3.1551 -0.6969
 5206SOL    HW227078   2.981   2.356   3.853 -0.0406  0.5225  1.2241
 5207SOL     OW27079   4.332   1.652   1.122  0.5586 -0.0322 -0.1457
 5207SOL    HW127080   4.280   1.572   1.126 -1.4352  1.2998  0.5324
 5207SOL    HW227081   4.365   1.657   1.212  1.4289 -2.4119 -0.3317
 5208SOL     OW27082   1.869   3.003  15.552  0.5789 -0.8118 -0.3239
 5208SOL    HW127083   1.801   3.055  15.595 -0.2077 -3.0588  1.1440
 5208SOL    HW227084   1.887   2.940  15.621 -0.2878 -2.0387 -1.2212
 5209SOL     OW27085   0.327   2.060   8.807 -0.5234  0.0308  0.1074
 5209SOL    HW127086   0.352   1.981   8.759  2.2942 -0.2969  2.0953
 5209SOL    HW227087   0.271   2.113   8.751  0.3637  1.8786  0.9722
 5210SOL     OW27088   1.302   1.623  11.447  0.3010  0.3855 -0.2569
 5210SOL    HW127089   1.375   1.623  11.385 -0.5183 -0.2614 -1.2332
 5210SOL    HW227090   1.269   1.533  11.446  1.5409 -0.0826  0.5132
 5211SOL     OW27091   4.491   0.552   7.823 -0.0209  0.0295  0.8544
 5211SOL    HW127092   4.412   0.538   7.875 -0.3458 -2.6870 -0.3732
 5211SOL    HW227093   4.453   0.572   7.738  1.5703  0.8218  0.3272
 5212SOL     OW27094   4.055   3.429  14.263  0.2363  0.2376 -0.2368
 5212SOL    HW127095   4.138   3.463  14.230  0.3660 -0.2070 -0.3735
 5212SOL    HW227096   4.055   3.336  14.241 -4.6725  0.4237 -0.8798
 5213SOL     OW27097   1.088   3.793   2.265  0.3095 -0.1403 -0.6551
 5213SOL    HW127098   1.124   3.729   2.204  1.0743  0.8967 -1.2867
 5213SOL    HW227099   1.170   3.818   2.306 -0.0565 -0.6456  0.4170
 5214SOL     OW27100   1.047   4.421   1.546  0.3123  0.5065  0.1198
 5214SOL    HW127101   1.062   4.327   1.537  0.1717  0.6580 -1.7037
 5214SOL    HW227102   1.008   4.432   1.459 -0.5537  2.4153  0.7455
 5215SOL     OW27103   0.482   4.565   2.796 -0.2552  0.4940 -0.3007
 5215SOL    HW127104   0.442   4.649   2.817  0.1924  0.6016  0.1321
 5215SOL    HW227105   0.558   4.585   2.742  1.5904  0.4485  2.2878
 5216SOL     OW27106   3.277   1.767   9.983 -0.1148  0.0248  0.0005
 5216SOL    HW127107   3.363   1.789  10.018 -0.6516  0.4249  1.0846
 5216SOL    HW227108   3.287   1.674   9.963  1.9318 -0.3814  2.9631
 5217SOL     OW27109   3.231   2.826  15.014  0.1781  0.1226 -0.3952
 5217SOL    HW127110   3.253   2.810  14.922 -1.9799  0.8668 -1.0606
 5217SOL    HW227111   3.215   2.920  15.020  1.1932  0.1193  2.2911
 5218SOL     OW27112   4.076   2.103   5.230  0.1052  0.6768  0.1005
 5218SOL    HW127113   4.120   2.021   5.254 -1.9250 -1.0076 -1.8896
 5218SOL    HW227114   4.009   2.074   5.168  1.1492 -0.2750 -0.5749
 5219SOL     OW27115   1.228   1.613   9.129  0.4780 -0.2568  0.5816
 5219SOL    HW127116   1.187   1.616   9.215  0.0993  0.4219  0.3745
 5219SOL    HW227117   1.156   1.581   9.075 -0.9516  1.2956  1.5998
 5220SOL     OW27118   0.937   4.306   4.405 -0.1046 -0.2591  0.2911
 5220SOL    HW127119   0.865   4.352   4.449  1.1516  0.2602  1.8003
 5220SOL    HW227120   1.014   4.326   4.457  0.4277 -0.6152 -0.3676
 5221SOL     OW27121   4.373   4.585   9.080 -0.5030  0.0737 -0.5331
 5221SOL    HW127122   4.448   4.640   9.105 -0.8416  0.7454 -1.0250
 5221SOL    HW227123   4.422   4.502   9.073  2.5155  1.7127  1.0672
 5222SOL     OW27124   0.333   3.003   2.827 -0.4659  0.0990 -0.2349
 5222SOL    HW127125   0.289   2.998   2.742 -0.5316 -0.8171 -0.1477
 5222SOL    HW227126   0.370   2.915   2.818 -1.0937 -0.6491  4.2103
 5223SOL     OW27127   0.825   0.799  11.473 -0.2236  0.3422 -0.1961
 5223SOL    HW127128   0.821   0.800  11.377 -2.9964 -1.0664 -0.1065
 5223SOL    HW227129   0.912   0.762  11.484  0.0594  0.1915 -2.7477
 5224SOL     OW27130   3.844   3.261  17.351  0.7268  0.3393  0.1955
 5224SOL    HW127131   3.846   3.350  17.315 -0.3864 -0.4261 -1.7933
 5224SOL    HW227132   3.938   3.243  17.342  0.7349  1.8652 -2.9042
 5225SOL     OW27133   3.483   1.684   0.567  0.0367  0.2861  0.0644
 5225SOL    HW127134   3.433   1.642   0.637  0.5824  1.4203  1.1358
 5225SOL    HW227135   3.463   1.623   0.495  1.2090 -1.7610  1.4594
 5226SOL     OW27136   2.366   2.161   8.373 -0.0484 -0.2629  0.4218
 5226SOL    HW127137   2.362   2.256   8.364  0.6603 -0.0386  2.4599
 5226SOL    HW227138   2.278   2.136   8.402 -0.3972  0.6717  0.1551
 5227SOL     OW27139   3.174   1.349   1.905 -0.3666 -0.0949 -0.1754
 5227SOL    HW127140   3.256   1.330   1.860 -0.3627  0.3673 -0.3635
 5227SOL    HW227141   3.131   1.417   1.853 -2.9404 -0.8963  0.8592
 5228SOL     OW27142   0.713   3.415   7.871  0.3565 -0.1305  0.1575
 5228SOL    HW127143   0.634   3.432   7.818  0.7592  2.0820  0.2808
 5228SOL    HW227144   0.676   3.451   7.951  0.4029 -2.3694  1.1934
 5229SOL     OW27145   0.839   0.122   9.805  0.2954  0.3694 -0.4121
 5229SOL    HW127146   0.812   0.031   9.814  0.6045  0.0541 -2.6973
 5229SOL    HW227147   0.905   0.126   9.736  0.5080 -2.0855 -0.3295
 5230SOL     OW27148   4.679   3.794  11.534  0.4451 -0.0453 -0.1945
 5230SOL    HW127149   4.679   3.877  11.487  2.4352 -0.2611 -0.5860
 5230SOL    HW227150   4.636   3.817  11.616 -0.3022  2.0637 -1.1709
 5231SOL     OW27151   0.635   0.850   8.128  0.2297 -0.3648 -0.2237
 5231SOL    HW127152   0.548   0.812   8.143  1.3455 -2.5184  0.7412
 5231SOL    HW227153   0.610   0.935   8.090  2.2328  0.5151  0.4674
 5232SOL     OW27154   0.912   3.773  11.905  0.0518 -0.2239  0.2586
 5232SOL    HW127155   0.969   3.849  11.900 -0.6529  0.2399 -0.7091
 5232SOL    HW227156   0.919   3.738  11.816 -2.4272  1.2621 -0.5295
 5233SOL     OW27157   0.706   4.473   1.941 -0.5564 -0.3779  0.2107
 5233SOL    HW127158   0.620   4.487   1.901  0.2969  0.8570 -1.1653
 5233SOL    HW227159   0.743   4.425   1.868  1.8113  1.4154  0.2436
 5234SOL     OW27160   2.246   3.175   8.379 -0.0143 -0.3179 -0.0145
 5234SOL    HW127161   2.170   3.141   8.332 -0.7102  0.2370  0.7260
 5234SOL    HW227162   2.293   3.209   8.302  1.6930  1.2683  1.7139
 5235SOL     OW27163   1.690   0.366  11.696 -0.6050 -0.0150 -0.1163
 5235SOL    HW127164   1.597   0.367  11.672 -1.1437 -1.9695  1.9298
 5235SOL    HW227165   1.713   0.388  11.606 -0.8463 -2.5620 -0.7943
 5236SOL     OW27166   1.784   3.038   2.606  0.2052 -0.1974  0.1004
 5236SOL    HW127167   1.696   2.999   2.609  0.4261 -0.5913  1.9056
 5236SOL    HW227168   1.766   3.095   2.532 -0.1776  0.9555  1.0750
 5237SOL     OW27169   1.070   0.056   9.611 -0.0693 -0.3724 -0.3532
 5237SOL    HW127170   1.032   0.007   9.539 -0.4568 -1.7191  0.7642
 5237SOL    HW227171   1.150   0.088   9.570  1.1920 -1.1352  1.4938
 5238SOL     OW27172   1.337   0.542   2.968  0.4009 -0.2132  0.2515
 5238SOL    HW127173   1.418   0.593   2.963 -0.1468  0.2759 -3.2633
 5238SOL    HW227174   1.349   0.496   3.051 -2.1298  0.4230  0.9781
 5239SOL     OW27175   4.008   4.175   5.541 -0.2531  0.1404 -0.2155
 5239SOL    HW127176   4.095   4.134   5.545 -0.7466 -0.7716  1.2323
 5239SOL    HW227177   4.013   4.254   5.489  1.1793  0.5914  0.5970
 5240SOL     OW27178   0.799   1.401   1.786  0.0980  0.1310 -0.1478
 5240SOL    HW127179   0.791   1.452   1.866 -1.0752  0.1452 -0.2662
 5240SOL    HW227180   0.894   1.400   1.775 -0.1918 -2.1645 -2.4873
 5241SOL     OW27181   1.597   1.286   5.355 -0.3149 -0.3312  0.1379
 5241SOL    HW127182   1.632   1.224   5.290 -0.1017  1.2438 -1.2567
 5241SOL    HW227183   1.679   1.324   5.385 -0.1424 -1.2068  0.7838
 5242SOL     OW27184   1.484   2.114   4.171  0.2991  0.1366  0.1486
 5242SOL    HW127185   1.521   2.184   4.117 -0.2979  1.0161  0.8813
 5242SOL    HW227186   1.469   2.160   4.254  0.7782 -2.8764  1.9115
 5243SOL     OW27187   4.446   2.907   2.928 -0.2840 -0.1217  0.2165
 5243SOL    HW127188   4.489   2.972   2.872 -0.4425  0.3732  0.6616
 5243SOL    HW227189   4.445   2.829   2.873  1.1828 -0.3908  0.5547
 5244SOL     OW27190   1.799   0.187   2.151  0.4265  0.4086 -0.5577
 5244SOL    HW127191   1.724   0.186   2.092  0.0744 -3.6123 -0.0477
 5244SOL    HW227192   1.862   0.246   2.110 -0.0694  1.5878  0.3795
 5245SOL     OW27193   3.322   1.529   3.393  0.2385  0.5033 -0.7925
 5245SOL    HW127194   3.271   1.478   3.456  0.0982  2.4570  0.6721
 5245SOL    HW227195   3.260   1.592   3.357  1.0409  1.7015 -0.0395
 5246SOL     OW27196   2.093   1.137   2.546 -0.3235  0.5739  0.2222
 5246SOL    HW127197   2.065   1.144   2.638 -0.4804 -2.3221  0.4090
 5246SOL    HW227198   2.115   1.229   2.536 -0.1455  0.4047 -0.8939
 5247SOL     OW27199   1.208   0.628   4.980 -0.1091  0.0842  0.2092
 5247SOL    HW127200   1.146   0.686   5.025  1.0556 -1.0634  3.2771
 5247SOL    HW227201   1.266   0.698   4.950 -0.4293  0.4850  0.5127
 5248SOL     OW27202   1.169   0.510  15.965  0.4899  0.3850 -0.1260
 5248SOL    HW127203   1.212   0.595  15.970 -0.6813  1.0207 -1.0222
 5248SOL    HW227204   1.182   0.480  15.875  1.2348  0.0272  0.0977
 5249SOL     OW27205   3.255   3.660   2.892  0.3007 -0.7581  0.3819
 5249SOL    HW127206   3.335   3.706   2.868  0.7028 -0.0438  3.0736
 5249SOL    HW227207   3.257   3.694   2.982  2.2941  0.8298 -0.2584
 5250SOL     OW27208   3.272   4.273  17.497 -0.0391 -0.0277 -0.1680
 5250SOL    HW127209   3.203   4.290  17.561  1.1249  1.5789  0.6427
 5250SOL    HW227210   3.317   4.357  17.488  0.3326 -0.1644  0.4137
 5251SOL     OW27211   2.214   1.629   1.266 -0.9114  0.3239  0.0001
 5251SOL    HW127212   2.286   1.628   1.202 -1.6916  1.4973 -0.8964
 5251SOL    HW227213   2.245   1.558   1.322  0.2453 -0.6641 -1.8806
 5252SOL     OW27214   2.283   3.535   4.525  0.1823 -0.3602  0.2047
 5252SOL    HW127215   2.325   3.621   4.523  0.9461 -0.7413 -0.2406
 5252SOL    HW227216   2.201   3.564   4.565 -0.4694 -1.1146 -0.6021
 5253SOL     OW27217   1.617   0.159   4.757 -0.2472  0.4804  0.5327
 5253SOL    HW127218   1.704   0.160   4.796  0.4230  2.7542 -1.0230
 5253SOL    HW227219   1.574   0.226   4.810 -2.4815  1.0727 -2.0438
 5254SOL     OW27220   0.951   1.790   5.174 -0.3330 -0.2498  0.6746
 5254SOL    HW127221   0.981   1.866   5.224  0.7228 -0.6472  0.6561
 5254SOL    HW227222   0.953   1.727   5.246  1.8132 -1.0522 -0.0807
 5255SOL     OW27223   1.672   2.579   5.975 -0.2981 -0.4150 -0.1521
 5255SOL    HW127224   1.660   2.643   6.045 -0.5769 -1.4120  0.7322
 5255SOL    HW227225   1.581   2.556   5.954 -0.3282 -0.1045 -0.3454
 5256SOL     OW27226   4.452   4.420  11.200 -0.0652 -0.3209 -0.5113
 5256SOL    HW127227   4.479   4.328  11.195  0.5494  0.0445 -3.9966
 5256SOL    HW227228   4.494   4.451  11.280  1.9544 -0.2657 -1.5959
 5257SOL     OW27229   4.721   1.797   2.660 -0.4994  0.7709 -0.1957
 5257SOL    HW127230   0.083   1.776   2.698  0.1411  3.1822 -0.2906
 5257SOL    HW227231   4.686   1.710   2.643 -1.5137  1.3897 -1.3336
 5258SOL     OW27232   2.227   1.286  13.338 -0.3361  0.2902 -0.2979
 5258SOL    HW127233   2.315   1.257  13.317 -0.0009 -0.3515  1.9023
 5258SOL    HW227234   2.197   1.305  13.250 -1.4306 -0.5345 -0.1100
 5259SOL     OW27235   0.206   4.048   7.238  0.1465 -0.0757 -0.1944
 5259SOL    HW127236   0.129   4.071   7.288  0.4239  0.1978  0.1041
 5259SOL    HW227237   0.234   4.134   7.207  0.2467  0.1677  0.5679
 5260SOL     OW27238   3.044   3.515   0.211 -0.3228 -0.3519  0.0092
 5260SOL    HW127239   3.020   3.590   0.156 -1.0117  3.4493  5.4245
 5260SOL    HW227240   2.969   3.457   0.196  0.8866 -1.6915 -0.8768
 5261SOL     OW27241   1.566   4.273   8.570  0.1505  0.3517  0.2186
 5261SOL    HW127242   1.555   4.204   8.505 -0.6471  0.6840 -0.0059
 5261SOL    HW227243   1.497   4.246   8.631  0.9547  0.3753  1.1252
 5262SOL     OW27244   1.611   2.380   5.710 -0.2896  0.0734  0.4985
 5262SOL    HW127245   1.615   2.368   5.615  0.8247  0.1835  0.5386
 5262SOL    HW227246   1.696   2.342   5.731  0.4036  0.7601 -1.1171
 5263SOL     OW27247   2.710   1.380   9.147 -0.3799 -0.4156 -0.2037
 5263SOL    HW127248   2.651   1.426   9.088 -0.0018  0.4873  0.1286
 5263SOL    HW227249   2.658   1.388   9.227 -0.0123  0.5413 -0.0605
 5264SOL     OW27250   3.103   3.528  12.110  0.1031  0.0466 -0.3138
 5264SOL    HW127251   3.036   3.552  12.174 -0.0294  1.6938 -1.0585
 5264SOL    HW227252   3.181   3.501  12.159  0.3105 -0.0291 -0.6868
 5265SOL     OW27253   1.114   1.950   6.258 -0.1220  0.0889 -0.2369
 5265SOL    HW127254   1.020   1.934   6.264 -0.4997  1.6899 -2.0918
 5265SOL    HW227255   1.121   2.002   6.338  1.2373 -0.7309  0.1871
 5266SOL     OW27256   3.390   3.837   7.254  0.3642 -0.3831  0.1655
 5266SOL    HW127257   3.478   3.874   7.250 -0.2054  0.9731  0.1323
 5266SOL    HW227258   3.406   3.743   7.264 -1.9558 -0.9291 -1.2382
 5267SOL     OW27259   1.524   2.846   6.954  0.2450 -0.0019  0.1398
 5267SOL    HW127260   1.614   2.823   6.933 -0.3815 -1.4173 -1.0079
 5267SOL    HW227261   1.492   2.782   6.890  0.6299  0.8471 -0.8945
 5268SOL     OW27262   0.743   0.196   2.826  0.0446  0.2409 -0.1667
 5268SOL    HW127263   0.765   0.141   2.901  0.1700  0.5706  0.0330
 5268SOL    HW227264   0.659   0.235   2.850  0.2264  0.6786 -0.2453
 5269SOL     OW27265   1.514   3.851  13.421  1.1013 -0.4856 -0.0225
 5269SOL    HW127266   1.561   3.916  13.473  1.1462 -2.3812  2.2786
 5269SOL    HW227267   1.430   3.847  13.467  0.0228  2.0454 -1.7365
 5270SOL     OW27268   1.145   3.761   8.500 -0.2706  0.1273 -0.8576
 5270SOL    HW127269   1.104   3.758   8.587  0.7229  1.6073 -0.3443
 5270SOL    HW227270   1.136   3.668   8.479 -3.2376  0.0755  0.6104
 5271SOL     OW27271   2.655   1.125   8.881 -0.4373  0.4282  0.2491
 5271SOL    HW127272   2.573   1.174   8.877  0.9692  2.7980  0.7429
 5271SOL    HW227273   2.677   1.114   8.788  1.5222  2.7019  0.4690
 5272SOL     OW27274   2.900   2.257  13.479  0.5642  0.3113  1.0580
 5272SOL    HW127275   2.828   2.314  13.454  1.2988  0.8993  0.2815
 5272SOL    HW227276   2.936   2.247  13.391 -2.0354 -1.9550  0.2516
 5273SOL     OW27277   0.278   0.847  16.102  0.0782  0.2194 -0.0738
 5273SOL    HW127278   0.277   0.892  16.187  1.0774 -1.4250  0.8044
 5273SOL    HW227279   0.185   0.850  16.080  0.1783  1.9424 -0.2290
 5274SOL     OW27280   0.868   2.612   4.381 -0.7091 -0.0463  0.4694
 5274SOL    HW127281   0.787   2.637   4.426  0.0748 -1.3522  2.6355
 5274SOL    HW227282   0.930   2.667   4.431  0.3910 -0.4427 -0.4712
 5275SOL     OW27283   0.354   3.363  17.090  0.3343  0.2370  0.0198
 5275SOL    HW127284   0.448   3.379  17.097  0.2661 -0.0318  1.6458
 5275SOL    HW227285   0.325   3.388  17.178 -1.1196  0.6257 -0.5690
 5276SOL     OW27286   4.584   0.991  13.771 -0.6857 -0.4719  0.3465
 5276SOL    HW127287   4.527   1.067  13.783  0.9644  0.8777 -0.4449
 5276SOL    HW227288   4.592   0.978  13.866  0.0330  0.0099  0.3501
 5277SOL     OW27289   1.967   3.432   7.879 -0.0830  0.3190 -0.3218
 5277SOL    HW127290   2.048   3.425   7.829  0.4274  1.1560  0.3849
 5277SOL    HW227291   1.995   3.425   7.971 -0.6916  2.6260  0.0382
 5278SOL     OW27292   2.531   3.283   8.436  0.6976 -0.2801 -0.0565
 5278SOL    HW127293   2.562   3.203   8.394 -0.0528 -0.2287 -0.7079
 5278SOL    HW227294   2.565   3.268   8.524 -1.0312 -2.2007  0.3031
 5279SOL     OW27295   4.248   3.618  12.791  0.1158 -0.3473  0.0940
 5279SOL    HW127296   4.229   3.529  12.823  0.0219 -1.4115 -2.9663
 5279SOL    HW227297   4.188   3.621  12.718 -1.6295 -1.9789  1.4548
 5280SOL     OW27298   0.547   3.738   8.305 -0.3162 -0.0224  0.0319
 5280SOL    HW127299   0.622   3.724   8.363 -0.6093 -1.8791 -0.0451
 5280SOL    HW227300   0.494   3.662   8.325 -1.2264  0.5732 -0.1369
 5281SOL     OW27301   3.259   1.701   7.941  0.0617  0.3138  0.6742
 5281SOL    HW127302   3.230   1.698   8.033 -1.8804  0.4107  0.0614
 5281SOL    HW227303   3.295   1.614   7.928 -1.4672 -0.3875  1.0417
 5282SOL     OW27304   0.831   1.437   5.158  0.0501 -0.5546 -0.9046
 5282SOL    HW127305   0.927   1.441   5.154 -0.0514  0.6428 -2.0337
 5282SOL    HW227306   0.811   1.377   5.087 -1.8533 -1.3084  0.2663
 5283SOL     OW27307   3.859   0.614   6.237  0.1326  0.0635  0.2454
 5283SOL    HW127308   3.872   0.654   6.322 -0.9363 -0.3978  0.6372
 5283SOL    HW227309   3.859   0.693   6.183 -1.7399  1.1304  1.7932
 5284SOL     OW27310   0.871   2.402   3.067  0.4157 -0.1650 -0.6533
 5284SOL    HW127311   0.859   2.349   2.988  1.1320 -1.5940  0.1983
 5284SOL    HW227312   0.858   2.341   3.139 -0.5395  2.0110  1.0141
 5285SOL     OW27313   2.536   4.377  10.624  0.2784 -0.1086  0.0304
 5285SOL    HW127314   2.578   4.433  10.690  1.5198 -1.3613  0.2958
 5285SOL    HW227315   2.494   4.323  10.691  0.7906  0.0268  0.4650
 5286SOL     OW27316   3.366   1.574  14.692  0.0536  0.2644 -0.2930
 5286SOL    HW127317   3.287   1.601  14.646  2.1007 -0.7143 -4.3895
 5286SOL    HW227318   3.388   1.505  14.628  1.1161  0.5981 -0.2892
 5287SOL     OW27319   1.816   4.083   1.877 -0.1979 -0.1416  0.0492
 5287SOL    HW127320   1.777   4.004   1.912 -1.6420  0.8409  0.6346
 5287SOL    HW227321   1.873   4.101   1.953 -1.1309 -1.9579  1.1602
 5288SOL     OW27322   1.030   3.108  12.046  0.3857  0.3181 -0.4158
 5288SOL    HW127323   1.081   3.181  12.080 -0.1581  0.3406  0.3332
 5288SOL    HW227324   0.943   3.132  12.076 -0.1287 -0.8939 -0.9567
 5289SOL     OW27325   2.856   4.137   5.127  0.6379 -0.7672 -0.2789
 5289SOL    HW127326   2.935   4.090   5.101  0.7328 -2.0340  2.3317
 5289SOL    HW227327   2.829   4.174   5.043  0.0607  0.6337  0.5292
 5290SOL     OW27328   2.585   3.252   4.183  0.5958 -0.5187  0.3275
 5290SOL    HW127329   2.611   3.340   4.210  0.8648  0.0135 -1.6477
 5290SOL    HW227330   2.605   3.246   4.089  0.0525 -1.7440  0.2970
 5291SOL     OW27331   2.157   2.109   9.527  0.3436 -0.1524 -0.5004
 5291SOL    HW127332   2.137   2.177   9.591  2.3390  0.2589 -0.3120
 5291SOL    HW227333   2.127   2.034   9.579 -1.4374 -0.9996 -2.7434
 5292SOL     OW27334   3.462   0.001   8.430 -0.7058 -0.2754 -0.2243
 5292SOL    HW127335   3.392   4.685   8.377 -1.6702 -1.2447  1.7626
 5292SOL    HW227336   3.538   4.675   8.399 -0.8187 -2.6769  3.2831
 5293SOL     OW27337   2.879   3.083   1.602  0.4517 -0.0222 -0.5541
 5293SOL    HW127338   2.963   3.103   1.560 -0.1901 -0.5423 -2.0717
 5293SOL    HW227339   2.862   3.009   1.544 -0.4485 -0.0000 -0.3159
 5294SOL     OW27340   0.874   3.895   2.117 -0.6170 -0.0125  0.1758
 5294SOL    HW127341   0.942   3.853   2.169  0.0705  0.3117 -0.4656
 5294SOL    HW227342   0.933   3.957   2.073 -1.5215  0.9184  0.2738
 5295SOL     OW27343   2.464   0.036   5.416 -0.0842 -0.1648  0.1394
 5295SOL    HW127344   2.472   0.018   5.510 -0.5926  1.9980  0.5890
 5295SOL    HW227345   2.389   0.095   5.416  1.0145  1.2306  2.2808
 5296SOL     OW27346   1.608   0.195   1.257 -0.0191  0.0155  0.0974
 5296SOL    HW127347   1.588   0.284   1.286  2.2834  1.5235 -2.9382
 5296SOL    HW227348   1.524   0.151   1.270  0.3262 -0.1310  1.9114
 5297SOL     OW27349   4.279   1.228  16.398  0.0396 -0.2631 -0.0732
 5297SOL    HW127350   4.223   1.198  16.326  0.2582  0.5370 -0.5848
 5297SOL    HW227351   4.297   1.142  16.435  0.1226 -0.6655 -1.0305
 5298SOL     OW27352   4.132   1.444   5.603  0.0630 -0.5108 -0.0640
 5298SOL    HW127353   4.167   1.433   5.691  0.5503 -1.3572 -0.3529
 5298SOL    HW227354   4.066   1.375   5.611  0.2649 -0.7122 -0.1252
 5299SOL     OW27355   1.528   2.642   3.036  0.5857 -0.1982 -0.1490
 5299SOL    HW127356   1.448   2.633   3.086  0.8378  1.2082  0.4941
 5299SOL    HW227357   1.513   2.730   3.003  3.9127  0.3436 -0.2237
 5300SOL     OW27358   1.303   1.009   7.774 -0.1193  0.0017  0.6159
 5300SOL    HW127359   1.270   0.919   7.771  1.5196 -0.5501 -0.8190
 5300SOL    HW227360   1.382   0.986   7.824  1.0394  1.0818 -0.7233
 5301SOL     OW27361   2.141   4.547   7.041  1.0214 -0.4652 -0.0125
 5301SOL    HW127362   2.223   4.595   7.027  1.4908 -1.0222  0.8170
 5301SOL    HW227363   2.127   4.545   6.946  0.6480 -2.2283  0.0944
 5302SOL     OW27364   0.073   2.886   4.982  0.6161  0.2244  0.1608
 5302SOL    HW127365   0.010   2.957   4.981  1.2502  0.7803 -0.4851
 5302SOL    HW227366   0.082   2.883   5.077 -0.2936 -1.5054  0.1985
 5303SOL     OW27367   2.037   3.450   0.339 -0.2027  0.2724 -0.4601
 5303SOL    HW127368   2.115   3.428   0.389 -0.9169  0.0241  0.5312
 5303SOL    HW227369   2.056   3.540   0.311  1.2021 -0.2534 -1.2549
 5304SOL     OW27370   2.999   4.133  15.545 -0.5047  0.2840 -0.7785
 5304SOL    HW127371   3.077   4.187  15.557 -0.5671  0.6783 -2.2050
 5304SOL    HW227372   3.010   4.116  15.452 -0.4311 -2.4310 -0.2684
 5305SOL     OW27373   3.681   1.415   6.332  0.3806 -0.1393  0.4448
 5305SOL    HW127374   3.675   1.467   6.252  0.3931 -0.8288 -0.0057
 5305SOL    HW227375   3.601   1.430   6.381  0.0256 -1.0127  0.1228
 5306SOL     OW27376   1.827   3.692   2.902  0.5947 -0.2163 -0.0440
 5306SOL    HW127377   1.881   3.691   2.823  2.4421  3.0949  1.1703
 5306SOL    HW227378   1.750   3.742   2.875 -0.7380 -1.0614  2.1474
 5307SOL     OW27379   3.527   1.365  17.541 -0.1519  0.1257  0.0701
 5307SOL    HW127380   3.507   1.387  17.450  0.3254  1.5162  0.2985
 5307SOL    HW227381   3.476   1.285  17.543  0.7354 -0.4722 -1.0448
 5308SOL     OW27382   0.582   0.339  14.956  0.1124  0.1521  0.1704
 5308SOL    HW127383   0.504   0.302  14.915  0.8367 -1.4016  0.1818
 5308SOL    HW227384   0.638   0.329  14.879 -0.7410 -0.6107 -0.3523
 5309SOL     OW27385   4.396   0.172   7.469  0.0119  0.0579 -0.2028
 5309SOL    HW127386   4.389   0.085   7.508  1.6874  0.1541  0.3356
 5309SOL    HW227387   4.308   0.205   7.486 -0.5925 -1.2567 -0.7711
 5310SOL     OW27388   1.192   2.230  14.898  0.6160 -0.4957 -0.3821
 5310SOL    HW127389   1.194   2.322  14.925 -2.2086 -1.0953  1.8049
 5310SOL    HW227390   1.283   2.203  14.888  0.4067 -1.5251  0.5092
 5311SOL     OW27391   1.371   3.767   2.376  0.3047 -0.0776  0.2661
 5311SOL    HW127392   1.324   3.707   2.435 -1.4107 -0.6970 -1.7211
 5311SOL    HW227393   1.426   3.712   2.321  0.2912  1.2995 -1.1334
 5312SOL     OW27394   2.550   4.140   3.087  0.4051  0.1670  0.4215
 5312SOL    HW127395   2.529   4.180   3.171 -0.5491  0.3443  0.0942
 5312SOL    HW227396   2.563   4.222   3.040  0.8713 -0.0744  0.1289
 5313SOL     OW27397   2.711   3.591  10.761 -0.6563  0.4864 -0.8493
 5313SOL    HW127398   2.752   3.586  10.675 -0.2803 -0.5134 -0.6048
 5313SOL    HW227399   2.767   3.524  10.799  0.4028  3.0744  2.2019
 5314SOL     OW27400   3.132   4.079   5.467 -0.6497 -0.3335 -0.5748
 5314SOL    HW127401   3.061   4.073   5.531 -0.3427  1.6685 -0.0573
 5314SOL    HW227402   3.166   3.990   5.475 -0.2405  0.0387  1.7481
 5315SOL     OW27403   3.527   0.718   2.541 -0.0435 -0.2605  0.0220
 5315SOL    HW127404   3.471   0.693   2.468  1.1681 -1.8406 -0.3498
 5315SOL    HW227405   3.529   0.813   2.531  3.9943 -0.1997  1.4271
 5316SOL     OW27406   0.636   1.950   8.292 -0.2111 -0.1468  0.1036
 5316SOL    HW127407   0.615   2.037   8.259  0.0297 -0.2089 -0.2118
 5316SOL    HW227408   0.548   1.915   8.310 -1.6868  3.1670 -0.6997
 5317SOL     OW27409   3.028   3.637   3.964 -0.4492  0.5372 -0.3030
 5317SOL    HW127410   2.978   3.592   3.897 -0.1512 -0.2934  0.0294
 5317SOL    HW227411   3.009   3.725   3.932 -0.7413  0.3000 -0.7721
 5318SOL     OW27412   0.016   2.077   6.711  0.3030 -0.3701  0.1043
 5318SOL    HW127413   4.679   2.002   6.708  0.8604 -0.8106  0.0353
 5318SOL    HW227414   4.716   2.145   6.648 -0.1800  0.3371  1.0474
 5319SOL     OW27415   4.361   1.676   8.540  0.0866  0.2900 -0.0515
 5319SOL    HW127416   4.308   1.627   8.478 -0.1867 -0.1010  0.4836
 5319SOL    HW227417   4.403   1.606   8.592 -1.7328  0.7994  2.0944
 5320SOL     OW27418   4.172   4.166   5.206 -0.3197  0.6406  0.6197
 5320SOL    HW127419   4.203   4.146   5.117 -5.7174 -0.0248 -1.0821
 5320SOL    HW227420   4.165   4.262   5.208 -0.3317  0.6473  0.1950
 5321SOL     OW27421   0.719   0.076   9.541 -0.0800  0.5236  0.2621
 5321SOL    HW127422   0.767   0.012   9.594  0.6284 -0.3883 -1.5005
 5321SOL    HW227423   0.646   0.101   9.599 -0.3844  1.3197 -0.4674
 5322SOL     OW27424   3.741   4.426   4.567 -0.5826 -0.0436 -0.3847
 5322SOL    HW127425   3.713   4.438   4.476 -0.7492  2.2374 -0.0311
 5322SOL    HW227426   3.733   4.330   4.568 -3.9999  0.2210 -1.7422
 5323SOL     OW27427   3.254   4.148   8.594  0.4067 -0.4469 -0.1639
 5323SOL    HW127428   3.258   4.054   8.613 -0.2800 -0.1233  1.5534
 5323SOL    HW227429   3.232   4.178   8.682 -1.5443  0.5187 -0.9696
 5324SOL     OW27430   0.192   0.374   4.819  0.3638  0.2470 -0.7717
 5324SOL    HW127431   0.158   0.339   4.901  0.4825  0.7548 -0.5107
 5324SOL    HW227432   0.281   0.339   4.820  0.0210 -0.5638  0.6131
 5325SOL     OW27433   0.357   2.056   5.414 -0.4074 -0.1963 -0.8043
 5325SOL    HW127434   0.427   2.107   5.455 -1.1190 -0.9491  1.3688
 5325SOL    HW227435   0.312   2.114   5.352  2.1355  2.2597 -0.3738
 5326SOL     OW27436   2.822   2.849  15.292 -0.4009  0.3934  0.6107
 5326SOL    HW127437   2.733   2.858  15.326  0.2575  2.2552  1.8053
 5326SOL    HW227438   2.875   2.843  15.372  0.6533  0.4831 -0.0840
 5327SOL     OW27439   2.461   2.496   2.080  0.0433  0.3227  0.5687
 5327SOL    HW127440   2.464   2.404   2.103  1.2581  0.4214  0.8103
 5327SOL    HW227441   2.505   2.538   2.153 -2.7495 -0.7751  2.8597
 5328SOL     OW27442   2.362   2.136   6.646  0.1148  0.1535 -0.1067
 5328SOL    HW127443   2.367   2.119   6.552 -0.1684 -1.7801  0.2287
 5328SOL    HW227444   2.286   2.194   6.643  0.4038  0.5024 -0.4905
 5329SOL     OW27445   1.103   3.632   6.164  0.1644  0.0516 -0.4790
 5329SOL    HW127446   1.160   3.709   6.169  1.5234 -1.1058  1.7930
 5329SOL    HW227447   1.158   3.556   6.147  0.1801  0.1719 -0.9727
 5330SOL     OW27448   3.831   4.160  15.070 -0.0415  0.3136  0.3261
 5330SOL    HW127449   3.816   4.250  15.042 -0.8288 -0.3369 -1.3284
 5330SOL    HW227450   3.799   4.112  14.994 -0.3462  0.7727  0.1661
 5331SOL     OW27451   4.533   0.972   8.419  0.4767 -0.4430 -0.6303
 5331SOL    HW127452   4.536   1.064   8.392  0.9729 -0.2819 -0.0388
 5331SOL    HW227453   4.519   0.930   8.334  1.5476 -0.7275 -0.6643
 5332SOL     OW27454   0.891   4.400   0.415 -0.0111  0.3381  0.0846
 5332SOL    HW127455   0.940   4.409   0.497 -0.8578  0.4084  0.5758
 5332SOL    HW227456   0.829   4.473   0.419 -1.5229 -0.8965 -0.8963
 5333SOL     OW27457   2.894   3.000   3.277  0.2573 -0.1828  0.2804
 5333SOL    HW127458   2.803   2.970   3.279  0.2331 -0.1253  0.0225
 5333SOL    HW227459   2.877   3.088   3.310 -0.7270  1.1188 -3.6743
 5334SOL     OW27460   2.726   4.394   7.924  0.2326 -0.3592 -0.3269
 5334SOL    HW127461   2.720   4.426   7.834  1.2702 -0.0390 -0.2881
 5334SOL    HW227462   2.652   4.438   7.966  1.1304  1.4113 -0.5914
 5335SOL     OW27463   2.648   4.432   2.294 -0.0453  0.1681 -0.0241
 5335SOL    HW127464   2.742   4.446   2.302  0.1330  0.6777 -2.7757
 5335SOL    HW227465   2.640   4.425   2.199 -1.9390 -1.5683  0.2633
 5336SOL     OW27466   1.493   0.507  15.302 -0.1148  0.2634  0.2070
 5336SOL    HW127467   1.432   0.505  15.228  1.1820 -1.7738 -0.8160
 5336SOL    HW227468   1.507   0.600  15.318 -1.4437  0.8735 -2.2274
 5337SOL     OW27469   3.635   1.868   3.598  0.0370 -1.0803  0.6302
 5337SOL    HW127470   3.623   1.787   3.549 -3.5768 -0.5071  0.5582
 5337SOL    HW227471   3.649   1.931   3.528  0.5137 -1.4044  0.4368
 5338SOL     OW27472   0.541   4.228   4.256 -0.0431  0.3001  0.7009
 5338SOL    HW127473   0.621   4.184   4.285  0.0830 -0.1077 -0.2906
 5338SOL    HW227474   0.481   4.214   4.329 -0.6650 -0.8330 -0.0271
 5339SOL     OW27475   0.418   4.233   9.329  0.5360  0.3180 -0.4425
 5339SOL    HW127476   0.393   4.237   9.236 -1.1018 -1.4766 -0.0635
 5339SOL    HW227477   0.359   4.163   9.355  0.2335  0.9134  0.4794
 5340SOL     OW27478   3.669   0.650   5.071  0.7491  0.1290  0.3712
 5340SOL    HW127479   3.664   0.567   5.023  1.5361  0.2091  0.1489
 5340SOL    HW227480   3.674   0.628   5.164 -0.4890  2.3276  0.9790
 5341SOL     OW27481   4.692   2.257   1.738 -0.5735 -0.6141  0.2316
 5341SOL    HW127482   4.651   2.183   1.782  1.6389 -1.2569  1.2094
 5341SOL    HW227483   4.686   2.216   1.651  1.1035  1.2929 -0.7917
 5342SOL     OW27484   0.133   4.065   5.044 -0.1367  0.4841 -0.2527
 5342SOL    HW127485   0.114   4.010   5.120  0.2201 -0.1510 -0.6258
 5342SOL    HW227486   0.105   4.004   4.975  0.2904 -1.2225  1.0899
 5343SOL     OW27487   3.871   3.874   2.942 -0.1448  0.0188 -0.0524
 5343SOL    HW127488   3.910   3.885   3.029 -0.9949  0.5839  0.2542
 5343SOL    HW227489   3.940   3.828   2.893  1.1912  1.8529  0.1174
 5344SOL     OW27490   2.625   2.953   2.385  0.8600 -0.0751  0.4214
 5344SOL    HW127491   2.561   3.023   2.381  0.5892 -0.3759 -0.7038
 5344SOL    HW227492   2.634   2.941   2.290 -1.1738 -2.9061  0.6022
 5345SOL     OW27493   2.543   3.785   2.948 -0.8409 -0.9749 -0.0429
 5345SOL    HW127494   2.477   3.848   2.976 -0.2738 -0.3048 -0.2154
 5345SOL    HW227495   2.580   3.834   2.874  0.9313 -1.1408  0.7299
 5346SOL     OW27496   2.312   4.030   1.597 -0.6152  0.3134  0.0124
 5346SOL    HW127497   2.382   3.972   1.565 -1.2030 -0.8684  0.9089
 5346SOL    HW227498   2.356   4.074   1.669 -0.9404  1.3197 -0.4093
 5347SOL     OW27499   1.404   1.021   6.110 -0.1702 -0.0515 -0.0850
 5347SOL    HW127500   1.416   1.115   6.118  1.5579 -0.1413 -1.8164
 5347SOL    HW227501   1.364   1.006   6.197 -0.1035 -0.6764 -0.1597
 5348SOL     OW27502   3.787   0.493  12.678 -0.3255  0.2914 -0.4784
 5348SOL    HW127503   3.837   0.430  12.626  0.9877 -0.3211  1.5165
 5348SOL    HW227504   3.787   0.439  12.758 -1.2164  2.5678  1.0572
 5349SOL     OW27505   4.187   4.285  10.804 -0.2579  0.4752  0.2946
 5349SOL    HW127506   4.263   4.341  10.818  0.0893  0.0575  0.0700
 5349SOL    HW227507   4.190   4.270  10.709 -1.8430 -1.1900  0.5183
 5350SOL     OW27508   0.300   0.185  11.091 -0.2399  0.0941 -0.0435
 5350SOL    HW127509   0.324   0.149  11.176  1.5156  2.3242  0.3959
 5350SOL    HW227510   0.241   0.113  11.067 -1.9034  1.1057  1.0592
 5351SOL     OW27511   2.617   0.047   3.592  0.3156  0.2547  0.1462
 5351SOL    HW127512   2.577   4.696   3.545  2.7604 -0.9437 -0.0995
 5351SOL    HW227513   2.707   0.043   3.559  0.7942  1.3606  1.3256
 5352SOL     OW27514   3.316   2.548   7.585  0.0195  0.2630  0.2919
 5352SOL    HW127515   3.233   2.584   7.553 -0.2537  0.3411  1.0785
 5352SOL    HW227516   3.291   2.503   7.666 -0.6497  1.5837  0.8265
 5353SOL     OW27517   1.532   3.125   7.493 -0.1406 -0.1697 -0.0175
 5353SOL    HW127518   1.467   3.094   7.429 -0.6340 -0.9332  0.8584
 5353SOL    HW227519   1.487   3.206   7.515  2.8189  0.7391  2.5907
 5354SOL     OW27520   3.673   2.506   3.122 -0.4238  0.4318 -0.0532
 5354SOL    HW127521   3.581   2.495   3.100  0.2098 -1.4672 -1.7313
 5354SOL    HW227522   3.666   2.558   3.203 -0.1343  0.6105 -0.1411
 5355SOL     OW27523   4.599   3.149   4.238 -0.5042 -0.7276 -0.4901
 5355SOL    HW127524   4.614   3.067   4.190 -1.4657 -0.0773 -1.8854
 5355SOL    HW227525   4.628   3.212   4.173  0.0195 -0.9810 -0.5077
 5356SOL     OW27526   2.243   0.093   7.795  0.2439 -0.2691  0.0759
 5356SOL    HW127527   2.240   0.108   7.701 -0.9710  2.5749  0.5710
 5356SOL    HW227528   2.160   0.047   7.797 -0.2679  0.5523 -2.5208
 5357SOL     OW27529   2.277   4.391   1.697 -0.2166  0.0245 -0.0781
 5357SOL    HW127530   2.232   4.308   1.682 -0.8773  0.2181  0.8556
 5357SOL    HW227531   2.369   4.363   1.701 -0.6494 -1.6680 -2.0205
 5358SOL     OW27532   2.292   0.837   7.891  0.0573 -0.1976  0.3338
 5358SOL    HW127533   2.303   0.856   7.797 -0.3602  2.9220  0.9254
 5358SOL    HW227534   2.366   0.885   7.927 -1.5907  0.8699  2.2505
 5359SOL     OW27535   0.231   1.396   4.612  0.1669  0.0295  0.4750
 5359SOL    HW127536   0.152   1.388   4.560  0.5470 -0.4237 -0.0315
 5359SOL    HW227537   0.247   1.302   4.623  1.6327 -0.1081 -2.8742
 5360SOL     OW27538   4.598   1.088  14.366 -0.5786 -0.4534 -1.1644
 5360SOL    HW127539   4.571   1.098  14.457  1.2958 -2.8060 -0.3172
 5360SOL    HW227540   4.691   1.108  14.376 -0.9115  1.0017 -1.0989
 5361SOL     OW27541   3.166   0.929  14.350  0.9379 -0.3811 -0.3246
 5361SOL    HW127542   3.080   0.897  14.323  0.6376  0.5399 -0.4828
 5361SOL    HW227543   3.207   0.952  14.266  1.5845 -3.0237 -0.7255
 5362SOL     OW27544   1.377   0.956   4.265 -0.2451  0.5359  0.2499
 5362SOL    HW127545   1.450   0.931   4.321 -1.1274  2.4686  2.2482
 5362SOL    HW227546   1.348   0.868   4.241 -3.0068  1.3505  0.5711
 5363SOL     OW27547   3.475   2.646  12.007 -0.2766  0.2483  0.0287
 5363SOL    HW127548   3.455   2.726  12.055  0.7889  0.9094 -0.6457
 5363SOL    HW227549   3.412   2.646  11.935  1.1219 -3.2599 -1.1908
 5364SOL     OW27550   0.713   2.591   2.736 -0.4743 -0.0930 -0.3974
 5364SOL    HW127551   0.765   2.607   2.815 -2.6951 -0.5379  1.1668
 5364SOL    HW227552   0.708   2.496   2.749 -2.9530  0.1660  0.5782
 5365SOL     OW27553   1.885   2.232   7.140  0.6357 -0.5226  0.3351
 5365SOL    HW127554   1.920   2.307   7.188 -0.6137  0.6307 -0.5047
 5365SOL    HW227555   1.879   2.164   7.207 -2.4932 -1.9183 -1.3329
 5366SOL     OW27556   2.405   3.081   7.428 -0.4502 -0.0575 -0.9324
 5366SOL    HW127557   2.477   3.082   7.491 -1.4135  0.9863  0.1415
 5366SOL    HW227558   2.448   3.059   7.345 -1.0933 -2.5072 -0.6161
 5367SOL     OW27559   0.219   2.041   0.230  0.0999  0.1157  0.6890
 5367SOL    HW127560   0.291   2.103   0.216 -0.8310  1.0491  0.0927
 5367SOL    HW227561   0.255   1.985   0.299 -2.4290  0.5912  2.3858
 5368SOL     OW27562   4.621   1.697   2.199  0.4210 -0.0554 -0.5947
 5368SOL    HW127563   4.610   1.664   2.289  2.6125  0.9249  0.0284
 5368SOL    HW227564   4.586   1.625   2.146 -2.3667  1.1093 -0.3299
 5369SOL     OW27565   1.025   2.189   2.291 -0.5432  0.0963  0.2245
 5369SOL    HW127566   1.022   2.136   2.371  0.8044 -0.0040  0.2138
 5369SOL    HW227567   1.096   2.140   2.249 -0.5842  1.1415 -1.0656
 5370SOL     OW27568   0.281   4.156   6.336 -0.7678  0.2853 -0.0917
 5370SOL    HW127569   0.265   4.148   6.430  3.2200  2.2325  0.7339
 5370SOL    HW227570   0.327   4.072   6.325 -2.2835 -0.6129  0.3836
 5371SOL     OW27571   0.161   2.722   2.231 -0.8824  0.5468 -0.1946
 5371SOL    HW127572   0.135   2.704   2.141 -1.5001 -2.7328  0.6506
 5371SOL    HW227573   0.187   2.635   2.260 -0.7690 -0.0260 -1.9896
 5372SOL     OW27574   3.820   3.946  10.029 -0.2609 -0.5249 -0.0541
 5372SOL    HW127575   3.748   3.897  10.069  0.7998 -1.7014  0.4036
 5372SOL    HW227576   3.836   3.891   9.953 -0.7948 -1.9087  0.8278
 5373SOL     OW27577   2.206   4.264   1.286 -0.1009  0.5718 -0.0003
 5373SOL    HW127578   2.300   4.255   1.302  0.3027  2.3003 -1.3818
 5373SOL    HW227579   2.197   4.352   1.248  0.5614  0.2843 -0.8141
 5374SOL     OW27580   0.423   2.739   3.972  0.3503 -0.0880  0.0178
 5374SOL    HW127581   0.465   2.782   3.897 -0.7408  0.0194 -0.5299
 5374SOL    HW227582   0.336   2.714   3.941 -0.1272  0.4977  0.9271
 5375SOL     OW27583   2.234   4.713  15.588  0.6270 -0.3395 -0.3382
 5375SOL    HW127584   2.150   0.023  15.556 -0.1619 -1.8030  0.2467
 5375SOL    HW227585   2.203   4.672  15.670 -0.0417 -0.7339 -0.7896
 5376SOL     OW27586   1.626   3.465   5.000 -0.2959 -0.3612 -0.5373
 5376SOL    HW127587   1.575   3.399   5.046 -1.4806  0.8217 -0.1422
 5376SOL    HW227588   1.681   3.401   4.955  0.3940  0.8778 -1.4798
 5377SOL     OW27589   1.078   0.693   6.928 -0.4333 -0.3595 -0.9196
 5377SOL    HW127590   1.138   0.619   6.930 -2.9970 -2.3624  1.2828
 5377SOL    HW227591   1.026   0.683   7.007  1.9145 -0.0066  0.6719
 5378SOL     OW27592   3.505   2.405  11.267  0.2343  0.0848 -0.3916
 5378SOL    HW127593   3.568   2.385  11.197  1.0401 -1.7708  0.8832
 5378SOL    HW227594   3.427   2.401  11.212  2.0094 -0.5200 -2.8385
 5379SOL     OW27595   3.788   1.734   7.337  0.4305  0.5242  0.0324
 5379SOL    HW127596   3.846   1.794   7.291  1.0576 -0.0192  0.1292
 5379SOL    HW227597   3.830   1.728   7.423 -0.0779  1.0000  0.3183
 5380SOL     OW27598   0.120   3.332   7.411  0.0743  0.0395 -0.0191
 5380SOL    HW127599   0.112   3.283   7.492 -1.7340  0.7028  0.1927
 5380SOL    HW227600   0.098   3.420   7.443 -1.3767  0.2540 -1.5988
 5381SOL     OW27601   2.434   1.091   8.571  0.1653  0.4922  0.4441
 5381SOL    HW127602   2.341   1.109   8.557  0.0377 -1.0231 -0.7534
 5381SOL    HW227603   2.426   1.022   8.637  1.7382  0.7725  0.9250
 5382SOL     OW27604   0.194   3.369   5.505  0.5238 -0.1745  0.2795
 5382SOL    HW127605   0.158   3.392   5.591 -1.1630  0.9035 -0.7232
 5382SOL    HW227606   0.284   3.353   5.535  0.3736 -2.0118 -0.2474
 5383SOL     OW27607   0.462   2.314   2.955  0.3404 -0.1973 -0.2337
 5383SOL    HW127608   0.437   2.403   2.930  1.2914  0.4400  1.1153
 5383SOL    HW227609   0.395   2.261   2.910  0.2133 -1.7828  1.8384
 5384SOL     OW27610   1.390   4.035   5.033  0.1490  0.0189  0.2839
 5384SOL    HW127611   1.340   3.993   4.962  0.4461 -0.4687  0.3645
 5384SOL    HW227612   1.355   4.124   5.029 -0.0958 -0.1337 -1.0307
 5385SOL     OW27613   3.690   4.070  11.500 -0.0706 -0.9281  0.0463
 5385SOL    HW127614   3.738   4.086  11.418 -0.6372 -1.1304 -0.3181
 5385SOL    HW227615   3.676   3.976  11.491 -0.6365 -0.7992 -0.3806
 5386SOL     OW27616   4.326   3.890  10.087  0.1893  0.4514  0.4160
 5386SOL    HW127617   4.255   3.935  10.132 -0.4699  0.6692 -0.8728
 5386SOL    HW227618   4.301   3.910   9.997 -2.4816  0.8511  1.2478
 5387SOL     OW27619   0.490   0.931   4.472 -0.4073 -0.1289  0.1575
 5387SOL    HW127620   0.465   0.987   4.399  2.9125  1.2751  0.0906
 5387SOL    HW227621   0.577   0.894   4.455 -0.0849  1.5567 -1.8999
 5388SOL     OW27622   2.846   0.330  15.543  0.0342  0.5224  0.8080
 5388SOL    HW127623   2.860   0.412  15.495  1.5874 -0.2183 -0.0143
 5388SOL    HW227624   2.751   0.321  15.536 -0.2512  1.7976  2.9386
 5389SOL     OW27625   2.716   2.101   0.353  0.3236 -0.5706 -0.1168
 5389SOL    HW127626   2.679   2.068   0.435 -2.1257  0.0134 -0.9848
 5389SOL    HW227627   2.787   2.040   0.332  1.2703  1.1063 -1.8052
 5390SOL     OW27628   1.815   4.556   5.545 -0.1820 -0.0658 -0.1625
 5390SOL    HW127629   1.871   4.503   5.601  0.4933  0.7100 -0.1064
 5390SOL    HW227630   1.767   4.486   5.500  2.6556 -1.2774 -1.3399
 5391SOL     OW27631   3.873   3.512   3.025  0.1496 -0.6817  0.1270
 5391SOL    HW127632   3.858   3.524   2.931  0.8614 -1.0233 -0.0329
 5391SOL    HW227633   3.935   3.439   3.021  0.8633 -0.0955  0.4668
 5392SOL     OW27634   2.039   1.378   7.250  0.0043 -0.3309 -0.4655
 5392SOL    HW127635   1.978   1.451   7.257  2.5764  1.6485  1.1047
 5392SOL    HW227636   2.096   1.382   7.327  0.3098  1.4217 -0.7882
 5393SOL     OW27637   2.394   4.528  11.949 -0.0450 -0.0060  0.2378
 5393SOL    HW127638   2.315   4.475  11.953 -0.0720 -0.0575 -1.0440
 5393SOL    HW227639   2.403   4.560  12.039  1.1163 -0.3350  0.2365
 5394SOL     OW27640   4.139   1.353   2.896  0.6546  0.0049 -0.3873
 5394SOL    HW127641   4.218   1.404   2.877  0.7167  0.3135  0.6745
 5394SOL    HW227642   4.157   1.339   2.989  3.9538 -1.0803 -1.2032
 5395SOL     OW27643   0.654   4.052   5.128  0.0370  0.3143  0.3766
 5395SOL    HW127644   0.681   3.983   5.189 -0.1359 -1.3220 -1.4166
 5395SOL    HW227645   0.579   4.088   5.175 -1.0720 -0.5956 -0.6917
 5396SOL     OW27646   2.601   1.662   2.893  0.5789 -0.4446  0.2572
 5396SOL    HW127647   2.674   1.631   2.840  0.9258 -0.7035  0.8864
 5396SOL    HW227648   2.609   1.757   2.885  0.8704 -0.5507 -0.7229
 5397SOL     OW27649   3.033   4.599   1.754  0.3682 -0.3034  0.0464
 5397SOL    HW127650   3.064   4.530   1.812  1.7352  0.3012  0.0350
 5397SOL    HW227651   3.103   4.663   1.762  0.8345 -0.6470 -1.2374
 5398SOL     OW27652   4.514   0.814   3.555 -0.2033 -0.1972 -0.6541
 5398SOL    HW127653   4.589   0.763   3.587 -0.1736  0.2332 -0.0358
 5398SOL    HW227654   4.563   0.878   3.503  0.4966 -0.6893 -0.6070
 5399SOL     OW27655   3.376   0.600   7.171 -0.1749 -0.2075 -0.1964
 5399SOL    HW127656   3.376   0.560   7.084  2.6477 -1.6176  0.4429
 5399SOL    HW227657   3.392   0.691   7.146 -1.5401 -0.2955 -1.4096
 5400SOL     OW27658   2.793   3.688  12.001 -0.1511  0.2827 -0.1113
 5400SOL    HW127659   2.782   3.607  11.951  0.0606  0.2553 -0.1127
 5400SOL    HW227660   2.836   3.662  12.082  0.4003  3.1173  0.5176
 5401SOL     OW27661   1.909   2.820  14.564 -0.1655 -0.3479  0.2310
 5401SOL    HW127662   1.835   2.773  14.525 -0.3095  0.2780 -0.2368
 5401SOL    HW227663   1.981   2.757  14.565  0.6748  0.6362  1.0679
 5402SOL     OW27664   4.250   4.242   6.921  0.3404 -0.3202  0.0963
 5402SOL    HW127665   4.216   4.170   6.974  2.3873 -0.7671  0.8010
 5402SOL    HW227666   4.179   4.306   6.923 -0.0443 -0.7298 -0.5097
 5403SOL     OW27667   0.330   1.394  14.935 -0.0805 -0.3143  0.6027
 5403SOL    HW127668   0.240   1.427  14.933 -0.2108 -0.8363 -2.2854
 5403SOL    HW227669   0.361   1.455  14.868  0.8727 -0.2512  1.0897
 5404SOL     OW27670   3.042   3.214   7.744 -0.0872 -0.1927 -0.0550
 5404SOL    HW127671   3.043   3.118   7.734  0.4299 -0.1859 -0.0874
 5404SOL    HW227672   3.021   3.241   7.655  2.9123 -2.1850 -1.3715
 5405SOL     OW27673   4.019   0.937   9.302 -0.8512 -0.4846 -0.3335
 5405SOL    HW127674   4.063   0.992   9.367  0.1439 -0.3008 -1.1577
 5405SOL    HW227675   4.051   0.974   9.220  0.4810  3.0473  1.7508
 5406SOL     OW27676   2.094   1.021   3.368 -0.3016 -0.3131  0.4267
 5406SOL    HW127677   2.002   1.005   3.351 -0.0537  0.8554 -1.9640
 5406SOL    HW227678   2.121   1.074   3.293  1.7563 -2.1008 -0.1078
 5407SOL     OW27679   4.638   4.026   7.758  0.2125  0.0922  0.3480
 5407SOL    HW127680   4.561   4.079   7.741  0.2097 -0.9243 -2.7478
 5407SOL    HW227681   4.648   3.978   7.676  0.1890 -1.2787  1.1389
 5408SOL     OW27682   0.625   2.417  16.687  0.2103 -0.1327  0.5568
 5408SOL    HW127683   0.689   2.350  16.666 -0.5024  0.0712 -2.2491
 5408SOL    HW227684   0.615   2.458  16.602 -0.3943  0.6361  0.9967
 5409SOL     OW27685   1.902   3.899  12.087 -0.4633  0.0947  0.3010
 5409SOL    HW127686   1.813   3.906  12.122 -0.5544  2.1005 -0.3319
 5409SOL    HW227687   1.921   3.991  12.067 -1.6343  0.0209 -1.1350
 5410SOL     OW27688   3.224   3.615  17.660  0.0823  0.3828  0.0039
 5410SOL    HW127689   3.190   3.528  17.635  1.6991 -0.6456  1.3944
 5410SOL    HW227690   3.260   3.604   0.055  0.6323 -1.2991 -0.4171
 5411SOL     OW27691   3.302   3.533   6.446 -0.0691 -0.0992  0.0760
 5411SOL    HW127692   3.244   3.566   6.377  1.3722  3.3713  0.5316
 5411SOL    HW227693   3.343   3.455   6.409 -3.4843 -0.8703 -2.1336
 5412SOL     OW27694   1.157   1.445   3.822  0.4485  0.0730  0.0875
 5412SOL    HW127695   1.081   1.483   3.867 -1.2751 -0.2891 -2.4929
 5412SOL    HW227696   1.158   1.357   3.859  2.3085 -0.9516 -2.3957
 5413SOL     OW27697   1.017   1.150  12.462  0.4729  0.0140  0.4270
 5413SOL    HW127698   1.068   1.231  12.459 -0.3240  0.4381 -1.6990
 5413SOL    HW227699   1.025   1.123  12.371 -0.4989  0.3736  0.2368
 5414SOL     OW27700   2.890   1.992   4.534  0.2666 -1.0296  0.2231
 5414SOL    HW127701   2.845   2.022   4.614 -0.9583 -2.7514  0.1796
 5414SOL    HW227702   2.958   1.935   4.571  0.4209 -0.6537  0.5226
 5415SOL     OW27703   4.501   3.809   2.647 -0.8763  0.4400  0.0355
 5415SOL    HW127704   4.524   3.819   2.555 -0.7827 -1.4399 -0.1587
 5415SOL    HW227705   4.485   3.902   2.664 -1.8857 -0.1169  2.1628
 5416SOL     OW27706   3.284   0.620   8.418 -0.1784 -0.3811 -0.4066
 5416SOL    HW127707   3.215   0.644   8.480 -0.5469 -0.8216 -0.6377
 5416SOL    HW227708   3.359   0.658   8.463  0.2401  0.3933 -1.7745
 5417SOL     OW27709   0.997   2.261   1.245  0.0176 -0.1078  0.1498
 5417SOL    HW127710   0.953   2.184   1.208 -0.8108 -0.2735  1.4993
 5417SOL    HW227711   0.929   2.306   1.295  1.4909  0.1695  1.8848
 5418SOL     OW27712   1.208   1.658   1.442 -0.1710  0.3997 -0.4876
 5418SOL    HW127713   1.138   1.683   1.502 -1.3420 -0.0795 -1.6495
 5418SOL    HW227714   1.190   1.565   1.428  0.1831  0.1105  0.9341
 5419SOL     OW27715   2.397   4.031  15.950 -0.0938  0.1743  1.2630
 5419SOL    HW127716   2.425   4.046  16.040  1.4815  1.0941  0.6245
 5419SOL    HW227717   2.477   3.996  15.909 -1.8608 -3.3187  0.7345
 5420SOL     OW27718   3.474   3.950  14.383  0.4004 -0.2987  0.3481
 5420SOL    HW127719   3.526   3.924  14.306 -0.8802 -0.9000 -0.3272
 5420SOL    HW227720   3.443   4.038  14.364 -0.4735 -1.0056 -1.5499
 5421SOL     OW27721   2.991   3.311   5.666  0.5261 -0.1810  0.5372
 5421SOL    HW127722   2.937   3.235   5.688  1.5052 -0.6939  1.1455
 5421SOL    HW227723   3.032   3.332   5.750  0.4522  0.6710  0.3614
 5422SOL     OW27724   3.244   0.605   7.414  0.1576 -0.3937 -0.6600
 5422SOL    HW127725   3.325   0.589   7.462 -0.4925 -1.4370  0.1014
 5422SOL    HW227726   3.281   0.593   7.326 -1.7889 -1.0068 -1.4114
 5423SOL     OW27727   3.643   1.078   7.618  0.1765 -0.5637  0.4865
 5423SOL    HW127728   3.706   1.117   7.558 -0.2140  1.2766  1.2546
 5423SOL    HW227729   3.677   1.109   7.702 -1.6279  1.5084  0.4583
 5424SOL     OW27730   1.159   4.707   4.593 -0.1403 -0.1562 -0.5411
 5424SOL    HW127731   1.139   0.035   4.672 -0.3894  3.0702 -2.7170
 5424SOL    HW227732   1.254   4.719   4.591 -0.3355  1.2679 -0.9754
 5425SOL     OW27733   0.960   4.660   7.812  0.2686  0.7704 -0.1565
 5425SOL    HW127734   0.901   4.645   7.885  0.0364 -2.4316 -0.9952
 5425SOL    HW227735   1.042   4.660   7.861 -0.0313 -0.6289  0.3462
 5426SOL     OW27736   1.983   3.692   1.503 -0.5550  0.4566 -0.0004
 5426SOL    HW127737   1.989   3.772   1.555 -2.3468  0.2547  0.5388
 5426SOL    HW227738   1.906   3.724   1.455  0.5211  0.2518 -1.8731
 5427SOL     OW27739   1.356   4.265   4.298 -0.2139 -0.0208  0.0724
 5427SOL    HW127740   1.330   4.293   4.386  0.1880  0.0493  0.1709
 5427SOL    HW227741   1.286   4.307   4.248  0.9731 -1.4014 -2.7227
 5428SOL     OW27742   0.432   4.513  11.135  0.5765 -0.2024 -0.1292
 5428SOL    HW127743   0.454   4.585  11.194 -2.0264 -0.7323  1.5202
 5428SOL    HW227744   0.355   4.547  11.090  0.0265 -0.4243  0.6478
 5429SOL     OW27745   0.937   1.574   6.801  0.0754 -0.0909  0.4242
 5429SOL    HW127746   1.009   1.549   6.860  0.1193  0.4376  0.5973
 5429SOL    HW227747   0.958   1.520   6.725  0.9898 -1.8191  1.9039
 5430SOL     OW27748   2.179   2.985  14.422 -0.2615 -0.3233  0.0501
 5430SOL    HW127749   2.135   2.934  14.354  1.1361  0.1007 -1.1722
 5430SOL    HW227750   2.249   2.923  14.443  1.2022  0.7970 -1.4786
 5431SOL     OW27751   3.462   1.494   8.385  0.2831  0.7246 -0.1554
 5431SOL    HW127752   3.544   1.543   8.386  0.9514 -0.3971 -0.2153
 5431SOL    HW227753   3.411   1.547   8.324 -1.2487  0.4847  0.9036
 5432SOL     OW27754   2.831   2.259   3.026 -0.0840 -0.7220 -0.1919
 5432SOL    HW127755   2.837   2.289   3.117 -0.3922  1.2167 -0.8129
 5432SOL    HW227756   2.736   2.260   3.020 -0.0312 -0.6877 -1.0011
 5433SOL     OW27757   4.213   4.422   5.246  0.2355 -0.6539 -0.0386
 5433SOL    HW127758   4.285   4.401   5.306 -0.2033 -0.8175  0.4253
 5433SOL    HW227759   4.247   4.500   5.203  1.0561 -1.2453 -0.4679
 5434SOL     OW27760   4.649   1.386   2.930  0.5493 -0.0412 -0.3537
 5434SOL    HW127761   4.581   1.387   2.863 -1.0214  0.9040  1.2443
 5434SOL    HW227762   4.604   1.331   2.994  0.8984 -1.8446 -1.6547
 5435SOL     OW27763   2.600   3.502   0.650 -0.4515 -0.5778  0.0894
 5435SOL    HW127764   2.658   3.488   0.725  1.5953 -0.3540 -1.4618
 5435SOL    HW227765   2.647   3.560   0.591 -1.8196 -0.7030 -1.1166
 5436SOL     OW27766   0.623   3.395   4.623 -0.6576  0.2305 -0.0307
 5436SOL    HW127767   0.558   3.351   4.678  0.4090  2.4337  2.9753
 5436SOL    HW227768   0.576   3.406   4.541 -1.7934 -0.1709  0.5697
 5437SOL     OW27769   1.760   2.077  16.394 -0.1399  0.1652  0.1813
 5437SOL    HW127770   1.741   2.164  16.359 -0.2996  0.1757  0.2889
 5437SOL    HW227771   1.694   2.078  16.464  0.3940 -0.0552  0.6914
 5438SOL     OW27772   3.774   2.613   8.647  0.3528  0.1164  0.3264
 5438SOL    HW127773   3.701   2.638   8.705  0.8697  1.1434  0.5424
 5438SOL    HW227774   3.727   2.559   8.584 -2.5322  0.7387  1.9399
 5439SOL     OW27775   1.967   1.343   8.242 -0.1703 -0.2580 -0.0764
 5439SOL    HW127776   2.063   1.340   8.239 -0.2008 -1.0016 -0.3195
 5439SOL    HW227777   1.955   1.288   8.165 -0.4899  1.2627 -1.1104
 5440SOL     OW27778   1.625   4.141   5.818  0.3794 -0.1413 -0.4917
 5440SOL    HW127779   1.647   4.208   5.753 -0.0707  1.0497  0.5875
 5440SOL    HW227780   1.558   4.093   5.769  2.1748 -1.0744 -2.0446
 5441SOL     OW27781   0.894   0.970   2.707 -0.0149  0.1867  0.0489
 5441SOL    HW127782   0.942   1.032   2.762 -0.6468  0.6006  0.1398
 5441SOL    HW227783   0.818   1.026   2.691 -0.4106 -0.3215  0.1481
 5442SOL     OW27784   0.584   3.078   2.936  0.5021  0.4679  0.0199
 5442SOL    HW127785   0.504   3.054   2.889  1.1189 -0.3897 -0.5946
 5442SOL    HW227786   0.646   3.083   2.864 -0.2213 -0.0130 -0.6347
 5443SOL     OW27787   2.841   0.100   1.413  0.3867  0.1041  0.3848
 5443SOL    HW127788   2.890   0.023   1.442 -2.9139 -1.9112  0.5803
 5443SOL    HW227789   2.825   0.075   1.321  1.0065  1.2432 -0.0343
 5444SOL     OW27790   0.969   4.037  12.909 -0.5576 -0.1031  0.5553
 5444SOL    HW127791   0.975   3.944  12.932 -1.2803 -0.3118 -0.0934
 5444SOL    HW227792   0.946   4.071  12.995 -0.0327  1.5754  0.0299
 5445SOL     OW27793   0.005   4.351   5.451  0.6886  0.1429  0.2961
 5445SOL    HW127794   4.668   4.319   5.383 -0.2743 -0.3132  1.3681
 5445SOL    HW227795   0.067   4.281   5.466 -1.4269 -1.7804  0.0910
 5446SOL     OW27796   1.782   2.927   8.832 -0.7579 -0.4062  0.0827
 5446SOL    HW127797   1.742   2.959   8.752  2.2761  0.7568 -0.9856
 5446SOL    HW227798   1.761   3.008   8.879  1.0708  0.2185 -0.1553
 5447SOL     OW27799   1.250   4.480   5.782 -0.3297  0.4674  0.5186
 5447SOL    HW127800   1.270   4.444   5.869  0.9368  2.8862  1.2236
 5447SOL    HW227801   1.325   4.465   5.726 -0.9062 -0.9627  0.1396
 5448SOL     OW27802   0.216   1.300   4.163 -0.2965 -0.1556 -0.0079
 5448SOL    HW127803   0.233   1.394   4.158  0.6757 -0.2471  1.6307
 5448SOL    HW227804   0.122   1.301   4.182  0.1249  1.9860  1.9171
 5449SOL     OW27805   2.104   3.518   8.366 -0.3145 -0.7772  0.2340
 5449SOL    HW127806   2.182   3.505   8.419 -1.4130 -1.7466  1.5997
 5449SOL    HW227807   2.066   3.593   8.413 -0.5220 -0.3686 -0.5824
 5450SOL     OW27808   1.072   1.940   7.739  0.2085  0.3105  0.0889
 5450SOL    HW127809   0.996   1.957   7.794  0.8762  2.8865  0.2198
 5450SOL    HW227810   1.035   1.971   7.656 -0.1271 -0.3013  0.0071
 5451SOL     OW27811   4.145   0.969  10.063  0.0974 -0.2072  0.4707
 5451SOL    HW127812   4.160   1.041  10.001 -1.7181 -0.9764 -0.8585
 5451SOL    HW227813   4.101   0.902  10.011  0.5363 -1.1942  1.3762
 5452SOL     OW27814   1.682   3.278   4.444  0.1299 -0.5675  0.2510
 5452SOL    HW127815   1.633   3.223   4.383  0.4220 -1.0319  0.4352
 5452SOL    HW227816   1.731   3.338   4.389 -1.6605  1.2131  0.6054
 5453SOL     OW27817   2.504   0.776   4.547  0.1136  0.0634  0.1530
 5453SOL    HW127818   2.544   0.848   4.597  0.1574 -0.3399  0.6989
 5453SOL    HW227819   2.586   0.739   4.514 -0.5619  1.0243 -2.5837
 5454SOL     OW27820   0.271   3.492  11.520 -0.0665 -0.3204 -0.1196
 5454SOL    HW127821   0.183   3.524  11.536 -0.7820 -1.9635 -0.7917
 5454SOL    HW227822   0.264   3.436  11.443 -0.5063 -2.2967  1.3614
 5455SOL     OW27823   2.998   1.885   5.963 -0.0820  0.3582 -0.0086
 5455SOL    HW127824   2.977   1.793   5.979 -0.8847  0.2773 -1.4869
 5455SOL    HW227825   2.938   1.905   5.891  0.9053  0.1353 -0.8985
 5456SOL     OW27826   1.520   0.943   7.885  0.0468 -0.2761  0.3502
 5456SOL    HW127827   1.560   0.888   7.953  4.0426  0.1988 -1.6526
 5456SOL    HW227828   1.489   0.873   7.829  1.8170  0.7173 -1.8801
 5457SOL     OW27829   0.973   2.268   6.124  0.1266  0.0184  0.1442
 5457SOL    HW127830   0.944   2.228   6.042  3.2714  0.1632 -1.0070
 5457SOL    HW227831   0.910   2.225   6.182 -0.5635  0.6226 -0.1388
 5458SOL     OW27832   4.350   4.500  13.029 -0.0897  0.0792 -0.5866
 5458SOL    HW127833   4.400   4.524  12.951  3.1582  1.7967  2.0212
 5458SOL    HW227834   4.381   4.409  13.038 -1.4675 -0.1159  2.1425
 5459SOL     OW27835   3.514   1.464   1.520  0.4414 -0.2687 -0.2867
 5459SOL    HW127836   3.433   1.499   1.482 -0.1614 -1.3482  0.0067
 5459SOL    HW227837   3.532   1.545   1.568 -1.7580  0.4373 -0.6375
 5460SOL     OW27838   3.544   3.912   5.895 -0.3550 -0.3608  0.1621
 5460SOL    HW127839   3.563   3.827   5.854  0.9987  1.0098 -2.0563
 5460SOL    HW227840   3.482   3.882   5.961  0.3894 -4.7141 -1.1160
 5461SOL     OW27841   2.367   4.564   2.672 -0.5713  0.0376  0.8301
 5461SOL    HW127842   2.282   4.559   2.628  0.6532  1.7571 -1.6597
 5461SOL    HW227843   2.347   4.612   2.753  0.7828  0.4561  0.9138
 5462SOL     OW27844   1.308   3.916   9.415  0.1029 -0.2083  0.3549
 5462SOL    HW127845   1.217   3.912   9.445  0.6306 -0.5185  1.9160
 5462SOL    HW227846   1.299   3.918   9.320  2.9323  0.7146  0.0925
 5463SOL     OW27847   1.239   3.361  15.349  0.2685 -0.4641  0.3199
 5463SOL    HW127848   1.271   3.398  15.266 -0.7610  0.4947  0.3606
 5463SOL    HW227849   1.257   3.424  15.418 -2.3992  1.9253 -1.1699
 5464SOL     OW27850   2.198   1.735  10.136  0.7097 -0.0825 -0.2996
 5464SOL    HW127851   2.282   1.781  10.130 -0.0887  1.5803  1.1197
 5464SOL    HW227852   2.214   1.648  10.102 -1.2563 -0.2771 -0.7555
 5465SOL     OW27853   2.696   1.703   0.169 -0.9125  0.6933  0.1322
 5465SOL    HW127854   2.668   1.658   0.249 -2.5334  2.5161  0.6054
 5465SOL    HW227855   2.785   1.725   0.197 -0.9822 -0.5090  1.3034
 5466SOL     OW27856   2.701   1.311  16.372  0.3932  0.0098 -0.0987
 5466SOL    HW127857   2.720   1.218  16.364 -2.3660 -0.4470 -1.2527
 5466SOL    HW227858   2.717   1.325  16.466  1.2775 -0.8412 -0.1207
 5467SOL     OW27859   3.803   0.012  16.076  0.5962  0.6384 -0.1032
 5467SOL    HW127860   3.813   0.035  16.169 -1.3570  0.6784  0.0999
 5467SOL    HW227861   3.724   0.064  16.060  0.1822 -0.4675 -1.5921
 5468SOL     OW27862   3.639   0.094   6.265 -0.7252  0.5421 -0.0245
 5468SOL    HW127863   3.615   0.185   6.282  0.7625  0.8329  0.4894
 5468SOL    HW227864   3.701   0.098   6.192 -1.2104  0.1388 -0.4607
 5469SOL     OW27865   0.339   0.546   6.518  0.5483 -0.4471  0.4262
 5469SOL    HW127866   0.273   0.498   6.567  0.4986 -1.3381 -0.5034
 5469SOL    HW227867   0.412   0.493   6.487  0.0389 -0.9739  0.1141
 5470SOL     OW27868   0.121   0.144   6.487 -0.3855 -0.0429 -0.2317
 5470SOL    HW127869   0.029   0.168   6.476 -0.1993  2.2202  3.4279
 5470SOL    HW227870   0.150   0.199   6.559 -0.6648 -1.7908  1.2287
 5471SOL     OW27871   1.613   1.900   8.578  0.1306  0.3853  0.0982
 5471SOL    HW127872   1.531   1.938   8.610 -0.6827 -2.3764  1.3056
 5471SOL    HW227873   1.640   1.982   8.536 -2.5620  0.4379 -1.5021
 5472SOL     OW27874   0.908   3.201   3.071 -0.4751 -0.1908 -0.1569
 5472SOL    HW127875   0.958   3.155   3.003  0.4028 -2.3476  1.9276
 5472SOL    HW227876   0.837   3.219   3.010 -0.3799  0.3303 -0.1115
 5473SOL     OW27877   4.581   0.577   9.673 -0.1922  0.2631  0.3074
 5473SOL    HW127878   4.543   0.507   9.620  1.1145 -0.7113  0.6397
 5473SOL    HW227879   4.562   0.542   9.760 -0.2846 -1.0260 -0.2395
 5474SOL     OW27880   0.071   1.300   6.498 -0.1490  0.2314  0.5519
 5474SOL    HW127881   0.023   1.251   6.565 -0.3765  0.4152  0.5239
 5474SOL    HW227882   0.146   1.241   6.486 -0.7904 -0.1731 -1.5475
 5475SOL     OW27883   1.302   1.814   8.923  0.5948 -0.2328  0.1111
 5475SOL    HW127884   1.345   1.732   8.899 -1.1492 -0.8081 -1.1094
 5475SOL    HW227885   1.247   1.791   8.999  0.3552  0.8241  0.2552
 5476SOL     OW27886   3.416   2.667   8.410  0.2540  0.1178  0.5398
 5476SOL    HW127887   3.351   2.698   8.473  0.2627 -0.5005  0.8562
 5476SOL    HW227888   3.409   2.736   8.345 -0.6433 -2.2383 -1.8630
 5477SOL     OW27889   0.505   2.517  16.265  0.0175  0.1775  0.6840
 5477SOL    HW127890   0.458   2.473  16.194  1.7591  0.4916 -0.6661
 5477SOL    HW227891   0.525   2.434  16.310  0.5570 -0.5358 -0.8812
 5478SOL     OW27892   3.652   1.116   3.103 -0.2976  0.4907 -0.4025
 5478SOL    HW127893   3.746   1.110   3.120 -0.3578  2.4924  0.6646
 5478SOL    HW227894   3.655   1.115   3.007 -1.6236  1.7954 -0.4498
 5479SOL     OW27895   2.575   3.733   5.408  0.3148 -0.1746 -0.6288
 5479SOL    HW127896   2.552   3.697   5.322  2.2895 -1.5433 -0.6074
 5479SOL    HW227897   2.562   3.653   5.459 -2.1593  0.5145 -0.1863
 5480SOL     OW27898   3.947   2.635   6.889 -0.0726 -0.1569 -0.3866
 5480SOL    HW127899   3.906   2.663   6.807 -0.1809 -1.1888 -0.6902
 5480SOL    HW227900   4.034   2.664   6.862  0.5849 -1.0792  0.7490
 5481SOL     OW27901   4.427   2.582   8.747  0.3075  0.4582 -0.1750
 5481SOL    HW127902   4.434   2.505   8.803 -0.9860 -1.0474 -2.0826
 5481SOL    HW227903   4.385   2.648   8.802  0.0353  0.5755 -0.5237
 5482SOL     OW27904   3.134   3.362   1.286  0.6453  0.2474 -0.6906
 5482SOL    HW127905   3.102   3.374   1.376 -0.3331 -1.4607 -0.8016
 5482SOL    HW227906   3.067   3.302   1.255  0.7347 -0.5570  0.6623
 5483SOL     OW27907   0.780   3.696   4.044 -0.1252  0.5734  0.0990
 5483SOL    HW127908   0.811   3.639   4.115 -1.9636 -0.8327 -0.2483
 5483SOL    HW227909   0.757   3.631   3.978  0.6520  2.0764 -1.6564
 5484SOL     OW27910   4.550   2.335   3.884 -0.0309  0.7980 -0.7929
 5484SOL    HW127911   4.560   2.412   3.939  0.3663 -1.8294  2.8399
 5484SOL    HW227912   4.464   2.347   3.843  0.9368  0.7193 -2.8413
 5485SOL     OW27913   2.380   1.093   0.972  0.7617 -0.5876  0.1967
 5485SOL    HW127914   2.470   1.097   0.938  0.9329  1.6597  0.9141
 5485SOL    HW227915   2.381   1.018   1.031 -0.1245  0.8673  2.0345
 5486SOL     OW27916   0.478   0.314   2.340 -0.6562  0.4832  0.1818
 5486SOL    HW127917   0.500   0.317   2.433 -2.4111  0.9709  0.5726
 5486SOL    HW227918   0.430   0.232   2.334  0.0871  0.1267 -0.8483
 5487SOL     OW27919   2.276   2.851   9.181  0.3550 -0.4435 -0.1063
 5487SOL    HW127920   2.365   2.865   9.211 -0.0852  0.8046  0.6136
 5487SOL    HW227921   2.243   2.941   9.174  0.6547 -0.3651 -0.4931
 5488SOL     OW27922   3.352   1.284   8.537  0.2294  0.2302 -0.2814
 5488SOL    HW127923   3.267   1.327   8.547 -0.2158 -0.2994 -1.6739
 5488SOL    HW227924   3.406   1.347   8.488 -1.3642  1.3960 -0.5228
 5489SOL     OW27925   2.068   2.950   2.937 -0.9108 -0.0278 -0.1136
 5489SOL    HW127926   2.120   3.020   2.897  0.7354 -1.3905 -0.3522
 5489SOL    HW227927   1.978   2.976   2.917  0.0379  3.0072 -0.4523
 5490SOL     OW27928   3.710   2.397  15.182 -0.0592 -0.0567  0.5189
 5490SOL    HW127929   3.766   2.356  15.116  1.9021 -1.2910  2.9706
 5490SOL    HW227930   3.731   2.347  15.261  3.3563 -1.5682 -1.3504
 5491SOL     OW27931   3.970   3.091   1.469 -0.0246  0.2701  0.3145
 5491SOL    HW127932   3.997   3.164   1.414 -0.4936  0.8530  0.8589
 5491SOL    HW227933   4.046   3.060   1.517 -1.0404 -0.4045  1.5004
 5492SOL     OW27934   4.209   1.417  14.193  0.2925 -0.0961  0.2785
 5492SOL    HW127935   4.219   1.371  14.109 -2.4424 -0.6268  0.2451
 5492SOL    HW227936   4.116   1.415  14.213 -0.0926  2.3651 -1.1845
 5493SOL     OW27937   0.170   1.106   5.482 -0.2309  0.1437  0.2467
 5493SOL    HW127938   0.210   1.085   5.397 -3.3179  0.4996 -1.2873
 5493SOL    HW227939   0.145   1.017   5.505  2.0286 -0.7530 -0.6752
 5494SOL     OW27940   4.083   0.587  13.103 -0.5777  0.2452 -0.0715
 5494SOL    HW127941   4.009   0.632  13.063 -0.5644  0.2790 -0.0581
 5494SOL    HW227942   4.159   0.639  13.077  1.6778 -2.2987  1.4695
 5495SOL     OW27943   0.121   2.228   8.719  0.1330 -0.3578  0.1386
 5495SOL    HW127944   0.091   2.200   8.632 -1.3602  2.1614 -0.1595
 5495SOL    HW227945   0.098   2.321   8.717 -0.1835 -0.4643 -0.8745
 5496SOL     OW27946   2.849   2.826   4.792  0.0223  0.0074  0.2154
 5496SOL    HW127947   2.852   2.834   4.697  1.0071  1.2148  0.3437
 5496SOL    HW227948   2.794   2.903   4.808 -0.5419 -0.3063 -0.2277
 5497SOL     OW27949   1.069   3.252   3.924 -0.1610 -0.1771 -0.1251
 5497SOL    HW127950   1.037   3.278   3.838 -1.7646 -1.5565  0.0484
 5497SOL    HW227951   1.101   3.339   3.947  0.6019 -0.2476 -0.9654
 5498SOL     OW27952   4.286   2.056   9.362 -0.2947 -0.1876 -0.1637
 5498SOL    HW127953   4.288   2.072   9.457  0.4153 -0.9710 -0.0463
 5498SOL    HW227954   4.381   2.054   9.352 -0.2973 -1.1406 -0.0651
 5499SOL     OW27955   4.180   1.295   9.429 -0.3298  1.0381 -0.6342
 5499SOL    HW127956   4.262   1.320   9.386 -0.0893 -0.5408 -1.0905
 5499SOL    HW227957   4.121   1.284   9.355 -1.7788 -2.4339  1.0425
 5500SOL     OW27958   0.103   2.757   2.618 -0.4451  0.2718 -0.4111
 5500SOL    HW127959   0.073   2.672   2.586  1.0561 -0.0533 -0.9243
 5500SOL    HW227960   0.195   2.754   2.592 -0.4342  0.9704 -0.4661
 5501SOL     OW27961   2.077   1.690   3.550  0.3695 -0.2820 -0.7619
 5501SOL    HW127962   2.019   1.614   3.558 -0.5810  0.4169 -1.0535
 5501SOL    HW227963   2.156   1.639   3.533  0.4972 -0.4503  0.3097
 5502SOL     OW27964   0.937   0.535   5.699  0.6442  0.3375  0.2723
 5502SOL    HW127965   0.911   0.536   5.607 -0.8417  0.2385  0.7020
 5502SOL    HW227966   0.947   0.630   5.712  1.8964  0.5856 -2.6203
 5503SOL     OW27967   1.009   1.985   2.484  0.2559 -0.0313  0.2469
 5503SOL    HW127968   0.942   1.940   2.535 -1.3567  0.4416 -1.4419
 5503SOL    HW227969   1.021   1.912   2.423  0.8691  0.0554  0.2633
 5504SOL     OW27970   1.858   3.207   7.338 -0.4318  0.4378 -0.4392
 5504SOL    HW127971   1.903   3.258   7.406 -2.6744  2.4263 -0.4485
 5504SOL    HW227972   1.863   3.271   7.267 -1.7606  0.3733 -0.5728
 5505SOL     OW27973   0.289   2.907  17.589 -0.3327  0.1718 -0.5224
 5505SOL    HW127974   0.377   2.905  17.624  0.4168 -2.3995 -2.5758
 5505SOL    HW227975   0.241   2.953  17.658 -1.4611 -1.3733 -0.2719
 5506SOL     OW27976   4.115   0.895  10.846 -0.5457 -0.2263 -0.4593
 5506SOL    HW127977   4.136   0.880  10.938  1.1840  1.1735 -0.6072
 5506SOL    HW227978   4.162   0.977  10.828 -0.1238 -1.1774 -3.6802
 5507SOL     OW27979   2.631   1.574  16.772 -0.3269  0.0448  0.1152
 5507SOL    HW127980   2.541   1.546  16.791  0.6680 -1.6493  2.4834
 5507SOL    HW227981   2.632   1.641  16.840  1.7942  0.2708 -0.1469
 5508SOL     OW27982   2.065   2.000   5.041 -0.6208  0.4430  0.1030
 5508SOL    HW127983   2.146   2.007   5.092 -1.1226 -1.5919  1.1830
 5508SOL    HW227984   2.049   2.095   5.038  0.7575  0.6183 -1.9894
 5509SOL     OW27985   0.850   2.925  16.816  0.4643  0.3121  0.5630
 5509SOL    HW127986   0.764   2.929  16.859  0.8816 -0.9482  1.5027
 5509SOL    HW227987   0.825   2.943  16.725 -1.0683 -1.8423  0.5755
 5510SOL     OW27988   2.577   3.091   7.684  0.1510  0.0047  0.0792
 5510SOL    HW127989   2.502   3.073   7.740  0.8152  2.4134  1.7263
 5510SOL    HW227990   2.646   3.054   7.738 -0.4587 -2.3875 -0.8135
 5511SOL     OW27991   1.602   1.574   7.563 -0.2213 -0.1170  0.3775
 5511SOL    HW127992   1.698   1.564   7.563 -0.2689 -0.5712 -0.3198
 5511SOL    HW227993   1.590   1.641   7.495 -3.7021 -3.0723 -1.9057
 5512SOL     OW27994   1.370   4.382   2.765  0.3852  0.0828  0.1496
 5512SOL    HW127995   1.399   4.373   2.674 -1.1237 -0.5982 -0.2737
 5512SOL    HW227996   1.359   4.293   2.799 -1.1955 -0.4818 -1.8061
 5513SOL     OW27997   2.895   0.928  13.979  0.0370 -0.3927  0.1852
 5513SOL    HW127998   2.972   0.871  13.983 -1.3118 -2.1540  1.0871
 5513SOL    HW227999   2.879   0.934  14.073  0.9505  3.6320  0.0520
 5514SOL     OW28000   1.988   0.191   6.372  0.2412 -0.4211 -0.1467
 5514SOL    HW128001   1.899   0.208   6.343 -0.2307 -2.3420  0.1186
 5514SOL    HW228002   1.993   0.095   6.367  0.8846 -0.3745 -0.3693
 5515SOL     OW28003   3.375   3.700   9.226  0.1834 -0.1133  0.2819
 5515SOL    HW128004   3.343   3.656   9.305 -2.3326  1.2778  0.0259
 5515SOL    HW228005   3.397   3.622   9.175 -0.6008 -0.3388  0.2820
 5516SOL     OW28006   4.322   2.183   8.436  0.2104  0.1324 -0.1076
 5516SOL    HW128007   4.271   2.261   8.417  0.4844  0.5932  1.0262
 5516SOL    HW228008   4.246   2.127   8.451 -1.3458  1.9204 -1.4861
 5517SOL     OW28009   3.307   3.053  15.500  0.3986  0.0890 -0.0423
 5517SOL    HW128010   3.270   3.078  15.416 -0.8380  1.1857  0.8229
 5517SOL    HW228011   3.326   3.138  15.539 -2.6037  1.3557 -1.3641
 5518SOL     OW28012   3.909   2.307   5.356 -0.1401 -0.1232 -0.1004
 5518SOL    HW128013   3.941   2.232   5.306 -0.9983  0.0878 -0.9666
 5518SOL    HW228014   3.872   2.363   5.287  1.0126 -1.5685 -1.9098
 5519SOL     OW28015   2.756   4.224   7.565 -0.5263 -0.0970 -0.6095
 5519SOL    HW128016   2.778   4.315   7.545 -0.6956 -0.3918 -2.1072
 5519SOL    HW228017   2.668   4.239   7.601 -1.4046 -2.0981 -1.9867
 5520SOL     OW28018   0.252   3.123  15.075  0.2723  0.4415  0.4497
 5520SOL    HW128019   0.170   3.119  15.123  0.6047 -0.4159  0.9444
 5520SOL    HW228020   0.282   3.206  15.114  3.4622 -0.5082  0.0232
 5521SOL     OW28021   3.098   4.048   0.435 -0.3926  0.1407 -0.2936
 5521SOL    HW128022   3.142   3.965   0.417  0.6036  0.1747  1.9419
 5521SOL    HW228023   3.179   4.097   0.427  0.9666 -2.0199  0.3045
 5522SOL     OW28024   3.267   0.659  11.570 -0.1522 -0.4906 -0.7607
 5522SOL    HW128025   3.266   0.744  11.526  2.7644 -0.7935 -1.4294
 5522SOL    HW228026   3.294   0.694  11.654 -0.9873  0.3422 -0.8477
 5523SOL     OW28027   3.428   1.928   1.823 -0.0576 -0.6125  0.0791
 5523SOL    HW128028   3.473   2.012   1.816  0.8853 -1.1029  0.1469
 5523SOL    HW228029   3.501   1.876   1.857 -1.8148 -2.0598  1.6381
 5524SOL     OW28030   0.795   0.786   9.147 -0.3541 -0.6303  0.1458
 5524SOL    HW128031   0.704   0.810   9.129  0.3922  0.9628 -1.4995
 5524SOL    HW228032   0.827   0.870   9.181  0.3559 -1.5438  1.7016
 5525SOL     OW28033   2.168   3.476   6.322 -0.3585  0.0502 -0.1541
 5525SOL    HW128034   2.090   3.517   6.360 -0.3717 -1.1989  1.1450
 5525SOL    HW228035   2.163   3.391   6.365  0.7796 -0.4455 -1.0144
 5526SOL     OW28036   1.229   3.651   2.999 -0.1812 -0.0300  0.3319
 5526SOL    HW128037   1.146   3.609   2.979 -0.7385  0.9952  0.4924
 5526SOL    HW228038   1.269   3.587   3.057 -1.5076 -0.8975  0.2816
 5527SOL     OW28039   3.745   0.086  14.983 -0.4774  0.6541 -0.5693
 5527SOL    HW128040   3.686   0.088  14.907 -0.0155 -0.7880 -0.9628
 5527SOL    HW228041   3.721   0.170  15.022 -0.0236  0.6747 -0.3364
 5528SOL     OW28042   4.537   2.665   1.234  0.5273 -0.7007 -0.2599
 5528SOL    HW128043   4.519   2.749   1.191  0.2471  0.8656  2.9593
 5528SOL    HW228044   4.449   2.647   1.267 -0.6501  3.3117 -1.0791
 5529SOL     OW28045   1.193   4.295   1.147  0.3817 -0.1931 -0.3522
 5529SOL    HW128046   1.225   4.224   1.202  0.6238 -0.5439 -0.9397
 5529SOL    HW228047   1.098   4.281   1.145  0.2427  0.5723  1.5512
 5530SOL     OW28048   2.069   2.503   8.807  0.4541 -0.5900 -0.3631
 5530SOL    HW128049   2.023   2.456   8.876 -1.7861  1.2910 -0.5725
 5530SOL    HW228050   1.997   2.563   8.787  0.7730 -0.4934 -1.2355
 5531SOL     OW28051   0.220   2.047   8.450 -0.1325 -0.1311  0.4722
 5531SOL    HW128052   0.149   2.111   8.446 -0.2436 -0.3753 -1.4338
 5531SOL    HW228053   0.294   2.107   8.462  0.3746 -0.7770  0.5445
 5532SOL     OW28054   1.661   0.761  13.797  0.1553 -0.6421  0.0692
 5532SOL    HW128055   1.658   0.817  13.720 -1.2488  0.2762  0.8100
 5532SOL    HW228056   1.595   0.697  13.772 -0.3624 -0.2716  0.4835
 5533SOL     OW28057   4.194   2.596   8.585 -0.2580 -0.5094 -0.4382
 5533SOL    HW128058   4.131   2.548   8.639  0.3924 -2.3381 -1.2907
 5533SOL    HW228059   4.269   2.589   8.644  0.2374 -1.9236 -1.2264
 5534SOL     OW28060   3.092   0.551   8.650 -0.1202 -0.0085 -0.4100
 5534SOL    HW128061   3.015   0.518   8.698  0.5336 -0.6803  0.1786
 5534SOL    HW228062   3.156   0.544   8.720  0.6932  2.6170 -0.8886
 5535SOL     OW28063   2.511   2.125   4.646  0.0564 -0.2818  0.1601
 5535SOL    HW128064   2.479   2.206   4.607  0.4438 -0.2392 -0.0691
 5535SOL    HW228065   2.606   2.133   4.651 -0.3087  2.1655  3.9249
 5536SOL     OW28066   0.725   2.037   5.728  0.0588  0.0094 -0.0920
 5536SOL    HW128067   0.679   2.057   5.646 -0.5524  2.4543  0.8426
 5536SOL    HW228068   0.653   2.019   5.788  1.1296  1.2572  1.5437
 5537SOL     OW28069   3.620   2.276  17.494  0.3606 -0.2422  0.5270
 5537SOL    HW128070   3.539   2.327  17.488  0.9591  0.5320 -1.1083
 5537SOL    HW228071   3.674   2.330  17.552 -0.6432  0.8654  0.4411
 5538SOL     OW28072   2.793   0.574   4.138 -0.2366  0.0034 -0.1912
 5538SOL    HW128073   2.736   0.570   4.061  0.4072  0.3869 -0.6964
 5538SOL    HW228074   2.786   0.664   4.169 -0.0986 -0.0253 -0.0753
 5539SOL     OW28075   0.916   0.999   4.854  0.0675  0.0294 -0.3460
 5539SOL    HW128076   0.853   1.014   4.783  0.8060  1.0968 -0.7914
 5539SOL    HW228077   0.887   1.065   4.917  0.8574 -0.8515  0.9397
 5540SOL     OW28078   2.137   2.117   8.544 -0.0045 -0.2617  0.5200
 5540SOL    HW128079   2.133   2.073   8.629  1.0751 -1.9319 -0.3023
 5540SOL    HW228080   2.045   2.136   8.525  0.8145  2.6281 -0.5006
 5541SOL     OW28081   2.094   3.095   0.754 -0.1824  0.4574  0.0265
 5541SOL    HW128082   2.165   3.158   0.771 -0.0288 -0.7871  3.9866
 5541SOL    HW228083   2.083   3.108   0.660 -0.8148 -1.2442 -0.1259
 5542SOL     OW28084   1.463   2.504   1.426  0.5418  0.2671  0.0474
 5542SOL    HW128085   1.456   2.422   1.378  0.2115  1.9862 -2.8294
 5542SOL    HW228086   1.476   2.479   1.517 -0.7400 -1.0864 -0.1356
 5543SOL     OW28087   0.210   3.328   9.309 -0.4620  0.2182 -0.5348
 5543SOL    HW128088   0.156   3.343   9.387 -2.3684  1.8910 -2.1778
 5543SOL    HW228089   0.154   3.264   9.266 -0.0307 -0.9185  0.6175
 5544SOL     OW28090   4.108   3.736   5.555 -0.2164 -0.1451 -0.1147
 5544SOL    HW128091   4.045   3.784   5.609  1.1122  0.0078  1.3026
 5544SOL    HW228092   4.149   3.679   5.620 -1.2787 -1.6196 -0.7471
 5545SOL     OW28093   2.845   2.972   3.666 -0.2866  0.9032 -0.0033
 5545SOL    HW128094   2.791   3.049   3.683 -1.8183  0.2464 -1.9056
 5545SOL    HW228095   2.929   3.007   3.636  0.0744  0.9318  1.0427
 5546SOL     OW28096   1.005   2.113   7.544  0.2299 -0.2167 -0.1465
 5546SOL    HW128097   0.970   2.109   7.456  0.3831  0.3750 -0.2364
 5546SOL    HW228098   1.097   2.111   7.518 -0.5749 -0.9235 -2.9198
 5547SOL     OW28099   2.959   2.979   0.502 -0.5896 -0.2850 -0.1588
 5547SOL    HW128100   3.029   3.005   0.442 -1.9877 -0.4632 -1.8523
 5547SOL    HW228101   2.890   3.044   0.485  2.5810  2.8229 -1.1237
 5548SOL     OW28102   3.019   2.380   1.830 -0.3084 -0.1936  0.3286
 5548SOL    HW128103   3.071   2.434   1.890 -0.9382 -0.1897  0.8745
 5548SOL    HW228104   2.941   2.431   1.809 -0.5380 -0.6254  0.1394
 5549SOL     OW28105   0.656   4.451   2.482 -0.1447 -0.0397 -0.2602
 5549SOL    HW128106   0.685   4.461   2.391  0.5494  1.9098  0.1777
 5549SOL    HW228107   0.656   4.541   2.513  0.1798 -0.3808  0.7338
 5550SOL     OW28108   2.114   1.446  12.659  0.6423  0.1362 -0.6033
 5550SOL    HW128109   2.165   1.526  12.646 -0.2525  0.8556  0.2530
 5550SOL    HW228110   2.174   1.374  12.642  3.1857  1.5548  2.5456
 5551SOL     OW28111   3.799   2.573   0.877  0.3074  0.5385 -0.0304
 5551SOL    HW128112   3.723   2.523   0.909 -0.7940  2.8877  1.1058
 5551SOL    HW228113   3.763   2.660   0.859 -0.8028 -0.2805 -1.7454
 5552SOL     OW28114   0.764   0.841  12.713  0.1573 -0.0336 -0.6846
 5552SOL    HW128115   0.766   0.748  12.737 -2.2008 -0.1217 -0.9146
 5552SOL    HW228116   0.681   0.871  12.750  1.2117  0.7751  1.0485
 5553SOL     OW28117   1.788   4.215   4.745  0.2739 -0.1343  0.2797
 5553SOL    HW128118   1.805   4.253   4.659 -0.8510  1.6037  0.8247
 5553SOL    HW228119   1.737   4.137   4.725 -0.4892  0.2839  0.6238
 5554SOL     OW28120   3.399   3.025   9.200  0.0135  0.7720 -0.3704
 5554SOL    HW128121   3.452   3.078   9.259 -0.6936  0.4619  0.5406
 5554SOL    HW228122   3.462   3.009   9.130 -1.6822 -0.5642 -1.6041
 5555SOL     OW28123   0.101   1.928   4.986 -0.6286  0.0601 -0.3808
 5555SOL    HW128124   0.167   1.986   4.949  1.3357 -1.4668  0.7243
 5555SOL    HW228125   0.085   1.870   4.912 -0.3929 -0.4212 -0.0572
 5556SOL     OW28126   3.845   0.787  14.449  0.3318  0.4574 -0.0103
 5556SOL    HW128127   3.934   0.823  14.451  0.1047  1.0217  0.0795
 5556SOL    HW228128   3.851   0.722  14.518 -0.4868 -1.1800 -1.4670
 5557SOL     OW28129   1.009   2.215   4.311  0.0393  0.0945 -0.4990
 5557SOL    HW128130   1.032   2.146   4.374  1.4982  0.4249 -0.6536
 5557SOL    HW228131   1.044   2.177   4.230 -0.3320  0.5656 -0.8744
 5558SOL     OW28132   3.339   3.112   1.458  0.1530 -0.7066  0.0827
 5558SOL    HW128133   3.378   3.141   1.376 -0.7259 -0.1242 -0.1240
 5558SOL    HW228134   3.408   3.098   1.523  0.7530 -3.2596 -1.1172
 5559SOL     OW28135   1.111   3.177  16.177 -0.2062 -0.1594 -0.2611
 5559SOL    HW128136   1.161   3.224  16.111 -0.3613 -1.2977 -1.1936
 5559SOL    HW228137   1.060   3.253  16.203 -1.3699 -1.0906  0.1896
 5560SOL     OW28138   4.098   4.444   2.036 -0.3474 -0.4188  0.2174
 5560SOL    HW128139   4.007   4.442   2.004 -0.2596 -1.0516  0.0061
 5560SOL    HW228140   4.132   4.369   1.987  0.3274  0.6353 -0.9285
 5561SOL     OW28141   0.399   3.972   4.542  0.1754 -0.8263  0.2357
 5561SOL    HW128142   0.452   4.049   4.563 -1.3945  0.5560 -0.8833
 5561SOL    HW228143   0.444   3.900   4.585 -0.0229 -2.5032 -2.3780
 5562SOL     OW28144   3.471   4.618   6.159 -0.6254 -0.0752  0.3472
 5562SOL    HW128145   3.506   4.548   6.103  0.7093  0.1594  0.8763
 5562SOL    HW228146   3.552   4.667   6.172 -0.5975  0.3407 -1.5103
 5563SOL     OW28147   3.382   0.856   6.407 -0.4596  0.1082  0.1794
 5563SOL    HW128148   3.361   0.816   6.322  2.2096  1.0248 -0.9197
 5563SOL    HW228149   3.415   0.940   6.373 -0.8302  1.2191  2.5810
 5564SOL     OW28150   2.953   1.973   5.636 -0.6424  0.5951  0.2238
 5564SOL    HW128151   2.924   2.064   5.627  0.6720  0.8389 -1.5307
 5564SOL    HW228152   3.045   1.979   5.610 -0.8208  2.7943  0.1350
 5565SOL     OW28153   4.492   4.184   4.295 -0.5650 -0.1171 -0.0636
 5565SOL    HW128154   4.554   4.120   4.331 -0.0947  1.3035  1.7069
 5565SOL    HW228155   4.406   4.146   4.312  0.0916 -1.4951  0.1461
 5566SOL     OW28156   0.861   2.772  16.410  0.3951  0.4559 -0.2323
 5566SOL    HW128157   0.862   2.855  16.457 -1.0449 -0.4984  1.4913
 5566SOL    HW228158   0.902   2.810  16.333  1.1011  0.9188  0.3764
 5567SOL     OW28159   4.423   0.821   9.619 -0.3046 -0.0927  0.4601
 5567SOL    HW128160   4.412   0.846   9.528  4.2339 -1.4085 -0.4503
 5567SOL    HW228161   4.491   0.754   9.622  2.0773  2.3138  0.2139
 5568SOL     OW28162   2.508   0.301   4.789  0.4129  0.5779  0.2941
 5568SOL    HW128163   2.434   0.242   4.803  0.0304  0.3969 -2.3523
 5568SOL    HW228164   2.488   0.351   4.710  1.0872  2.5483  1.3850
 5569SOL     OW28165   0.398   3.630   7.927  0.2949 -0.6986 -0.1150
 5569SOL    HW128166   0.351   3.693   7.872  1.2099  0.4795  0.4741
 5569SOL    HW228167   0.417   3.677   8.007  0.0883 -0.4817 -0.1931
 5570SOL     OW28168   2.734   2.478   0.746  0.1470 -0.7680  0.6335
 5570SOL    HW128169   2.750   2.564   0.707  0.1569 -0.5132  1.1998
 5570SOL    HW228170   2.649   2.488   0.789 -0.2406  1.6642 -0.6828
 5571SOL     OW28171   0.368   0.587   6.034 -0.1504  0.4215  0.3369
 5571SOL    HW128172   0.297   0.548   6.085 -0.2018 -0.5302 -0.4454
 5571SOL    HW228173   0.432   0.515   6.044  1.8963  2.2866  0.6886
 5572SOL     OW28174   3.573   0.748  10.232  0.7872  0.0376  0.3154
 5572SOL    HW128175   3.579   0.798  10.150 -0.0591 -0.1423  0.1414
 5572SOL    HW228176   3.610   0.664  10.206 -0.0651 -0.4087  0.5292
 5573SOL     OW28177   2.674   3.313   7.906 -0.0890  0.5773 -0.1302
 5573SOL    HW128178   2.763   3.309   7.942 -0.2368  1.4237  0.3487
 5573SOL    HW228179   2.657   3.225   7.874  1.0715 -0.5342  2.2843
 5574SOL     OW28180   0.027   1.553   5.168 -0.1918 -0.1904  0.1209
 5574SOL    HW128181   4.716   1.464   5.172  0.8825 -0.5999 -0.2024
 5574SOL    HW228182   0.121   1.541   5.180  0.0704  0.6567 -1.0847
 5575SOL     OW28183   2.843   1.930   6.345 -0.2132 -0.7640 -0.3418
 5575SOL    HW128184   2.798   1.943   6.261 -1.4875  2.4622  0.8265
 5575SOL    HW228185   2.777   1.963   6.407  0.6367  0.0946  0.0961
 5576SOL     OW28186   2.310   3.197  11.010  0.5090  0.0177 -0.3612
 5576SOL    HW128187   2.355   3.122  10.970  0.0049  0.2086 -1.2929
 5576SOL    HW228188   2.225   3.209  10.967  1.0904  0.7229 -1.3342
 5577SOL     OW28189   3.211   1.357   3.913 -0.6924  0.5678 -0.0459
 5577SOL    HW128190   3.249   1.297   3.848 -2.8786  0.7495 -1.4850
 5577SOL    HW228191   3.137   1.397   3.868 -0.9069  1.8500  1.4411
 5578SOL     OW28192   1.364   4.482   4.544 -0.6955  0.2648 -0.0161
 5578SOL    HW128193   1.418   4.465   4.621 -0.9219  0.3004  0.1512
 5578SOL    HW228194   1.423   4.507   4.474 -0.6805  0.7396  0.1610
 5579SOL     OW28195   3.580   0.115   2.208  0.3491  0.2917  0.0166
 5579SOL    HW128196   3.575   0.179   2.137  0.5111 -0.0006 -0.2609
 5579SOL    HW228197   3.513   0.138   2.273 -0.4112  2.2550 -1.4875
 5580SOL     OW28198   1.727   2.722   8.186 -0.2321 -0.1965 -0.0769
 5580SOL    HW128199   1.788   2.724   8.112  2.0737 -2.7761  1.7397
 5580SOL    HW228200   1.727   2.629   8.208 -3.0501 -0.4820 -1.4311
 5581SOL     OW28201   3.126   1.711   4.349  0.3927 -0.5787 -0.1985
 5581SOL    HW128202   3.206   1.673   4.386 -0.6762  0.3073  3.0261
 5581SOL    HW228203   3.126   1.790   4.404 -2.0084  0.4432 -1.6399
 5582SOL     OW28204   0.185   1.400  11.083 -0.5506 -0.3536  0.5074
 5582SOL    HW128205   0.146   1.319  11.052 -1.9309  0.1289  0.9772
 5582SOL    HW228206   0.217   1.443  11.003 -0.5475 -1.7752 -0.2476
 5583SOL     OW28207   0.186   3.774   3.932 -0.2587  0.7851 -0.0191
 5583SOL    HW128208   0.104   3.739   3.898  0.6787 -1.3990 -0.0028
 5583SOL    HW228209   0.168   3.868   3.929  2.8063  1.4261  1.6464
 5584SOL     OW28210   0.437   2.414  15.836  0.6621 -0.4662 -0.3147
 5584SOL    HW128211   0.422   2.493  15.887  0.8859 -0.5940 -0.0529
 5584SOL    HW228212   0.383   2.349  15.881  1.3742 -1.2583 -0.5907
 5585SOL     OW28213   1.101   3.938   5.416  0.4656  0.5156 -0.3110
 5585SOL    HW128214   1.123   4.004   5.350  0.2930  1.1362  0.2569
 5585SOL    HW228215   1.125   3.855   5.376 -1.7178  0.8937 -2.4024
 5586SOL     OW28216   0.603   0.693  15.274  0.7647 -0.6855  0.1592
 5586SOL    HW128217   0.615   0.653  15.188  0.3992 -0.6690  0.0986
 5586SOL    HW228218   0.610   0.612  15.325  0.4476 -0.5693  0.3887
 5587SOL     OW28219   0.785   2.081   2.950 -0.1568 -0.0674  0.3731
 5587SOL    HW128220   0.704   2.107   2.995 -1.3812 -1.2147 -1.1651
 5587SOL    HW228221   0.843   2.095   3.025 -0.3693  1.9939  0.1729
 5588SOL     OW28222   1.933   1.605   1.322 -0.3935 -0.1533 -0.4504
 5588SOL    HW128223   2.024   1.629   1.308 -0.9934  1.1819 -2.0355
 5588SOL    HW228224   1.907   1.551   1.247  0.6967 -0.3624 -0.6787
 5589SOL     OW28225   1.146   0.718   3.988  0.3600 -0.0263  0.2559
 5589SOL    HW128226   1.166   0.720   4.082 -1.1419 -1.2758  0.6193
 5589SOL    HW228227   1.210   0.784   3.962  0.5590 -0.7029 -0.9591
 5590SOL     OW28228   2.331   1.454  12.136 -0.0481 -0.2659  0.2544
 5590SOL    HW128229   2.271   1.506  12.189  0.1447  0.2728 -0.0486
 5590SOL    HW228230   2.307   1.364  12.158 -2.0219  0.3355  0.5488
 5591SOL     OW28231   3.741   2.668   6.275 -0.1790 -0.6096  0.2543
 5591SOL    HW128232   3.656   2.639   6.309 -0.1351 -0.6517  0.3283
 5591SOL    HW228233   3.726   2.655   6.182  2.6328 -0.2217 -0.2308
 5592SOL     OW28234   1.916   3.005   5.293  0.0343 -0.5840  0.3527
 5592SOL    HW128235   1.924   2.952   5.372  0.8965  0.4384  0.9653
 5592SOL    HW228236   1.822   3.014   5.276 -0.0207 -1.1754  0.3526
 5593SOL     OW28237   3.409   4.509  17.451 -0.2325 -0.4624  0.0557
 5593SOL    HW128238   3.469   4.459  17.396  0.0541 -0.5823  0.4800
 5593SOL    HW228239   3.352   4.552  17.386  1.1186 -0.9219 -1.4131
 5594SOL     OW28240   0.107   4.615  10.555  0.1912  0.3679  0.1189
 5594SOL    HW128241   0.052   4.577  10.486  0.9266 -0.6038  0.0641
 5594SOL    HW228242   0.089   4.709  10.551  5.4646  1.3774  0.4363
 5595SOL     OW28243   3.341   2.427   1.050  0.0245 -0.6697  0.8069
 5595SOL    HW128244   3.418   2.410   0.996  0.3698  2.9816  0.1493
 5595SOL    HW228245   3.320   2.333   1.050  0.6756 -0.8188  0.8702
 5596SOL     OW28246   3.669   0.591   5.840 -0.7943 -0.0071  0.0068
 5596SOL    HW128247   3.602   0.576   5.908 -0.6215  1.4791  0.5177
 5596SOL    HW228248   3.695   0.499   5.831 -0.5398  0.2197 -1.5170
 5597SOL     OW28249   0.386   4.440   3.070 -0.3375  0.2392 -0.8057
 5597SOL    HW128250   0.450   4.494   3.116 -1.3724 -1.1455  2.2744
 5597SOL    HW228251   0.434   4.435   2.987  1.0890  0.9769 -0.0106
 5598SOL     OW28252   1.692   0.043   1.668 -0.9200  0.6266  0.1363
 5598SOL    HW128253   1.600   0.031   1.645 -0.7432  0.5248 -0.5340
 5598SOL    HW228254   1.736   0.081   1.592  0.1378  0.1172  0.4888
 5599SOL     OW28255   3.522   1.534  16.183  0.6709 -0.2687 -0.3933
 5599SOL    HW128256   3.444   1.589  16.186 -0.0523 -1.5793  4.6035
 5599SOL    HW228257   3.577   1.587  16.241 -0.0875 -0.3358  0.3833
 5600SOL     OW28258   3.306   3.090  12.726  0.0066 -0.8681  0.2308
 5600SOL    HW128259   3.275   3.092  12.636  0.8436 -1.7491 -0.0759
 5600SOL    HW228260   3.401   3.082  12.724  0.0979 -0.0331  1.4868
 5601SOL     OW28261   4.719   4.303   3.907  0.1560 -0.0661 -0.2759
 5601SOL    HW128262   0.038   4.386   3.885 -0.1366  0.7428  2.2424
 5601SOL    HW228263   4.681   4.321   3.992 -1.8805 -2.8311 -0.5821
 5602SOL     OW28264   3.071   2.165   8.389 -0.1905  0.7459  0.1331
 5602SOL    HW128265   3.062   2.147   8.482 -2.3779  0.4100 -0.1317
 5602SOL    HW228266   3.140   2.230   8.399 -1.9024  2.4444  0.9832
 5603SOL     OW28267   2.789   3.354  13.882 -0.0429  0.1007 -0.2317
 5603SOL    HW128268   2.745   3.314  13.807  1.0135  0.1238 -0.8701
 5603SOL    HW228269   2.731   3.322  13.951 -0.1148  0.1224 -0.2824
 5604SOL     OW28270   2.609   4.025   4.446  0.0008 -0.2375 -0.3852
 5604SOL    HW128271   2.632   3.951   4.390 -1.0508 -0.5217 -0.4358
 5604SOL    HW228272   2.538   4.064   4.395 -1.1517 -0.8940  0.7031
 5605SOL     OW28273   2.228   2.116   5.649  0.4467  0.2229  0.1512
 5605SOL    HW128274   2.273   2.046   5.601 -0.0686  0.5488 -0.8040
 5605SOL    HW228275   2.141   2.109   5.609  0.9750  4.0128 -1.6648
 5606SOL     OW28276   2.120   4.498   5.833  0.1792  0.1104 -0.1189
 5606SOL    HW128277   2.143   4.405   5.829  0.1778  0.2340 -2.7279
 5606SOL    HW228278   2.086   4.525   5.919 -3.0514 -0.5095 -1.1794
 5607SOL     OW28279   2.708   3.627  12.907 -0.0052  0.2353  0.1697
 5607SOL    HW128280   2.690   3.637  13.000 -1.1677  0.6901 -0.1069
 5607SOL    HW228281   2.625   3.618  12.860 -1.1840  2.7125  1.8332
 5608SOL     OW28282   2.873   2.362   2.409  0.3456  0.1277 -0.1789
 5608SOL    HW128283   2.899   2.288   2.353  1.8445 -0.2273  0.9592
 5608SOL    HW228284   2.920   2.434   2.366 -0.0333  0.3026 -0.3005
 5609SOL     OW28285   0.694   4.446   9.336  0.0189 -0.2417 -0.2320
 5609SOL    HW128286   0.686   4.488   9.422 -0.0554 -0.5125 -0.1071
 5609SOL    HW228287   0.667   4.358   9.363  0.1283  0.1152  1.0513
 5610SOL     OW28288   2.970   0.696   8.284 -0.3993 -0.2067  0.4468
 5610SOL    HW128289   2.946   0.711   8.192 -1.7729 -0.1230  0.8190
 5610SOL    HW228290   2.958   0.780   8.328 -0.0388  0.1225 -0.0780
 5611SOL     OW28291   0.152   3.084   3.561 -0.5938 -0.2466  0.5043
 5611SOL    HW128292   0.231   3.043   3.596  1.4328  1.5774 -1.8739
 5611SOL    HW228293   0.106   3.011   3.520  0.4499  0.0886 -1.2678
 5612SOL     OW28294   1.527   2.836   5.445 -0.1557 -0.0733 -0.0636
 5612SOL    HW128295   1.528   2.759   5.502  0.0755 -1.1015 -1.4674
 5612SOL    HW228296   1.449   2.808   5.398  1.0417 -0.4139 -1.8232
 5613SOL     OW28297   2.394   4.050   2.269 -0.6506 -0.0968 -0.3618
 5613SOL    HW128298   2.300   4.033   2.268 -0.8985  1.3323 -0.9020
 5613SOL    HW228299   2.409   4.125   2.326  1.2215 -1.3463  0.8004
 5614SOL     OW28300   3.602   3.584  16.147 -0.7726 -0.0994 -0.1233
 5614SOL    HW128301   3.550   3.557  16.223  1.9003 -0.7120  1.4793
 5614SOL    HW228302   3.645   3.502  16.123  0.1713  0.9123 -1.9130
 5615SOL     OW28303   0.792   2.154   6.292  0.1214 -0.7459 -0.1967
 5615SOL    HW128304   0.816   2.168   6.384 -1.0209 -2.2756  0.3250
 5615SOL    HW228305   0.720   2.216   6.284  0.2871 -0.5133  0.1123
 5616SOL     OW28306   1.159   0.747   5.440  0.0528  0.4264  0.1750
 5616SOL    HW128307   1.155   0.822   5.380  1.8753  0.2218 -0.2043
 5616SOL    HW228308   1.109   0.787   5.510  0.3105 -1.6309  1.5172
 5617SOL     OW28309   0.698   0.302   0.443  0.0405  0.2664 -0.7031
 5617SOL    HW128310   0.683   0.295   0.537 -0.9752 -0.2414 -0.9025
 5617SOL    HW228311   0.677   0.211   0.423  0.2876 -0.0780  0.5894
 5618SOL     OW28312   2.491   2.998   3.557  0.4810 -0.4722 -0.0229
 5618SOL    HW128313   2.402   3.026   3.534 -0.0103 -0.7803  1.4944
 5618SOL    HW228314   2.472   2.950   3.638 -0.0985  0.1819  0.2267
 5619SOL     OW28315   3.390   0.601   4.511  0.4251 -0.6226 -0.1051
 5619SOL    HW128316   3.428   0.665   4.450  1.6805  0.0174  1.3557
 5619SOL    HW228317   3.321   0.562   4.456 -2.1715 -0.1745  2.7891
 5620SOL     OW28318   1.609   3.704   2.517  0.1722 -0.2790 -0.2300
 5620SOL    HW128319   1.643   3.644   2.450  2.0304 -0.9155  1.2994
 5620SOL    HW228320   1.557   3.640   2.566  0.0861 -0.6916 -0.8525
 5621SOL     OW28321   0.602   0.871   3.225 -0.3121  0.1638 -0.0158
 5621SOL    HW128322   0.648   0.892   3.306 -0.3647 -0.5788  0.2078
 5621SOL    HW228323   0.667   0.862   3.155  0.2443  1.2877  0.3682
 5622SOL     OW28324   4.684   1.235  15.823  0.5354 -0.3054 -0.0357
 5622SOL    HW128325   4.709   1.324  15.797 -1.2603 -0.0264 -0.8254
 5622SOL    HW228326   4.705   1.194  15.739 -2.6522  0.3609 -1.1472
 5623SOL     OW28327   1.652   1.636   5.442  0.0599  0.2108 -0.2615
 5623SOL    HW128328   1.577   1.624   5.500  0.7183  0.3348  0.6181
 5623SOL    HW228329   1.732   1.622   5.493  0.1129 -0.8254 -0.6385
 5624SOL     OW28330   2.159   1.943   9.919  0.3069 -0.2370  0.7579
 5624SOL    HW128331   2.127   1.997   9.991  0.4624  2.0403 -0.8618
 5624SOL    HW228332   2.252   1.934   9.938  0.6672 -1.2187 -1.4451
 5625SOL     OW28333   3.527   3.483   1.328 -0.2099  0.6589 -0.1991
 5625SOL    HW128334   3.601   3.492   1.387  0.5428 -1.0361 -0.8718
 5625SOL    HW228335   3.492   3.566   1.296 -1.0086  0.2323 -0.4454
 5626SOL     OW28336   1.270   4.676   4.020 -0.0636 -0.4192  0.5948
 5626SOL    HW128337   1.260   4.609   3.952  1.3325 -0.1575  0.1222
 5626SOL    HW228338   1.278   4.614   4.093 -1.0302 -0.6495  0.5048
 5627SOL     OW28339   2.820   1.398   2.456 -0.2085  0.2570 -0.0909
 5627SOL    HW128340   2.876   1.413   2.380 -1.3536 -1.4653 -1.2860
 5627SOL    HW228341   2.836   1.481   2.500 -1.4956  0.0416  0.7931
 5628SOL     OW28342   3.568   0.977   1.491  0.2557 -0.2263  0.4477
 5628SOL    HW128343   3.642   1.021   1.450 -0.6326 -0.9053 -1.8700
 5628SOL    HW228344   3.535   1.044   1.551 -2.4229 -1.4510  0.3370
 5629SOL     OW28345   2.676   0.406   9.599 -0.3015 -0.0309 -0.0307
 5629SOL    HW128346   2.740   0.456   9.549 -1.4212  2.7404  1.3264
 5629SOL    HW228347   2.650   0.476   9.659  0.6881  1.4303 -1.3171
 5630SOL     OW28348   0.659   1.078   1.673  0.1456 -0.6550  0.1749
 5630SOL    HW128349   0.687   1.025   1.598  2.8847  0.2716  0.5577
 5630SOL    HW228350   0.743   1.117   1.699 -0.0478  1.1035 -1.7984
 5631SOL     OW28351   4.592   1.413  11.200 -0.6558 -0.8837 -0.9669
 5631SOL    HW128352   4.524   1.348  11.218 -0.9609 -0.2981  0.0206
 5631SOL    HW228353   4.546   1.471  11.140 -2.5594 -2.2039 -0.7794
 5632SOL     OW28354   4.302   0.774   3.899  0.4458 -0.0783  0.0842
 5632SOL    HW128355   4.319   0.860   3.862  2.2138 -0.7118 -0.5937
 5632SOL    HW228356   4.268   0.807   3.982  0.4038 -1.2104  0.5148
 5633SOL     OW28357   3.361   1.008   5.093 -0.1793  0.6969  0.3824
 5633SOL    HW128358   3.280   1.058   5.085 -1.3251 -1.5916 -2.3777
 5633SOL    HW228359   3.387   1.039   5.180  1.4025  0.8543 -0.1525
 5634SOL     OW28360   0.772   3.244   9.369  0.2092 -0.2987 -0.5939
 5634SOL    HW128361   0.846   3.185   9.378 -0.3971 -0.6503  2.0761
 5634SOL    HW228362   0.704   3.177   9.376 -0.8049  0.8253  0.2098
 5635SOL     OW28363   2.768   0.318   3.257  0.2911 -0.0865 -0.5491
 5635SOL    HW128364   2.837   0.303   3.192 -1.5136  0.9180 -2.7129
 5635SOL    HW228365   2.814   0.373   3.321  1.6428  0.4656 -1.9916
 5636SOL     OW28366   2.656   2.630  12.128 -0.1033 -0.0498 -0.3146
 5636SOL    HW128367   2.586   2.618  12.064 -2.6251 -0.1657  2.4414
 5636SOL    HW228368   2.730   2.660  12.076  0.3281 -0.3529  0.1303
 5637SOL     OW28369   2.881   1.566   9.031 -0.6316 -0.0629  0.3978
 5637SOL    HW128370   2.836   1.494   9.075  1.1389 -1.0851  0.5188
 5637SOL    HW228371   2.806   1.615   8.997 -0.6825  0.0290  0.6396
 5638SOL     OW28372   0.272   1.874   6.283  0.1858  0.1755  0.0817
 5638SOL    HW128373   0.265   1.835   6.370  0.1289  1.0719  0.4743
 5638SOL    HW228374   0.357   1.913   6.303  2.0789 -3.9785  0.0995
 5639SOL     OW28375   2.490   2.116   2.040 -0.2798 -0.2054  0.0996
 5639SOL    HW128376   2.546   2.161   2.104 -0.7315 -0.1866  0.4765
 5639SOL    HW228377   2.553   2.054   2.003  0.8061 -0.5788  2.5559
 5640SOL     OW28378   3.004   2.707  11.452 -0.5516 -0.2358  0.2155
 5640SOL    HW128379   3.055   2.647  11.506  0.8295 -0.6197 -1.5315
 5640SOL    HW228380   3.056   2.787  11.462  0.0129 -0.6103  0.2730
 5641SOL     OW28381   2.849   1.559   3.570 -0.3001  0.2027 -0.3202
 5641SOL    HW128382   2.792   1.636   3.563 -1.0282 -0.4091 -1.1615
 5641SOL    HW228383   2.862   1.531   3.479 -0.6218  2.7756 -1.1625
 5642SOL     OW28384   0.662   4.322  15.327 -0.2650  0.4023 -0.0960
 5642SOL    HW128385   0.735   4.261  15.339  0.7468  1.1698 -2.3605
 5642SOL    HW228386   0.690   4.393  15.385 -0.7255 -0.9915  1.8334
 5643SOL     OW28387   3.524   2.529  17.195  0.1712 -0.9440  0.7719
 5643SOL    HW128388   3.492   2.546  17.106 -1.9091 -1.8044  1.3626
 5643SOL    HW228389   3.585   2.457  17.179 -1.2407 -2.3733  1.8362
 5644SOL     OW28390   4.466   2.704   5.369 -0.6798  0.4591  0.3552
 5644SOL    HW128391   4.450   2.615   5.340 -0.6824  0.2566  0.9737
 5644SOL    HW228392   4.477   2.703   5.464  1.1551 -2.4885  0.0867
 5645SOL     OW28393   4.565   0.532   9.250  0.1548 -0.4975  0.0200
 5645SOL    HW128394   4.628   0.602   9.261 -0.6000  0.1373  0.3324
 5645SOL    HW228395   4.520   0.574   9.177  2.3944  1.8341  0.0093
 5646SOL     OW28396   0.746   4.434   4.575 -0.2591 -0.1618  0.0808
 5646SOL    HW128397   0.745   4.477   4.660  0.4559  1.5799 -0.7791
 5646SOL    HW228398   0.694   4.495   4.523  1.3005  1.6264  0.5872
 5647SOL     OW28399   0.389   1.998   9.083 -0.4696  0.1830 -0.4877
 5647SOL    HW128400   0.370   2.018   8.991 -0.9769 -3.5178 -1.2175
 5647SOL    HW228401   0.324   2.051   9.128  0.9343  1.6885 -0.2183
 5648SOL     OW28402   2.543   3.277   0.187  0.2929 -0.0450 -0.0295
 5648SOL    HW128403   2.519   3.330   0.263 -1.2300  0.8054 -1.1134
 5648SOL    HW228404   2.477   3.307   0.125  0.6038  1.1955  0.2449
 5649SOL     OW28405   0.492   4.133   7.751 -0.0685 -0.5627 -0.4825
 5649SOL    HW128406   0.472   4.155   7.660 -0.3678  1.0003 -0.0383
 5649SOL    HW228407   0.437   4.202   7.787  0.8113  0.1204 -0.4369
 5650SOL     OW28408   2.035   2.458   7.661 -0.4695 -0.0556 -0.9806
 5650SOL    HW128409   2.118   2.497   7.686  0.2068 -1.8905 -0.3577
 5650SOL    HW228410   2.016   2.399   7.735  2.4468  2.5277  1.8200
 5651SOL     OW28411   0.932   0.902   1.253 -0.4699 -0.5750  0.3453
 5651SOL    HW128412   0.944   0.968   1.185 -2.6980 -2.1116 -1.5663
 5651SOL    HW228413   1.018   0.862   1.243 -1.2184 -1.6592 -1.7745
 5652SOL     OW28414   3.341   3.819   6.076 -0.1368 -0.1079  0.0990
 5652SOL    HW128415   3.345   3.726   6.099  2.6340 -0.0761 -0.3393
 5652SOL    HW228416   3.254   3.828   6.038  0.9843  0.3887 -2.3314
 5653SOL     OW28417   1.779   0.833   7.709 -0.3723 -0.3178  0.3396
 5653SOL    HW128418   1.869   0.848   7.736 -0.5839  2.2487 -0.4115
 5653SOL    HW228419   1.789   0.741   7.686  2.1475  0.0775 -0.1139
 5654SOL     OW28420   0.049   2.476   2.551  0.1797 -0.5098  0.0435
 5654SOL    HW128421   0.075   2.400   2.604 -0.8342 -1.8523 -1.3593
 5654SOL    HW228422   4.700   2.432   2.505  0.2068  1.6979 -2.0793
 5655SOL     OW28423   3.814   4.574  15.842 -0.1089 -0.1403 -0.1344
 5655SOL    HW128424   3.792   4.636  15.911 -0.6392  1.7282 -1.9934
 5655SOL    HW228425   3.749   4.598  15.776  1.7972  1.3266 -1.4494
 5656SOL     OW28426   1.898   3.007   9.091  0.2148  0.2950 -0.1712
 5656SOL    HW128427   1.857   2.969   9.169 -0.3945  1.1198 -0.0830
 5656SOL    HW228428   1.942   2.929   9.057  1.8139  0.6858  1.0303
 5657SOL     OW28429   4.608   1.636  15.063 -0.3164 -0.0630 -0.4133
 5657SOL    HW128430   4.608   1.722  15.104  1.2388 -1.0099  1.5505
 5657SOL    HW228431   4.541   1.587  15.112 -2.0640  2.1536 -0.5880
 5658SOL     OW28432   2.237   3.743   4.168 -0.0734  0.1462  0.2056
 5658SOL    HW128433   2.246   3.755   4.074 -4.4353 -2.3858 -0.5761
 5658SOL    HW228434   2.294   3.668   4.183 -1.3859 -0.8513  0.2487
 5659SOL     OW28435   1.477   1.340   1.863  0.3491 -0.5760  0.7725
 5659SOL    HW128436   1.411   1.365   1.798  1.2323  1.7965  0.8028
 5659SOL    HW228437   1.526   1.421   1.876 -1.8593  0.4851  2.4236
 5660SOL     OW28438   1.419   2.374   0.757  0.2796  0.7582  0.5243
 5660SOL    HW128439   1.420   2.315   0.682 -0.7574  2.2006 -0.6228
 5660SOL    HW228440   1.338   2.343   0.798 -1.5660  2.5477 -1.7710
 5661SOL     OW28441   3.032   2.665  13.047  0.5570 -0.1898  0.1640
 5661SOL    HW128442   3.065   2.600  12.985 -0.7973 -1.8074  1.1309
 5661SOL    HW228443   3.078   2.645  13.128  1.3702 -1.5250 -0.6278
 5662SOL     OW28444   0.636   4.378   8.422  0.3339  0.3784 -0.5135
 5662SOL    HW128445   0.598   4.451   8.472  0.8769  1.0473 -1.0746
 5662SOL    HW228446   0.564   4.316   8.431  0.5789 -0.2481 -2.9546
 5663SOL     OW28447   2.905   4.026   4.111  0.4181 -0.1372 -1.0049
 5663SOL    HW128448   2.858   4.069   4.184 -0.9853  1.2887 -2.7350
 5663SOL    HW228449   2.992   4.011   4.147  0.9908  1.8407 -1.5683
 5664SOL     OW28450   2.512   3.988   5.392 -0.4161  0.0644  0.5672
 5664SOL    HW128451   2.603   4.011   5.373 -0.8191  1.0225 -0.2183
 5664SOL    HW228452   2.528   3.898   5.418  1.5490 -0.1120 -1.2445
 5665SOL     OW28453   2.143   0.659   6.097  0.3157 -1.2129  0.3863
 5665SOL    HW128454   2.231   0.652   6.062  0.9004 -2.8290  2.1397
 5665SOL    HW228455   2.121   0.568   6.121  1.5670 -1.5271  0.3599
 5666SOL     OW28456   2.269   3.766   3.143  0.3438 -0.4770 -0.2712
 5666SOL    HW128457   2.336   3.807   3.199 -0.6384 -0.3899  0.8268
 5666SOL    HW228458   2.289   3.675   3.162  0.6908 -0.2393  0.4675
 5667SOL     OW28459   3.596   2.688   8.833  0.1512 -0.0292  0.0737
 5667SOL    HW128460   3.658   2.761   8.833  0.4751 -0.3047 -0.4229
 5667SOL    HW228461   3.538   2.707   8.907  0.3876 -1.4238  0.6235
 5668SOL     OW28462   1.082   1.135  11.883  0.2142  0.0061  0.4826
 5668SOL    HW128463   1.153   1.076  11.908  1.8419  0.8378 -2.2072
 5668SOL    HW228464   1.104   1.149  11.791 -0.7613 -3.4160 -0.2687
 5669SOL     OW28465   3.053   2.994  15.747  0.3042  0.2850  0.0483
 5669SOL    HW128466   2.963   3.026  15.744  0.6076  1.1823  0.7199
 5669SOL    HW228467   3.056   2.941  15.667  1.6713 -0.6388  0.7215
 5670SOL     OW28468   1.564   3.658   5.862 -0.2467 -0.0790 -0.0026
 5670SOL    HW128469   1.556   3.707   5.944  1.4286 -0.7053  0.5221
 5670SOL    HW228470   1.618   3.712   5.804 -0.4349  0.0633 -0.0462
 5671SOL     OW28471   0.741   1.399   4.644 -0.8714 -0.0001  0.1335
 5671SOL    HW128472   0.818   1.348   4.669 -0.3651 -0.2843 -2.0484
 5671SOL    HW228473   0.720   1.364   4.557  0.5676 -1.8352  0.5296
 5672SOL     OW28474   1.123   1.617   7.058  0.2376 -0.1798  0.0627
 5672SOL    HW128475   1.123   1.601   7.153  0.1073  1.7813  0.3973
 5672SOL    HW228476   1.055   1.684   7.056  0.1635 -0.3492 -2.1057
 5673SOL     OW28477   1.197   4.653  14.019  0.0913 -0.4474 -0.7013
 5673SOL    HW128478   1.275   4.654  13.964 -0.1926 -0.2597 -1.0978
 5673SOL    HW228479   1.150   4.574  13.994  0.9146 -0.8928 -0.8293
 5674SOL     OW28480   3.724   3.697   7.538  0.6188  0.1127 -0.0450
 5674SOL    HW128481   3.761   3.618   7.498 -0.3703  0.7704 -2.2607
 5674SOL    HW228482   3.669   3.669   7.610 -1.4320  0.2424 -1.5476
 5675SOL     OW28483   3.271   0.005  10.671 -0.6104  0.5156 -0.5827
 5675SOL    HW128484   3.344   0.002  10.610 -0.8653 -0.8153 -0.8335
 5675SOL    HW228485   3.310   4.706  10.756  0.5363  0.2524 -1.1761
 5676SOL     OW28486   4.465   4.638   4.511  0.2638  0.3850 -0.0287
 5676SOL    HW128487   4.547   4.624   4.559  0.8481 -0.6972 -1.3072
 5676SOL    HW228488   4.403   4.579   4.552  0.0494 -1.0630 -2.4180
 5677SOL     OW28489   0.676   2.115   8.534 -0.5194 -0.0839  0.3612
 5677SOL    HW128490   0.674   2.095   8.627  2.7151 -3.5696 -0.2809
 5677SOL    HW228491   0.682   2.025   8.500 -0.4006 -0.1741  0.6212
 5678SOL     OW28492   3.521   0.952  12.668 -0.0583  0.8469  0.5163
 5678SOL    HW128493   3.597   0.968  12.612 -0.0517 -1.4620 -0.1250
 5678SOL    HW228494   3.462   1.026  12.650 -0.5589  0.4613  0.5694
 5679SOL     OW28495   0.484   3.476   7.714 -0.2227 -0.5000 -0.3483
 5679SOL    HW128496   0.496   3.533   7.638  0.0842  0.7567  0.6477
 5679SOL    HW228497   0.442   3.542   7.769  3.3808  0.3251  1.4354
 5680SOL     OW28498   3.597   0.488   4.641  0.2333 -0.3128  0.6234
 5680SOL    HW128499   3.571   0.488   4.733 -0.3393  1.2885  0.4685
 5680SOL    HW228500   3.517   0.494   4.587  0.4104 -0.0209  0.3947
 5681SOL     OW28501   2.078   1.467   1.838  0.4464  0.1453  0.2923
 5681SOL    HW128502   2.028   1.500   1.912 -0.7531 -0.6765 -0.1429
 5681SOL    HW228503   2.062   1.534   1.772 -2.2138 -0.5330  0.2284
 5682SOL     OW28504   1.231   0.961  13.347 -0.3747  0.1568  0.2183
 5682SOL    HW128505   1.215   0.955  13.253  0.2038  1.6601  0.0132
 5682SOL    HW228506   1.137   0.954  13.364 -0.0545 -0.8965  1.5471
 5683SOL     OW28507   1.924   1.549   2.656  0.1834 -0.1421  0.4314
 5683SOL    HW128508   1.876   1.475   2.621  0.7754 -0.7293  0.8636
 5683SOL    HW228509   2.009   1.524   2.619 -0.3058  0.7693 -1.3512
 5684SOL     OW28510   2.624   3.632   1.999 -0.0644  0.0119 -0.0798
 5684SOL    HW128511   2.670   3.580   2.065 -0.2872  1.1752  0.9916
 5684SOL    HW228512   2.610   3.715   2.045  0.4657  0.6768 -1.1069
 5685SOL     OW28513   2.266   0.600   3.693  0.0343 -0.7191 -0.3407
 5685SOL    HW128514   2.317   0.664   3.643  0.9693  0.0045  1.5287
 5685SOL    HW228515   2.270   0.530   3.628  1.9833  0.6102 -1.6678
 5686SOL     OW28516   0.039   4.371   8.789 -0.2819 -0.3973 -0.7202
 5686SOL    HW128517   0.032   4.364   8.884  0.6392  0.6171 -0.5761
 5686SOL    HW228518   0.106   4.304   8.774  0.7574  0.5443 -0.3046
 5687SOL     OW28519   1.275   0.609   2.659  0.3217  0.2706 -0.3489
 5687SOL    HW128520   1.268   0.692   2.707  0.0718  1.2685 -2.1218
 5687SOL    HW228521   1.183   0.586   2.647  0.2819  0.5026 -0.5006
 5688SOL     OW28522   0.032   0.019  15.107  0.6098  0.4939  0.6087
 5688SOL    HW128523   0.079   0.080  15.051 -0.9173  1.0879 -0.0123
 5688SOL    HW228524   4.710   0.073  15.173  0.7580  0.1795  0.9704
 5689SOL     OW28525   0.475   4.409   5.222  0.6868  0.0224 -0.6292
 5689SOL    HW128526   0.552   4.387   5.170  1.2149  0.0325  0.1469
 5689SOL    HW228527   0.434   4.325   5.199  1.0509  0.2141 -1.9410
 5690SOL     OW28528   2.430   0.021   5.050 -0.7259  0.2735  0.3816
 5690SOL    HW128529   2.376   4.668   5.071 -0.4258 -0.3885 -1.2631
 5690SOL    HW228530   2.463   4.716   4.965 -0.4626  1.7500  0.0189
 5691SOL     OW28531   1.268   2.539   5.578 -0.2849  0.1186  0.2594
 5691SOL    HW128532   1.209   2.517   5.506  1.2084  0.3764 -1.0437
 5691SOL    HW228533   1.245   2.461   5.628 -1.7045  0.0831 -0.4692
 5692SOL     OW28534   1.315   3.466   7.310  0.4931 -0.1948  0.7236
 5692SOL    HW128535   1.336   3.449   7.402  0.3073  0.3988  0.8770
 5692SOL    HW228536   1.398   3.489   7.269  1.2851 -1.7200  1.4574
 5693SOL     OW28537   1.753   4.592   9.603  0.6452  0.8759 -0.9626
 5693SOL    HW128538   1.701   4.669   9.628 -1.1248  0.2325 -2.6327
 5693SOL    HW228539   1.844   4.617   9.618  0.7985 -0.6869  0.6863
 5694SOL     OW28540   1.966   1.826  12.130 -0.3230 -0.2957 -0.0890
 5694SOL    HW128541   1.897   1.887  12.103 -1.2958 -2.3778 -2.3403
 5694SOL    HW228542   1.919   1.791  12.206 -2.0868 -0.6616 -1.3500
 5695SOL     OW28543   0.053   0.665  14.266 -0.3803 -0.6638 -0.1303
 5695SOL    HW128544   4.719   0.700  14.334  0.8606 -2.7288  1.9799
 5695SOL    HW228545   0.015   0.698  14.185 -0.1481  0.6757  0.3122
 5696SOL     OW28546   1.055   2.120   0.181  0.3641  0.2403 -0.0831
 5696SOL    HW128547   0.960   2.132   0.190 -0.1971 -2.1432 -2.6788
 5696SOL    HW228548   1.080   2.205   0.144  2.6431 -0.2644  0.3488
 5697SOL     OW28549   0.199   4.180   4.777  0.3060 -0.2004 -0.1015
 5697SOL    HW128550   0.176   4.185   4.870 -1.7548  0.4051 -0.6469
 5697SOL    HW228551   0.267   4.247   4.775 -1.7026  1.8230 -0.3036
 5698SOL     OW28552   3.266   0.929   3.503  0.2074 -0.0612 -0.3165
 5698SOL    HW128553   3.327   1.002   3.509 -0.8776  0.7174  1.0538
 5698SOL    HW228554   3.321   0.858   3.537  1.5201  1.4064  0.6266
 5699SOL     OW28555   0.908   0.252   3.863  0.2346 -0.2533 -0.0338
 5699SOL    HW128556   0.943   0.336   3.893 -2.4979  0.4202  1.3021
 5699SOL    HW228557   0.836   0.235   3.924  0.1083 -2.0597 -0.6885
 5700SOL     OW28558   2.633   1.967  12.401  0.3752 -0.1558  0.4191
 5700SOL    HW128559   2.615   1.877  12.429  2.0024 -0.9476 -1.0850
 5700SOL    HW228560   2.573   1.971  12.327 -0.9627 -1.9661  1.4167
 5701SOL     OW28561   3.695   0.904   7.382 -0.0596 -0.5326 -0.2464
 5701SOL    HW128562   3.697   0.961   7.459  0.6589 -0.0747 -0.5995
 5701SOL    HW228563   3.789   0.891   7.369  0.2134  2.1900 -1.1394
 5702SOL     OW28564   2.651   1.888   2.320  0.1558  0.3223  0.1096
 5702SOL    HW128565   2.563   1.891   2.359  0.2487 -1.0933  0.4364
 5702SOL    HW228566   2.648   1.806   2.271  0.9504 -0.7366  1.8422
 5703SOL     OW28567   2.715   1.917   1.320 -0.6926 -0.2045  0.8101
 5703SOL    HW128568   2.743   1.994   1.271  0.2098  1.2705  3.6406
 5703SOL    HW228569   2.628   1.907   1.284 -0.6080 -1.0556  0.8382
 5704SOL     OW28570   4.588   0.708   7.443 -0.2507 -0.2085  0.3490
 5704SOL    HW128571   4.643   0.744   7.513  1.4803 -1.6010 -0.2862
 5704SOL    HW228572   4.519   0.677   7.501 -0.0424  2.8198  2.2126
 5705SOL     OW28573   2.023   2.252   4.599 -0.4692 -0.0018 -0.4601
 5705SOL    HW128574   2.101   2.198   4.608 -1.0448 -1.1485 -2.2571
 5705SOL    HW228575   2.030   2.324   4.661  1.0835  0.7068 -1.4840
 5706SOL     OW28576   3.673   1.770  17.275 -0.5130  0.2235 -0.2305
 5706SOL    HW128577   3.649   1.857  17.307 -1.5278  0.2869 -1.1501
 5706SOL    HW228578   3.729   1.801  17.204 -3.2689  2.0991 -1.5893
 5707SOL     OW28579   4.373   4.344   4.562 -0.2760  0.5715 -0.7876
 5707SOL    HW128580   4.407   4.324   4.475 -1.4054 -0.0357 -1.0881
 5707SOL    HW228581   4.366   4.258   4.604  2.1327 -0.1117 -1.7807
 5708SOL     OW28582   0.657   1.821   4.333 -0.0703 -0.2962  0.0882
 5708SOL    HW128583   0.582   1.805   4.389 -0.8864 -0.4075 -1.0460
 5708SOL    HW228584   0.656   1.915   4.350 -2.2381 -0.8398  2.8073
 5709SOL     OW28585   2.136   2.837   5.682  0.2067 -0.3199 -0.1245
 5709SOL    HW128586   2.179   2.870   5.761 -1.6192 -1.6754  1.4493
 5709SOL    HW228587   2.195   2.763   5.667  0.1164 -0.7690  1.6553
 5710SOL     OW28588   0.189   2.251   5.270  0.1798 -0.3208  0.7528
 5710SOL    HW128589   0.193   2.342   5.240 -1.5713  0.1561  1.9859
 5710SOL    HW228590   0.098   2.255   5.299  0.0913  2.6994  0.0782
 5711SOL     OW28591   3.031   0.415   5.035  0.0401 -0.2021  0.3526
 5711SOL    HW128592   3.101   0.396   4.973  0.9376  1.0307  1.0063
 5711SOL    HW228593   3.074   0.465   5.104  1.6846  0.3427 -1.0870
 5712SOL     OW28594   4.298   2.289   9.855  0.6577 -1.1687  0.2566
 5712SOL    HW128595   4.223   2.326   9.902  0.2941  1.8408 -2.6944
 5712SOL    HW228596   4.347   2.370   9.841  0.3791 -1.1892 -0.8285
 5713SOL     OW28597   1.761   1.270  16.133 -0.4636 -0.5470  0.1187
 5713SOL    HW128598   1.769   1.311  16.047 -0.3733  0.2328  0.4966
 5713SOL    HW228599   1.760   1.178  16.106  4.9839 -0.8342  0.7770
 5714SOL     OW28600   2.251   4.540   5.457  0.1636 -0.2486  0.1349
 5714SOL    HW128601   2.319   4.592   5.413 -1.4391  3.1615  1.6935
 5714SOL    HW228602   2.262   4.456   5.412 -0.4719 -0.4993  0.4594
 5715SOL     OW28603   4.495   0.446   4.861  0.4581  0.1075 -0.3653
 5715SOL    HW128604   4.481   0.472   4.770 -0.3085  0.9534 -0.0037
 5715SOL    HW228605   4.497   0.350   4.854  1.6783  0.1009  0.2682
 5716SOL     OW28606   1.864   4.434   0.033  0.2254  0.6388  0.4058
 5716SOL    HW128607   1.914   4.416   0.112 -0.1689  0.8757  0.7090
 5716SOL    HW228608   1.807   4.505   0.063 -1.3027  0.0570 -1.0679
 5717SOL     OW28609   0.941   4.025   9.857 -0.5770 -0.7161 -0.6963
 5717SOL    HW128610   0.985   3.953   9.903 -2.1637 -0.4923  1.1697
 5717SOL    HW228611   0.924   3.983   9.773  1.2962  0.3422 -1.5988
 5718SOL     OW28612   1.751   1.482   3.141  0.2042  0.4875 -0.6798
 5718SOL    HW128613   1.676   1.521   3.097 -1.8943 -2.9124 -0.1671
 5718SOL    HW228614   1.698   1.460   3.218  1.1575  2.4281  0.5274
 5719SOL     OW28615   2.018   0.279  16.272  0.1058 -0.5512 -0.3704
 5719SOL    HW128616   1.988   0.255  16.185  0.7477  1.6676 -1.1881
 5719SOL    HW228617   1.992   0.202  16.322  0.5318  0.0104  0.7219
 5720SOL     OW28618   3.448   3.775   1.318  0.5083 -0.1233 -0.0025
 5720SOL    HW128619   3.493   3.753   1.400  1.2153  1.3542 -0.0028
 5720SOL    HW228620   3.526   3.779   1.264 -0.7124  1.1841 -1.6958
 5721SOL     OW28621   1.898   4.610   2.696  0.6207  0.2840  0.1233
 5721SOL    HW128622   1.960   4.565   2.638  1.1173 -1.6765  2.2066
 5721SOL    HW228623   1.868   4.674   2.632  1.7510 -0.4696 -1.1517
 5722SOL     OW28624   3.046   2.827   3.439 -1.0641 -0.5924  0.1663
 5722SOL    HW128625   3.008   2.902   3.392 -0.2726 -0.2631  0.0561
 5722SOL    HW228626   2.984   2.759   3.410 -0.9422  0.2201 -2.0562
 5723SOL     OW28627   0.062   4.330   6.144 -0.1682  0.4519  0.3444
 5723SOL    HW128628   0.008   4.255   6.167  1.9563 -0.9540  0.7744
 5723SOL    HW228629   0.131   4.317   6.209 -1.5855 -1.4811  1.4277
 5724SOL     OW28630   2.394   0.770  12.463 -0.0652  0.7552 -0.4063
 5724SOL    HW128631   2.430   0.685  12.437 -0.1577  0.7875 -0.6398
 5724SOL    HW228632   2.422   0.773  12.555 -0.2931 -0.4621 -0.2910
 5725SOL     OW28633   1.801   1.496   9.691  0.1001 -0.7170 -0.0420
 5725SOL    HW128634   1.833   1.499   9.600  2.7190 -2.4261  0.7995
 5725SOL    HW228635   1.713   1.469   9.665 -1.3150  0.6913  3.4305
 5726SOL     OW28636   0.398   2.616  13.379  0.9038  0.4905 -0.1986
 5726SOL    HW128637   0.432   2.688  13.326 -1.3841  0.7380 -1.3302
 5726SOL    HW228638   0.353   2.669  13.444 -0.1987 -2.1703  1.2256
 5727SOL     OW28639   3.598   3.733  10.506 -0.2805  0.5255 -0.3435
 5727SOL    HW128640   3.643   3.805  10.550  1.4819 -0.9581  0.3341
 5727SOL    HW228641   3.507   3.744  10.535 -0.1652  0.5904 -0.0020
 5728SOL     OW28642   2.677   2.297   6.455  0.1540  0.2889  0.5532
 5728SOL    HW128643   2.748   2.273   6.396  0.0352  0.9458  0.1473
 5728SOL    HW228644   2.715   2.257   6.533 -1.0709  0.0441  1.0299
 5729SOL     OW28645   0.223   2.735   8.806  0.0864  0.0848 -0.2356
 5729SOL    HW128646   0.255   2.743   8.717 -2.6887  0.3708 -1.2135
 5729SOL    HW228647   0.251   2.820   8.839 -2.2158  0.6682  0.2509
 5730SOL     OW28648   3.478   2.422   8.721  0.2762 -0.0287  0.3420
 5730SOL    HW128649   3.513   2.405   8.633  1.3991  1.5252  0.4960
 5730SOL    HW228650   3.497   2.515   8.730  0.7265 -0.1124  0.2498
 5731SOL     OW28651   3.871   4.230   7.564 -0.2493 -0.4498  0.9037
 5731SOL    HW128652   3.847   4.144   7.596  1.6812 -1.4114 -0.2726
 5731SOL    HW228653   3.780   4.261   7.556  0.0165  0.2665  0.6395
 5732SOL     OW28654   2.209   1.177   8.699 -0.4992  0.8397  0.3619
 5732SOL    HW128655   2.189   1.221   8.782  2.4713  1.7796  0.6021
 5732SOL    HW228656   2.126   1.133   8.682  0.6933 -2.2107  2.4291
 5733SOL     OW28657   3.548   1.791   4.873 -0.6371 -0.6059 -0.2542
 5733SOL    HW128658   3.498   1.711   4.892 -0.3741 -0.7123  0.0004
 5733SOL    HW228659   3.638   1.758   4.879  0.1201  1.7584  1.1863
 5734SOL     OW28660   1.388   2.060  14.672 -0.1510 -0.2802 -0.4353
 5734SOL    HW128661   1.457   2.021  14.725  1.0195 -0.3351 -1.9975
 5734SOL    HW228662   1.309   2.008  14.688 -0.4119 -0.4360 -2.1980
 5735SOL     OW28663   4.053   2.293  14.386 -0.1795 -0.1695  0.3540
 5735SOL    HW128664   4.057   2.385  14.412  0.8038  0.1036 -0.7877
 5735SOL    HW228665   4.085   2.303  14.296 -0.0174  0.9292  0.5256
 5736SOL     OW28666   0.852   3.592  15.377  0.5192  0.2252  0.3723
 5736SOL    HW128667   0.866   3.498  15.385  0.6649  0.3549  1.6799
 5736SOL    HW228668   0.780   3.603  15.440  0.7666 -0.7731  0.8227
 5737SOL     OW28669   4.504   3.879   8.410  0.2964  0.0925 -0.0973
 5737SOL    HW128670   4.426   3.874   8.465  1.1049  0.7982  1.1133
 5737SOL    HW228671   4.566   3.912   8.475  0.7656 -0.9025 -0.0365
 5738SOL     OW28672   4.460   0.983   3.778  0.0595  0.2732 -0.1500
 5738SOL    HW128673   4.555   0.996   3.788 -0.1870  2.1686 -0.2805
 5738SOL    HW228674   4.451   0.900   3.731  0.3585 -0.8724  1.8074
 5739SOL     OW28675   0.474   4.486   2.146 -0.2244  0.2853  0.0593
 5739SOL    HW128676   0.490   4.392   2.135 -0.4452  0.2299  0.2046
 5739SOL    HW228677   0.463   4.511   2.055  1.4153  1.7392  0.2507
 5740SOL     OW28678   4.120   1.798   2.723  0.0590  0.3761 -0.7243
 5740SOL    HW128679   4.210   1.771   2.739  0.6028  1.1544 -2.4274
 5740SOL    HW228680   4.108   1.732   2.654 -1.8687  0.3508 -0.3622
 5741SOL     OW28681   1.771   4.291   5.638  0.5034 -0.3250  0.0751
 5741SOL    HW128682   1.703   4.264   5.576  0.0017  0.2081  0.3895
 5741SOL    HW228683   1.836   4.230   5.602 -0.4291 -1.2451 -0.0441
 5742SOL     OW28684   0.961   1.432   9.443 -0.0989 -0.3010  0.5166
 5742SOL    HW128685   0.887   1.372   9.428  1.3251 -2.3279  1.6147
 5742SOL    HW228686   0.994   1.393   9.524  1.0877 -3.0841 -1.2869
 5743SOL     OW28687   1.751   1.445   3.802  0.2473  0.4588  0.2081
 5743SOL    HW128688   1.747   1.485   3.889 -0.6251  0.0631  0.3496
 5743SOL    HW228689   1.814   1.375   3.816  1.8629  2.0605  0.9419
 5744SOL     OW28690   3.066   2.866   7.627  0.2615 -0.0264  0.2015
 5744SOL    HW128691   2.979   2.841   7.596 -0.1111 -1.2981  2.2827
 5744SOL    HW228692   3.088   2.777   7.654 -0.2559  0.2683  1.5703
 5745SOL     OW28693   2.317   0.561   3.110  0.3996  1.1894  0.0805
 5745SOL    HW128694   2.331   0.476   3.152 -0.6759  1.2211  0.5186
 5745SOL    HW228695   2.299   0.538   3.019  1.3795 -0.9128  0.4271
 5746SOL     OW28696   4.230   1.193  11.778  0.2223 -0.2753  0.0205
 5746SOL    HW128697   4.271   1.277  11.760  0.5555 -0.0739  1.7561
 5746SOL    HW228698   4.173   1.220  11.849 -2.2128 -1.3513 -1.5101
 5747SOL     OW28699   3.749   0.198   3.433 -0.1228  0.3754  0.1832
 5747SOL    HW128700   3.739   0.105   3.453 -1.6465  0.5015 -0.0432
 5747SOL    HW228701   3.834   0.193   3.389 -0.8697 -0.0289 -1.1960
 5748SOL     OW28702   2.048   2.882   1.808 -0.2228 -0.2646 -0.1324
 5748SOL    HW128703   1.963   2.912   1.841  0.4672  0.9634  0.5351
 5748SOL    HW228704   2.060   2.813   1.872 -2.0700  0.3289  0.8532
 5749SOL     OW28705   2.111   3.213  14.120  0.1368  0.2971 -0.0135
 5749SOL    HW128706   2.105   3.220  14.216 -0.9597  0.6079 -0.1030
 5749SOL    HW228707   2.193   3.168  14.104 -0.0511 -0.1198  0.1810
 5750SOL     OW28708   4.292   4.490   8.826  0.0393 -0.5392  0.2186
 5750SOL    HW128709   4.336   4.519   8.905  1.6807 -1.6731 -0.2694
 5750SOL    HW228710   4.338   4.410   8.800  1.6262  0.7866 -1.0606
 5751SOL     OW28711   3.297   2.581  12.997  0.2779 -0.1667  0.3345
 5751SOL    HW128712   3.324   2.638  13.069 -0.3731 -1.9973  2.0377
 5751SOL    HW228713   3.347   2.500  12.996 -1.6693 -1.3988  1.4740
 5752SOL     OW28714   1.946   3.255  11.543 -0.0093 -0.0245  0.0647
 5752SOL    HW128715   1.875   3.198  11.514 -0.2233  0.9857 -1.3614
 5752SOL    HW228716   2.011   3.244  11.474  0.8643 -0.6709  0.9990
 5753SOL     OW28717   3.728   2.355   3.748 -0.1653  0.5244 -0.1341
 5753SOL    HW128718   3.708   2.401   3.667 -1.0413 -0.5484 -0.5229
 5753SOL    HW228719   3.735   2.268   3.710  0.3373  0.5996 -0.2117
 5754SOL     OW28720   3.043   0.218   8.556  0.5585  0.0138 -0.0807
 5754SOL    HW128721   3.041   0.295   8.500  0.5936  0.6907  0.8358
 5754SOL    HW228722   3.137   0.221   8.577  0.1830 -2.2743  1.8957
 5755SOL     OW28723   0.384   1.141  12.069  0.0911  0.0288 -0.4795
 5755SOL    HW128724   0.458   1.109  12.120  1.0650  0.8812 -1.3590
 5755SOL    HW228725   0.311   1.118  12.127  1.3424  0.7332  1.3960
 5756SOL     OW28726   1.201   4.008   1.806  0.3947  0.0954  0.1890
 5756SOL    HW128727   1.226   3.934   1.750 -1.7953 -1.7326  1.6125
 5756SOL    HW228728   1.249   4.078   1.762  0.6613 -0.7364 -0.8490
 5757SOL     OW28729   3.915   4.292   3.331  0.2080  0.1753  0.9535
 5757SOL    HW128730   3.911   4.339   3.248 -0.0965  0.4925  1.1504
 5757SOL    HW228731   3.939   4.361   3.393 -4.2637  1.8777  0.7692
 5758SOL     OW28732   4.030   1.542   3.445 -0.1480  0.2315 -0.1941
 5758SOL    HW128733   3.949   1.493   3.462 -0.4135  1.2466  1.4410
 5758SOL    HW228734   4.019   1.631   3.478 -0.2477 -0.3128  1.2331
 5759SOL     OW28735   4.464   3.651  10.116 -0.3383 -0.4592  0.2924
 5759SOL    HW128736   4.443   3.734  10.072  0.2147 -0.3760  0.1758
 5759SOL    HW228737   4.553   3.666  10.148 -0.2102 -0.9219  0.1516
 5760SOL     OW28738   0.796   3.951   4.018  0.1033  0.0865 -0.3828
 5760SOL    HW128739   0.722   3.957   3.958 -0.6610  1.4351  0.6913
 5760SOL    HW228740   0.788   3.861   4.049 -0.8964 -0.0265 -0.9720
 5761SOL     OW28741   0.942   2.137   7.978  0.1613  0.5549 -0.0699
 5761SOL    HW128742   0.882   2.201   8.014 -1.0419 -0.1387 -0.8379
 5761SOL    HW228743   0.954   2.180   7.893  4.5097 -1.6617 -0.5970
 5762SOL     OW28744   0.987   0.325   2.367  0.1043  0.1793 -0.6377
 5762SOL    HW128745   0.996   0.232   2.346  2.2716 -0.0004  1.0480
 5762SOL    HW228746   0.893   0.329   2.382  0.3896 -0.7790  1.4535
 5763SOL     OW28747   2.567   2.751   1.369  0.8785 -0.4343 -0.3375
 5763SOL    HW128748   2.527   2.665   1.379  1.2970 -0.6881 -0.9040
 5763SOL    HW228749   2.525   2.790   1.293 -0.4166  2.4804  1.8551
 5764SOL     OW28750   4.669   2.700   4.294  0.0809 -0.0621  0.0074
 5764SOL    HW128751   4.607   2.681   4.364 -0.9762  1.6055 -0.4953
 5764SOL    HW228752   4.681   2.794   4.285  0.2536  0.0030  0.9839
 5765SOL     OW28753   4.185   1.106  12.977 -0.1351  0.1007  0.5293
 5765SOL    HW128754   4.110   1.069  13.023 -0.5269 -0.7536 -0.7750
 5765SOL    HW228755   4.172   1.066  12.891 -2.4993  0.8863  0.5200
 5766SOL     OW28756   3.776   3.852   5.547 -0.4257 -0.0482 -0.1996
 5766SOL    HW128757   3.794   3.758   5.547  0.4464  0.1023  2.2007
 5766SOL    HW228758   3.842   3.882   5.610 -1.2324 -0.0748  0.6580
 5767SOL     OW28759   0.587   4.493  12.161  0.1365 -0.0318 -0.1559
 5767SOL    HW128760   0.647   4.468  12.231 -1.3463  0.2017  1.1804
 5767SOL    HW228761   0.505   4.496  12.210  0.0268 -1.0131 -0.2734
 5768SOL     OW28762   3.657   1.564  11.482 -0.1710 -0.0483 -0.4385
 5768SOL    HW128763   3.696   1.547  11.567 -2.2245 -1.5698  0.2098
 5768SOL    HW228764   3.736   1.570  11.428  1.0902  0.5203  1.4574
 5769SOL     OW28765   1.837   0.638  10.856  0.3523  0.3883 -0.2404
 5769SOL    HW128766   1.909   0.682  10.901 -0.7855  0.3524  1.6384
 5769SOL    HW228767   1.842   0.676  10.768 -1.1652  2.1063  0.4010
 5770SOL     OW28768   2.200   4.711   8.395  0.2635 -0.0770 -0.3180
 5770SOL    HW128769   2.158   4.698   8.310 -1.9123 -1.6538  1.0257
 5770SOL    HW228770   2.120   0.018   8.438  1.3235 -0.7404  2.0797
 5771SOL     OW28771   3.920   1.489   1.580  0.4255 -0.6003  0.7317
 5771SOL    HW128772   3.907   1.485   1.485  0.3872 -1.4739  0.7774
 5771SOL    HW228773   3.875   1.412   1.614 -1.5650  1.3071  2.4180
 5772SOL     OW28774   4.050   0.295   1.414  0.2875  0.0779  0.1702
 5772SOL    HW128775   4.083   0.252   1.493 -2.0353 -0.7490  0.6740
 5772SOL    HW228776   3.980   0.237   1.384 -0.7121  0.8200  1.0394
 5773SOL     OW28777   3.654   2.619   1.499 -0.0025  0.7790  0.0174
 5773SOL    HW128778   3.637   2.682   1.429 -1.3235  0.3827 -0.0221
 5773SOL    HW228779   3.634   2.536   1.456  1.5789  0.0854  0.6303
 5774SOL     OW28780   0.552   3.792   3.238 -0.0757 -0.0211 -1.1091
 5774SOL    HW128781   0.608   3.806   3.162 -1.4464  1.2847 -1.8954
 5774SOL    HW228782   0.526   3.701   3.228 -0.0065 -0.3311  1.5018
 5775SOL     OW28783   2.274   0.496   4.964 -0.7388  0.2699  0.3237
 5775SOL    HW128784   2.195   0.452   4.997  0.4365 -1.7037  0.4840
 5775SOL    HW228785   2.327   0.422   4.936 -0.3543  0.7958 -0.3275
 5776SOL     OW28786   0.332   3.796   7.041  0.2381  0.0578 -0.4411
 5776SOL    HW128787   0.402   3.854   7.011  1.5644 -1.6745 -0.7837
 5776SOL    HW228788   0.282   3.790   6.960 -1.4464  1.6195  0.4946
 5777SOL     OW28789   3.333   3.443   3.126  0.0039 -0.4955  0.3787
 5777SOL    HW128790   3.334   3.491   3.043  0.4557  1.6832  1.6286
 5777SOL    HW228791   3.258   3.387   3.108 -2.4004  2.6868  0.5252
 5778SOL     OW28792   0.649   2.614   5.836 -0.1822  0.2870 -0.0120
 5778SOL    HW128793   0.584   2.629   5.767  0.9445 -0.8853 -1.3401
 5778SOL    HW228794   0.716   2.677   5.810  2.2847 -2.2294  0.2140
 5779SOL     OW28795   1.191   2.403   0.152  0.1011 -0.5888  0.7602
 5779SOL    HW128796   1.286   2.414   0.163  0.3753 -1.1067 -0.9657
 5779SOL    HW228797   1.154   2.427   0.237 -0.0409  2.8048 -0.2569
 5780SOL     OW28798   2.653   4.025  15.825 -0.3319  0.6465 -0.0469
 5780SOL    HW128799   2.686   4.080  15.896 -1.6394  2.2421 -0.6971
 5780SOL    HW228800   2.598   4.089  15.781  1.0498  1.6969 -0.2585
 5781SOL     OW28801   0.430   1.225   7.601 -0.0581  0.2707 -0.1740
 5781SOL    HW128802   0.408   1.240   7.509 -0.7608 -0.8146 -0.1775
 5781SOL    HW228803   0.392   1.297   7.651  0.8466  1.4029 -1.1182
 5782SOL     OW28804   4.118   0.414   8.145 -0.3120 -0.3495  0.5641
 5782SOL    HW128805   4.157   0.335   8.106 -1.0627 -0.5222  0.1501
 5782SOL    HW228806   4.121   0.374   8.232 -0.5228  1.8725  1.5801
 5783SOL     OW28807   1.665   4.411   3.899 -0.7303  0.2100  0.1521
 5783SOL    HW128808   1.611   4.423   3.821 -2.9240 -0.2117  1.6160
 5783SOL    HW228809   1.627   4.336   3.943 -0.4386 -1.0833 -1.7925
 5784SOL     OW28810   4.481   0.707  16.820  0.5041 -0.1589 -0.3645
 5784SOL    HW128811   4.496   0.616  16.793 -0.9299 -1.2690  2.4881
 5784SOL    HW228812   4.495   0.701  16.915 -1.0476 -3.5236 -0.3399
 5785SOL     OW28813   1.715   2.369   9.319 -0.3631  0.0552 -0.2762
 5785SOL    HW128814   1.802   2.373   9.360  0.0441  1.5121 -1.2565
 5785SOL    HW228815   1.679   2.312   9.386  2.3432 -0.2236  0.9538
 5786SOL     OW28816   3.058   0.057   8.304  0.0417 -0.3731  0.0038
 5786SOL    HW128817   3.031   4.692   8.334  1.1314 -0.7864 -0.2193
 5786SOL    HW228818   3.067   0.095   8.392 -1.3922 -2.9322  1.2594
 5787SOL     OW28819   2.865   0.155   5.327  0.1799 -0.0408  0.7488
 5787SOL    HW128820   2.866   0.215   5.252 -0.0471 -0.5789  0.3147
 5787SOL    HW228821   2.789   0.101   5.305  1.6001 -2.2917  1.4351
 5788SOL     OW28822   3.511   3.202  13.494  0.0208 -0.6887 -0.3489
 5788SOL    HW128823   3.441   3.144  13.524  1.2452 -2.8604 -1.6827
 5788SOL    HW228824   3.463   3.230  13.417  0.4493  0.8910 -0.0512
 5789SOL     OW28825   4.617   3.485   3.641  0.0080 -0.0830  0.0820
 5789SOL    HW128826   4.538   3.438   3.670  0.4052 -0.8969 -0.1465
 5789SOL    HW228827   4.675   3.412   3.664 -1.9315 -1.8445 -0.5683
 5790SOL     OW28828   4.647   4.610   8.804 -0.1608  0.0526 -0.1810
 5790SOL    HW128829   4.692   4.526   8.817 -0.8234 -0.4774 -1.3458
 5790SOL    HW228830   4.691   4.667   8.867  2.9665 -0.9328 -1.4596
 5791SOL     OW28831   3.256   1.140   4.797 -0.5014  0.1224 -0.8876
 5791SOL    HW128832   3.182   1.196   4.820 -0.5503 -0.3530  0.1354
 5791SOL    HW228833   3.212   1.055   4.794 -0.8617  0.4287 -3.7340
 5792SOL     OW28834   1.562   3.906   8.717  0.2500 -0.1583  0.0252
 5792SOL    HW128835   1.644   3.956   8.721  0.3572 -0.4373  1.2712
 5792SOL    HW228836   1.506   3.964   8.767  0.4676  0.5299 -0.5193
 5793SOL     OW28837   0.604   2.169   9.300 -0.4254  0.5385  0.3002
 5793SOL    HW128838   0.695   2.141   9.309 -0.6005 -0.2528 -0.4043
 5793SOL    HW228839   0.562   2.084   9.287  0.3997 -0.0479  1.4908
 5794SOL     OW28840   0.415   4.076  11.653 -0.5817  0.1434 -0.3551
 5794SOL    HW128841   0.384   4.091  11.742 -0.6505  0.3956 -0.4225
 5794SOL    HW228842   0.334   4.057  11.605 -0.5871  0.5150 -0.4917
 5795SOL     OW28843   1.718   2.454   1.578  0.5004 -0.2744 -0.4410
 5795SOL    HW128844   1.805   2.473   1.614  0.3186 -0.5105  0.1210
 5795SOL    HW228845   1.666   2.522   1.619  0.1950  0.6368 -2.3333
 5796SOL     OW28846   4.328   4.669   5.164  0.3151  0.1203  0.5077
 5796SOL    HW128847   4.401   0.001   5.193 -0.5273  1.7112 -0.3296
 5796SOL    HW228848   4.272   0.015   5.127  1.1434  0.2399 -0.5218
 5797SOL     OW28849   1.872   2.852  14.855 -0.0504 -0.3186  0.2023
 5797SOL    HW128850   1.882   2.849  14.760 -2.2038  3.9085 -0.1383
 5797SOL    HW228851   1.954   2.893  14.883  0.3863 -0.2515 -1.1725
 5798SOL     OW28852   1.151   1.151   4.914  0.0112  0.0336 -0.2037
 5798SOL    HW128853   1.175   1.071   4.960 -0.0192 -0.0039 -0.2525
 5798SOL    HW228854   1.108   1.119   4.835  1.9987  0.4347 -1.4408
 5799SOL     OW28855   2.146   1.320   3.463 -0.5488  0.1158  0.1513
 5799SOL    HW128856   2.234   1.300   3.430 -0.2036  0.9983  0.5120
 5799SOL    HW228857   2.162   1.348   3.553  1.0581 -0.7087  0.1189
 5800SOL     OW28858   1.974   2.271   7.854  0.0980  0.1026  0.3436
 5800SOL    HW128859   2.010   2.185   7.835  2.1863  1.4781 -1.8502
 5800SOL    HW228860   1.989   2.282   7.948 -1.3116 -0.0972  0.6028
 5801SOL     OW28861   1.058   1.235   9.888  0.1951 -0.5252 -0.1447
 5801SOL    HW128862   1.011   1.275   9.961 -2.6143 -0.1982 -2.0957
 5801SOL    HW228863   1.142   1.228   9.932 -0.0338  2.0993  0.7447
 5802SOL     OW28864   1.366   1.129   2.342 -0.3171  0.4152  0.3294
 5802SOL    HW128865   1.360   1.141   2.247 -1.4845 -2.2678  0.0605
 5802SOL    HW228866   1.399   1.215   2.367 -1.5613  0.3607  2.1342
 5803SOL     OW28867   3.223   1.056   8.443 -0.4133 -0.5645  0.2966
 5803SOL    HW128868   3.287   1.124   8.465  1.7735 -1.3805 -3.5050
 5803SOL    HW228869   3.139   1.099   8.462 -0.4907  0.1564 -1.7488
 5804SOL     OW28870   2.248   1.714   5.902 -0.4329 -0.4114  0.0063
 5804SOL    HW128871   2.193   1.786   5.871 -0.8654  0.1916  2.1855
 5804SOL    HW228872   2.252   1.725   5.997 -0.4083  0.7748 -0.1310
 5805SOL     OW28873   1.700   1.914   6.286  0.1205  0.0719 -0.3902
 5805SOL    HW128874   1.686   1.963   6.367 -3.5571 -1.5812 -0.0188
 5805SOL    HW228875   1.786   1.879   6.307  0.1277  0.0349 -0.4811
 5806SOL     OW28876   4.322   3.619   5.769 -0.1256 -0.0408 -0.6733
 5806SOL    HW128877   4.376   3.697   5.778  0.1572 -0.2084 -0.9463
 5806SOL    HW228878   4.393   3.561   5.743  0.6695 -0.4928  2.4306
 5807SOL     OW28879   0.175   2.733   1.022 -0.6457  0.4841 -0.2637
 5807SOL    HW128880   0.270   2.732   1.018 -0.6322  0.8439  0.0722
 5807SOL    HW228881   0.164   2.824   1.047  0.0617  0.5679 -0.2641
 5808SOL     OW28882   3.576   0.398   3.019  0.2016  0.3202  0.7549
 5808SOL    HW128883   3.544   0.449   2.945  0.1289  0.0626  0.6112
 5808SOL    HW228884   3.540   0.311   3.002  0.8017  0.7227 -2.6327
 5809SOL     OW28885   1.234   0.661  13.751 -0.3568  0.4431  0.0960
 5809SOL    HW128886   1.168   0.624  13.811  0.0822  1.7413  1.3897
 5809SOL    HW228887   1.204   0.636  13.664 -0.7906 -0.4045  0.4902
 5810SOL     OW28888   0.480   2.233   8.235  0.3487 -0.5213  0.3403
 5810SOL    HW128889   0.444   2.234   8.323 -1.9980 -0.3496 -0.6104
 5810SOL    HW228890   0.399   2.240   8.184  0.1579  0.4720  0.7859
 5811SOL     OW28891   2.160   4.400  11.916  0.3637  0.3673  0.1527
 5811SOL    HW128892   2.084   4.445  11.880 -1.9922 -1.2812  3.0419
 5811SOL    HW228893   2.116   4.354  11.987  1.7745  1.4877  1.7621
 5812SOL     OW28894   1.887   0.567   0.077  0.2529 -0.3269 -0.3179
 5812SOL    HW128895   1.815   0.508   0.102  0.4143 -0.7159 -0.7664
 5812SOL    HW228896   1.875   0.547  17.677  0.1134  0.6511 -0.5127
 5813SOL     OW28897   1.854   3.138  11.039 -0.1267  0.0523  0.8680
 5813SOL    HW128898   1.917   3.204  11.012  0.7098 -0.5536  1.3167
 5813SOL    HW228899   1.902   3.063  11.075 -2.0025 -1.2087  0.7740
 5814SOL     OW28900   2.012   1.125   4.133 -0.1039  0.2538  0.0082
 5814SOL    HW128901   2.075   1.189   4.101  0.4906 -1.1475 -1.5977
 5814SOL    HW228902   1.936   1.182   4.145 -0.9370 -0.5214 -1.5803
 5815SOL     OW28903   1.056   3.865   3.329  0.1325 -0.2943  0.1482
 5815SOL    HW128904   1.019   3.777   3.327 -1.0466  0.2113 -0.1727
 5815SOL    HW228905   1.082   3.879   3.420 -0.7985 -1.0487  0.5289
 5816SOL     OW28906   0.004   2.027   0.999 -0.3042 -0.2494 -0.3300
 5816SOL    HW128907   0.022   2.107   0.950  1.4244 -1.1561 -1.1545
 5816SOL    HW228908   4.636   2.040   1.028  0.1394  0.0275  0.9354
 5817SOL     OW28909   1.627   1.119   8.058 -0.0371  0.0222 -0.2203
 5817SOL    HW128910   1.715   1.143   8.030  0.0968  1.0561  1.0784
 5817SOL    HW228911   1.600   1.084   7.974 -0.0756  1.1616 -0.6782
 5818SOL     OW28912   3.459   1.397   4.207  0.6469  0.4704 -0.2734
 5818SOL    HW128913   3.497   1.427   4.290  1.3157  2.5255 -1.3115
 5818SOL    HW228914   3.405   1.326   4.240 -0.0856  0.5688 -1.2841
 5819SOL     OW28915   0.599   1.439   7.502 -0.3716  0.0037 -0.3140
 5819SOL    HW128916   0.676   1.383   7.493  0.2761  0.7058  0.8291
 5819SOL    HW228917   0.545   1.396   7.436 -0.2609  0.1508 -0.5057
 5820SOL     OW28918   3.654   4.102   2.342 -0.4524 -0.0435 -0.2170
 5820SOL    HW128919   3.735   4.149   2.361 -1.4216  2.6144 -2.6715
 5820SOL    HW228920   3.618   4.121   2.429  0.5832  0.9727 -0.0142
 5821SOL     OW28921   3.921   2.714   3.376  0.6032 -0.0889  0.2817
 5821SOL    HW128922   3.933   2.761   3.293  0.5327  1.4670  1.1505
 5821SOL    HW228923   3.836   2.749   3.405  0.9303 -0.0464  1.1770
 5822SOL     OW28924   0.475   2.676  12.205  0.1130  0.4291  0.1109
 5822SOL    HW128925   0.476   2.641  12.294  3.0209  0.3539  0.0335
 5822SOL    HW228926   0.403   2.622  12.171 -0.4272 -1.2992  4.0011
 5823SOL     OW28927   0.234   4.715   1.436 -0.1093  0.0528  0.1127
 5823SOL    HW128928   0.167   4.689   1.499  0.9228 -0.0771  1.1736
 5823SOL    HW228929   0.187   4.708   1.353 -1.2642 -0.5000  0.8185
 5824SOL     OW28930   4.121   4.374   7.477 -0.2364  0.1448 -0.7108
 5824SOL    HW128931   4.053   4.349   7.540  1.0071  1.3411  1.1196
 5824SOL    HW228932   4.092   4.459   7.443  0.7886  0.2440 -1.3212
 5825SOL     OW28933   3.286   2.650  13.866  0.0409  0.3414 -0.6523
 5825SOL    HW128934   3.231   2.702  13.924  0.0125  1.2095 -1.4679
 5825SOL    HW228935   3.273   2.560  13.896 -0.5533 -0.5115 -3.4967
 5826SOL     OW28936   2.181   3.658   5.100  0.3359 -0.2188  0.0515
 5826SOL    HW128937   2.090   3.671   5.072  0.8217  0.2626 -1.3149
 5826SOL    HW228938   2.207   3.750   5.097 -0.5906  0.0171 -0.9463
 5827SOL     OW28939   1.229   2.268   7.727 -0.2219  0.3611 -0.5186
 5827SOL    HW128940   1.319   2.296   7.742 -1.4665  4.1482 -0.1272
 5827SOL    HW228941   1.182   2.344   7.762  0.5169  0.9738 -0.8638
 5828SOL     OW28942   3.984   3.817   1.332 -0.8636  0.0231  0.3011
 5828SOL    HW128943   4.016   3.729   1.310 -0.5824 -0.0614  1.0384
 5828SOL    HW228944   4.014   3.825   1.423 -0.1123  1.6148 -0.0929
 5829SOL     OW28945   3.031   3.698   1.584  0.0615 -0.3608  0.0492
 5829SOL    HW128946   3.073   3.777   1.616  3.7406 -1.7993 -1.2513
 5829SOL    HW228947   3.003   3.729   1.497  0.6554 -2.1340 -0.7704
 5830SOL     OW28948   1.035   1.873  15.850  0.4611  0.2756 -0.1116
 5830SOL    HW128949   1.112   1.820  15.831 -2.0869 -2.7827 -1.8998
 5830SOL    HW228950   1.074   1.943  15.903 -0.8914 -0.5162  1.9023
 5831SOL     OW28951   2.057   2.488   9.169  0.3583 -0.2376 -0.1581
 5831SOL    HW128952   2.006   2.466   9.091 -0.6474 -3.2589  1.3333
 5831SOL    HW228953   2.032   2.421   9.233 -1.1156 -0.0562 -0.5425
 5832SOL     OW28954   1.962   2.981   7.215 -0.0401 -0.0948 -1.0078
 5832SOL    HW128955   2.047   3.026   7.216  0.0858 -0.3936  2.1909
 5832SOL    HW228956   1.905   3.043   7.259 -2.3054 -1.7175 -1.6584
 5833SOL     OW28957   1.161   2.403   6.368  0.9776  0.6155 -0.2625
 5833SOL    HW128958   1.189   2.467   6.434 -2.0984  1.2876  0.4000
 5833SOL    HW228959   1.200   2.438   6.288 -0.8655 -1.7660 -2.1678
 5834SOL     OW28960   0.717   2.778   2.427  0.6697 -0.0324 -0.3617
 5834SOL    HW128961   0.740   2.690   2.455  0.8008 -0.2881 -1.2642
 5834SOL    HW228962   0.665   2.766   2.348  0.2611  1.5473 -0.3409
 5835SOL     OW28963   4.494   2.346   7.217  0.0692 -0.6461 -0.3541
 5835SOL    HW128964   4.418   2.291   7.194 -0.6985 -0.0153  0.6762
 5835SOL    HW228965   4.544   2.336   7.136  1.3137  1.9871  0.0860
 5836SOL     OW28966   0.681   2.880   5.230  0.2814  0.5028  0.0162
 5836SOL    HW128967   0.694   2.975   5.225 -0.5975  0.5871 -0.8192
 5836SOL    HW228968   0.674   2.861   5.136 -1.9921  0.2173  0.2485
 5837SOL     OW28969   3.861   1.470  14.380  0.5843 -0.1614 -0.0274
 5837SOL    HW128970   3.915   1.393  14.398  0.8847  0.4177  1.4834
 5837SOL    HW228971   3.798   1.454  14.310  1.7550 -0.0319 -1.1144
 5838SOL     OW28972   2.112   0.689   7.701  0.3237 -0.2458 -0.6189
 5838SOL    HW128973   2.164   0.697   7.622 -0.6189  0.0413 -1.2089
 5838SOL    HW228974   2.181   0.687   7.767 -1.2831 -0.8543  1.0497
 5839SOL     OW28975   4.280   3.429  13.612  0.1561  0.2227 -0.0011
 5839SOL    HW128976   4.268   3.477  13.694 -0.0456  0.1276  0.0251
 5839SOL    HW228977   4.371   3.451  13.589 -0.2654  0.4244 -1.5043
 5840SOL     OW28978   3.523   4.480   3.027  0.1060 -0.1391 -0.0623
 5840SOL    HW128979   3.527   4.575   3.033 -0.9714  0.0071 -1.6298
 5840SOL    HW228980   3.522   4.462   2.933 -1.4963 -1.4957  0.2123
 5841SOL     OW28981   1.145   1.928   4.079 -0.3097 -0.3471 -0.7344
 5841SOL    HW128982   1.097   2.010   4.068 -0.1981  0.0240  1.5620
 5841SOL    HW228983   1.085   1.886   4.141 -0.9778  4.1289  1.6639
 5842SOL     OW28984   2.537   2.967   8.083 -0.1497  0.2005  0.7672
 5842SOL    HW128985   2.623   2.991   8.117 -0.4657  1.2097  0.8607
 5842SOL    HW228986   2.497   3.053   8.098  0.6618  0.7934 -0.3679
 5843SOL     OW28987   3.874   1.958  15.063 -0.1554 -0.1630  0.3042
 5843SOL    HW128988   3.875   2.051  15.086 -1.6759  0.3658 -1.7854
 5843SOL    HW228989   3.968   1.944  15.062 -0.2176 -0.5658 -0.0285
 5844SOL     OW28990   1.582   2.543  17.108  0.0935 -0.3027 -0.7379
 5844SOL    HW128991   1.549   2.610  17.168  0.9769 -0.3101 -0.2501
 5844SOL    HW228992   1.607   2.597  17.032  1.8075 -0.9715 -0.6548
 5845SOL     OW28993   3.789   0.156   8.161  0.0503 -0.2020 -0.0835
 5845SOL    HW128994   3.770   0.071   8.120  0.5105 -0.6263  0.5919
 5845SOL    HW228995   3.754   0.133   8.247  1.7246  0.3795  0.7404
 5846SOL     OW28996   0.312   0.267   8.867  0.0931  0.0111  0.0359
 5846SOL    HW128997   0.379   0.298   8.928  1.0356 -0.4725 -0.7536
 5846SOL    HW228998   0.236   0.319   8.895 -0.0970  0.8258 -1.9978
 5847SOL     OW28999   4.311   1.888   2.246 -0.2687  0.5907 -0.6617
 5847SOL    HW129000   4.278   1.808   2.205 -2.1085 -0.1897  2.3584
 5847SOL    HW229001   4.262   1.958   2.203 -1.0656  2.0852  2.6588
 5848SOL     OW29002   4.004   1.508   5.957  0.4922 -0.1100  0.8156
 5848SOL    HW129003   4.037   1.421   5.981  1.6291 -0.0354 -0.4710
 5848SOL    HW229004   4.053   1.570   6.011  0.4784  0.3179  0.3334
 5849SOL     OW29005   0.186   0.961   7.554 -0.7296 -0.0421 -0.4688
 5849SOL    HW129006   0.180   1.024   7.626  1.0863  3.4864 -3.3719
 5849SOL    HW229007   0.195   0.881   7.604 -2.0181  0.4738  0.6016
 5850SOL     OW29008   3.506   1.886  10.137  0.5990 -0.1671 -0.6000
 5850SOL    HW129009   3.596   1.877  10.167  0.6662  0.2655 -0.6700
 5850SOL    HW229010   3.469   1.905  10.224 -0.7549 -0.2447 -1.1529
 5851SOL     OW29011   2.834   1.522  14.268  0.2641 -0.3118  0.2052
 5851SOL    HW129012   2.782   1.513  14.348 -1.3747  2.3375 -0.5636
 5851SOL    HW229013   2.868   1.432  14.272 -2.0446 -1.3038 -2.2278
 5852SOL     OW29014   0.034   0.758   6.911 -0.2729  0.5932  0.3138
 5852SOL    HW129015   0.080   0.724   6.988  1.0491  0.7167 -0.4053
 5852SOL    HW229016   0.108   0.816   6.891 -0.8108  0.3693 -2.3562
 5853SOL     OW29017   4.304   1.828   6.544 -0.1863 -0.2433  0.0603
 5853SOL    HW129018   4.248   1.878   6.485  2.0236  1.2561 -0.7430
 5853SOL    HW229019   4.264   1.741   6.539 -0.1185 -0.2722  0.0283
 5854SOL     OW29020   1.108   2.259   3.854 -0.2663 -0.4883 -0.0617
 5854SOL    HW129021   1.032   2.223   3.899  0.3608 -0.1672  1.2484
 5854SOL    HW229022   1.075   2.250   3.765 -0.0589 -1.1812 -0.0648
 5855SOL     OW29023   3.550   1.001   6.678 -0.2517  1.0505 -0.5613
 5855SOL    HW129024   3.522   0.921   6.722  3.0657  0.2909  0.1446
 5855SOL    HW229025   3.516   1.068   6.737  3.0714  2.1964  0.0425
 5856SOL     OW29026   0.037   3.048  16.835  0.4419  0.4122  0.2014
 5856SOL    HW129027   4.697   3.113  16.868 -2.7096 -2.4657 -0.1841
 5856SOL    HW229028   4.704   2.974  16.812  0.3279  0.3561  0.6597
 5857SOL     OW29029   1.198   0.086   8.596  0.3969 -0.4512 -0.4452
 5857SOL    HW129030   1.263   0.059   8.531  1.7057  0.2031  0.5936
 5857SOL    HW229031   1.254   0.085   8.673 -1.4149 -2.4369  0.8411
 5858SOL     OW29032   0.687   2.079  16.852 -0.2463  0.6221  0.0936
 5858SOL    HW129033   0.722   2.094  16.940 -0.9664 -1.0101  0.6615
 5858SOL    HW229034   0.759   2.117  16.801 -0.5565  1.4589  0.2876
 5859SOL     OW29035   4.542   4.081   3.274 -0.1898 -0.1885 -0.2038
 5859SOL    HW129036   4.569   4.099   3.184  1.3870  0.8630  0.4716
 5859SOL    HW229037   4.517   3.989   3.265 -1.4841  0.0179  1.3096
 5860SOL     OW29038   1.738   4.028   1.128 -0.1673 -0.0477  0.1428
 5860SOL    HW129039   1.819   4.012   1.178  0.1198  0.8497 -0.0392
 5860SOL    HW229040   1.775   4.033   1.040 -1.2950  1.1128 -0.2686
 5861SOL     OW29041   4.075   2.804  16.049  0.0235  0.0588  0.5603
 5861SOL    HW129042   4.029   2.851  15.980 -1.4936 -2.2229  0.0185
 5861SOL    HW229043   4.114   2.732  16.000 -1.0153  0.7862 -1.3237
 5862SOL     OW29044   1.940   1.168  16.330  0.0659  0.0725  0.0766
 5862SOL    HW129045   1.996   1.212  16.394 -0.1910  0.5927 -0.0564
 5862SOL    HW229046   1.907   1.243  16.281 -2.8999 -0.6219  0.9907
 5863SOL     OW29047   4.414   1.889   8.983  0.2069 -0.2868  0.1339
 5863SOL    HW129048   4.392   1.870   8.891 -0.3635  2.0498 -0.2112
 5863SOL    HW229049   4.495   1.839   8.996  1.5671  1.5066 -1.2710
 5864SOL     OW29050   3.199   0.799   8.848 -0.0081 -0.1076  0.3731
 5864SOL    HW129051   3.112   0.777   8.881 -0.6451  1.6145 -0.1864
 5864SOL    HW229052   3.227   0.855   8.920  1.4797  0.4450 -0.6342
 5865SOL     OW29053   0.746   2.006  10.546 -0.3098  0.1157 -0.0400
 5865SOL    HW129054   0.746   2.097  10.575  0.2217 -0.6413  2.2986
 5865SOL    HW229055   0.838   1.995  10.521  0.0471  1.2044  0.7703
 5866SOL     OW29056   0.734   1.196  12.529 -0.0811  1.0002 -0.3938
 5866SOL    HW129057   0.740   1.208  12.624  0.5660 -1.9477 -0.0615
 5866SOL    HW229058   0.826   1.191  12.505  0.4330 -1.2115  2.0223
 5867SOL     OW29059   4.176   2.129  17.042  0.2211 -0.0364 -0.1695
 5867SOL    HW129060   4.101   2.154  17.095 -0.4372 -0.1757 -1.0500
 5867SOL    HW229061   4.224   2.212  17.050  0.6076 -0.2054 -0.7236
 5868SOL     OW29062   0.912   2.920   9.204 -0.5201  0.1582 -0.2316
 5868SOL    HW129063   0.948   2.835   9.179  0.3500  0.1904  0.9019
 5868SOL    HW229064   0.825   2.907   9.241 -0.4440 -0.9463 -0.4446
 5869SOL     OW29065   4.646   4.423  12.602 -0.1709  0.0566  0.0445
 5869SOL    HW129066   4.608   4.471  12.529  1.2652 -0.6399 -1.1445
 5869SOL    HW229067   4.559   4.404  12.639 -0.0606  1.6133  1.1473
 5870SOL     OW29068   0.018   2.544   3.681 -0.5017 -1.0283  0.3942
 5870SOL    HW129069   4.663   2.568   3.733 -0.4284 -0.0147  0.0350
 5870SOL    HW229070   4.707   2.460   3.650  1.0335 -1.4106 -0.2071
 5871SOL     OW29071   0.663   1.731   2.293  0.4693 -0.3701 -0.4141
 5871SOL    HW129072   0.614   1.739   2.375 -1.6124 -1.6998 -1.5443
 5871SOL    HW229073   0.607   1.774   2.229 -2.5160 -0.1263  2.3988
 5872SOL     OW29074   1.116   0.538  13.125 -0.3479 -0.4477 -0.1589
 5872SOL    HW129075   1.077   0.594  13.193  0.0497 -1.5083  0.9418
 5872SOL    HW229076   1.036   0.496  13.094 -1.5342 -0.1920  2.5853
 5873SOL     OW29077   2.732   0.207  13.695 -0.3338 -0.1156 -0.2187
 5873SOL    HW129078   2.730   0.236  13.786  1.1223  0.8178 -0.4879
 5873SOL    HW229079   2.649   0.238  13.658  0.6949  0.4537 -2.0079
 5874SOL     OW29080   0.210   3.424   4.818  0.0353 -0.2961 -0.3864
 5874SOL    HW129081   0.150   3.442   4.745 -1.3944  1.3569  1.1992
 5874SOL    HW229082   0.266   3.500   4.802 -1.1602  0.7931  0.5837
 5875SOL     OW29083   1.084   3.425   7.152 -0.5602 -0.0832  0.3189
 5875SOL    HW129084   1.004   3.410   7.203 -0.6609 -1.5492 -0.2607
 5875SOL    HW229085   1.145   3.443   7.224  0.4459 -1.7984 -0.1199
 5876SOL     OW29086   2.211   0.929   8.954  0.0062 -0.7503  0.3343
 5876SOL    HW129087   2.208   0.979   9.035 -2.0433  1.1214 -0.8665
 5876SOL    HW229088   2.306   0.935   8.946 -0.1751  2.3250  0.2623
 5877SOL     OW29089   4.111   0.986   5.544 -0.3850 -0.1203 -0.3225
 5877SOL    HW129090   4.182   0.923   5.550  1.3103  2.0015  1.7764
 5877SOL    HW229091   4.043   0.937   5.591 -1.7172  0.3765 -1.7138
 5878SOL     OW29092   4.574   1.038   8.706  0.7302 -0.5884  1.1607
 5878SOL    HW129093   4.485   1.009   8.730 -0.8338  1.2172 -2.3980
 5878SOL    HW229094   4.576   1.006   8.616  0.0049 -3.4552  2.1368
 5879SOL     OW29095   2.594   3.993  16.185  0.1419  0.0573  0.3580
 5879SOL    HW129096   2.548   3.910  16.197  1.3139 -0.5167  0.8647
 5879SOL    HW229097   2.560   4.035  16.263 -3.6423 -2.1070 -0.1316
 5880SOL     OW29098   4.387   0.626   8.478  0.0383 -0.0969  0.6528
 5880SOL    HW129099   4.459   0.638   8.416  1.0413  0.6156  1.9436
 5880SOL    HW229100   4.340   0.707   8.459  2.1333  0.8468 -0.5381
 5881SOL     OW29101   0.817   2.545   4.112  0.0500  1.2485 -0.1147
 5881SOL    HW129102   0.823   2.572   4.204 -0.8822  0.3638  0.2106
 5881SOL    HW229103   0.903   2.558   4.074  0.0738 -0.9245 -0.8149
 5882SOL     OW29104   0.250   2.486   7.420 -0.0258  0.3501 -0.5671
 5882SOL    HW129105   0.220   2.425   7.487 -1.0581 -0.4461 -1.7552
 5882SOL    HW229106   0.166   2.514   7.385  0.9353 -0.4499 -3.5832
 5883SOL     OW29107   1.401   1.837   7.566  0.7260 -0.0665  0.1830
 5883SOL    HW129108   1.454   1.830   7.646  0.4380  0.5638  0.4284
 5883SOL    HW229109   1.473   1.833   7.503  0.6032 -2.1580  0.1968
 5884SOL     OW29110   1.978   4.713   7.791  0.2755 -0.0511 -0.3918
 5884SOL    HW129111   1.967   4.715   7.886 -2.1942 -0.5581 -0.6401
 5884SOL    HW229112   1.956   0.078   7.760 -0.7982 -0.2549 -0.2219
 5885SOL     OW29113   3.433   2.992   4.293  0.4203  0.1996  0.3091
 5885SOL    HW129114   3.459   3.067   4.346 -1.4680  0.7165  0.4837
 5885SOL    HW229115   3.446   2.920   4.355  2.3114  0.6441  0.4511
 5886SOL     OW29116   0.077   0.456   3.397  0.4132 -0.5820 -0.5739
 5886SOL    HW129117   0.111   0.540   3.366 -2.5866  0.5321 -0.8845
 5886SOL    HW229118   0.125   0.428   3.475  1.5808  2.2923 -0.2404
 5887SOL     OW29119   3.505   2.737  17.360  0.3064 -0.1548 -0.0774
 5887SOL    HW129120   3.521   2.692  17.442 -0.8861 -0.6824 -0.1458
 5887SOL    HW229121   3.495   2.660  17.304 -0.6890 -1.7303  2.2778
 5888SOL     OW29122   0.830   1.818   2.609 -0.3539 -0.0672 -0.0717
 5888SOL    HW129123   0.785   1.793   2.528 -0.3808  1.6097 -0.5787
 5888SOL    HW229124   0.839   1.736   2.657 -0.9358 -0.5288 -0.7547
 5889SOL     OW29125   3.729   2.040   5.217  0.0766  0.0464  0.0514
 5889SOL    HW129126   3.668   2.113   5.210  0.7239  0.6547  0.7827
 5889SOL    HW229127   3.714   2.011   5.307  0.9911  0.1809  0.2508
 5890SOL     OW29128   1.973   2.561  12.220  0.1311 -0.4673  0.5176
 5890SOL    HW129129   1.977   2.474  12.180 -0.7727 -1.7017  3.1636
 5890SOL    HW229130   2.063   2.593  12.209 -0.0922  0.6690  2.0284
 5891SOL     OW29131   0.851   2.432   0.425 -0.1001 -0.2573 -0.6485
 5891SOL    HW129132   0.943   2.458   0.434  0.3121 -1.9396 -0.1289
 5891SOL    HW229133   0.801   2.490   0.482  2.5863  0.9181  0.5445
 5892SOL     OW29134   3.926   4.365   3.918  0.1603 -0.0394  0.4744
 5892SOL    HW129135   3.857   4.429   3.935 -1.0128 -1.3895  0.8499
 5892SOL    HW229136   3.874   4.287   3.938 -0.4812  0.1977 -0.2587
 5893SOL     OW29137   0.109   1.753  13.853  0.2664 -0.9566  0.2942
 5893SOL    HW129138   0.110   1.774  13.759 -1.8730  1.9725  0.9471
 5893SOL    HW229139   0.167   1.826  13.873 -1.1072  0.0187  0.6451
 5894SOL     OW29140   4.499   1.991   3.294 -0.0876 -0.3874  0.3424
 5894SOL    HW129141   4.425   1.974   3.353 -1.4030  0.1274 -1.1520
 5894SOL    HW229142   4.461   2.057   3.237  1.7654 -0.3021 -0.7797
 5895SOL     OW29143   1.017   0.627   0.946 -0.0708 -0.4114 -0.8855
 5895SOL    HW129144   1.049   0.571   1.016  1.1884  1.0019 -0.3068
 5895SOL    HW229145   1.103   0.669   0.936 -0.8620  1.7450  1.3540
 5896SOL     OW29146   3.974   1.389  17.497 -0.1347 -0.1914 -0.8553
 5896SOL    HW129147   4.014   1.475  17.484 -2.2458  0.5511 -2.3435
 5896SOL    HW229148   4.025   1.336  17.436 -0.2851  0.5009 -1.5893
 5897SOL     OW29149   4.032   3.048  16.608  0.3064  0.0805  0.2917
 5897SOL    HW129150   3.992   3.134  16.624  2.2692  1.0631 -0.0958
 5897SOL    HW229151   3.958   2.994  16.635  0.9860 -0.2382  1.5290
 5898SOL     OW29152   2.515   3.548  16.189  0.2169  0.2179  0.2506
 5898SOL    HW129153   2.515   3.462  16.147  0.1635  1.4233 -2.1956
 5898SOL    HW229154   2.603   3.575  16.166 -0.1178 -0.4957 -1.8863
 5899SOL     OW29155   2.716   2.497   5.333 -0.6463 -0.1279 -0.1310
 5899SOL    HW129156   2.713   2.519   5.240  1.7176  0.1937 -0.1353
 5899SOL    HW229157   2.706   2.402   5.329 -0.9677 -0.2709  3.4443
 5900SOL     OW29158   0.627   0.043   2.171 -0.3262 -0.3569 -0.3711
 5900SOL    HW129159   0.567   4.692   2.180  1.1814 -1.5271  0.1987
 5900SOL    HW229160   0.704   0.002   2.130  0.5487 -0.8904  1.7980
 5901SOL     OW29161   3.928   2.783   3.106  0.5902 -0.1056 -0.2974
 5901SOL    HW129162   3.892   2.722   3.042 -1.4538  0.3053  0.4523
 5901SOL    HW229163   3.966   2.847   3.047  1.0362  1.0482  1.2281
 5902SOL     OW29164   4.361   2.137  16.682 -0.2177  0.4689  0.2562
 5902SOL    HW129165   4.276   2.157  16.643  0.1210  3.0449  0.8049
 5902SOL    HW229166   4.391   2.069  16.622  0.6662 -0.2286  1.4903
 5903SOL     OW29167   3.413   2.052  15.578 -0.2634 -0.3236 -0.5277
 5903SOL    HW129168   3.324   2.038  15.545 -0.4824 -1.7216  0.6665
 5903SOL    HW229169   3.426   1.982  15.641 -2.6161 -0.7406 -0.4986
 5904SOL     OW29170   2.399   1.605   2.702  0.0285 -0.5255 -0.4301
 5904SOL    HW129171   2.467   1.613   2.768 -0.5231  1.1406 -0.0586
 5904SOL    HW229172   2.321   1.635   2.748 -0.0937 -1.0366 -0.2962
 5905SOL     OW29173   0.699   4.444   3.398 -0.0240  0.6340  0.2014
 5905SOL    HW129174   0.740   4.512   3.452  0.2023 -0.3752  1.3048
 5905SOL    HW229175   0.698   4.361   3.447 -2.4533  0.8920  0.5814
 5906SOL     OW29176   0.348   0.125  17.156  0.2106  0.0455  0.1945
 5906SOL    HW129177   0.354   0.055  17.221  1.0002 -0.4283 -0.3979
 5906SOL    HW229178   0.327   0.082  17.074 -2.7106 -3.1513  2.6217
 5907SOL     OW29179   2.802   1.646   4.778  0.4990 -0.1778  0.8714
 5907SOL    HW129180   2.792   1.552   4.795  2.2894 -0.1098  2.2596
 5907SOL    HW229181   2.869   1.673   4.840  1.8216 -2.1101  0.2856
 5908SOL     OW29182   3.580   0.025   3.057 -0.4451  0.2449  0.0993
 5908SOL    HW129183   3.529   0.104   3.041 -0.5933 -0.0619 -0.9385
 5908SOL    HW229184   3.667   0.061   3.043  0.7665 -2.7658 -0.1045
 5909SOL     OW29185   1.428   4.399  12.150  0.2046  0.7744  0.7544
 5909SOL    HW129186   1.396   4.432  12.066 -2.3261 -0.2532  1.3220
 5909SOL    HW229187   1.440   4.481  12.198 -0.9070 -0.4753  3.1699
 5910SOL     OW29188   2.567   0.959   0.302 -0.4889 -0.0592 -0.2068
 5910SOL    HW129189   2.647   1.010   0.314 -0.8079  0.4240 -0.1347
 5910SOL    HW229190   2.552   0.931   0.393  1.0374 -1.3301 -0.3371
 5911SOL     OW29191   2.743   3.591   0.264  0.3223  0.3579 -0.3338
 5911SOL    HW129192   2.779   3.578   0.176 -3.1637 -2.2451 -1.3787
 5911SOL    HW229193   2.671   3.528   0.264 -1.1401  2.0391 -1.2667
 5912SOL     OW29194   1.734   0.804   9.242  0.3516 -0.0887  0.1150
 5912SOL    HW129195   1.753   0.811   9.336 -2.0850  0.0916  0.5814
 5912SOL    HW229196   1.650   0.849   9.237  0.3849 -0.0805 -0.3927
 5913SOL     OW29197   2.237   1.427  10.070  0.2531 -0.2309 -0.3901
 5913SOL    HW129198   2.304   1.361  10.050 -0.2319 -0.5658 -0.9132
 5913SOL    HW229199   2.165   1.365  10.084  1.3308 -1.5134 -0.5010
 5914SOL     OW29200   4.335   0.908   2.874  0.4311  0.4015  0.2601
 5914SOL    HW129201   4.269   0.926   2.807 -1.0133 -2.5366  0.8799
 5914SOL    HW229202   4.413   0.920   2.820  0.6221 -2.1600 -0.0358
 5915SOL     OW29203   3.742   1.570   9.868  0.4247  0.4128  0.0981
 5915SOL    HW129204   3.827   1.548   9.905  0.2656 -0.7186 -0.2139
 5915SOL    HW229205   3.745   1.506   9.797  1.1013 -0.2741  0.7553
 5916SOL     OW29206   0.245   0.731  13.914 -0.3762  0.3741  0.0018
 5916SOL    HW129207   0.172   0.734  13.976 -0.7446 -1.1976 -0.3606
 5916SOL    HW229208   0.305   0.798  13.948  0.5906  0.6119 -2.1277
 5917SOL     OW29209   0.823   0.123   3.379  0.1966 -0.4261 -0.7944
 5917SOL    HW129210   0.847   0.170   3.459 -0.3133 -2.1077  0.3474
 5917SOL    HW229211   0.746   0.071   3.404 -1.0525  2.9334  2.4274
 5918SOL     OW29212   0.871   1.731   7.074 -0.4260 -0.1114 -0.4622
 5918SOL    HW129213   0.846   1.657   7.018 -1.8478  1.8440 -2.4163
 5918SOL    HW229214   0.796   1.736   7.133  0.1625  3.8339 -0.0318
 5919SOL     OW29215   3.883   1.728   8.964 -0.5336  0.5012  0.1899
 5919SOL    HW129216   3.950   1.791   8.989 -0.4832  1.2618 -1.8057
 5919SOL    HW229217   3.829   1.722   9.042  0.2279  0.4551  0.7087
 5920SOL     OW29218   2.063   1.473   9.847  0.3612  0.1720 -0.4951
 5920SOL    HW129219   1.988   1.422   9.879 -1.2222  2.7759 -0.0631
 5920SOL    HW229220   2.120   1.460   9.923 -0.4041 -0.7372 -0.0806
 5921SOL     OW29221   3.701   2.990   4.870 -0.4843 -0.1982  0.3669
 5921SOL    HW129222   3.768   2.999   4.802  1.3894  0.8662  2.3329
 5921SOL    HW229223   3.746   2.959   4.949  1.5113 -0.0108 -0.6916
 5922SOL     OW29224   0.236   1.719   2.731 -0.8584 -0.3822  0.1306
 5922SOL    HW129225   0.324   1.736   2.765 -1.2342 -2.2327  2.0165
 5922SOL    HW229226   0.226   1.632   2.768  1.3440  1.1180  4.1811
 5923SOL     OW29227   3.349   2.103   3.116 -0.1074  0.2287  0.5718
 5923SOL    HW129228   3.439   2.130   3.098 -0.3806  0.6817 -0.1253
 5923SOL    HW229229   3.314   2.192   3.119 -1.8564 -0.5277  2.2400
 5924SOL     OW29230   4.484   3.578  12.422  0.2504 -0.0095 -0.4972
 5924SOL    HW129231   4.480   3.667  12.455 -1.9843  0.9480 -3.3760
 5924SOL    HW229232   4.451   3.526  12.495  1.6243 -2.3749 -1.5586
 5925SOL     OW29233   4.039   3.256   2.655 -0.2462 -0.5566  0.7614
 5925SOL    HW129234   4.128   3.290   2.651 -0.4097 -0.3392 -0.8556
 5925SOL    HW229235   4.032   3.207   2.574  3.5351  2.3961 -1.3520
 5926SOL     OW29236   3.435   1.418   5.682  0.1730  0.7150  0.1534
 5926SOL    HW129237   3.474   1.332   5.670  1.7768  1.5204 -0.4558
 5926SOL    HW229238   3.368   1.425   5.614 -0.0821  0.1719  0.3533
 5927SOL     OW29239   4.312   0.179   3.746 -0.4493  0.2507  0.2121
 5927SOL    HW129240   4.334   0.152   3.835 -1.9018  0.0865  0.5230
 5927SOL    HW229241   4.237   0.121   3.730 -1.6616  1.5919  0.9477
 5928SOL     OW29242   1.308   2.592   8.656 -0.2046 -0.2263  0.4116
 5928SOL    HW129243   1.274   2.618   8.571 -1.4207 -1.9737  0.3764
 5928SOL    HW229244   1.364   2.667   8.676 -0.4580  0.1475 -0.2967
 5929SOL     OW29245   3.728   2.273   3.300 -0.1688 -0.3832  0.0542
 5929SOL    HW129246   3.820   2.292   3.286 -0.2998 -0.0899 -0.3961
 5929SOL    HW229247   3.699   2.288   3.210  1.3396 -1.9136 -0.6749
 5930SOL     OW29248   4.413   3.841  12.501 -0.2686 -0.0957  0.8526
 5930SOL    HW129249   4.405   3.932  12.530 -2.7488 -0.0223 -0.0554
 5930SOL    HW229250   4.339   3.823  12.443  1.3919  1.7677 -1.8600
 5931SOL     OW29251   0.626   3.138  16.898 -0.4361 -0.3408 -0.4455
 5931SOL    HW129252   0.596   3.090  16.975  2.3111  0.8796  1.3787
 5931SOL    HW229253   0.640   3.225  16.936 -1.1109  0.7164 -2.6415
 5932SOL     OW29254   3.227   3.552   7.530 -0.1957 -0.0924 -0.0122
 5932SOL    HW129255   3.206   3.623   7.590 -0.2208 -0.3794  0.3193
 5932SOL    HW229256   3.191   3.468   7.559  0.2887 -0.2771  0.0557
 5933SOL     OW29257   0.480   0.714   5.794  0.4236  0.1856 -0.2082
 5933SOL    HW129258   0.520   0.799   5.773  2.4637 -0.6325  0.2900
 5933SOL    HW229259   0.465   0.721   5.888 -2.5288  0.4157 -0.6995
 5934SOL     OW29260   2.656   1.117   9.213 -0.8498  0.3808  0.2916
 5934SOL    HW129261   2.696   1.179   9.152 -3.1175  0.4508 -1.0916
 5934SOL    HW229262   2.565   1.140   9.200 -0.5354  1.6426  0.3515
 5935SOL     OW29263   4.478   3.920   7.116 -0.1095 -0.0592  0.3871
 5935SOL    HW129264   4.479   3.832   7.079 -0.3227 -0.4967  1.4298
 5935SOL    HW229265   4.491   3.974   7.038 -0.7353  0.0333  0.3497
 5936SOL     OW29266   3.228   0.536  13.909 -0.2868  0.4044  0.2634
 5936SOL    HW129267   3.295   0.478  13.872 -0.2025  0.0821  0.9227
 5936SOL    HW229268   3.157   0.475  13.888  0.2985 -1.1074  2.5726
 5937SOL     OW29269   4.064   4.234  15.795 -0.4887  0.4705 -0.3716
 5937SOL    HW129270   4.122   4.262  15.866  1.0854 -5.0922  0.5806
 5937SOL    HW229271   4.034   4.318  15.761 -2.4643  0.3310  1.0181
 5938SOL     OW29272   0.748   2.175  17.589 -0.0402 -0.2883  0.4177
 5938SOL    HW129273   0.712   2.237  17.526  0.4821  1.1661  1.5600
 5938SOL    HW229274   0.831   2.166  17.542  0.2462  0.5954  0.7585
 5939SOL     OW29275   3.892   1.681   2.337  0.7417 -0.1411 -0.2603
 5939SOL    HW129276   3.902   1.589   2.314 -0.8359 -0.6532  1.0826
 5939SOL    HW229277   3.862   1.709   2.251 -0.3803  1.1460  0.5489
 5940SOL     OW29278   0.259   1.561   4.100 -0.3762  0.4418 -0.1735
 5940SOL    HW129279   0.218   1.637   4.142  2.6526  2.6058 -1.1158
 5940SOL    HW229280   0.353   1.564   4.117 -0.6570 -0.2977  1.5518
 5941SOL     OW29281   2.632   2.067   3.438  0.5528 -0.1818 -0.5932
 5941SOL    HW129282   2.704   2.053   3.500  0.2581  4.0599  0.7155
 5941SOL    HW229283   2.636   2.161   3.421 -1.9458  0.4774  2.4491
 5942SOL     OW29284   0.590   3.637  11.455  0.5700  0.0173  0.0522
 5942SOL    HW129285   0.643   3.610  11.380 -2.0113  0.0258 -1.8054
 5942SOL    HW229286   0.649   3.626  11.530  0.0966  1.6841  0.6541
 5943SOL     OW29287   4.456   0.371   9.518  0.2239  0.6661 -0.8149
 5943SOL    HW129288   4.371   0.327   9.516  0.4325  0.1083  1.9572
 5943SOL    HW229289   4.442   0.425   9.440  3.2218  0.5779 -1.4115
 5944SOL     OW29290   4.333   0.246   6.182  0.6812  0.2247  0.3800
 5944SOL    HW129291   4.307   0.170   6.235  0.1509  0.4369  0.4182
 5944SOL    HW229292   4.278   0.314   6.220 -3.1058 -1.9288 -1.1986
 5945SOL     OW29293   0.364   1.760   9.536 -0.2485  0.6892 -0.8434
 5945SOL    HW129294   0.405   1.728   9.617  0.4883  0.5030 -1.2853
 5945SOL    HW229295   0.275   1.725   9.543 -1.2377  3.2191 -0.8218
 5946SOL     OW29296   1.625   3.010   5.254 -0.3198 -0.3894  0.0550
 5946SOL    HW129297   1.599   2.951   5.325  2.3518 -0.6968  0.7803
 5946SOL    HW229298   1.621   2.951   5.179  1.8056  0.6303 -0.8665
 5947SOL     OW29299   3.413   4.191   7.345  0.5262  0.2955 -0.0309
 5947SOL    HW129300   3.373   4.277   7.355  1.5713  0.3355  3.8217
 5947SOL    HW229301   3.347   4.136   7.386  1.9391  0.2793  2.2183
 5948SOL     OW29302   3.346   2.440   3.869  0.0202 -0.1399 -0.0720
 5948SOL    HW129303   3.272   2.400   3.914 -0.1836 -1.4666 -1.5777
 5948SOL    HW229304   3.290   2.484   3.805 -0.5877  0.5895  0.9705
 5949SOL     OW29305   4.428   0.812  13.561 -0.0176 -0.1362  0.5307
 5949SOL    HW129306   4.356   0.796  13.500 -0.6835 -2.0334  1.8152
 5949SOL    HW229307   4.458   0.900  13.537  0.1218  0.1222  1.6592
 5950SOL     OW29308   0.868   4.105   3.093 -0.4487  0.1055 -0.1076
 5950SOL    HW129309   0.834   4.077   3.008  0.5180  2.0569 -1.1272
 5950SOL    HW229310   0.802   4.171   3.114  0.2907  0.7993  0.0105
 5951SOL     OW29311   0.760   4.097   2.831  0.1725 -0.1290 -0.1824
 5951SOL    HW129312   0.725   4.138   2.751  0.2147 -1.3140 -0.8083
 5951SOL    HW229313   0.837   4.049   2.799 -2.1960 -2.8776 -1.7698
 5952SOL     OW29314   4.543   3.491  17.006 -1.0394 -0.2898 -0.3960
 5952SOL    HW129315   4.503   3.572  17.035 -2.5774 -1.4371  0.6670
 5952SOL    HW229316   4.481   3.443  16.951 -0.9468 -2.2080  1.1862
 5953SOL     OW29317   0.895   2.993   2.411 -0.1891 -0.6666 -0.0961
 5953SOL    HW129318   0.835   2.919   2.415  0.2985 -0.9053  2.5844
 5953SOL    HW229319   0.981   2.953   2.419 -1.2625 -2.4149  2.8536
 5954SOL     OW29320   0.058   2.575   1.194 -0.1023 -0.4423  0.1298
 5954SOL    HW129321   0.090   2.651   1.145 -0.1238 -0.4318  0.1317
 5954SOL    HW229322   4.689   2.600   1.207 -0.0581 -0.9707  1.4330
 5955SOL     OW29323   2.284   3.274   3.741 -0.1168 -0.1655  0.1015
 5955SOL    HW129324   2.241   3.190   3.752  0.4153 -0.0606  2.9098
 5955SOL    HW229325   2.218   3.335   3.774  1.2413  1.3705  0.0344
 5956SOL     OW29326   0.290   2.655  10.277  0.0967  0.4334 -0.4772
 5956SOL    HW129327   0.343   2.651  10.357 -2.7491  1.1229  1.4623
 5956SOL    HW229328   0.257   2.566  10.268 -1.1950  0.7652  0.8991
 5957SOL     OW29329   4.218   0.623  16.962 -0.4113 -0.1924  0.2845
 5957SOL    HW129330   4.288   0.679  16.998 -0.6780  0.8459 -0.8282
 5957SOL    HW229331   4.227   0.549  17.022 -2.0603  0.7025  1.6419
 5958SOL     OW29332   4.035   3.230   4.823 -0.2282 -0.3772  0.4506
 5958SOL    HW129333   4.021   3.197   4.734 -0.4839  1.0494 -0.0398
 5958SOL    HW229334   4.126   3.201   4.833  0.5595  1.7233 -0.5786
 5959SOL     OW29335   3.216   3.429   4.501  0.0472 -0.3017 -0.2011
 5959SOL    HW129336   3.172   3.434   4.416  0.4946  0.6493 -0.3798
 5959SOL    HW229337   3.177   3.354   4.545  0.3328  0.1787  0.8618
 5960SOL     OW29338   0.808   0.822   0.365 -0.5183  0.0870 -0.5579
 5960SOL    HW129339   0.721   0.783   0.366 -1.1448  1.5335  2.1225
 5960SOL    HW229340   0.859   0.763   0.310  1.6505 -1.2927  2.9705
 5961SOL     OW29341   0.047   3.282   3.748  0.0152 -0.6133  0.1596
 5961SOL    HW129342   0.141   3.297   3.755  0.2314 -1.1711 -1.4550
 5961SOL    HW229343   0.053   3.207   3.689 -2.0256  0.3422 -1.3038
 5962SOL     OW29344   4.574   4.045  12.297 -0.4975 -0.3313  0.2911
 5962SOL    HW129345   4.536   3.976  12.242 -2.4472  0.7943  0.2040
 5962SOL    HW229346   4.627   3.995  12.359  1.8914  1.0197 -0.6520
 5963SOL     OW29347   3.035   2.146   6.133 -0.0489  0.0208  0.4350
 5963SOL    HW129348   2.987   2.163   6.052 -0.1236 -2.7144 -0.0927
 5963SOL    HW229349   3.011   2.057   6.158  0.6668 -0.8773 -2.0508
 5964SOL     OW29350   0.777   1.270  11.772 -0.3408 -0.2440  0.4124
 5964SOL    HW129351   0.850   1.268  11.710  0.5819  3.3007  1.3270
 5964SOL    HW229352   0.760   1.364  11.767 -0.8938 -0.2458  2.2788
 5965SOL     OW29353   3.947   3.027   2.485  0.5200 -0.0225 -0.3294
 5965SOL    HW129354   3.875   2.983   2.441  0.3883 -0.9626  0.8511
 5965SOL    HW229355   3.956   2.964   2.556 -0.3527  0.2539  0.0247
 5966SOL     OW29356   4.388   2.189   0.393 -0.2603 -0.1641 -0.0557
 5966SOL    HW129357   4.391   2.263   0.454  0.2306 -0.4741  0.2949
 5966SOL    HW229358   4.321   2.205   0.327  1.3920 -0.5299 -1.8087
 5967SOL     OW29359   2.920   3.038  14.204  0.1059  0.4386  0.3694
 5967SOL    HW129360   3.009   3.011  14.229  0.0390 -2.0477 -1.9936
 5967SOL    HW229361   2.871   2.964  14.239  0.2179  0.3497  0.3409
 5968SOL     OW29362   4.137   0.456   2.331  0.0136 -0.4106 -0.2710
 5968SOL    HW129363   4.204   0.392   2.356 -0.8159 -0.6844  1.2426
 5968SOL    HW229364   4.197   0.520   2.293 -1.0946  0.8068  0.0576
 5969SOL     OW29365   1.496   2.495   7.392 -0.1136  0.3827  0.2442
 5969SOL    HW129366   1.537   2.527   7.312 -1.8111  0.6259 -0.5456
 5969SOL    HW229367   1.410   2.468   7.359 -0.1841  0.0386  0.7132
 5970SOL     OW29368   3.015   4.502   3.506 -0.3125  0.4185  0.1333
 5970SOL    HW129369   3.058   4.429   3.461  1.8022  2.6666 -1.4940
 5970SOL    HW229370   2.919   4.496   3.501 -0.1802 -0.7487 -0.9634
 5971SOL     OW29371   0.359   2.936   3.715  0.0134  0.4714 -0.0657
 5971SOL    HW129372   0.447   2.939   3.753 -0.2430  0.8045  0.4983
 5971SOL    HW229373   0.379   2.946   3.622  0.9523  1.0362  0.1988
 5972SOL     OW29374   4.369   3.922   4.850  0.3823 -0.1955  0.0669
 5972SOL    HW129375   4.302   3.858   4.874 -1.9433  1.8074 -1.0412
 5972SOL    HW229376   4.439   3.893   4.908  0.4274  1.2526  0.7207
 5973SOL     OW29377   1.825   2.713   1.378  0.2500 -0.2955 -0.4722
 5973SOL    HW129378   1.787   2.782   1.432 -1.5485 -1.2772 -0.4936
 5973SOL    HW229379   1.884   2.763   1.322  0.9000 -1.3841 -0.7501
 5974SOL     OW29380   2.159   3.036   6.052 -0.4204  0.1413  0.2965
 5974SOL    HW129381   2.077   3.085   6.060 -0.6074 -0.3322  1.2292
 5974SOL    HW229382   2.221   3.099   6.089  2.4387 -1.7627 -1.2073
 5975SOL     OW29383   3.022   1.483   8.104 -0.3327 -0.3970  0.5389
 5975SOL    HW129384   3.076   1.422   8.153  1.3057  0.2476 -0.4665
 5975SOL    HW229385   3.036   1.562   8.156 -1.2223  1.0482 -1.4084
 5976SOL     OW29386   2.896   0.259   1.898  0.0182 -0.0434 -0.4210
 5976SOL    HW129387   2.892   0.276   1.804 -0.3431  0.6971 -0.2649
 5976SOL    HW229388   2.874   0.343   1.938  0.8683 -0.6239  1.2745
 5977SOL     OW29389   0.261   1.048   8.032  0.6455 -0.1736 -0.4738
 5977SOL    HW129390   0.248   0.954   8.046  2.6875 -0.3239  0.4488
 5977SOL    HW229391   0.345   1.070   8.072  0.6509 -0.7995 -0.1432
 5978SOL     OW29392   0.835   2.751   3.560 -0.2786  0.1124 -0.2169
 5978SOL    HW129393   0.776   2.746   3.484 -1.8082  0.7497  0.9249
 5978SOL    HW229394   0.812   2.678   3.618 -0.6289 -0.7622 -1.4549
 5979SOL     OW29395   1.366   0.120  12.614 -0.3268  0.2987 -0.2061
 5979SOL    HW129396   1.336   0.056  12.678 -1.2878  0.0466 -0.9056
 5979SOL    HW229397   1.456   0.130  12.645 -0.3096  0.7488 -0.3968
 5980SOL     OW29398   1.366   4.098   8.808  0.3223 -0.0033 -0.1167
 5980SOL    HW129399   1.279   4.126   8.781  0.0105 -1.5160 -0.6831
 5980SOL    HW229400   1.364   4.124   8.900 -0.7401 -1.1433  0.1799
 5981SOL     OW29401   1.545   4.071  11.741  0.2114 -0.4915  0.1350
 5981SOL    HW129402   1.608   4.098  11.674 -2.3299  1.4461 -1.4563
 5981SOL    HW229403   1.468   4.042  11.692 -0.7019  0.8621  0.7714
 5982SOL     OW29404   4.152   0.628   3.184  0.1536 -0.4907  0.3929
 5982SOL    HW129405   4.219   0.653   3.120  0.9149  0.0099  1.4005
 5982SOL    HW229406   4.188   0.677   3.257  1.1152  0.3337 -0.6272
 5983SOL     OW29407   2.348   3.516   3.190 -0.6795 -0.4388 -0.0855
 5983SOL    HW129408   2.371   3.436   3.142  2.5980 -0.1734  1.0582
 5983SOL    HW229409   2.345   3.478   3.278 -1.4498 -0.7033 -0.2190
 5984SOL     OW29410   0.618   0.673   0.861 -0.0840  0.4426 -0.8743
 5984SOL    HW129411   0.530   0.637   0.878 -0.9482  1.3027 -3.5173
 5984SOL    HW229412   0.614   0.678   0.765 -0.0986  2.0097 -0.7940
 5985SOL     OW29413   1.645   1.918   6.010  0.8558 -0.4118  0.5364
 5985SOL    HW129414   1.725   1.872   5.985 -0.2395 -1.1732 -1.5468
 5985SOL    HW229415   1.644   1.895   6.103 -1.6141 -2.3498  0.0443
 5986SOL     OW29416   3.181   2.213   6.907  0.1577 -0.4191  0.1460
 5986SOL    HW129417   3.194   2.307   6.889 -0.4599 -0.7448 -2.0278
 5986SOL    HW229418   3.127   2.201   6.985  0.5764  1.1549  0.6970
 5987SOL     OW29419   2.984   2.871   3.009 -0.4573 -0.3686  0.4003
 5987SOL    HW129420   2.953   2.962   3.015  2.1316  0.4477  1.9793
 5987SOL    HW229421   2.899   2.828   3.010 -0.7585  0.2339  0.9314
 5988SOL     OW29422   0.080   0.960   4.727  0.5789  0.4977 -0.1022
 5988SOL    HW129423   0.024   0.894   4.687 -0.7198  0.8234  1.1827
 5988SOL    HW229424   0.074   0.932   4.818  0.4725  1.5117  0.2021
 5989SOL     OW29425   0.307   1.783   3.311  0.4895  0.5208 -0.4325
 5989SOL    HW129426   0.291   1.759   3.403  0.8097 -0.6447 -0.6756
 5989SOL    HW229427   0.283   1.701   3.266 -0.9416  0.3833  0.5714
 5990SOL     OW29428   3.944   3.705  16.702  0.0846  0.5876 -0.3261
 5990SOL    HW129429   3.902   3.791  16.702  0.1446  0.6145  0.0949
 5990SOL    HW229430   3.942   3.679  16.794 -0.8513 -0.3596 -0.6199
 5991SOL     OW29431   1.274   4.380   7.208  0.2684 -0.4607  0.2814
 5991SOL    HW129432   1.262   4.366   7.114  0.2599  1.6802 -0.0406
 5991SOL    HW229433   1.240   4.295   7.237  1.0962 -1.6112 -2.1334
 5992SOL     OW29434   3.423   1.663   2.493 -0.1764 -0.1634 -0.1746
 5992SOL    HW129435   3.434   1.640   2.401 -1.5808 -0.4023 -0.2794
 5992SOL    HW229436   3.472   1.745   2.496 -0.3232 -0.0418 -1.1432
 5993SOL     OW29437   3.335   0.557   8.124  0.0885  0.2612  0.1251
 5993SOL    HW129438   3.428   0.575   8.136  0.7757 -2.9716 -0.5265
 5993SOL    HW229439   3.293   0.547   8.210  0.1559  0.8149  0.2251
 5994SOL     OW29440   4.647   4.097  17.570 -0.1339 -0.2484 -0.1899
 5994SOL    HW129441   4.589   4.024  17.549  1.2807 -1.6759  0.8841
 5994SOL    HW229442   4.606   4.128  17.652 -1.8968 -0.3018 -1.0474
 5995SOL     OW29443   3.113   0.682   9.265 -0.1596 -0.0993  0.0687
 5995SOL    HW129444   3.064   0.703   9.186  0.5002  2.1162  0.2465
 5995SOL    HW229445   3.202   0.678   9.232 -0.7219  0.0410 -1.4456
 5996SOL     OW29446   2.849   0.898   3.068 -0.1717  0.6622  0.2721
 5996SOL    HW129447   2.817   0.817   3.027 -1.0002  1.1302 -0.0111
 5996SOL    HW229448   2.847   0.882   3.162 -1.1252  2.5233  0.5706
 5997SOL     OW29449   3.283   1.764   5.877 -0.1154  0.0181  0.3167
 5997SOL    HW129450   3.191   1.746   5.894 -0.2399 -1.7102 -2.1771
 5997SOL    HW229451   3.322   1.718   5.951  0.6064  0.2851  0.1065
 5998SOL     OW29452   2.970   3.146   4.361  0.3375 -0.3707 -0.3270
 5998SOL    HW129453   2.914   3.080   4.320 -0.8639 -0.8389  2.0997
 5998SOL    HW229454   3.055   3.111   4.332  0.3849  1.1584 -2.0362
 5999SOL     OW29455   0.263   3.648  12.263 -0.0308 -0.8095  0.3332
 5999SOL    HW129456   0.344   3.627  12.216  0.8481 -2.1794  2.4464
 5999SOL    HW229457   0.266   3.743  12.254 -0.3422 -0.8810 -0.6224
 6000SOL     OW29458   2.800   3.266   0.456 -0.7080  0.0016 -0.3013
 6000SOL    HW129459   2.835   3.281   0.368  0.6393 -0.4721  0.1588
 6000SOL    HW229460   2.875   3.296   0.506  0.6662 -2.0892 -1.0853
 6001SOL     OW29461   0.252   3.683  17.502  0.4460  0.2594 -0.0165
 6001SOL    HW129462   0.267   3.624  17.575  3.0191  0.6823 -0.1959
 6001SOL    HW229463   0.201   3.748  17.550  0.9707  2.9692 -3.1394
 6002SOL     OW29464   2.221   4.288   5.337  0.2893  0.2635 -0.2330
 6002SOL    HW129465   2.256   4.227   5.401  0.7024  2.0848  1.2846
 6002SOL    HW229466   2.144   4.242   5.305  0.8275 -1.4114  0.9185
 6003SOL     OW29467   0.096   2.271   3.908 -0.8606 -0.3227  0.3218
 6003SOL    HW129468   0.089   2.223   3.825 -0.5497  1.0880 -0.5382
 6003SOL    HW229469   0.012   2.317   3.905 -0.7594 -0.0393  2.1648
 6004SOL     OW29470   1.209   3.514  17.630  0.4555  0.4291  0.4837
 6004SOL    HW129471   1.174   3.597  17.599  1.5769  1.4378  1.9231
 6004SOL    HW229472   1.175   3.514   0.026  0.3376  0.6556  0.4384
 6005SOL     OW29473   4.219   3.073   3.348  0.4365 -0.9139 -0.0167
 6005SOL    HW129474   4.187   3.000   3.400  1.2553 -0.3395  1.3026
 6005SOL    HW229475   4.132   3.109   3.333 -0.0483 -1.2795  1.9831
 6006SOL     OW29476   1.428   3.211   0.140  0.4707  0.5514 -0.2634
 6006SOL    HW129477   1.455   3.267   0.212 -2.5348  0.6312  0.7932
 6006SOL    HW229478   1.506   3.233   0.089  1.3103 -0.1723  0.7137
 6007SOL     OW29479   3.238   3.556  16.324  0.5033 -0.2018 -0.4040
 6007SOL    HW129480   3.324   3.535  16.361  0.5186 -0.5284 -0.6256
 6007SOL    HW229481   3.221   3.462  16.318 -1.1375  0.0720 -0.2485
 6008SOL     OW29482   0.889   2.633   2.925 -0.0386  0.0857 -0.5553
 6008SOL    HW129483   0.886   2.677   3.010  2.4397 -0.5745 -0.1261
 6008SOL    HW229484   0.922   2.552   2.963 -0.0724 -0.0085 -0.7295
 6009SOL     OW29485   3.069   4.213   2.991 -0.2329  0.3421  0.0016
 6009SOL    HW129486   3.054   4.217   3.086 -0.6993 -3.2690  0.0476
 6009SOL    HW229487   3.103   4.125   2.980  0.5671  0.4680  1.3983
 6010SOL     OW29488   1.694   1.551   6.801  0.4255  0.2189  0.3307
 6010SOL    HW129489   1.714   1.627   6.855 -0.3270 -0.2468  1.2730
 6010SOL    HW229490   1.598   1.552   6.792  0.4435  1.3315  0.2851
 6011SOL     OW29491   1.818   4.075   8.382 -0.2420 -0.5974 -0.2070
 6011SOL    HW129492   1.885   4.026   8.335  2.1144  2.5367 -0.0863
 6011SOL    HW229493   1.754   4.104   8.316  0.1178  0.0650 -0.2714
 6012SOL     OW29494   3.926   3.305  16.609 -0.1963  0.1018 -0.2304
 6012SOL    HW129495   3.903   3.384  16.559  1.0621  0.0889 -0.8214
 6012SOL    HW229496   3.847   3.262  16.576  1.0177 -1.9442 -0.4679
 6013SOL     OW29497   4.339   1.804   4.517 -0.1028  0.3629 -0.1183
 6013SOL    HW129498   4.412   1.826   4.459 -0.2116  1.7510  0.2546
 6013SOL    HW229499   4.316   1.716   4.488  0.0811  1.0032 -2.2617
 6014SOL     OW29500   2.338   0.419   6.318 -0.0863 -0.0819  0.3983
 6014SOL    HW129501   2.276   0.383   6.254  0.0643 -1.1460  0.8499
 6014SOL    HW229502   2.418   0.374   6.291  1.6958  1.8577  2.4299
 6015SOL     OW29503   0.826   1.374   9.721  0.5267 -0.1606 -0.3219
 6015SOL    HW129504   0.869   1.446   9.766 -1.5468 -0.5905  2.3634
 6015SOL    HW229505   0.760   1.347   9.785  0.4883 -0.9511 -0.6933
 6016SOL     OW29506   0.549   3.612  10.454  0.1009  0.2389 -0.7294
 6016SOL    HW129507   0.486   3.549  10.489  0.6172 -0.9664 -2.0071
 6016SOL    HW229508   0.629   3.572  10.487 -0.8701  0.0274  1.3586
 6017SOL     OW29509   1.572   1.128   5.916 -0.0702  0.6996 -0.2190
 6017SOL    HW129510   1.660   1.132   5.953  0.3500  0.1904 -1.1638
 6017SOL    HW229511   1.530   1.064   5.972  1.0035 -0.9215 -1.2547
 6018SOL     OW29512   2.837   1.492  16.230  0.2171  0.0822  0.2821
 6018SOL    HW129513   2.799   1.438  16.298 -0.8342  0.5722  0.0778
 6018SOL    HW229514   2.802   1.580  16.241 -0.6315 -0.2173 -0.0414
 6019SOL     OW29515   1.753   1.264   9.320 -0.1060 -0.3158  0.1978
 6019SOL    HW129516   1.786   1.317   9.393  1.0366  0.9036 -1.2265
 6019SOL    HW229517   1.758   1.179   9.363 -0.8856  0.6031  2.1312
 6020SOL     OW29518   3.629   2.403  12.060  0.1446  0.0997 -0.5281
 6020SOL    HW129519   3.553   2.459  12.045 -0.5152 -1.3294 -2.4997
 6020SOL    HW229520   3.687   2.426  11.988 -0.4130  1.8641 -0.4265
 6021SOL     OW29521   4.552   2.235  12.620 -0.3383  0.0085  0.4215
 6021SOL    HW129522   4.533   2.281  12.538 -0.6267  2.3333  1.8032
 6021SOL    HW229523   4.467   2.259  12.655 -1.0536 -1.4520 -0.2950
 6022SOL     OW29524   3.847   0.523   9.539 -0.2054 -1.1453  0.1694
 6022SOL    HW129525   3.921   0.570   9.501  0.1589 -2.3159 -0.5823
 6022SOL    HW229526   3.812   0.586   9.601  0.3908 -0.5333 -0.1178
 6023SOL     OW29527   2.965   2.805   7.984  0.5137 -0.0745  0.7397
 6023SOL    HW129528   3.021   2.883   7.992  0.9737 -0.1918 -1.3429
 6023SOL    HW229529   3.001   2.758   7.909 -0.6372 -0.5008  0.4489
 6024SOL     OW29530   3.645   1.948   5.461 -0.5831 -0.4193  0.3078
 6024SOL    HW129531   3.555   1.919   5.443 -1.4622  0.4107  3.3542
 6024SOL    HW229532   3.688   1.863   5.466  2.4950  1.0807 -0.6196
 6025SOL     OW29533   0.387   2.973   2.299  0.2623 -0.2492 -0.5749
 6025SOL    HW129534   0.314   2.974   2.361  1.0661  2.1435  0.3403
 6025SOL    HW229535   0.411   3.066   2.300  0.6199 -0.3364 -1.1207
 6026SOL     OW29536   1.289   1.799   1.887  0.0814  0.6181  0.1532
 6026SOL    HW129537   1.208   1.772   1.843 -0.6245  0.8168  1.3343
 6026SOL    HW229538   1.305   1.717   1.934  1.3287 -0.7948 -2.7148
 6027SOL     OW29539   4.640   4.437   3.233  0.6366 -0.1048  0.0926
 6027SOL    HW129540   4.703   4.392   3.289 -0.1181 -0.0302  1.0219
 6027SOL    HW229541   4.692   4.501   3.185  1.2971 -0.9789 -0.3489
 6028SOL     OW29542   0.967   1.138   8.636 -0.3873 -0.2023  0.0286
 6028SOL    HW129543   1.028   1.065   8.620 -1.6678 -0.5533 -3.1741
 6028SOL    HW229544   0.923   1.125   8.720 -0.4330  1.9594  0.3248
 6029SOL     OW29545   0.308   1.158   3.605  0.2335 -0.4099 -0.0921
 6029SOL    HW129546   0.376   1.224   3.615 -2.5888  2.5475 -0.2171
 6029SOL    HW229547   0.267   1.144   3.690  1.2782 -0.5094  0.3894
 6030SOL     OW29548   3.096   0.123  10.435  0.1832 -0.2491 -0.0491
 6030SOL    HW129549   3.056   0.133  10.348  0.1944  0.5689  0.0438
 6030SOL    HW229550   3.147   0.044  10.416 -2.4531 -2.1123  0.5692
 6031SOL     OW29551   3.387   0.733   4.752  0.3840  0.2130 -0.0464
 6031SOL    HW129552   3.411   0.649   4.789  3.7830  1.6568  0.9910
 6031SOL    HW229553   3.374   0.711   4.660 -1.2197  1.3578 -0.0955
 6032SOL     OW29554   2.576   2.411   7.780  0.1806  0.6138  0.3328
 6032SOL    HW129555   2.586   2.319   7.756  0.2446  0.7422 -0.1530
 6032SOL    HW229556   2.618   2.450   7.703  0.6247 -1.0327 -0.2586
 6033SOL     OW29557   2.099   4.058   2.266 -0.3265  0.0002  0.5972
 6033SOL    HW129558   2.118   4.140   2.220  0.7981 -0.3679  0.3942
 6033SOL    HW229559   2.016   4.029   2.227  1.3176 -2.7678 -0.8794
 6034SOL     OW29560   4.201   0.413   3.762  0.6493  0.0367  0.4537
 6034SOL    HW129561   4.113   0.375   3.766 -0.2349  2.2240  1.8800
 6034SOL    HW229562   4.247   0.334   3.737 -2.5730 -1.7179  0.0434
 6035SOL     OW29563   0.952   0.815   5.870  0.1540 -0.2512  0.0173
 6035SOL    HW129564   1.032   0.801   5.920 -0.3478  1.2981  1.2452
 6035SOL    HW229565   0.988   0.868   5.799  0.7676 -0.4223  0.1976
 6036SOL     OW29566   2.004   1.203   2.840 -0.5417  0.1618 -0.2347
 6036SOL    HW129567   2.068   1.245   2.896 -0.1133  0.8963 -1.2644
 6036SOL    HW229568   1.934   1.188   2.904 -2.2882  2.0406 -1.6813
 6037SOL     OW29569   2.728   3.160   5.295  0.8333 -0.4951  0.1462
 6037SOL    HW129570   2.777   3.082   5.270 -0.1345 -0.8869 -0.4901
 6037SOL    HW229571   2.659   3.173   5.231  0.3024  0.7214  0.9551
 6038SOL     OW29572   3.252   3.090  14.584  0.4095 -0.0121  0.3926
 6038SOL    HW129573   3.242   3.168  14.640 -1.1308 -1.2381  1.8389
 6038SOL    HW229574   3.254   3.024  14.653 -0.4264  0.0493  0.4753
 6039SOL     OW29575   2.781   4.151  16.028  0.5122 -0.1208 -0.1322
 6039SOL    HW129576   2.874   4.130  16.030  0.8118  1.2198 -0.0579
 6039SOL    HW229577   2.750   4.074  16.076 -2.5697  1.6806  0.8136
 6040SOL     OW29578   0.163   3.235  13.331 -0.4778  0.6061 -0.2631
 6040SOL    HW129579   0.170   3.311  13.390 -0.8223  0.2694  0.2106
 6040SOL    HW229580   0.254   3.236  13.301 -0.1347 -2.3708  0.7604
 6041SOL     OW29581   2.495   1.639   8.365 -0.3005 -0.5536 -0.3440
 6041SOL    HW129582   2.583   1.636   8.403 -0.7731  0.9089  0.8582
 6041SOL    HW229583   2.488   1.728   8.330  0.2955  0.2862  1.6575
 6042SOL     OW29584   0.898   1.743   3.338 -0.1407  0.8238  0.5556
 6042SOL    HW129585   0.942   1.822   3.306  0.5191  0.2099 -0.0521
 6042SOL    HW229586   0.964   1.703   3.395 -0.8074  1.7057  1.9363
 6043SOL     OW29587   0.571   4.608   6.753  0.5144 -0.2522 -0.0144
 6043SOL    HW129588   0.595   4.610   6.845 -0.5355 -1.0854  0.2817
 6043SOL    HW229589   0.492   4.662   6.757 -0.4360 -1.6270 -0.0885
 6044SOL     OW29590   3.756   1.770   4.236  0.1159  0.2896 -0.3170
 6044SOL    HW129591   3.701   1.712   4.183  0.3770 -0.4444  0.2214
 6044SOL    HW229592   3.770   1.733   4.323 -1.4683 -1.2625 -0.7059
 6045SOL     OW29593   4.465   4.440   5.077  0.4871 -0.1731 -0.1080
 6045SOL    HW129594   4.435   4.527   5.105 -1.9961 -0.5421 -1.5564
 6045SOL    HW229595   4.418   4.426   4.995 -1.7561 -0.0678  1.1320
 6046SOL     OW29596   3.320   0.170   8.566  0.4617  0.4108 -0.1715
 6046SOL    HW129597   3.348   0.202   8.480  2.0721 -0.5168  0.0060
 6046SOL    HW229598   3.387   0.105   8.583  0.1722 -0.1356 -1.1077
 6047SOL     OW29599   1.478   3.640   8.675  0.1659 -0.5210 -0.4027
 6047SOL    HW129600   1.503   3.731   8.688  1.0866 -0.7615 -0.4599
 6047SOL    HW229601   1.530   3.618   8.597  0.7465 -0.2924 -0.0782
 6048SOL     OW29602   2.353   2.872  12.125  0.2687 -0.6736 -0.0079
 6048SOL    HW129603   2.315   2.935  12.064 -0.2835 -0.1675  0.8472
 6048SOL    HW229604   2.446   2.887  12.110  0.2819 -1.1704 -0.4091
 6049SOL     OW29605   2.990   4.721  10.654  0.2152 -0.0669  0.6227
 6049SOL    HW129606   3.005   4.630  10.680 -0.6502 -0.7668 -1.3041
 6049SOL    HW229607   3.076   0.018  10.617  0.5785 -0.3888  1.3132
 6050SOL     OW29608   3.935   0.339   4.087  0.1230  0.2458 -0.1866
 6050SOL    HW129609   3.944   0.346   3.992  1.8961  0.8905  0.0191
 6050SOL    HW229610   3.973   0.252   4.098  1.0285  0.6070 -0.4791
 6051SOL     OW29611   2.551   4.009   8.420 -0.1646  0.5767  0.2186
 6051SOL    HW129612   2.588   3.980   8.337 -0.5856 -0.9987  0.5889
 6051SOL    HW229613   2.510   4.094   8.405 -0.3238  0.4386 -0.1130
 6052SOL     OW29614   1.069   4.438  11.717  0.1788  0.4565  0.3844
 6052SOL    HW129615   1.088   4.514  11.663 -2.0327  0.1679 -0.8262
 6052SOL    HW229616   0.980   4.468  11.735  0.5124  0.2332  2.4554
 6053SOL     OW29617   1.378   2.418  16.733 -0.2218  0.3233 -0.2614
 6053SOL    HW129618   1.345   2.499  16.772 -1.0946  0.2791 -0.9211
 6053SOL    HW229619   1.430   2.381  16.805 -1.7248 -1.9187 -0.3033
 6054SOL     OW29620   0.338   4.220   3.722  0.6106  0.6211  0.9556
 6054SOL    HW129621   0.300   4.152   3.778  0.0614 -1.4768 -1.9652
 6054SOL    HW229622   0.282   4.206   3.645  1.3674 -0.8652  0.6774
 6055SOL     OW29623   3.750   4.693   5.410  0.1020 -0.7561 -0.0085
 6055SOL    HW129624   3.804   4.632   5.460  0.6446  1.5904  2.2409
 6055SOL    HW229625   3.660   4.672   5.435  0.0986 -0.1066  0.5376
 6056SOL     OW29626   1.800   3.017   3.652 -0.0922  0.4090 -0.3464
 6056SOL    HW129627   1.726   3.077   3.658  1.0329  1.6987  0.5351
 6056SOL    HW229628   1.822   3.016   3.559 -3.2448  0.7878 -1.1112
 6057SOL     OW29629   4.451   3.561   3.293 -0.1202 -0.2732 -0.5624
 6057SOL    HW129630   4.446   3.607   3.377 -1.3790  1.7960 -1.7683
 6057SOL    HW229631   4.395   3.486   3.313 -0.3732  0.6052  1.9984
 6058SOL     OW29632   3.149   4.007   6.588 -0.0191  0.3187  0.1280
 6058SOL    HW129633   3.149   3.984   6.681  1.3047 -2.2253 -0.5047
 6058SOL    HW229634   3.208   3.946   6.543  0.6880  1.5460 -0.5965
 6059SOL     OW29635   0.614   4.499  17.310  0.3574  0.0103  0.1162
 6059SOL    HW129636   0.616   4.405  17.294 -1.4590  0.2332 -1.5021
 6059SOL    HW229637   0.652   4.505  17.397 -0.0067  2.0675  0.1314
 6060SOL     OW29638   2.949   0.891   6.326  0.6400 -0.0919  0.0504
 6060SOL    HW129639   2.913   0.951   6.392  1.3824  2.2311 -1.6573
 6060SOL    HW229640   3.030   0.932   6.295  0.0785  1.2727  0.3901
 6061SOL     OW29641   2.538   2.880   5.602  1.0543  0.4645 -0.5345
 6061SOL    HW129642   2.553   2.855   5.511  1.3032 -0.3305 -0.2768
 6061SOL    HW229643   2.615   2.837   5.638  0.4814  0.4358  0.6439
 6062SOL     OW29644   0.504   0.241   8.441  0.0968  0.1619 -0.7128
 6062SOL    HW129645   0.484   0.193   8.521  0.4502  1.6330  0.2556
 6062SOL    HW229646   0.494   0.334   8.461  1.7664  0.0129  0.8504
 6063SOL     OW29647   2.582   3.816  10.036  0.0881 -0.0771  0.2791
 6063SOL    HW129648   2.662   3.837   9.987 -0.8297 -0.7559 -1.5017
 6063SOL    HW229649   2.577   3.892  10.094  0.7962  0.7174 -0.6920
 6064SOL     OW29650   3.260   0.494   2.544  0.6350 -0.4285  0.0035
 6064SOL    HW129651   3.271   0.475   2.451  0.7793 -0.2166 -0.0239
 6064SOL    HW229652   3.166   0.482   2.553  0.6333  1.0813  1.9110
 6065SOL     OW29653   4.709   3.244   8.983 -0.1975  0.5364  0.2008
 6065SOL    HW129654   4.638   3.286   8.933 -1.0359  0.4633  1.3482
 6065SOL    HW229655   0.050   3.316   8.982 -1.5042  1.6867 -0.2770
 6066SOL     OW29656   1.181   1.900   8.703  0.0326 -0.7101  0.0542
 6066SOL    HW129657   1.233   1.861   8.773  0.3065 -0.5860 -0.0759
 6066SOL    HW229658   1.127   1.822   8.694 -0.3302 -0.1801 -2.5847
 6067SOL     OW29659   2.894   1.837   2.186 -0.2569  0.0294  0.5297
 6067SOL    HW129660   2.944   1.781   2.128 -0.8769 -1.2428  1.2144
 6067SOL    HW229661   2.823   1.775   2.205  0.5159 -0.8603  0.4892
 6068SOL     OW29662   2.893   2.539   6.681  0.1542  0.8373  0.1553
 6068SOL    HW129663   2.850   2.548   6.766  1.3666 -0.4756  0.9080
 6068SOL    HW229664   2.896   2.444   6.686 -2.2406  0.7054 -1.1728
 6069SOL     OW29665   1.961   4.152   5.514 -0.3085  0.0308 -0.9446
 6069SOL    HW129666   1.989   4.170   5.424  0.6088  1.0871 -0.4469
 6069SOL    HW229667   1.977   4.058   5.523  2.6498  0.7214  0.8950
 6070SOL     OW29668   3.920   1.447   8.925 -0.0853 -0.2936  0.5611
 6070SOL    HW129669   4.010   1.440   8.958  0.5010 -0.8939 -1.1500
 6070SOL    HW229670   3.887   1.523   8.972 -0.5948  0.4260 -0.9828
 6071SOL     OW29671   4.057   4.179   6.497  0.3419  0.1102 -0.1025
 6071SOL    HW129672   3.977   4.215   6.536  0.8088 -1.0335  1.9025
 6071SOL    HW229673   4.050   4.220   6.411  0.3274 -0.8285 -0.5578
 6072SOL     OW29674   2.307   2.296   7.766 -0.2915 -0.5783 -0.0804
 6072SOL    HW129675   2.320   2.376   7.715  0.3992  0.2834  1.4349
 6072SOL    HW229676   2.394   2.296   7.807 -0.5955  1.6119  0.5853
 6073SOL     OW29677   1.460   1.167   7.133  0.2319  0.2826  0.3703
 6073SOL    HW129678   1.426   1.082   7.161  1.5762 -0.2789  0.2991
 6073SOL    HW229679   1.510   1.189   7.212  0.1925  0.6451  0.2954
 6074SOL     OW29680   2.682   1.527  11.810 -0.4979  0.1330  0.4418
 6074SOL    HW129681   2.647   1.603  11.764 -1.2624 -0.3551  0.2031
 6074SOL    HW229682   2.731   1.492  11.736 -0.4965 -0.6743  0.8238
 6075SOL     OW29683   0.402   1.257   9.630 -0.7870 -0.2798 -0.1038
 6075SOL    HW129684   0.347   1.333   9.646  3.7250  2.5361  2.0379
 6075SOL    HW229685   0.480   1.296   9.591  0.7060 -1.1474  1.9301
 6076SOL     OW29686   0.408   0.421  14.664 -0.0443  0.3702  0.0721
 6076SOL    HW129687   0.334   0.425  14.604  0.3926  0.4657 -0.4565
 6076SOL    HW229688   0.374   0.357  14.727  0.2032  0.3767  0.2146
 6077SOL     OW29689   0.959   1.984   7.022  0.1255 -0.2808 -0.2875
 6077SOL    HW129690   0.924   1.895   7.027  1.4195 -0.8587 -1.8511
 6077SOL    HW229691   0.882   2.040   7.029 -0.0683 -0.4850 -0.7679
 6078SOL     OW29692   3.286   2.119   0.951 -0.0651  0.6588 -0.2768
 6078SOL    HW129693   3.192   2.135   0.946  0.0516  1.0697 -1.1927
 6078SOL    HW229694   3.323   2.161   0.873  0.5385 -0.2197 -0.4668
 6079SOL     OW29695   3.283   4.573  16.976  0.9101  0.4709  0.0802
 6079SOL    HW129696   3.274   4.478  16.970  0.9101  0.5629 -1.5364
 6079SOL    HW229697   3.306   4.586  17.068 -0.7605  2.4349  0.2219
 6080SOL     OW29698   4.522   0.544   0.676 -0.3997  0.0496  1.1309
 6080SOL    HW129699   4.463   0.567   0.748 -2.1325  1.5825 -0.7670
 6080SOL    HW229700   4.483   0.589   0.600  0.3600  0.1634  0.8111
 6081SOL     OW29701   4.360   3.238   8.032 -0.4149  0.0690 -0.2671
 6081SOL    HW129702   4.376   3.145   8.014 -1.1241  0.0174 -0.6472
 6081SOL    HW229703   4.264   3.241   8.031 -0.4322 -0.3346  0.0573
 6082SOL     OW29704   1.751   0.838  14.043  0.0512  0.1616 -0.5383
 6082SOL    HW129705   1.803   0.758  14.040 -2.0212 -1.1122 -2.7489
 6082SOL    HW229706   1.716   0.827  13.954  2.1279 -0.0653 -1.3481
 6083SOL     OW29707   1.357   1.381   4.074 -0.1253  0.4286  0.5217
 6083SOL    HW129708   1.312   1.428   4.145  1.6420  1.9458  0.6394
 6083SOL    HW229709   1.389   1.459   4.028 -1.4904 -0.0688 -1.2904
 6084SOL     OW29710   3.950   2.581   5.491  0.1883 -0.1654  0.4127
 6084SOL    HW129711   3.871   2.620   5.528  1.4534 -1.0118  4.0577
 6084SOL    HW229712   3.931   2.499   5.446 -0.5427  0.6264 -0.7204
 6085SOL     OW29713   4.567   4.398   8.587 -0.1731  0.3164 -0.1709
 6085SOL    HW129714   4.641   4.418   8.645 -0.7345  1.2873  0.2143
 6085SOL    HW229715   4.532   4.329   8.643  2.5003  0.2237  1.4099
 6086SOL     OW29716   4.069   2.360   2.776  0.4583 -0.3533  0.4635
 6086SOL    HW129717   4.091   2.409   2.697 -2.7140  0.9839  0.3843
 6086SOL    HW229718   4.063   2.271   2.742  3.3409 -1.1717  2.0602
 6087SOL     OW29719   2.484   0.909  11.741  0.9826  0.2447  0.3686
 6087SOL    HW129720   2.469   0.922  11.648 -2.0983 -0.7354  0.7318
 6087SOL    HW229721   2.481   0.814  11.742 -1.0398  0.3038 -0.9892
 6088SOL     OW29722   2.055   2.139   3.139  0.6084 -0.1622  0.1277
 6088SOL    HW129723   2.004   2.191   3.202  0.3628 -0.4604  0.1785
 6088SOL    HW229724   2.022   2.172   3.056  1.6603  0.0947 -0.1856
 6089SOL     OW29725   3.320   1.256  11.952  0.6027 -0.3110  0.2456
 6089SOL    HW129726   3.242   1.311  11.956  0.1905 -0.7035 -2.0745
 6089SOL    HW229727   3.282   1.168  11.955  0.5146 -0.3233 -1.3615
 6090SOL     OW29728   1.332   4.052   2.536  0.0973  0.2839 -0.0480
 6090SOL    HW129729   1.347   3.961   2.510 -1.6177 -0.0118 -0.0045
 6090SOL    HW229730   1.413   4.094   2.566 -0.3227  1.9045 -1.2250
 6091SOL     OW29731   1.739   0.760   3.670  0.0970 -0.4770 -0.2513
 6091SOL    HW129732   1.757   0.789   3.581 -0.6215  0.1148 -0.2015
 6091SOL    HW229733   1.658   0.709   3.657  0.2741 -1.3092  2.0255
 6092SOL     OW29734   1.446   4.524   7.387  0.1928  0.0955 -0.1344
 6092SOL    HW129735   1.372   4.585   7.395 -0.3383 -0.6898  0.9174
 6092SOL    HW229736   1.408   4.477   7.313  0.7872  2.6704 -2.0864
 6093SOL     OW29737   2.520   4.357   4.701 -0.3716 -0.3470 -0.1491
 6093SOL    HW129738   2.609   4.380   4.726 -0.0281 -0.2672 -1.4581
 6093SOL    HW229739   2.509   4.397   4.615  1.1619  2.0469  0.7700
 6094SOL     OW29740   4.249   2.866  16.572  0.0674 -0.2316 -0.1340
 6094SOL    HW129741   4.189   2.931  16.533 -0.2730 -0.6171 -0.2508
 6094SOL    HW229742   4.291   2.825  16.497  1.4584  1.6325 -0.3948
 6095SOL     OW29743   4.157   3.865  12.341 -0.0306  0.1297 -0.0761
 6095SOL    HW129744   4.175   3.900  12.254 -0.6488 -0.8462 -0.5916
 6095SOL    HW229745   4.102   3.789  12.322  0.8944 -0.5586  0.0596
 6096SOL     OW29746   0.241   1.639   8.960 -0.3243  0.1610 -0.3537
 6096SOL    HW129747   0.222   1.636   9.054 -1.0116 -1.1343 -0.5520
 6096SOL    HW229748   0.313   1.576   8.967 -0.6748 -0.0759  1.1345
 6097SOL     OW29749   2.677   1.289   5.469 -0.0156 -0.0238 -0.5654
 6097SOL    HW129750   2.736   1.299   5.544 -2.1925  1.4836  0.9303
 6097SOL    HW229751   2.622   1.362   5.498  1.1455  0.6607 -0.0884
 6098SOL     OW29752   1.124   3.344  15.684 -0.0942  0.0386 -0.0204
 6098SOL    HW129753   1.111   3.278  15.616  2.0261  0.6758 -1.0537
 6098SOL    HW229754   1.190   3.398  15.640  0.3336 -0.2564  0.2651
 6099SOL     OW29755   4.370   2.787   7.689 -0.4212 -0.0023 -0.3939
 6099SOL    HW129756   4.330   2.872   7.706  0.6163  0.7906 -1.9029
 6099SOL    HW229757   4.406   2.776   7.777  2.1702  0.7247 -1.3592
 6100SOL     OW29758   2.652   1.536  15.596  0.0274 -0.1298 -0.0850
 6100SOL    HW129759   2.645   1.491  15.680 -0.0982 -2.0253 -1.1080
 6100SOL    HW229760   2.745   1.560  15.606  0.1412  0.4122 -2.5521
 6101SOL     OW29761   3.954   0.517   4.728  0.3304 -0.1937 -0.3548
 6101SOL    HW129762   3.889   0.579   4.761  0.7783  1.6040 -2.8887
 6101SOL    HW229763   4.031   0.557   4.767  0.8618 -0.5593 -1.0303
 6102SOL     OW29764   2.046   4.111   6.304 -0.4119  0.3887  0.1023
 6102SOL    HW129765   2.127   4.073   6.269 -0.1006  2.1991 -1.1172
 6102SOL    HW229766   2.002   4.029   6.327  1.0559 -0.0655  1.2987
 6103SOL     OW29767   3.253   4.037  15.812  0.6121 -0.1659  0.0759
 6103SOL    HW129768   3.219   3.974  15.750  0.9102 -0.9428  0.7022
 6103SOL    HW229769   3.289   4.102  15.751 -1.9847 -0.5866 -1.8958
 6104SOL     OW29770   2.467   3.766   7.779 -0.2760  0.0775  0.7409
 6104SOL    HW129771   2.521   3.838   7.746  0.6407 -0.4992  0.9749
 6104SOL    HW229772   2.499   3.690   7.730  1.5549  1.4522 -0.1948
 6105SOL     OW29773   2.392   2.052   6.946  0.3370 -0.2826  0.4702
 6105SOL    HW129774   2.382   1.962   6.977 -3.0795 -0.5371 -1.3549
 6105SOL    HW229775   2.369   2.049   6.853 -2.1974 -0.2398  1.1159
 6106SOL     OW29776   3.739   0.947  12.535 -0.2155 -0.5154  0.0626
 6106SOL    HW129777   3.786   0.900  12.604 -0.8499 -1.3718 -0.0910
 6106SOL    HW229778   3.799   0.980  12.469  1.2168 -0.2041  1.5373
 6107SOL     OW29779   3.868   1.319   5.105 -0.3501 -0.3982  0.1641
 6107SOL    HW129780   3.802   1.295   5.040 -0.4840  0.4474 -0.0115
 6107SOL    HW229781   3.866   1.231   5.142  2.4817  0.1506  1.6041
 6108SOL     OW29782   1.409   4.335   2.492  0.1103 -0.2235 -0.5298
 6108SOL    HW129783   1.492   4.384   2.496 -0.2344  0.3102  0.0665
 6108SOL    HW229784   1.421   4.280   2.415  0.0779 -0.6357 -0.2402
 6109SOL     OW29785   2.955   1.628   6.285  0.6663 -0.1588  0.1940
 6109SOL    HW129786   3.017   1.627   6.358  2.1125 -1.4505 -1.0421
 6109SOL    HW229787   2.922   1.716   6.302 -1.3690 -1.0179  0.6674
 6110SOL     OW29788   0.096   2.949  12.471 -0.3464 -0.2819 -0.0068
 6110SOL    HW129789   0.113   3.037  12.439  0.6129  0.3773  2.3723
 6110SOL    HW229790   0.034   2.917  12.404 -0.7646 -0.0182  0.2600
 6111SOL     OW29791   3.439   3.136   7.056 -0.3846 -0.1837 -0.3576
 6111SOL    HW129792   3.478   3.144   7.143 -1.4927  0.3733  0.0904
 6111SOL    HW229793   3.457   3.222   7.018 -3.1503  0.4412 -0.2142
 6112SOL     OW29794   0.823   2.223   9.820 -0.5612 -0.1928 -0.0077
 6112SOL    HW129795   0.905   2.215   9.772  0.2969 -0.0193  1.4354
 6112SOL    HW229796   0.794   2.311   9.795  2.6148  0.8640  0.1535
 6113SOL     OW29797   0.043   3.927   1.916 -0.0758  0.4374 -0.3557
 6113SOL    HW129798   0.010   3.842   1.886 -2.5143  1.7274 -1.3930
 6113SOL    HW229799   0.122   3.904   1.964 -0.1714 -2.1245 -1.4629
 6114SOL     OW29800   1.375   0.069   8.826 -0.0103  0.1160 -0.1837
 6114SOL    HW129801   1.450   0.076   8.885  0.0703 -1.8596 -0.0654
 6114SOL    HW229802   1.368   0.160   8.797 -1.3439  0.3859  0.9477
 6115SOL     OW29803   1.003   3.943   4.699  0.1863 -0.2823 -0.1565
 6115SOL    HW129804   1.018   3.884   4.773 -0.1295  0.0895  0.2060
 6115SOL    HW229805   0.930   3.995   4.733  2.2913  2.4906  0.1303
 6116SOL     OW29806   2.574   0.147   6.999  1.2538 -0.6841 -0.4268
 6116SOL    HW129807   2.632   0.200   7.055  0.7098 -0.8466  0.2956
 6116SOL    HW229808   2.531   0.214   6.946  1.8081  1.4283  1.7380
 6117SOL     OW29809   1.991   4.411  10.957  0.2595  0.3558 -0.7978
 6117SOL    HW129810   1.970   4.361  11.036  2.7255 -0.1425 -0.4411
 6117SOL    HW229811   1.939   4.374  10.886  0.4567 -2.1466  0.3350
 6118SOL     OW29812   2.228   2.966   4.008  0.2406  0.4868  0.5201
 6118SOL    HW129813   2.157   2.905   4.024  0.6268 -0.0321  0.2616
 6118SOL    HW229814   2.242   3.007   4.093  2.6604 -0.4427  0.5662
 6119SOL     OW29815   0.525   4.099   3.016 -0.3048  0.1961 -0.3408
 6119SOL    HW129816   0.590   4.103   2.946 -0.5182  0.1958 -0.5390
 6119SOL    HW229817   0.563   4.166   3.073 -0.6780 -2.2977  2.8245
 6120SOL     OW29818   2.620   3.200   4.675 -0.0395  0.8394  0.3811
 6120SOL    HW129819   2.671   3.160   4.745  0.2516  0.7180  0.0999
 6120SOL    HW229820   2.546   3.241   4.721 -0.7600  1.1564 -1.0433
 6121SOL     OW29821   3.868   2.616   9.932  0.4983  0.5312  0.5000
 6121SOL    HW129822   3.814   2.537   9.932  1.4627 -0.1213  1.2518
 6121SOL    HW229823   3.809   2.687   9.959 -1.1499  0.0246 -1.7129
 6122SOL     OW29824   3.459   3.277   3.319  0.4486  0.2554 -0.2267
 6122SOL    HW129825   3.411   3.344   3.271 -1.0620  0.6200  1.7777
 6122SOL    HW229826   3.444   3.202   3.262 -0.1743 -0.9416  1.5152
 6123SOL     OW29827   1.119   4.078   6.343  0.3672  0.0900  0.7178
 6123SOL    HW129828   1.130   4.081   6.438 -1.5476  0.3938  0.9400
 6123SOL    HW229829   1.137   3.985   6.333 -0.5670  0.2324 -2.2357
 6124SOL     OW29830   0.564   0.423   6.424 -0.3956 -0.2341 -0.2201
 6124SOL    HW129831   0.544   0.435   6.331 -1.2104 -1.0047 -0.1417
 6124SOL    HW229832   0.640   0.480   6.437 -1.3945  0.6923  1.4384
 6125SOL     OW29833   1.237   0.809   2.828  0.3511  0.0437 -0.3826
 6125SOL    HW129834   1.288   0.872   2.878  0.3262 -0.4822  0.3028
 6125SOL    HW229835   1.170   0.791   2.894  0.1981  1.0350 -0.2700
 6126SOL     OW29836   1.775   4.358   2.204 -0.1137 -0.3830 -0.4793
 6126SOL    HW129837   1.748   4.404   2.124  1.5827  0.6129 -0.4946
 6126SOL    HW229838   1.688   4.359   2.243  0.4376  0.0607  0.7521
 6127SOL     OW29839   2.165   1.369   6.288  0.4567 -0.2082  0.7007
 6127SOL    HW129840   2.221   1.402   6.358 -0.1210  3.3771 -0.5293
 6127SOL    HW229841   2.077   1.363   6.327  0.0941 -0.6279 -0.1864
 6128SOL     OW29842   0.668   2.491  10.698 -0.5524  0.0143  0.5112
 6128SOL    HW129843   0.574   2.505  10.707 -0.6298  0.1396 -0.5245
 6128SOL    HW229844   0.692   2.583  10.689  0.3564 -0.3986 -1.2786
 6129SOL     OW29845   2.218   0.687   8.117 -0.1007  0.1414  0.6204
 6129SOL    HW129846   2.265   0.709   8.037 -0.9447  0.8656  0.3305
 6129SOL    HW229847   2.247   0.745   8.187  0.1046 -1.3899  1.8159
 6130SOL     OW29848   3.093   2.957   0.767  0.6426 -0.5483  1.0487
 6130SOL    HW129849   3.028   2.975   0.699  2.5036 -0.7920 -0.8108
 6130SOL    HW229850   3.056   2.873   0.793 -0.3058 -0.1353  1.0332
 6131SOL     OW29851   1.066   3.834   9.612  0.0493 -0.3573  0.0240
 6131SOL    HW129852   0.977   3.870   9.610 -0.4216 -1.5248  0.1530
 6131SOL    HW229853   1.045   3.756   9.560 -2.4198 -0.7637  1.6440
 6132SOL     OW29854   1.697   0.636   2.132 -0.5598 -0.0379  0.4147
 6132SOL    HW129855   1.677   0.560   2.076  0.2615  0.9614 -1.2131
 6132SOL    HW229856   1.729   0.698   2.067 -1.6148 -0.4882 -0.5565
 6133SOL     OW29857   3.107   1.477  16.204  0.5103 -0.1207 -0.5243
 6133SOL    HW129858   3.131   1.569  16.218 -1.3285  0.4820 -1.3399
 6133SOL    HW229859   3.012   1.482  16.199  0.5275 -0.3924 -1.0953
 6134SOL     OW29860   0.271   2.450   2.244  0.7231 -0.0582 -0.5417
 6134SOL    HW129861   0.357   2.469   2.280  0.7493 -0.5431 -0.3500
 6134SOL    HW229862   0.259   2.367   2.290 -0.5493  0.5807  0.2726
 6135SOL     OW29863   4.181   4.106  11.002 -0.6128  0.0157 -0.2538
 6135SOL    HW129864   4.160   4.176  10.939  0.3040 -1.8142 -2.5862
 6135SOL    HW229865   4.267   4.075  10.974 -0.5004  0.4202 -0.3549
 6136SOL     OW29866   3.013   4.458   5.045  0.1643  0.4937  0.3521
 6136SOL    HW129867   2.979   4.386   5.098  1.6749 -0.5284 -0.0676
 6136SOL    HW229868   2.938   4.481   4.990  1.6392 -0.0069 -1.8760
 6137SOL     OW29869   0.819   0.512   6.519  0.0528 -0.9186 -0.0217
 6137SOL    HW129870   0.850   0.540   6.605  0.3617 -0.2833 -0.3356
 6137SOL    HW229871   0.871   0.434   6.500  1.2404  0.0366 -0.7216
 6138SOL     OW29872   4.547   1.520  17.442 -0.2390  0.2173 -0.2482
 6138SOL    HW129873   4.552   1.550  17.533 -1.0400 -1.9716  0.5182
 6138SOL    HW229874   4.484   1.449  17.458 -0.9056  0.6007 -1.2219
 6139SOL     OW29875   0.027   2.238   8.443 -0.5516 -0.2762 -0.2484
 6139SOL    HW129876   0.052   2.322   8.406  1.9397 -0.5046  0.9458
 6139SOL    HW229877   4.654   2.244   8.446 -0.8045 -4.6003 -0.2241
 6140SOL     OW29878   2.485   0.785   6.618 -0.0585  0.6364  0.0796
 6140SOL    HW129879   2.439   0.742   6.546  1.1132 -0.4917 -0.0038
 6140SOL    HW229880   2.499   0.707   6.672  1.9315  0.8211 -0.1571
 6141SOL     OW29881   3.540   0.478   5.545 -0.4184  0.1869  0.2007
 6141SOL    HW129882   3.493   0.539   5.487  1.1794  0.3734 -0.8983
 6141SOL    HW229883   3.481   0.478   5.620  1.2984 -0.5090  1.5566
 6142SOL     OW29884   0.851   3.015   2.790  0.3244 -0.2704 -0.8002
 6142SOL    HW129885   0.917   2.946   2.789 -1.1388 -1.6655  0.1910
 6142SOL    HW229886   0.783   2.977   2.734  1.3297 -2.0752 -0.7848
 6143SOL     OW29887   1.185   1.253  16.906 -0.3657  0.0256 -0.6269
 6143SOL    HW129888   1.240   1.330  16.893 -1.1541  0.8089  0.7215
 6143SOL    HW229889   1.111   1.285  16.957 -0.6434 -0.4460 -0.7325
 6144SOL     OW29890   0.861   1.219   8.149  0.2235  0.2081  0.1706
 6144SOL    HW129891   0.833   1.236   8.238  0.4668  2.3719 -0.1688
 6144SOL    HW229892   0.899   1.131   8.157 -1.4660 -0.3715  1.7724
 6145SOL     OW29893   0.070   4.565   2.653 -0.5094  0.2136 -0.4107
 6145SOL    HW129894   4.716   4.606   2.692 -0.3525 -0.7339  0.9066
 6145SOL    HW229895   0.061   4.579   2.558  0.1820 -2.1978 -0.8398
 6146SOL     OW29896   4.148   0.897   6.206  0.1172  0.3381 -0.2834
 6146SOL    HW129897   4.133   0.914   6.113  2.4318 -0.8419 -0.8825
 6146SOL    HW229898   4.078   0.948   6.246 -1.1712 -1.0101 -0.8229
 6147SOL     OW29899   3.350   2.112   7.229  0.0194  0.4021  0.2649
 6147SOL    HW129900   3.383   2.202   7.220  0.0957  0.3815  0.3418
 6147SOL    HW229901   3.426   2.075   7.273  1.9788  2.4549 -1.4420
 6148SOL     OW29902   2.745   2.522   7.970 -0.3443 -0.3888  0.1723
 6148SOL    HW129903   2.698   2.465   7.909 -0.8235  1.4251 -1.1732
 6148SOL    HW229904   2.701   2.494   8.050 -3.8185  1.8229 -0.9288
 6149SOL     OW29905   3.349   3.262  15.109 -0.4715 -0.5185 -0.1316
 6149SOL    HW129906   3.321   3.326  15.174  0.8500  0.5555 -0.6193
 6149SOL    HW229907   3.426   3.294  15.062  0.5807  1.2677  2.8146
 6150SOL     OW29908   4.471   2.930  15.282 -0.0930  0.4049 -0.1561
 6150SOL    HW129909   4.448   2.849  15.327  0.5153  1.2059  1.6155
 6150SOL    HW229910   4.507   2.988  15.349  1.9988 -1.6683  0.5071
 6151SOL     OW29911   3.209   0.233  13.447 -0.2458 -0.0668  0.1070
 6151SOL    HW129912   3.226   0.327  13.456 -1.4970  0.2593 -0.9877
 6151SOL    HW229913   3.117   0.226  13.470  0.2428 -1.6720  1.6608
 6152SOL     OW29914   4.254   2.040   1.142  0.7645  0.1297  0.1395
 6152SOL    HW129915   4.193   1.974   1.173  0.6840  0.3189  0.3843
 6152SOL    HW229916   4.189   2.110   1.148  1.3175  0.6921 -0.2751
 6153SOL     OW29917   2.087   2.062   6.156 -0.1834 -0.6056 -0.3082
 6153SOL    HW129918   2.170   2.038   6.113  0.1063  1.5541 -0.9733
 6153SOL    HW229919   2.083   2.152   6.124  0.4247 -1.2635 -2.2644
 6154SOL     OW29920   1.415   3.509   3.688  0.1894  0.8051 -0.1530
 6154SOL    HW129921   1.510   3.522   3.686  0.1952  0.5022 -1.9536
 6154SOL    HW229922   1.403   3.424   3.644 -1.5220  1.3560 -0.7437
 6155SOL     OW29923   1.513   0.849  14.826 -0.6189  0.0150  0.3216
 6155SOL    HW129924   1.482   0.788  14.759  0.2441 -3.3325  2.9743
 6155SOL    HW229925   1.503   0.932  14.779  0.5922 -0.4022 -0.6676
 6156SOL     OW29926   2.809   0.877   6.091  0.4710  0.3955 -0.5002
 6156SOL    HW129927   2.857   0.860   6.173  0.6508 -1.3933 -0.9643
 6156SOL    HW229928   2.777   0.961   6.123 -3.9851 -1.3074 -0.5035
 6157SOL     OW29929   3.574   1.620   3.448  0.0119 -0.2591 -0.0774
 6157SOL    HW129930   3.616   1.653   3.368 -1.6313 -1.7327 -1.5490
 6157SOL    HW229931   3.489   1.582   3.425 -0.4643  1.2560 -0.7975
 6158SOL     OW29932   2.329   1.136   5.646 -0.3828  0.1663  0.6024
 6158SOL    HW129933   2.394   1.166   5.583  1.2913  0.9373  2.6913
 6158SOL    HW229934   2.281   1.066   5.601  0.7091  0.2743 -0.7195
 6159SOL     OW29935   3.024   0.454   8.400  0.2363 -0.4135 -0.2167
 6159SOL    HW129936   3.043   0.538   8.358  0.4250 -0.3404  0.0099
 6159SOL    HW229937   3.025   0.491   8.489 -0.7195  0.6343 -0.6426
 6160SOL     OW29938   3.592   0.898   4.698  0.2004 -0.3032  0.5811
 6160SOL    HW129939   3.527   0.842   4.742 -0.2447 -0.9225 -0.8597
 6160SOL    HW229940   3.553   0.977   4.735  0.1981  0.0049 -0.0692
 6161SOL     OW29941   0.301   0.547   9.420  0.0092 -0.0125  0.1918
 6161SOL    HW129942   0.215   0.578   9.449 -0.6837  0.1702 -2.0670
 6161SOL    HW229943   0.350   0.569   9.500  1.2675 -0.2602 -0.5176
 6162SOL     OW29944   3.792   2.441  15.578 -0.3497  0.7287 -0.3306
 6162SOL    HW129945   3.806   2.442  15.672  1.2305  1.1040 -0.5765
 6162SOL    HW229946   3.845   2.366  15.551 -2.3742 -0.6374 -0.4956
 6163SOL     OW29947   1.860   1.905  12.770  0.6484 -0.0489  0.0561
 6163SOL    HW129948   1.943   1.898  12.816  0.9057  0.0643 -0.3911
 6163SOL    HW229949   1.844   2.000  12.774  0.6879  0.1215 -3.5468
 6164SOL     OW29950   2.935   3.687   6.605  0.8508  0.2825 -0.5540
 6164SOL    HW129951   2.919   3.607   6.655  0.6553  0.7472  0.1145
 6164SOL    HW229952   3.026   3.698   6.635  1.0217 -2.0205 -0.2276
 6165SOL     OW29953   0.552   0.333   4.942 -0.4916  0.0175  0.5149
 6165SOL    HW129954   0.533   0.314   4.850  1.8878 -1.4461  0.3121
 6165SOL    HW229955   0.472   0.327   4.994  0.2256  0.9541  1.7335
 6166SOL     OW29956   1.836   3.374   4.253 -0.2112  0.0956  0.4559
 6166SOL    HW129957   1.917   3.410   4.289 -0.6447  0.9981  0.5341
 6166SOL    HW229958   1.866   3.290   4.220  3.8100  2.9614 -3.1541
 6167SOL     OW29959   4.474   3.551   6.489  0.1999  0.9243 -0.2523
 6167SOL    HW129960   4.415   3.603   6.435  1.2374 -0.0194 -2.2683
 6167SOL    HW229961   4.424   3.478   6.525 -0.4354 -0.7507 -4.5925
 6168SOL     OW29962   1.835   1.431  12.622 -0.2421 -0.3921  0.4188
 6168SOL    HW129963   1.931   1.426  12.623 -0.2763 -1.0117  0.8896
 6168SOL    HW229964   1.816   1.425  12.716 -0.0936  0.0945  0.4764
 6169SOL     OW29965   3.640   0.449   5.288 -0.2144  0.4055  0.2803
 6169SOL    HW129966   3.682   0.364   5.275 -1.4621 -0.1532 -0.0589
 6169SOL    HW229967   3.626   0.458   5.383 -0.2477  0.0617  0.3090
 6170SOL     OW29968   2.738   3.003   7.892 -0.2968 -0.3805 -0.1409
 6170SOL    HW129969   2.743   2.918   7.849 -0.8651 -1.0452  1.1046
 6170SOL    HW229970   2.777   2.994   7.979 -1.0534  0.1479  0.2581
 6171SOL     OW29971   3.748   1.242   2.826  0.3589 -0.1804  0.3470
 6171SOL    HW129972   3.799   1.323   2.835  1.3473 -1.0350  2.5777
 6171SOL    HW229973   3.661   1.280   2.834  0.6166  0.6041 -0.5838
 6172SOL     OW29974   3.186   2.843   2.284  0.0247  0.1246 -0.0602
 6172SOL    HW129975   3.127   2.919   2.283  1.8016  1.4901 -1.1432
 6172SOL    HW229976   3.232   2.865   2.365 -0.1162 -0.8607  0.2834
 6173SOL     OW29977   4.695   1.638  13.259  0.1282 -0.0295  0.2734
 6173SOL    HW129978   4.658   1.610  13.343 -1.9192  1.4982 -0.1131
 6173SOL    HW229979   4.708   1.730  13.278  0.9487  0.3245 -1.9682
 6174SOL     OW29980   0.176   1.943   4.019  0.6981 -0.0792  0.2579
 6174SOL    HW129981   0.102   2.001   4.004  1.2582  0.3367 -0.8564
 6174SOL    HW229982   0.162   1.898   4.102  0.4525  0.1274  0.3301
 6175SOL     OW29983   1.149   1.379   6.896 -0.1464 -0.0615 -0.9288
 6175SOL    HW129984   1.153   1.440   6.970  3.0170 -0.8601 -0.4387
 6175SOL    HW229985   1.106   1.295   6.913 -1.2430  0.1345 -2.8176
 6176SOL     OW29986   4.461   2.795  10.895  0.1952 -0.0508  0.4129
 6176SOL    HW129987   4.456   2.881  10.852 -0.7035 -0.1114  0.3929
 6176SOL    HW229988   4.368   2.784  10.915 -0.3704  1.0481 -1.5992
 6177SOL     OW29989   1.463   3.655   7.643 -0.2829  0.1871  0.7183
 6177SOL    HW129990   1.468   3.631   7.736 -3.2068  2.6924  1.5191
 6177SOL    HW229991   1.367   3.664   7.640 -0.5405 -2.0619  1.7884
 6178SOL     OW29992   3.515   1.445   8.859 -0.0957  0.2296 -0.4295
 6178SOL    HW129993   3.486   1.353   8.853 -0.6968  0.4631 -1.2039
 6178SOL    HW229994   3.492   1.465   8.949  1.8383 -1.6093  0.4678
 6179SOL     OW29995   4.668   3.984   0.834  0.4141  0.3992  0.2509
 6179SOL    HW129996   0.041   3.989   0.828  0.4322  0.9718  1.0584
 6179SOL    HW229997   4.651   4.069   0.874  0.2458  0.5930 -0.2230
 6180SOL     OW29998   0.280   4.408   2.641  0.1159 -1.1401  0.2119
 6180SOL    HW129999   0.344   4.449   2.700 -0.1580  0.7580 -0.7880
 6180SOL    HW230000   0.200   4.455   2.666 -0.0008 -1.6064  0.7023
 6181SOL     OW30001   1.128   4.088   5.733 -0.3894  0.3355 -0.2728
 6181SOL    HW130002   1.175   4.108   5.652  0.1769 -2.5797 -0.6801
 6181SOL    HW230003   1.066   4.161   5.738 -1.4064 -0.4930 -0.8418
 6182SOL     OW30004   1.450   0.994  15.485  0.0216  0.4188 -0.5130
 6182SOL    HW130005   1.415   0.992  15.574  1.5458 -0.5802  0.0628
 6182SOL    HW230006   1.378   1.038  15.440  0.1437  0.0854 -1.0374
 6183SOL     OW30007   4.241   0.685  10.395 -0.5823  0.0072 -0.5402
 6183SOL    HW130008   4.246   0.762  10.452 -0.9900  0.1656 -0.7180
 6183SOL    HW230009   4.251   0.609  10.453 -1.9362 -0.3695 -0.7870
 6184SOL     OW30010   1.495   0.255   4.257  0.1269  0.4268 -0.3668
 6184SOL    HW130011   1.467   0.285   4.344  1.6631 -0.8780  0.5989
 6184SOL    HW230012   1.565   0.318   4.243 -1.2062  2.0821  0.3897
 6185SOL     OW30013   4.117   4.520  14.493  0.0775 -0.0106  0.5400
 6185SOL    HW130014   4.053   4.473  14.440 -2.2309  1.4019  2.0880
 6185SOL    HW230015   4.149   4.459  14.560 -0.0599 -1.8345 -1.0645
 6186SOL     OW30016   2.723   0.127   4.740 -0.0871 -0.4837 -0.4363
 6186SOL    HW130017   2.712   0.146   4.646  1.8173  0.4856 -0.4524
 6186SOL    HW230018   2.658   0.189   4.772  0.0578 -0.4449 -0.2243
 6187SOL     OW30019   2.667   0.824   8.274  0.5291 -0.1843  0.0066
 6187SOL    HW130020   2.747   0.812   8.325  1.6124  0.6424 -1.5089
 6187SOL    HW230021   2.646   0.732   8.292  1.0536 -0.4139 -0.5587
 6188SOL     OW30022   0.893   1.198   7.864  0.2850  0.0603 -0.4133
 6188SOL    HW130023   0.982   1.210   7.831 -0.1160  1.6076 -0.9628
 6188SOL    HW230024   0.906   1.193   7.959  1.8052  1.9808 -0.5014
 6189SOL     OW30025   0.101   0.279   4.552  0.2921 -0.3509  0.0226
 6189SOL    HW130026   0.130   0.287   4.643 -1.6918 -0.7869  0.7036
 6189SOL    HW230027   0.007   0.265   4.564  0.1577  0.9091  0.3832
 6190SOL     OW30028   3.006   0.177  10.151 -0.5986  1.0189 -0.3570
 6190SOL    HW130029   2.980   0.113  10.084  1.3119  2.4111 -2.4184
 6190SOL    HW230030   2.917   0.180  10.187 -0.3914 -1.3718  0.3950
 6191SOL     OW30031   1.628   3.318   1.171 -0.3683  0.0067  0.1625
 6191SOL    HW130032   1.608   3.262   1.245  1.0637  0.6971  1.0838
 6191SOL    HW230033   1.723   3.329   1.160  0.0070 -0.7517  2.6735
 6192SOL     OW30034   0.745   0.774   9.521  0.0619  0.3798 -0.3965
 6192SOL    HW130035   0.696   0.704   9.477 -2.7343  2.9781 -1.3297
 6192SOL    HW230036   0.820   0.766   9.461  1.0200  2.1448  0.5773
 6193SOL     OW30037   2.372   1.878   4.408  0.1089 -0.1296  0.7491
 6193SOL    HW130038   2.436   1.948   4.397 -1.1215  1.2659  2.4039
 6193SOL    HW230039   2.296   1.934   4.427 -0.0596  0.2690 -1.0690
 6194SOL     OW30040   1.081   0.097   4.953 -0.2481  0.3176  0.1367
 6194SOL    HW130041   1.059   0.033   5.020  0.1728 -0.4254 -0.4365
 6194SOL    HW230042   1.031   0.175   4.978  0.4778  0.1889  1.9851
 6195SOL     OW30043   0.831   2.147   0.448  0.3401 -0.8907  0.1667
 6195SOL    HW130044   0.810   2.136   0.355 -1.8197 -1.1562  0.6873
 6195SOL    HW230045   0.833   2.242   0.453  2.2282 -1.0641  2.6462
 6196SOL     OW30046   3.750   2.998   6.615  0.1328 -0.1009 -0.2755
 6196SOL    HW130047   3.688   3.003   6.688 -0.5647 -0.2848 -0.8600
 6196SOL    HW230048   3.704   3.040   6.542  1.5521  0.6853 -0.7233
 6197SOL     OW30049   3.300   1.803  15.138 -0.3832 -0.1611  0.4493
 6197SOL    HW130050   3.351   1.730  15.103 -1.5660 -0.1342 -1.3486
 6197SOL    HW230051   3.369   1.861  15.169  2.0029 -2.5985 -0.2922
 6198SOL     OW30052   3.145   3.400   8.299 -0.6702 -0.0429  0.1675
 6198SOL    HW130053   3.052   3.380   8.314 -0.8045  1.6268  1.5955
 6198SOL    HW230054   3.178   3.317   8.264  0.6186  0.7473 -0.4791
 6199SOL     OW30055   3.964   0.756  17.042  0.3831 -0.6204 -0.8202
 6199SOL    HW130056   3.962   0.826  16.977 -0.0238  0.2596  0.1472
 6199SOL    HW230057   4.028   0.705  16.993  2.9537  1.2245  0.5629
 6200SOL     OW30058   3.337   3.551  14.916 -0.3618  0.3616 -0.2453
 6200SOL    HW130059   3.392   3.568  14.993  0.2323  0.2207 -0.6369
 6200SOL    HW230060   3.364   3.618  14.854 -1.3806  1.0638  0.0619
 6201SOL     OW30061   1.794   1.219   3.001 -0.2465 -0.0413 -0.7530
 6201SOL    HW130062   1.782   1.291   3.063  1.0052 -1.1814  0.8287
 6201SOL    HW230063   1.744   1.144   3.034 -1.7301  1.3808  0.2208
 6202SOL     OW30064   2.757   3.453  11.884 -0.1796  0.3855  0.1497
 6202SOL    HW130065   2.810   3.439  11.806 -1.2295  0.5578 -0.5880
 6202SOL    HW230066   2.789   3.378  11.934  1.7025  2.2130  1.7237
 6203SOL     OW30067   2.156   4.064  12.961  0.4435  0.2223 -0.0026
 6203SOL    HW130068   2.109   4.140  12.926 -0.6225 -0.6652 -0.4998
 6203SOL    HW230069   2.241   4.088  12.924  0.7677  1.5007  1.5774
 6204SOL     OW30070   2.833   1.588  10.677 -0.0631  0.1616 -0.3072
 6204SOL    HW130071   2.824   1.562  10.768 -0.3656  0.0432 -0.3714
 6204SOL    HW230072   2.911   1.644  10.673  0.0511  0.0161 -0.1150
 6205SOL     OW30073   1.918   4.709   3.855 -0.5964  0.1614 -0.4602
 6205SOL    HW130074   1.905   4.687   3.762 -0.6678  0.8821 -0.6211
 6205SOL    HW230075   1.997   0.039   3.850 -0.1075 -0.1849  3.5475
 6206SOL     OW30076   0.562   0.992   5.024  0.1417  0.4688 -0.5607
 6206SOL    HW130077   0.510   0.913   5.036  1.6631 -0.5421 -0.6647
 6206SOL    HW230078   0.575   0.979   4.930 -0.5564  0.6065 -0.6762
 6207SOL     OW30079   2.747   4.648   9.149  0.3977 -0.1780  0.2818
 6207SOL    HW130080   2.670   4.633   9.205  0.3235 -0.6702  0.0527
 6207SOL    HW230081   2.713   4.709   9.083  1.0283 -0.4356 -0.2851
 6208SOL     OW30082   2.515   1.421  10.163 -0.1688 -0.3097 -0.1850
 6208SOL    HW130083   2.511   1.345  10.106  0.7138  1.3876 -2.5159
 6208SOL    HW230084   2.494   1.486  10.095 -0.5092  0.8109  0.9788
 6209SOL     OW30085   1.973   3.331   2.866 -0.3903 -0.3195  0.3742
 6209SOL    HW130086   1.961   3.240   2.896 -1.9980 -0.4715 -0.7371
 6209SOL    HW230087   1.909   3.338   2.796  2.4459 -1.3064 -2.3059
 6210SOL     OW30088   3.748   0.886   3.558 -0.4050  0.1446 -0.0384
 6210SOL    HW130089   3.815   0.927   3.611 -0.1204  2.1080 -1.9023
 6210SOL    HW230090   3.674   0.902   3.617 -0.3061  0.3492  0.0276
 6211SOL     OW30091   4.478   0.333   5.293 -0.0116 -0.0938 -0.8465
 6211SOL    HW130092   4.546   0.397   5.313 -1.1463  1.1759 -1.0591
 6211SOL    HW230093   4.530   0.259   5.263 -1.0058 -1.1208 -0.0725
 6212SOL     OW30094   4.002   4.244   2.690 -0.2774  0.1912  0.1122
 6212SOL    HW130095   4.070   4.310   2.705 -0.9029  1.1892 -1.5132
 6212SOL    HW230096   4.068   4.175   2.692  0.9796  1.4047  0.4963
 6213SOL     OW30097   3.078   2.279   3.382  0.1262 -0.1009  0.0240
 6213SOL    HW130098   3.132   2.220   3.329 -0.4873 -0.8439  0.2241
 6213SOL    HW230099   3.141   2.325   3.438  1.1879  0.1464 -1.3687
 6214SOL     OW30100   0.648   3.379   9.117 -0.0035  0.2468  0.3731
 6214SOL    HW130101   0.703   3.390   9.194  0.1548 -2.2999  0.6434
 6214SOL    HW230102   0.675   3.290   9.091 -2.0540 -0.4184  0.5219
 6215SOL     OW30103   0.999   0.257   3.216  0.4162  0.0009 -0.0470
 6215SOL    HW130104   0.938   0.219   3.279  0.2203  2.0087  1.0022
 6215SOL    HW230105   1.033   0.329   3.270 -3.9673  0.6488  1.8055
 6216SOL     OW30106   0.186   1.019  10.132  0.0930 -0.1605  0.0594
 6216SOL    HW130107   0.210   1.098  10.083  1.6062  0.1127  1.2458
 6216SOL    HW230108   0.266   0.968  10.118  1.0038  1.3228 -0.0660
 6217SOL     OW30109   1.139   2.132   6.442  0.1655 -0.3151 -0.5114
 6217SOL    HW130110   1.068   2.164   6.497 -0.9111 -1.0306 -1.4992
 6217SOL    HW230111   1.159   2.206   6.384  1.1370 -0.0515  0.1508
 6218SOL     OW30112   0.947   4.140   1.994 -0.1624  0.3899 -0.3999
 6218SOL    HW130113   0.912   4.229   1.991 -1.5464 -0.0570  2.5277
 6218SOL    HW230114   1.015   4.165   2.057 -0.9659  0.8086  0.2992
 6219SOL     OW30115   3.051   3.188   6.186  0.6999 -0.1492 -0.3777
 6219SOL    HW130116   3.131   3.154   6.226 -0.7594 -2.3694  0.6805
 6219SOL    HW230117   2.986   3.118   6.184 -0.7624  1.1439  1.3625
 6220SOL     OW30118   1.050   1.105  10.958 -0.6212 -0.3837 -0.2922
 6220SOL    HW130119   1.067   1.141  10.870  4.0562 -0.2527  0.6695
 6220SOL    HW230120   1.000   1.179  10.993  0.5485  0.5576 -0.5657
 6221SOL     OW30121   2.586   1.950   5.688 -0.3024  0.1989 -0.0450
 6221SOL    HW130122   2.602   1.864   5.726 -0.1522  0.0139 -0.5212
 6221SOL    HW230123   2.604   2.009   5.761  0.4704 -0.6409  0.4273
 6222SOL     OW30124   4.581   1.935   1.437  0.1078 -0.6036 -0.0924
 6222SOL    HW130125   4.661   1.899   1.398  0.0274  0.1060 -0.9283
 6222SOL    HW230126   4.602   2.028   1.447 -1.0353 -0.5135  1.3639
 6223SOL     OW30127   1.295   1.489   8.242 -0.2114  0.3142  0.1877
 6223SOL    HW130128   1.338   1.404   8.244 -1.5363 -0.3852 -0.8536
 6223SOL    HW230129   1.219   1.470   8.297 -1.4147  1.0477 -1.2006
 6224SOL     OW30130   4.005   3.046   8.780  0.2066  0.8695  0.3743
 6224SOL    HW130131   4.086   3.060   8.829 -0.3993  0.0837  1.6150
 6224SOL    HW230132   4.006   2.950   8.777  0.0765  0.8647  0.4949
 6225SOL     OW30133   1.469   1.010   3.388 -0.1674  0.1598  0.2172
 6225SOL    HW130134   1.514   1.055   3.317 -1.8498  2.0965  0.3860
 6225SOL    HW230135   1.520   1.042   3.462 -0.7096  0.3988  0.4895
 6226SOL     OW30136   1.751   1.578   4.050 -0.2021  0.5436 -0.0623
 6226SOL    HW130137   1.684   1.553   4.113 -0.5007 -0.6002 -0.8219
 6226SOL    HW230138   1.737   1.672   4.055  1.1988  0.6871  1.1199
 6227SOL     OW30139   1.735   4.396   2.842 -0.8613 -0.5699  0.6772
 6227SOL    HW130140   1.797   4.449   2.791 -1.8189 -0.8367 -0.7617
 6227SOL    HW230141   1.722   4.327   2.778 -1.3620 -1.0892  1.3401
 6228SOL     OW30142   1.009   0.644  11.854 -0.2124 -0.1606 -0.1670
 6228SOL    HW130143   1.074   0.584  11.890 -1.1671 -0.6713  0.7191
 6228SOL    HW230144   1.060   0.689  11.787 -1.5846  1.6490  0.0071
 6229SOL     OW30145   2.137   3.288   8.990 -0.0966  0.3071  0.3752
 6229SOL    HW130146   2.046   3.317   8.989  0.0092  0.6891  1.7710
 6229SOL    HW230147   2.181   3.356   8.939  1.4081 -1.7167 -1.0362
 6230SOL     OW30148   4.561   0.086   3.024 -0.5524  0.5130 -0.9087
 6230SOL    HW130149   4.547   0.049   3.111 -0.9082  1.8170 -0.4064
 6230SOL    HW230150   4.513   0.169   3.027 -1.0328  0.2038 -0.2468
 6231SOL     OW30151   3.304   4.231   1.173 -0.1902  0.1690  0.0527
 6231SOL    HW130152   3.289   4.213   1.266 -1.9651  0.1393 -0.2427
 6231SOL    HW230153   3.214   4.245   1.143 -0.2973  1.7338  1.0848
 6232SOL     OW30154   3.716   2.947  10.072  0.2116 -0.1609 -0.1536
 6232SOL    HW130155   3.711   2.851  10.070  0.8689 -0.1596 -1.7783
 6232SOL    HW230156   3.631   2.966  10.033 -0.6894  0.3211  2.0256
 6233SOL     OW30157   3.230   4.181   7.834  0.0231  0.2244 -0.5963
 6233SOL    HW130158   3.303   4.236   7.864  1.1624 -0.5774 -1.8851
 6233SOL    HW230159   3.153   4.220   7.876 -1.5695 -2.1729 -1.3422
 6234SOL     OW30160   1.119   3.901   7.860  0.0749 -0.0450  0.3301
 6234SOL    HW130161   1.071   3.973   7.902 -2.5386 -2.0752  0.8317
 6234SOL    HW230162   1.176   3.947   7.797  0.3046 -0.6163  0.1246
 6235SOL     OW30163   3.362   2.686   3.236 -0.3810 -0.9367  0.1375
 6235SOL    HW130164   3.312   2.606   3.225  0.1662 -1.2164 -0.3342
 6235SOL    HW230165   3.324   2.734   3.309 -1.0313  0.7113 -1.2747
 6236SOL     OW30166   1.277   1.522   1.975  0.0538  0.2219 -0.5748
 6236SOL    HW130167   1.325   1.441   1.987  1.5303  1.5485  2.6913
 6236SOL    HW230168   1.214   1.500   1.907 -1.5264 -3.1358  1.9805
 6237SOL     OW30169   2.978   0.450  11.709  0.1327  0.2901  0.1613
 6237SOL    HW130170   3.008   0.503  11.636 -0.0107 -0.3582 -0.3659
 6237SOL    HW230171   3.014   0.364  11.687  1.4026  0.7320  0.5480
 6238SOL     OW30172   4.303   1.595   4.358 -0.5284 -0.2794  0.2530
 6238SOL    HW130173   4.237   1.526   4.364  0.4291 -1.3684 -2.0815
 6238SOL    HW230174   4.369   1.541   4.316 -0.7845  1.2487 -2.0739
 6239SOL     OW30175   4.505   2.990   6.573  0.5090 -0.3353  0.3866
 6239SOL    HW130176   4.503   3.052   6.499  1.9536 -1.0063 -0.2099
 6239SOL    HW230177   4.421   3.014   6.613  0.2508 -0.3480 -0.1426
 6240SOL     OW30178   2.891   2.248  14.009 -0.3807 -0.1811 -0.0371
 6240SOL    HW130179   2.906   2.172  14.066 -1.2367  0.0622  0.5249
 6240SOL    HW230180   2.859   2.200  13.933 -2.3581 -2.0037  1.9288
 6241SOL     OW30181   1.746   2.031   9.232  0.2667  0.1870 -0.4387
 6241SOL    HW130182   1.699   2.073   9.160  3.3269  0.8718 -2.0325
 6241SOL    HW230183   1.700   1.948   9.244 -2.5938  1.7416 -0.6663
 6242SOL     OW30184   1.697   2.410   4.506 -0.3037 -0.2847 -0.9278
 6242SOL    HW130185   1.610   2.394   4.542  0.0973 -0.7619 -0.1652
 6242SOL    HW230186   1.678   2.488   4.454  0.6577  0.0303 -0.8049
 6243SOL     OW30187   1.687   0.868   6.203 -0.6680  0.0324 -0.6125
 6243SOL    HW130188   1.765   0.899   6.251  0.7040 -2.1503 -1.4492
 6243SOL    HW230189   1.713   0.879   6.111  1.4747  1.8623  0.1825
 6244SOL     OW30190   3.777   2.351   6.419  1.0477  0.2511  0.1427
 6244SOL    HW130191   3.762   2.263   6.385  0.1336  0.0655  1.0383
 6244SOL    HW230192   3.686   2.381   6.415  1.0305  0.1835  0.0097
 6245SOL     OW30193   4.484   4.451  10.112 -0.7102  0.0340  0.3457
 6245SOL    HW130194   4.473   4.451  10.017 -0.5891  0.8407  0.3295
 6245SOL    HW230195   4.494   4.358  10.134  4.3713  0.4419 -0.1597
 6246SOL     OW30196   3.192   0.428   4.804  0.4440 -0.5952 -0.1789
 6246SOL    HW130197   3.173   0.339   4.772  0.2112 -0.8016  0.5330
 6246SOL    HW230198   3.160   0.473   4.726  1.7444  2.1441  0.8909
 6247SOL     OW30199   0.909   0.653   7.544  0.0344 -0.5056  0.0023
 6247SOL    HW130200   0.826   0.637   7.588 -0.2731  2.4125  0.4599
 6247SOL    HW230201   0.878   0.717   7.480  2.3544  0.7867  0.1457
 6248SOL     OW30202   0.188   0.477   8.378  0.3512 -0.0900  0.0396
 6248SOL    HW130203   0.144   0.439   8.302 -0.1452  1.2224 -0.3347
 6248SOL    HW230204   0.274   0.487   8.337  1.6244 -0.6407  2.6338
 6249SOL     OW30205   1.919   1.257   3.327 -0.7863  0.1948  0.3271
 6249SOL    HW130206   1.985   1.267   3.397 -1.5784  2.9511  0.6604
 6249SOL    HW230207   1.975   1.254   3.249 -0.8450  0.8757  0.2603
 6250SOL     OW30208   1.470   0.556  13.731 -0.2726 -0.4758  0.4817
 6250SOL    HW130209   1.385   0.599  13.739  0.6487  1.0926  1.7417
 6250SOL    HW230210   1.447   0.515  13.648 -2.0992 -0.3303  0.9036
 6251SOL     OW30211   0.505   1.987   5.906 -0.3434 -0.3093  0.5106
 6251SOL    HW130212   0.532   1.996   5.997  0.4360 -2.2909  0.4750
 6251SOL    HW230213   0.434   2.050   5.900  1.2292  1.4316  0.1605
 6252SOL     OW30214   3.557   0.819   5.726 -0.1223 -0.2795  0.6141
 6252SOL    HW130215   3.571   0.841   5.634 -1.3801  1.8546  0.9238
 6252SOL    HW230216   3.619   0.747   5.739  0.2097  0.1756  1.6170
 6253SOL     OW30217   0.619   1.427   9.557 -0.6329  0.0210  0.8182
 6253SOL    HW130218   0.689   1.401   9.618 -0.6287  0.2054  0.8909
 6253SOL    HW230219   0.630   1.522   9.554  0.0128 -0.0273  1.7285
 6254SOL     OW30220   1.446   4.553  16.655  0.3472 -0.2706  0.5259
 6254SOL    HW130221   1.482   4.472  16.619  1.5021 -0.2197  1.5944
 6254SOL    HW230222   1.354   4.537  16.632 -0.4979  1.1435  2.9423
 6255SOL     OW30223   0.270   4.701  11.586  0.1183  0.1179  0.1094
 6255SOL    HW130224   0.355   4.660  11.598 -0.9619 -2.2139 -0.1588
 6255SOL    HW230225   0.254   4.718  11.679 -0.5640 -1.9477  0.3711
 6256SOL     OW30226   2.516   4.162   6.191 -0.0230 -0.1655  0.1393
 6256SOL    HW130227   2.558   4.191   6.273 -0.2930 -0.6081  0.4368
 6256SOL    HW230228   2.591   4.118   6.152 -0.7102 -1.0047 -0.2060
 6257SOL     OW30229   1.803   3.825   6.966 -0.7047 -0.1740 -0.4042
 6257SOL    HW130230   1.784   3.733   6.945  3.5149 -1.1524  0.1017
 6257SOL    HW230231   1.828   3.864   6.882  1.0633 -2.0819 -0.7605
 6258SOL     OW30232   3.702   0.715   9.649  0.1479  0.6926  0.5824
 6258SOL    HW130233   3.638   0.715   9.577 -0.3857  0.9185  1.0584
 6258SOL    HW230234   3.682   0.799   9.690 -0.3544  0.8931 -0.0605
 6259SOL     OW30235   1.417   0.641   6.893  0.2297  0.0854 -0.7778
 6259SOL    HW130236   1.364   0.566   6.919 -1.3050  0.7207 -2.0263
 6259SOL    HW230237   1.411   0.632   6.798  1.5967  1.0132 -0.9443
 6260SOL     OW30238   1.169   1.352  16.543  0.2948  0.1303 -0.4696
 6260SOL    HW130239   1.187   1.410  16.617 -1.8091  2.4954 -1.7940
 6260SOL    HW230240   1.203   1.277  16.591 -0.1322 -0.7893 -1.6075
 6261SOL     OW30241   1.545   2.935   2.559  0.3656 -0.1283 -0.5335
 6261SOL    HW130242   1.511   2.848   2.581 -1.6773  0.4246 -1.5250
 6261SOL    HW230243   1.483   2.999   2.595  0.3603  0.9771 -2.5177
 6262SOL     OW30244   0.614   2.797   6.619  0.0351 -0.7898  0.2952
 6262SOL    HW130245   0.639   2.801   6.527 -0.3104  0.3503  0.2482
 6262SOL    HW230246   0.653   2.881   6.645 -0.4240 -0.4198 -0.2304
 6263SOL     OW30247   2.042   1.169   9.368 -0.1405  0.5514 -0.3686
 6263SOL    HW130248   2.065   1.240   9.428 -1.4150 -0.2468  1.0666
 6263SOL    HW230249   2.049   1.091   9.423 -3.1952  0.3821 -0.2311
 6264SOL     OW30250   3.548   2.494   2.782 -0.1017 -0.2526  0.3151
 6264SOL    HW130251   3.628   2.445   2.799 -0.4867 -0.6871  0.8479
 6264SOL    HW230252   3.487   2.429   2.816  1.3543 -1.8188 -0.0449
 6265SOL     OW30253   4.306   0.580   5.417 -0.1877  0.1435  0.2329
 6265SOL    HW130254   4.336   0.581   5.508  0.1002  0.8485  0.1258
 6265SOL    HW230255   4.211   0.585   5.427 -0.0554  0.6157  1.2817
 6266SOL     OW30256   2.687   1.187  14.843  0.7879 -0.4128  0.7762
 6266SOL    HW130257   2.780   1.193  14.865  0.5589  1.8449  1.1332
 6266SOL    HW230258   2.647   1.217  14.925 -1.5890 -1.0390 -0.1712
 6267SOL     OW30259   2.673   1.686   3.361 -0.1373  0.5560  0.1977
 6267SOL    HW130260   2.599   1.626   3.369 -0.4948  1.1275  1.1999
 6267SOL    HW230261   2.694   1.663   3.271  1.6438  1.3983  0.4091
 6268SOL     OW30262   2.588   3.241   7.196  0.3194  0.5433  0.2656
 6268SOL    HW130263   2.562   3.151   7.175  2.7679  0.2331 -1.3927
 6268SOL    HW230264   2.532   3.277   7.128  0.3468  0.2682  0.0973
 6269SOL     OW30265   0.350   1.765   5.375 -0.7195 -0.6015  0.6485
 6269SOL    HW130266   0.351   1.744   5.282  0.4584 -0.0390  0.5430
 6269SOL    HW230267   0.323   1.856   5.372 -1.1763 -0.6977  1.6169
 6270SOL     OW30268   0.882   3.152   6.244 -0.1163 -0.1820 -0.2770
 6270SOL    HW130269   0.830   3.228   6.218  0.0472  0.5322  1.4634
 6270SOL    HW230270   0.926   3.139   6.160  0.7174  2.1245 -0.1853
 6271SOL     OW30271   0.559   1.661   4.130  0.6068  0.4193 -0.7569
 6271SOL    HW130272   0.615   1.673   4.207 -0.9862 -0.5450  0.5535
 6271SOL    HW230273   0.536   1.751   4.108  1.7148  1.3392  1.7962
 6272SOL     OW30274   0.118   1.943   6.954 -0.2622 -0.4220  0.4434
 6272SOL    HW130275   0.183   2.013   6.966  0.1815 -0.2378 -3.1517
 6272SOL    HW230276   0.107   1.957   6.860 -1.6292 -0.0528  0.6555
 6273SOL     OW30277   3.024   0.434   4.564 -0.2114 -0.4471 -0.4345
 6273SOL    HW130278   3.039   0.340   4.548 -0.8770 -0.3268 -1.7803
 6273SOL    HW230279   2.930   0.447   4.550 -0.3423  0.0048  0.8330
 6274SOL     OW30280   4.533   1.588   8.732  0.1958 -0.7502  0.8340
 6274SOL    HW130281   4.485   1.534   8.796  2.2949 -3.1628  0.3614
 6274SOL    HW230282   4.584   1.639   8.795  0.8730 -2.2260  1.4755
 6275SOL     OW30283   2.177   4.461  16.495  0.3548  0.3003 -0.4067
 6275SOL    HW130284   2.251   4.423  16.543 -1.3055 -3.6150 -1.0088
 6275SOL    HW230285   2.206   4.550  16.474 -0.2691  1.1160  2.2215
 6276SOL     OW30286   2.589   1.594  12.113  0.1636  0.0683  0.1004
 6276SOL    HW130287   2.580   1.628  12.202 -0.0068 -2.0565  0.9089
 6276SOL    HW230288   2.515   1.533  12.109  0.5966 -0.3372 -2.0015
 6277SOL     OW30289   3.561   0.879   8.341 -0.0327  0.0368 -0.5357
 6277SOL    HW130290   3.554   0.902   8.434  2.2014 -0.7670 -0.1848
 6277SOL    HW230291   3.647   0.839   8.350  0.1021  0.2107 -1.0007
 6278SOL     OW30292   2.729   1.091   3.620 -0.2347 -0.0582  0.2326
 6278SOL    HW130293   2.675   1.103   3.697 -1.1019 -1.9595 -0.0805
 6278SOL    HW230294   2.732   0.995   3.613 -0.5228  0.0372 -1.2810
 6279SOL     OW30295   3.100   2.037   8.151 -0.4833 -0.1950 -0.0076
 6279SOL    HW130296   3.045   2.094   8.098 -0.6581  0.3380  0.7547
 6279SOL    HW230297   3.089   2.074   8.239  2.0529 -1.2182  0.7667
 6280SOL     OW30298   4.063   1.849   1.241  0.5810 -0.4581  0.5964
 6280SOL    HW130299   3.983   1.799   1.256  1.2037 -0.3690  4.2994
 6280SOL    HW230300   4.045   1.912   1.312  0.6018  0.4949 -0.2454
 6281SOL     OW30301   2.010   2.011   5.520  0.5254 -0.2193 -0.1075
 6281SOL    HW130302   2.026   2.075   5.451  1.0526  0.6746  0.8497
 6281SOL    HW230303   1.986   1.947   5.453 -0.9810  0.0029  0.2253
 6282SOL     OW30304   4.674   3.398   2.491  0.0010  0.3153 -0.8190
 6282SOL    HW130305   4.688   3.458   2.564  2.1269 -1.7924  0.4912
 6282SOL    HW230306   0.036   3.397   2.446  0.4590 -0.1053  0.0483
 6283SOL     OW30307   1.335   0.984   6.379  0.3480 -0.1598  0.0587
 6283SOL    HW130308   1.343   1.020   6.467  0.3479 -0.3075  0.1199
 6283SOL    HW230309   1.403   0.916   6.380  0.7098  0.1818 -1.1918
 6284SOL     OW30310   1.606   2.238   3.157  0.8191  0.1300  0.1973
 6284SOL    HW130311   1.649   2.217   3.075 -0.7772 -0.5965 -0.4572
 6284SOL    HW230312   1.652   2.321   3.170 -1.3985  1.2157  1.2356
 6285SOL     OW30313   2.084   0.433  13.984 -0.7151 -0.3996 -0.2341
 6285SOL    HW130314   2.083   0.439  13.888 -0.7388  1.7857 -0.1003
 6285SOL    HW230315   2.026   0.359  14.002 -0.5934 -0.3717  0.2640
 6286SOL     OW30316   1.974   1.609   0.580 -0.7010  0.1949  0.6137
 6286SOL    HW130317   1.936   1.612   0.667 -1.8265  3.0348  0.0195
 6286SOL    HW230318   1.899   1.571   0.533 -0.6107 -0.3100  0.8769
 6287SOL     OW30319   0.559   4.377   0.723 -0.3979 -0.4707 -0.0394
 6287SOL    HW130320   0.602   4.413   0.801 -0.7505  0.7459 -0.4047
 6287SOL    HW230321   0.505   4.454   0.704  2.4462  1.1588 -1.5009
 6288SOL     OW30322   0.130   4.525  17.345 -0.3723  0.6595 -0.0263
 6288SOL    HW130323   0.095   4.535  17.434 -0.6354 -3.0236  0.2909
 6288SOL    HW230324   0.152   4.433  17.334 -1.2887  0.3489  0.7508
 6289SOL     OW30325   1.516   4.116   0.824 -0.2470 -0.7935 -0.2223
 6289SOL    HW130326   1.514   4.206   0.793  3.1700 -0.4498  0.5219
 6289SOL    HW230327   1.422   4.098   0.817 -0.5007  0.5921 -0.2697
 6290SOL     OW30328   1.394   2.209   3.781 -0.0530  0.4059  0.6973
 6290SOL    HW130329   1.374   2.297   3.748  0.1704 -0.5749 -1.9801
 6290SOL    HW230330   1.318   2.202   3.839  0.6876 -2.1586  1.3390
 6291SOL     OW30331   2.796   2.973   4.284  0.2518  1.0408  0.0206
 6291SOL    HW130332   2.785   2.915   4.209 -1.1978  0.0159  1.0265
 6291SOL    HW230333   2.703   2.989   4.302  0.9074  3.1042  1.5730
 6292SOL     OW30334   0.037   1.905  13.314  0.7319 -0.1655  0.7178
 6292SOL    HW130335   0.062   1.963  13.242  0.3654  0.7202  1.3147
 6292SOL    HW230336   0.001   1.976  13.367  1.0172  1.6332 -1.4677
 6293SOL     OW30337   2.691   1.464   1.960  0.2799 -0.7484  0.4705
 6293SOL    HW130338   2.636   1.441   1.885  0.8316 -0.9909  0.1438
 6293SOL    HW230339   2.772   1.414   1.951  0.2614 -0.6335 -0.3604
 6294SOL     OW30340   2.724   0.534   1.565  0.2761  0.1078 -0.0033
 6294SOL    HW130341   2.684   0.470   1.507  0.3223  1.5724 -1.6550
 6294SOL    HW230342   2.653   0.598   1.570  1.5716  1.5865 -0.0777
 6295SOL     OW30343   1.232   0.435   6.941 -0.2234 -0.2945  0.8096
 6295SOL    HW130344   1.213   0.344   6.919  1.3896 -0.5910  0.6987
 6295SOL    HW230345   1.260   0.422   7.032  0.0039 -2.0221  0.4841
 6296SOL     OW30346   4.217   1.145   6.718 -0.0007 -0.4279  0.3780
 6296SOL    HW130347   4.157   1.201   6.668  0.4056 -0.2947  0.0466
 6296SOL    HW230348   4.202   1.056   6.687  0.3344 -1.5662  3.4529
 6297SOL     OW30349   2.939   0.812  14.257  0.1546 -0.3236  0.9029
 6297SOL    HW130350   2.878   0.747  14.291 -0.9445  0.4174  0.3464
 6297SOL    HW230351   3.001   0.758  14.207  0.1254 -0.6079  1.1753
 6298SOL     OW30352   2.082   2.273  15.407 -0.2207 -0.1583 -0.3424
 6298SOL    HW130353   1.994   2.247  15.435  1.7391 -4.0330  2.2632
 6298SOL    HW230354   2.070   2.355  15.359 -3.9748 -0.9963 -0.7788
 6299SOL     OW30355   1.339   0.710   7.816  0.1015  0.1120 -0.0759
 6299SOL    HW130356   1.307   0.761   7.890 -1.4557  0.1361 -0.7581
 6299SOL    HW230357   1.256   0.679   7.780 -0.2358  0.3390  0.5107
 6300SOL     OW30358   3.667   3.134   4.003 -0.5378  0.0363 -0.4384
 6300SOL    HW130359   3.760   3.122   3.984 -0.0324  0.3692  1.8199
 6300SOL    HW230360   3.631   3.097   3.923 -0.3533 -0.9408 -0.0799
 6301SOL     OW30361   3.501   1.944   2.454 -1.0121  0.1539  0.4798
 6301SOL    HW130362   3.580   1.975   2.410  1.4903 -2.1898  3.3309
 6301SOL    HW230363   3.447   1.945   2.375  0.0404 -1.8619 -0.2436
 6302SOL     OW30364   3.725   1.326   9.713 -0.1354 -0.2001  0.7169
 6302SOL    HW130365   3.679   1.343   9.630 -0.6574  0.1533  1.0754
 6302SOL    HW230366   3.765   1.242   9.691 -1.3434 -0.6804  0.3456
 6303SOL     OW30367   4.074   3.809   2.729  0.2664  0.2838 -0.0476
 6303SOL    HW130368   4.001   3.838   2.675  3.0916  0.6304 -3.6726
 6303SOL    HW230369   4.107   3.726   2.694  2.5965  0.9763  0.5238
 6304SOL     OW30370   1.756   1.990   8.812 -0.6413 -0.3120 -0.0816
 6304SOL    HW130371   1.774   1.931   8.885 -0.6680  0.4189  0.5163
 6304SOL    HW230372   1.685   1.941   8.770 -0.9238 -0.5422  0.6628
 6305SOL     OW30373   3.136   0.914   2.737 -0.0549  0.2340  0.3889
 6305SOL    HW130374   3.179   0.936   2.820  1.7930 -3.3552  0.3728
 6305SOL    HW230375   3.167   0.986   2.682 -0.9223 -0.5574 -1.1209
 6306SOL     OW30376   0.392   1.657   9.825  0.3149  0.0031 -0.0240
 6306SOL    HW130377   0.355   1.699   9.902  0.0740 -1.0797  0.4521
 6306SOL    HW230378   0.483   1.675   9.848  0.9058  0.5394 -2.7179
 6307SOL     OW30379   2.840   2.353   3.269 -0.1185  0.5965 -0.4865
 6307SOL    HW130380   2.922   2.343   3.316  1.2682 -1.8390 -3.3837
 6307SOL    HW230381   2.781   2.343   3.344  0.0504  3.3199 -0.0186
 6308SOL     OW30382   0.911   1.084   1.752  0.4551 -0.5083 -0.2514
 6308SOL    HW130383   0.943   0.998   1.779 -0.7176 -0.7712  0.2991
 6308SOL    HW230384   0.957   1.139   1.815 -0.0214  0.2457 -0.5613
 6309SOL     OW30385   4.352   4.144   2.921 -0.1480 -0.7160 -0.0837
 6309SOL    HW130386   4.330   4.214   2.983 -1.1534 -2.3060  1.3321
 6309SOL    HW230387   4.446   4.147   2.939 -0.4900  0.6114  1.5027
 6310SOL     OW30388   0.495   4.280  11.468  0.3908 -0.5101  0.9320
 6310SOL    HW130389   0.447   4.282  11.385 -0.6246 -2.4565  1.4826
 6310SOL    HW230390   0.471   4.200  11.514  2.2837 -0.6791  1.6387
 6311SOL     OW30391   3.706   3.963   2.117  0.2273  0.9438 -0.5050
 6311SOL    HW130392   3.698   4.012   2.198  0.0718 -1.7119  1.0810
 6311SOL    HW230393   3.619   3.972   2.077  0.1368  0.5109 -0.4008
 6312SOL     OW30394   1.344   3.565   3.245  0.3504 -0.3104 -0.5010
 6312SOL    HW130395   1.330   3.575   3.339 -1.9382 -0.4199 -0.8167
 6312SOL    HW230396   1.434   3.593   3.229  0.5707 -0.7243 -0.0004
 6313SOL     OW30397   3.686   1.721   6.619 -0.3498  0.3448 -0.4471
 6313SOL    HW130398   3.612   1.774   6.646 -0.1491 -0.8620  2.4170
 6313SOL    HW230399   3.713   1.763   6.537 -0.2287 -0.0204 -0.5967
 6314SOL     OW30400   1.732   1.879   4.614  1.0988 -0.0998 -0.3123
 6314SOL    HW130401   1.735   1.974   4.624 -1.2095  0.2329 -2.5863
 6314SOL    HW230402   1.791   1.854   4.685  1.9844  0.8632 -0.6984
 6315SOL     OW30403   1.391   0.513   6.605  0.4079  0.3890  0.7939
 6315SOL    HW130404   1.338   0.539   6.530 -0.1938  2.5402  1.9619
 6315SOL    HW230405   1.369   0.424   6.632  0.1316  0.4842  0.8852
 6316SOL     OW30406   3.072   3.291   9.637 -0.5990 -0.0784 -0.1899
 6316SOL    HW130407   3.119   3.209   9.652 -0.5465 -0.2738 -1.3673
 6316SOL    HW230408   3.073   3.284   9.541  0.1939 -0.5531 -0.1471
 6317SOL     OW30409   1.434   3.142   8.963  0.4198  0.3020 -0.1653
 6317SOL    HW130410   1.446   3.235   8.946 -1.2387  0.7557  1.0983
 6317SOL    HW230411   1.528   3.122   8.968  0.4283  0.5990  0.9271
 6318SOL     OW30412   0.922   1.473  11.623 -0.0020 -0.9661 -0.4702
 6318SOL    HW130413   0.941   1.565  11.604 -2.8021 -0.6085 -1.4326
 6318SOL    HW230414   0.947   1.437  11.538  1.0512  1.1022 -1.0440
 6319SOL     OW30415   3.004   3.309   4.011 -0.2758 -0.4233 -0.4353
 6319SOL    HW130416   2.995   3.219   3.979  2.6081 -1.2689  1.2032
 6319SOL    HW230417   2.912   3.314   4.036 -0.3818  1.1968 -1.0943
 6320SOL     OW30418   1.418   2.897   9.467 -0.0153  0.3180 -0.5470
 6320SOL    HW130419   1.346   2.835   9.455  0.2863 -0.0699 -0.3377
 6320SOL    HW230420   1.470   2.863   9.540 -0.2500 -0.3127 -0.6738
 6321SOL     OW30421   4.647   3.830   2.928  0.0435  0.0294  0.4230
 6321SOL    HW130422   4.579   3.838   2.862  0.8125  0.9690 -0.2560
 6321SOL    HW230423   4.602   3.844   3.011 -4.3075 -1.5888 -1.6573
 6322SOL     OW30424   4.698   3.961   8.022 -0.6349  0.2178 -0.2733
 6322SOL    HW130425   4.608   3.969   8.054  0.2938  2.7128  1.7021
 6322SOL    HW230426   4.695   3.974   7.927  0.8337 -0.0437 -0.3463
 6323SOL     OW30427   1.530   0.728   2.346  0.1655  0.1013  0.5421
 6323SOL    HW130428   1.567   0.812   2.374  2.6071 -0.7328 -0.1659
 6323SOL    HW230429   1.587   0.709   2.271 -1.4261  1.2948 -0.9800
 6324SOL     OW30430   0.555   3.270  11.863  0.0529  0.7756  0.0286
 6324SOL    HW130431   0.545   3.206  11.794 -1.8342  0.9288  0.1392
 6324SOL    HW230432   0.627   3.222  11.903 -1.4398  0.1529  2.0022
 6325SOL     OW30433   1.797   3.832   5.780  0.3591  0.3544 -0.5689
 6325SOL    HW130434   1.849   3.913   5.788  1.0990 -0.2607  0.7478
 6325SOL    HW230435   1.812   3.808   5.689 -1.7653 -1.5013 -0.3973
 6326SOL     OW30436   1.163   0.981  12.601 -0.3923 -0.0431  0.0871
 6326SOL    HW130437   1.115   1.053  12.561  0.2768 -0.1126 -0.8445
 6326SOL    HW230438   1.109   0.981  12.680  0.0864  0.8067  0.4019
 6327SOL     OW30439   3.088   3.048   8.871 -0.1912 -0.3240 -0.0723
 6327SOL    HW130440   3.173   3.007   8.853  0.0141 -0.9506  2.2688
 6327SOL    HW230441   3.115   3.139   8.866  3.2469 -1.2721  1.2097
 6328SOL     OW30442   0.815   3.003   6.567 -0.2927  0.6152 -0.3256
 6328SOL    HW130443   0.889   2.988   6.508 -1.7127  0.7425 -2.1524
 6328SOL    HW230444   0.849   3.067   6.629 -0.3064 -0.7033  1.0198
 6329SOL     OW30445   2.765   2.137   1.162  0.5850 -0.0304  0.0286
 6329SOL    HW130446   2.784   2.223   1.124 -0.9351  0.7331  1.0102
 6329SOL    HW230447   2.812   2.073   1.108 -0.0692 -0.5280  0.0444
 6330SOL     OW30448   3.308   1.648   5.294 -0.2566  0.6302  0.2190
 6330SOL    HW130449   3.307   1.583   5.365 -1.3432 -0.3892 -0.7354
 6330SOL    HW230450   3.236   1.609   5.245 -0.3173  0.7970  0.1766
 6331SOL     OW30451   2.697   3.867   2.745 -0.4548  0.1205  0.4543
 6331SOL    HW130452   2.709   3.782   2.702 -0.5537 -0.6294  1.8703
 6331SOL    HW230453   2.742   3.923   2.682 -0.4783 -0.1245  0.2208
 6332SOL     OW30454   2.140   3.848   5.937 -0.4508 -0.2358 -0.5458
 6332SOL    HW130455   2.089   3.921   5.902 -1.2507 -0.5566 -0.0350
 6332SOL    HW230456   2.190   3.897   6.002 -1.5251  0.7596 -0.4691
 6333SOL     OW30457   1.383   1.068  13.559 -0.0948 -0.8351  0.1513
 6333SOL    HW130458   1.333   1.044  13.480  0.3247  3.1772 -1.3508
 6333SOL    HW230459   1.422   1.147  13.521 -2.8728  1.0376  1.2216
 6334SOL     OW30460   4.398   0.040  11.377  0.1017 -0.3956  0.4476
 6334SOL    HW130461   4.330   0.050  11.443  0.4011 -0.5955  0.7900
 6334SOL    HW230462   4.480   0.050  11.425  0.9360  0.0306 -1.0497
 6335SOL     OW30463   2.267   0.680   5.720 -0.5930 -0.4380 -0.4611
 6335SOL    HW130464   2.283   0.605   5.662 -0.9496 -0.0748 -1.0318
 6335SOL    HW230465   2.325   0.661   5.794 -1.8586 -1.9166  0.1524
 6336SOL     OW30466   0.610   1.366   4.886 -0.9022 -0.3189 -0.3269
 6336SOL    HW130467   0.519   1.397   4.879 -0.7685 -0.2506 -1.6376
 6336SOL    HW230468   0.651   1.389   4.803  0.4245  2.4400  1.0814
 6337SOL     OW30469   3.590   2.618   3.903 -0.2279 -0.7152  0.5440
 6337SOL    HW130470   3.611   2.673   3.979  2.5040 -1.4493  0.2973
 6337SOL    HW230471   3.514   2.665   3.868  1.1296 -0.9827 -2.7777
 6338SOL     OW30472   3.518   3.237  10.411 -0.1273 -0.1256 -0.1604
 6338SOL    HW130473   3.455   3.241  10.483 -1.9934 -2.9722 -1.6001
 6338SOL    HW230474   3.566   3.314  10.440  0.1267  0.2622 -1.5882
 6339SOL     OW30475   0.122   1.117  12.206  0.4637  0.4535 -0.2610
 6339SOL    HW130476   0.027   1.130  12.206  0.5338  0.9371 -0.7028
 6339SOL    HW230477   0.130   1.024  12.186  1.0440  0.9911 -2.5378
 6340SOL     OW30478   0.484   3.923   9.705 -0.6277 -0.2063 -0.6579
 6340SOL    HW130479   0.494   3.940   9.799  1.4643 -1.1192 -0.7222
 6340SOL    HW230480   0.427   3.846   9.703 -3.0459  1.4955  1.7566
 6341SOL     OW30481   1.182   4.292   6.964 -0.7170 -0.2236 -0.2411
 6341SOL    HW130482   1.144   4.380   6.966  2.8092  1.2871  1.2171
 6341SOL    HW230483   1.203   4.280   6.871 -1.6516  1.2594 -0.6336
 6342SOL     OW30484   0.704   0.919   2.335 -0.1951 -0.2328  0.4075
 6342SOL    HW130485   0.646   0.871   2.276 -0.7536  1.7792 -0.6938
 6342SOL    HW230486   0.640   0.979   2.372  1.0337  1.7705 -0.6841
 6343SOL     OW30487   1.702   2.516   8.473 -0.2205 -0.6666  0.8183
 6343SOL    HW130488   1.671   2.491   8.386  1.9077  2.6281 -0.8650
 6343SOL    HW230489   1.787   2.473   8.483  1.0755  1.6311 -0.2707
 6344SOL     OW30490   3.611   1.907   9.276 -0.0527  0.3247  0.3314
 6344SOL    HW130491   3.675   1.851   9.231  1.0124  0.4942  1.6296
 6344SOL    HW230492   3.657   1.919   9.359  0.7780 -1.8030  0.1695
 6345SOL     OW30493   4.274   1.919   0.500  0.5658  0.0036 -0.4214
 6345SOL    HW130494   4.261   1.975   0.576 -1.3183 -0.2665 -0.5611
 6345SOL    HW230495   4.256   1.830   0.529  0.9976 -0.5060 -1.7140
 6346SOL     OW30496   3.106   4.573   3.169  0.0829  0.8217 -0.8710
 6346SOL    HW130497   3.139   4.560   3.080  0.4299 -1.6791 -0.3832
 6346SOL    HW230498   3.166   4.515   3.218 -0.9954  1.3767  1.1171
 6347SOL     OW30499   4.309   2.163   9.607 -0.3816 -0.2305 -0.2511
 6347SOL    HW130500   4.396   2.193   9.581  0.3005 -1.9863 -0.0317
 6347SOL    HW230501   4.310   2.208   9.692 -0.2042 -1.7667  0.5619
 6348SOL     OW30502   0.451   3.354   8.056  0.5745 -0.0601  0.0570
 6348SOL    HW130503   0.441   3.438   8.011  0.4250 -0.6179 -0.9543
 6348SOL    HW230504   0.370   3.346   8.107  2.2169 -1.2510  2.4753
 6349SOL     OW30505   1.110   2.488   1.165 -0.3935  0.2189  0.8322
 6349SOL    HW130506   1.190   2.472   1.115 -0.6742 -0.1008  0.4891
 6349SOL    HW230507   1.085   2.398   1.185 -0.7748  0.4701  1.4694
 6350SOL     OW30508   2.596   2.679   3.854  0.3725  0.4121 -0.3945
 6350SOL    HW130509   2.506   2.683   3.886  0.0362  1.0638 -1.4419
 6350SOL    HW230510   2.636   2.656   3.938 -1.3584  2.1505  0.8953
 6351SOL     OW30511   1.907   0.093  10.198  0.1364  0.1403 -0.0858
 6351SOL    HW130512   1.859   0.020  10.238  0.0140  0.1446 -0.2258
 6351SOL    HW230513   1.917   0.070  10.106 -2.0747 -1.2654  0.0447
 6352SOL     OW30514   4.014   4.223  15.352 -0.2046 -0.3661 -0.4702
 6352SOL    HW130515   3.982   4.182  15.433  1.3843 -0.7649 -0.0453
 6352SOL    HW230516   3.984   4.164  15.284  2.1010 -2.7850  0.6314
 6353SOL     OW30517   4.585   1.164   7.110 -0.1480 -0.0063  0.2302
 6353SOL    HW130518   4.561   1.212   7.031 -0.3073  0.4390  0.5529
 6353SOL    HW230519   4.660   1.116   7.075 -1.0982 -0.3801 -1.3025
 6354SOL     OW30520   2.418   4.429  15.672  0.2834 -0.9008  0.0983
 6354SOL    HW130521   2.454   4.438  15.761  0.5409  0.4914 -0.1437
 6354SOL    HW230522   2.417   4.334  15.668  2.3584 -1.0213  2.6100
 6355SOL     OW30523   2.684   1.874   4.907 -0.1987  0.9139 -0.3135
 6355SOL    HW130524   2.599   1.832   4.898 -1.6957  4.1292 -1.3846
 6355SOL    HW230525   2.751   1.810   4.887 -0.4981  0.4622  0.1240
 6356SOL     OW30526   4.414   4.584  10.982  0.2504 -0.2223 -0.4356
 6356SOL    HW130527   4.433   4.527  11.055  0.3851 -2.5500 -2.2943
 6356SOL    HW230528   4.387   4.666  11.024  1.5169 -1.0214  1.9086
 6357SOL     OW30529   3.559   1.854   7.256 -0.1007  0.1122  0.0512
 6357SOL    HW130530   3.605   1.923   7.208  0.1904  0.1739  0.4188
 6357SOL    HW230531   3.633   1.797   7.278  0.3817  0.9882  0.7109
 6358SOL     OW30532   0.246   3.135   2.545  0.0203  0.1372  0.0696
 6358SOL    HW130533   0.292   3.195   2.605  2.6482 -2.1989  0.3931
 6358SOL    HW230534   0.292   3.158   2.464  0.0956 -0.4762 -0.0622
 6359SOL     OW30535   1.192   2.334  14.433 -0.2226 -0.0487  0.1662
 6359SOL    HW130536   1.282   2.307  14.447  0.6588  2.2755 -1.0091
 6359SOL    HW230537   1.168   2.306  14.345 -0.3572  1.0781 -0.1567
 6360SOL     OW30538   3.638   0.605   8.106 -0.1172 -0.3475 -0.2872
 6360SOL    HW130539   3.669   0.553   8.180  0.9934 -1.2221 -1.3455
 6360SOL    HW230540   3.627   0.541   8.035  0.9746  0.8818 -1.5692
 6361SOL     OW30541   0.288   2.941   5.186  0.1877  0.5277 -0.4115
 6361SOL    HW130542   0.308   2.943   5.093 -0.8041  0.7579 -0.6207
 6361SOL    HW230543   0.321   3.026   5.215  1.7021 -0.3505  0.4775
 6362SOL     OW30544   3.766   3.101   3.185  0.0998 -0.5817 -0.2767
 6362SOL    HW130545   3.787   3.047   3.108  2.4281  0.6155 -0.4858
 6362SOL    HW230546   3.672   3.110   3.172 -0.5357 -1.0189  4.0257
 6363SOL     OW30547   4.572   1.699   9.142 -0.5450 -0.2359  0.9090
 6363SOL    HW130548   4.610   1.785   9.160 -1.3589  0.5525 -1.1409
 6363SOL    HW230549   4.514   1.683   9.216  0.7752  2.0198  2.4509
 6364SOL     OW30550   3.680   1.680   8.129 -0.2929 -0.1452  0.3487
 6364SOL    HW130551   3.652   1.744   8.063 -2.7258 -1.0395  0.4815
 6364SOL    HW230552   3.644   1.717   8.209 -1.8995  0.0200 -0.4256
 6365SOL     OW30553   1.768   0.372   4.933  0.2804  0.2741 -0.4475
 6365SOL    HW130554   1.702   0.435   4.904 -1.1487 -0.8709  0.3058
 6365SOL    HW230555   1.739   0.356   5.023  1.4790  1.7870  0.2034
 6366SOL     OW30556   0.214   4.478   2.187 -0.1556  0.7537 -0.2351
 6366SOL    HW130557   0.226   4.395   2.140 -1.1598  0.1241  0.6111
 6366SOL    HW230558   0.305   4.504   2.202 -0.0930  0.2575  0.2470
 6367SOL     OW30559   1.416   0.210   5.908  0.3100 -0.8715 -0.1259
 6367SOL    HW130560   1.378   0.298   5.921 -1.2360 -1.3386 -1.5419
 6367SOL    HW230561   1.366   0.180   5.833  1.1787  0.2049 -1.1345
 6368SOL     OW30562   2.394   1.952   3.902 -0.6685 -0.2197 -0.8227
 6368SOL    HW130563   2.421   1.863   3.880 -0.0663  0.1969 -1.7869
 6368SOL    HW230564   2.340   1.962   3.824  0.7810  0.2410 -1.7529
 6369SOL     OW30565   1.681   4.690  14.920  0.7952 -0.1040 -0.4446
 6369SOL    HW130566   1.643   0.052  14.944 -2.1244 -1.0732 -1.5677
 6369SOL    HW230567   1.754   0.001  14.868  2.3235 -0.1988  1.6481
 6370SOL     OW30568   3.640   2.164   4.883  0.3069 -0.6094 -0.3126
 6370SOL    HW130569   3.573   2.156   4.814 -0.8360  0.5110  0.6527
 6370SOL    HW230570   3.589   2.115   4.947  1.1823 -0.9653  0.0992
 6371SOL     OW30571   3.320   1.672   8.225 -0.1430  0.3633 -0.3171
 6371SOL    HW130572   3.240   1.714   8.256 -2.3168 -3.0304 -1.3016
 6371SOL    HW230573   3.377   1.746   8.207  1.3677 -0.9637 -0.9603
 6372SOL     OW30574   0.204   2.801   6.219 -0.1715  0.0011  0.4791
 6372SOL    HW130575   0.282   2.799   6.164  0.6246  1.1790  1.5586
 6372SOL    HW230576   0.193   2.709   6.244 -2.6926  0.0600 -0.3796
 6373SOL     OW30577   2.389   2.901   3.786 -0.6017  0.0501  0.9123
 6373SOL    HW130578   2.314   2.849   3.757 -0.1911  0.2311 -0.4673
 6373SOL    HW230579   2.355   2.930   3.871 -0.9903  3.5927 -0.4645
 6374SOL     OW30580   4.499   1.541  12.050  0.0082 -0.1851 -0.3123
 6374SOL    HW130581   4.586   1.568  12.081  0.0040  1.3278 -1.6198
 6374SOL    HW230582   4.468   1.498  12.129 -2.8530  1.6167 -0.4880
 6375SOL     OW30583   3.563   2.652  17.635  0.6226 -0.5519  0.2378
 6375SOL    HW130584   3.648   2.615  17.657  0.9559  0.7348  1.0849
 6375SOL    HW230585   3.501   2.586  17.667 -1.1113  0.5921 -0.6958
 6376SOL     OW30586   0.604   2.058   8.788  0.1637  0.2930 -0.4018
 6376SOL    HW130587   0.646   1.983   8.830 -1.3533  0.5172  1.5182
 6376SOL    HW230588   0.512   2.037   8.803  0.4480 -1.4495 -1.1575
 6377SOL     OW30589   2.374   4.008  12.518  0.0741  0.2689 -0.6809
 6377SOL    HW130590   2.396   3.945  12.450  0.3021  0.5915 -0.9027
 6377SOL    HW230591   2.280   3.989  12.515 -0.2917  1.9231  0.3579
 6378SOL     OW30592   1.112   3.032   2.843  0.1431  0.0942 -0.2579
 6378SOL    HW130593   1.147   3.012   2.929  0.3243  1.1951 -0.0733
 6378SOL    HW230594   1.103   2.945   2.804 -0.0612  0.2918 -0.6552
 6379SOL     OW30595   3.311   2.509  14.567  0.0999  0.0196 -0.2968
 6379SOL    HW130596   3.282   2.565  14.495  0.8248 -0.2918 -0.8347
 6379SOL    HW230597   3.251   2.547  14.631  0.7487  0.4385  0.0533
 6380SOL     OW30598   3.520   2.369   6.815 -0.0791  0.1390 -0.2834
 6380SOL    HW130599   3.593   2.429   6.827  0.0197 -0.0543  0.0809
 6380SOL    HW230600   3.529   2.304   6.885 -2.6616 -1.0414 -1.0083
 6381SOL     OW30601   2.695   2.815  14.997 -0.0485 -0.0227 -0.2959
 6381SOL    HW130602   2.771   2.775  14.954  0.6839  0.3522  0.6573
 6381SOL    HW230603   2.735   2.898  15.022 -0.0468  0.0191 -0.4370
 6382SOL     OW30604   0.186   1.673   8.013 -0.1892  0.3838  0.2664
 6382SOL    HW130605   0.124   1.710   8.075 -0.9085  1.1166 -0.8850
 6382SOL    HW230606   0.252   1.741   7.996 -1.4894  1.4424 -0.6041
 6383SOL     OW30607   1.975   3.580   6.481  0.2690 -0.2742  0.1701
 6383SOL    HW130608   1.931   3.651   6.436 -1.2403 -1.3527 -0.0632
 6383SOL    HW230609   1.902   3.530   6.518 -0.4930  1.3548  0.8372
 6384SOL     OW30610   4.443   3.304   2.393 -0.1178  0.0491 -0.5150
 6384SOL    HW130611   4.473   3.219   2.359 -0.0560 -0.1656  0.0798
 6384SOL    HW230612   4.528   3.347   2.403  0.6710 -1.4685 -0.6629
 6385SOL     OW30613   1.345   2.959  11.642 -0.1364  0.3374  0.6678
 6385SOL    HW130614   1.267   2.975  11.590  0.5290  0.4269 -0.3024
 6385SOL    HW230615   1.341   2.864  11.654  0.9929  0.4699  2.1276
 6386SOL     OW30616   4.430   4.086   6.472 -0.7137  0.0375  0.2238
 6386SOL    HW130617   4.383   4.100   6.554  0.2409 -1.2691  1.0017
 6386SOL    HW230618   4.521   4.087   6.502 -0.5693 -1.4160 -0.1429
 6387SOL     OW30619   1.947   0.432   8.841 -0.4205 -0.1567 -0.1718
 6387SOL    HW130620   2.024   0.422   8.784  0.3592  1.9560  0.4854
 6387SOL    HW230621   1.921   0.341   8.852  1.0517 -0.6401 -0.5864
 6388SOL     OW30622   1.595   1.953   3.096  0.4271 -0.3693 -0.7865
 6388SOL    HW130623   1.580   2.042   3.130 -2.4146 -1.4203  0.6531
 6388SOL    HW230624   1.510   1.911   3.105  2.0116 -3.2882  0.3475
 6389SOL     OW30625   2.009   0.442   5.476  0.2424 -0.0292  1.2067
 6389SOL    HW130626   1.922   0.405   5.463  1.2414 -1.9028 -0.0956
 6389SOL    HW230627   2.048   0.370   5.525 -1.2908 -1.2205  0.6655
 6390SOL     OW30628   0.714   1.798   3.716  0.1703 -0.5761 -0.0185
 6390SOL    HW130629   0.645   1.744   3.755 -0.8007  0.6536 -0.0669
 6390SOL    HW230630   0.683   1.795   3.626 -0.7679  0.4909  0.2811
 6391SOL     OW30631   1.605   0.599   5.985 -0.3242 -0.1331 -0.3211
 6391SOL    HW130632   1.643   0.686   5.994  0.5615 -0.3654 -1.8002
 6391SOL    HW230633   1.666   0.551   5.930  2.0187  0.7375  1.4997
 6392SOL     OW30634   2.278   0.168   4.775 -0.1005  0.9386  0.3304
 6392SOL    HW130635   2.271   0.082   4.815 -0.4057  0.8589  0.1068
 6392SOL    HW230636   2.188   0.201   4.783 -0.7959 -1.0053  0.3463
 6393SOL     OW30637   4.375   2.919  16.801  0.4510  0.0357  0.2082
 6393SOL    HW130638   4.455   2.879  16.767 -0.4843 -1.2577 -0.4888
 6393SOL    HW230639   4.328   2.905  16.719 -3.2220 -1.4530  2.5516
 6394SOL     OW30640   2.677   0.224   7.999 -0.4713  0.5571 -0.4976
 6394SOL    HW130641   2.685   0.319   8.001  0.3915  0.5054 -1.8378
 6394SOL    HW230642   2.726   0.195   8.076 -2.6370 -1.4267  0.1439
 6395SOL     OW30643   0.216   3.897   6.108 -0.0329  0.4176  0.3759
 6395SOL    HW130644   0.275   3.913   6.181 -0.7593 -1.6901  1.4397
 6395SOL    HW230645   0.199   3.803   6.113  2.3917  0.1145  2.9285
 6396SOL     OW30646   2.599   2.303   2.222 -0.2428  0.4194 -0.4427
 6396SOL    HW130647   2.688   2.266   2.227 -0.1603  0.9279  1.5365
 6396SOL    HW230648   2.599   2.364   2.295  0.2514 -0.1883  0.0616
 6397SOL     OW30649   3.062   3.319   5.937  0.1442 -0.0670  0.1138
 6397SOL    HW130650   3.152   3.291   5.921 -0.1455 -0.8359 -0.1630
 6397SOL    HW230651   3.040   3.269   6.015  1.0963 -0.3416  0.2066
 6398SOL     OW30652   3.665   1.708  11.138 -0.4446  0.0246 -0.0080
 6398SOL    HW130653   3.699   1.776  11.080  1.7809  0.7084  2.0906
 6398SOL    HW230654   3.739   1.649  11.127 -2.1716 -1.8051 -1.8453
 6399SOL     OW30655   3.865   2.366   8.389  0.4211  0.2314 -0.1091
 6399SOL    HW130656   3.810   2.384   8.313 -0.6130 -0.5282  0.4426
 6399SOL    HW230657   3.798   2.336   8.451  0.3743  1.2604  0.3375
 6400SOL     OW30658   3.755   4.038  17.151  0.2628  0.0432  0.5850
 6400SOL    HW130659   3.821   4.025  17.083  0.1936  0.0798  0.5098
 6400SOL    HW230660   3.696   4.099  17.107  2.3100 -0.7117 -3.1865
 6401SOL     OW30661   3.683   0.258  13.509  0.1747  0.7626 -0.0050
 6401SOL    HW130662   3.730   0.317  13.568  0.9147 -1.0145  1.1977
 6401SOL    HW230663   3.754   0.208  13.469  1.3468  0.5921  2.2787
 6402SOL     OW30664   0.968   2.473   8.951 -0.3976  0.7807  0.6184
 6402SOL    HW130665   1.015   2.419   9.015 -0.3030  0.9470  0.6899
 6402SOL    HW230666   0.918   2.403   8.909  0.1346 -0.1373  1.4866
 6403SOL     OW30667   1.656   1.089   5.151  0.1509 -0.1360 -0.1850
 6403SOL    HW130668   1.744   1.113   5.121  0.5756  0.8823  1.8565
 6403SOL    HW230669   1.606   1.110   5.073  3.3154 -0.6611 -2.3324
 6404SOL     OW30670   2.279   3.098   4.274 -0.0870 -0.4539  0.1113
 6404SOL    HW130671   2.327   3.180   4.285 -1.1797 -0.2319  3.1428
 6404SOL    HW230672   2.237   3.080   4.358  0.5771 -1.3558  0.2559
 6405SOL     OW30673   3.281   0.646   2.767 -0.1803  0.3011 -0.1556
 6405SOL    HW130674   3.246   0.617   2.682  1.6655 -2.1593 -0.0454
 6405SOL    HW230675   3.247   0.736   2.766  1.8274  1.0592  0.2451
 6406SOL     OW30676   2.468   2.723  13.130 -0.3663 -0.1289 -0.0045
 6406SOL    HW130677   2.421   2.782  13.071 -1.4789 -1.7548 -0.7489
 6406SOL    HW230678   2.392   2.685  13.174  0.2639 -1.7294 -0.3107
 6407SOL     OW30679   4.045   2.757  12.770  0.3460  0.3472  0.0333
 6407SOL    HW130680   4.072   2.825  12.708 -2.8228  1.4769 -0.0945
 6407SOL    HW230681   4.098   2.781  12.846 -0.6073 -1.1314  1.1468
 6408SOL     OW30682   0.418   0.707   0.554  0.8466 -0.5785 -0.0731
 6408SOL    HW130683   0.498   0.666   0.586  0.4540 -1.1634  0.1630
 6408SOL    HW230684   0.385   0.643   0.491 -0.6474  1.6607 -1.5701
 6409SOL     OW30685   3.678   0.217   8.467  0.0046  0.5850 -0.0862
 6409SOL    HW130686   3.591   0.179   8.462 -0.5650  1.4731  2.9248
 6409SOL    HW230687   3.726   0.134   8.479 -2.0183 -0.6366 -0.4843
 6410SOL     OW30688   0.791   3.511  10.497  0.0474 -0.3797 -0.1190
 6410SOL    HW130689   0.780   3.512  10.592 -0.4849  0.8741 -0.2021
 6410SOL    HW230690   0.885   3.490  10.504  0.2037  1.1220  2.1727
 6411SOL     OW30691   0.599   2.304  15.628 -0.4900 -1.0658 -0.1967
 6411SOL    HW130692   0.570   2.336  15.714  0.0793  0.3671 -0.5571
 6411SOL    HW230693   0.533   2.335  15.566  1.9273  2.0330 -1.2153
 6412SOL     OW30694   1.102   2.589   3.335 -0.2180 -0.1424 -0.1725
 6412SOL    HW130695   1.157   2.580   3.413 -2.3875  0.5219  1.4213
 6412SOL    HW230696   1.025   2.532   3.343 -0.4737  0.1502 -0.5308
 6413SOL     OW30697   0.308   4.658   9.796 -0.3131 -0.1004  0.5841
 6413SOL    HW130698   0.218   4.637   9.771  0.2753  0.5083 -2.0461
 6413SOL    HW230699   0.346   4.572   9.813  0.1281  0.5902  3.0144
 6414SOL     OW30700   2.541   2.252   9.515 -0.5567 -0.8216 -0.1597
 6414SOL    HW130701   2.559   2.344   9.533 -4.4534 -0.4735  1.9606
 6414SOL    HW230702   2.499   2.229   9.598 -0.6925  0.4230  0.1155
 6415SOL     OW30703   1.868   1.759  10.128 -0.1391  0.3543 -0.2279
 6415SOL    HW130704   1.817   1.788  10.053 -0.1466  0.8691 -0.0196
 6415SOL    HW230705   1.953   1.774  10.087  0.3566 -3.7548 -0.7612
 6416SOL     OW30706   4.131   0.783   7.590  0.0785  0.3003 -0.1673
 6416SOL    HW130707   4.071   0.836   7.642 -1.4505 -1.5370 -0.0743
 6416SOL    HW230708   4.082   0.770   7.508 -0.9711  2.1327  0.1638
 6417SOL     OW30709   4.181   2.820  17.280  0.0376  0.2605 -0.0835
 6417SOL    HW130710   4.227   2.873  17.345  0.6774  0.5924 -0.8104
 6417SOL    HW230711   4.131   2.761  17.337  1.3484 -2.1050 -1.3810
 6418SOL     OW30712   4.482   1.910   4.823 -0.0478  0.1642 -0.0363
 6418SOL    HW130713   4.419   1.837   4.815  0.0056 -0.1119  2.1774
 6418SOL    HW230714   4.446   1.972   4.760 -0.9771  0.2977  0.6145
 6419SOL     OW30715   0.520   1.920   9.395  0.2791 -0.1807 -0.4688
 6419SOL    HW130716   0.513   1.882   9.308 -1.7225 -1.2350  0.1385
 6419SOL    HW230717   0.447   1.875   9.439  1.5892  0.1885  2.1314
 6420SOL     OW30718   2.090   1.502   8.577 -0.1251  0.4022 -0.3434
 6420SOL    HW130719   2.186   1.503   8.583 -0.0007 -0.1586 -2.2502
 6420SOL    HW230720   2.064   1.410   8.567 -2.0905  0.4852  4.3388
 6421SOL     OW30721   2.541   0.109   2.263 -0.3517  0.0113 -0.1058
 6421SOL    HW130722   2.512   0.066   2.183  1.2047  0.0630 -0.6845
 6421SOL    HW230723   2.519   0.045   2.331 -0.3414 -1.8468 -1.8592
 6422SOL     OW30724   1.941   0.719   8.659 -0.4175 -0.3736 -0.0052
 6422SOL    HW130725   1.877   0.681   8.720 -1.4896 -0.4566 -1.1592
 6422SOL    HW230726   1.916   0.810   8.674  2.4305  0.3396  0.4189
 6423SOL     OW30727   0.368   3.192  15.950 -0.6030 -0.3537  0.2756
 6423SOL    HW130728   0.316   3.259  15.905 -0.3998 -1.5231 -1.6989
 6423SOL    HW230729   0.301   3.145  16.000  1.9215  0.4157  4.4495
 6424SOL     OW30730   1.892   4.455   1.481  0.0751 -0.1088 -0.2143
 6424SOL    HW130731   1.846   4.443   1.564 -0.8063 -1.7965 -0.9581
 6424SOL    HW230732   1.878   4.374   1.433  1.5734 -2.2070  2.8778
 6425SOL     OW30733   0.962   0.957   6.531 -0.6237 -0.2366 -0.1253
 6425SOL    HW130734   0.903   0.915   6.593 -0.0428  0.5801  0.9923
 6425SOL    HW230735   1.019   1.008   6.590  1.9636 -3.2895  0.0234
 6426SOL     OW30736   0.039   3.901   8.271 -0.4544  0.1147 -0.1121
 6426SOL    HW130737   4.720   3.979   8.308 -0.8586 -0.1729  0.0341
 6426SOL    HW230738   0.036   3.923   8.178 -0.8011  2.3727  0.4226
 6427SOL     OW30739   2.366   3.587   1.400  0.0362  0.2949 -0.8541
 6427SOL    HW130740   2.308   3.648   1.445 -2.0166 -1.5866 -0.9443
 6427SOL    HW230741   2.386   3.529   1.474 -1.7731 -1.6250 -1.8674
 6428SOL     OW30742   2.099   0.378   6.817  0.4119 -0.2946 -0.0210
 6428SOL    HW130743   2.113   0.447   6.752  1.0399  0.7708  1.2465
 6428SOL    HW230744   2.045   0.430   6.877  1.3132 -1.5676  1.9130
 6429SOL     OW30745   1.388   0.306   8.648  0.7653  0.6869 -0.1495
 6429SOL    HW130746   1.436   0.336   8.571 -0.1713  0.5286 -0.7963
 6429SOL    HW230747   1.377   0.387   8.698  0.8128  1.0674 -0.7602
 6430SOL     OW30748   3.476   0.855  13.531 -0.4609  0.3652 -0.7209
 6430SOL    HW130749   3.448   0.917  13.598  0.5764 -0.2560  0.2820
 6430SOL    HW230750   3.455   0.901  13.450 -0.2899  1.8030  0.0648
 6431SOL     OW30751   0.136   0.474  13.203  0.1403  1.1561 -0.1926
 6431SOL    HW130752   0.080   0.513  13.136 -0.5924  0.2764 -0.0848
 6431SOL    HW230753   0.192   0.427  13.142 -0.4477 -1.7161  1.4898
 6432SOL     OW30754   1.477   1.529   4.614  0.4028  0.0013  0.6040
 6432SOL    HW130755   1.492   1.519   4.708 -1.5654 -2.3166  0.6675
 6432SOL    HW230756   1.472   1.622   4.591 -1.3251 -0.4634 -0.9675
 6433SOL     OW30757   0.684   4.705   2.651  0.9032  0.0246  0.0885
 6433SOL    HW130758   0.667   0.074   2.672 -2.4832 -0.4157 -0.6461
 6433SOL    HW230759   0.762   4.707   2.595  0.4684  3.5224 -0.4244
 6434SOL     OW30760   4.579   1.487   3.334 -0.2469  0.0995 -0.3283
 6434SOL    HW130761   4.542   1.567   3.371  1.9538  0.7004  0.5851
 6434SOL    HW230762   4.530   1.467   3.255 -1.4348  0.9553  0.1947
 6435SOL     OW30763   2.420   1.986   1.670  0.0788  0.2064  0.2706
 6435SOL    HW130764   2.397   1.955   1.758 -0.9839 -2.2581 -0.8554
 6435SOL    HW230765   2.391   1.910   1.620  0.7473  0.0823  0.0746
 6436SOL     OW30766   1.670   1.863   8.212  0.2118 -0.3019  0.2027
 6436SOL    HW130767   1.592   1.820   8.179 -0.7368  1.0824  0.6452
 6436SOL    HW230768   1.723   1.879   8.133  1.7903 -2.7565  0.7731
 6437SOL     OW30769   1.178   1.794   9.635 -0.3782 -0.3005  0.1896
 6437SOL    HW130770   1.260   1.836   9.660 -0.2855  0.5488 -1.5845
 6437SOL    HW230771   1.209   1.716   9.589  0.0031 -0.5119  0.8069
 6438SOL     OW30772   2.425   3.779   6.289  0.6370  0.0032 -0.7491
 6438SOL    HW130773   2.488   3.759   6.220  0.1504 -2.8462 -0.3946
 6438SOL    HW230774   2.447   3.720   6.362 -0.3438 -0.8780 -1.1526
 6439SOL     OW30775   2.430   3.311   3.031 -0.2572 -0.8665 -0.2831
 6439SOL    HW130776   2.470   3.374   2.972  0.4791 -2.4339 -1.4391
 6439SOL    HW230777   2.507   3.256   3.046  1.7693  2.7818  2.8150
 6440SOL     OW30778   0.474   3.054  11.723 -0.5326  0.7235 -0.6388
 6440SOL    HW130779   0.436   3.099  11.647 -0.2846  0.0697 -1.1473
 6440SOL    HW230780   0.396   3.019  11.765  1.3147 -1.2171  1.1786
 6441SOL     OW30781   3.121   3.102   8.272 -0.8252 -0.1145  0.3138
 6441SOL    HW130782   3.090   3.123   8.361 -3.8251 -1.1587 -0.4888
 6441SOL    HW230783   3.095   3.012   8.253 -0.0779 -0.1500 -0.5357
 6442SOL     OW30784   3.509   2.962   8.968 -0.0210  0.0461  0.3463
 6442SOL    HW130785   3.444   2.933   8.904 -0.8477 -0.4426  1.3957
 6442SOL    HW230786   3.586   2.973   8.912  0.9804 -1.6202  1.3955
 6443SOL     OW30787   4.643   4.396   7.501  0.8689  0.4222  0.5078
 6443SOL    HW130788   0.012   4.386   7.526  0.4173 -0.4509  1.8112
 6443SOL    HW230789   4.593   4.427   7.576 -0.3550 -2.1288  0.7351
 6444SOL     OW30790   2.705   4.184   3.888  0.3994 -0.0030  0.0192
 6444SOL    HW130791   2.627   4.151   3.931  0.0586 -0.7013 -1.1287
 6444SOL    HW230792   2.772   4.157   3.950 -0.1010  0.1764  0.6405
 6445SOL     OW30793   2.227   1.686   4.090 -0.7482 -0.2126  0.2498
 6445SOL    HW130794   2.321   1.681   4.110 -1.0282 -0.7409  1.4245
 6445SOL    HW230795   2.197   1.751   4.153 -2.1413  1.3272 -2.0080
 6446SOL     OW30796   1.688   3.164   6.498 -0.5574 -0.1210 -0.3648
 6446SOL    HW130797   1.597   3.190   6.480  0.1711  3.0525  0.5108
 6446SOL    HW230798   1.722   3.174   6.410 -0.5438  3.6535  0.0842
 6447SOL     OW30799   4.559   2.629   3.373  0.1134  0.1755 -0.2480
 6447SOL    HW130800   4.653   2.611   3.373 -0.1147 -1.0647 -2.0056
 6447SOL    HW230801   4.555   2.705   3.430  2.8786  1.6990 -2.0652
 6448SOL     OW30802   3.654   1.269   3.650 -0.7151  0.5761  0.3955
 6448SOL    HW130803   3.575   1.260   3.597 -0.6143  0.1849  0.3094
 6448SOL    HW230804   3.632   1.212   3.723 -1.8509 -0.3909 -0.6900
 6449SOL     OW30805   0.033   1.170  15.560 -0.7849 -0.5592  0.0498
 6449SOL    HW130806   0.004   1.222  15.486 -1.6699 -0.2903  0.5785
 6449SOL    HW230807   0.125   1.148  15.548 -0.3682  0.6607  1.0253
 6450SOL     OW30808   3.576   3.520   7.705  0.6643  0.3390 -0.4804
 6450SOL    HW130809   3.619   3.453   7.759 -1.2257  0.2904  0.9772
 6450SOL    HW230810   3.494   3.476   7.681  0.9298 -1.3674  1.7671
 6451SOL     OW30811   0.934   2.650   8.696  0.1277  0.0997  0.5039
 6451SOL    HW130812   0.952   2.556   8.692 -0.3851 -0.0200  1.0894
 6451SOL    HW230813   1.018   2.690   8.721 -0.9063  2.3495  0.3831
 6452SOL     OW30814   3.655   4.664  10.687 -0.4508 -0.0067 -0.0874
 6452SOL    HW130815   3.611   0.019  10.719 -0.0636  0.1114  0.1554
 6452SOL    HW230816   3.596   4.641  10.615 -0.2296  0.7272 -0.4991
 6453SOL     OW30817   4.298   3.651   0.687 -0.6261 -0.0175  0.9345
 6453SOL    HW130818   4.318   3.700   0.767 -1.9754  1.6774  0.2444
 6453SOL    HW230819   4.262   3.566   0.714  1.4550 -2.1631 -3.0483
 6454SOL     OW30820   1.705   1.438   7.920 -0.3296  0.6084 -0.2405
 6454SOL    HW130821   1.635   1.455   7.984  0.2945  1.3704  0.2375
 6454SOL    HW230822   1.663   1.374   7.863  0.3017 -0.7174  0.7759
 6455SOL     OW30823   2.577   4.664   4.242  0.2451  0.4278 -0.3917
 6455SOL    HW130824   2.549   4.594   4.183 -2.9351  1.4782 -0.1152
 6455SOL    HW230825   2.672   4.674   4.238  0.4024 -0.6830  0.7099
 6456SOL     OW30826   2.209   3.560  11.281  0.6587 -0.5358  0.0904
 6456SOL    HW130827   2.240   3.651  11.288  3.6785 -1.6261  0.5491
 6456SOL    HW230828   2.156   3.550  11.360 -0.6299  1.9616 -0.4570
 6457SOL     OW30829   3.485   0.244   8.140 -0.0667 -0.0489 -0.2846
 6457SOL    HW130830   3.479   0.275   8.231 -0.6323  1.2105 -0.7541
 6457SOL    HW230831   3.479   0.148   8.146  0.3322 -0.2309 -2.8428
 6458SOL     OW30832   4.393   1.754   2.786 -0.8969  0.4385 -0.7640
 6458SOL    HW130833   4.440   1.783   2.708 -1.8841 -2.0941 -2.2909
 6458SOL    HW230834   4.443   1.803   2.852 -1.8132  0.8654 -0.3841
 6459SOL     OW30835   2.731   1.037   8.622  0.0464  0.3604  0.2087
 6459SOL    HW130836   2.695   1.061   8.536  1.0543  2.3120  0.3487
 6459SOL    HW230837   2.664   0.978   8.657 -0.0395  0.3315 -0.0039
 6460SOL     OW30838   1.456   2.435   2.485  0.6563 -0.0091 -0.0430
 6460SOL    HW130839   1.447   2.449   2.579 -1.9862 -0.5799 -0.1850
 6460SOL    HW230840   1.423   2.519   2.453  2.7338  0.6589 -0.3794
 6461SOL     OW30841   0.800   1.270  11.139  0.0740 -0.0835 -0.3072
 6461SOL    HW130842   0.810   1.358  11.174 -1.9370 -0.1204  0.3882
 6461SOL    HW230843   0.721   1.285  11.086 -1.0107 -1.3242  0.9433
 6462SOL     OW30844   4.242   4.240   6.274 -0.0208 -0.3446 -0.0306
 6462SOL    HW130845   4.282   4.162   6.312 -1.9341 -0.3529  2.0200
 6462SOL    HW230846   4.261   4.314   6.331  1.5147 -0.4563 -0.3968
 6463SOL     OW30847   2.181   2.661   3.410  0.7732  0.2588 -0.0822
 6463SOL    HW130848   2.187   2.752   3.382 -1.3977 -0.0219 -1.3763
 6463SOL    HW230849   2.167   2.615   3.328 -0.9456 -2.7545  1.8966
 6464SOL     OW30850   2.981   1.241   7.573  0.0776  0.3619 -0.0653
 6464SOL    HW130851   2.965   1.284   7.489  0.1870  1.7181  0.5984
 6464SOL    HW230852   3.075   1.231   7.565 -0.0256 -1.9404  1.4999
 6465SOL     OW30853   2.760   2.718   2.023 -0.5906 -0.8952 -0.5560
 6465SOL    HW130854   2.743   2.682   2.110 -1.9319 -1.4134 -1.0313
 6465SOL    HW230855   2.763   2.634   1.979 -2.0478 -0.6232 -1.1583
 6466SOL     OW30856   3.609   0.400   7.915 -0.4466  0.0496 -0.3783
 6466SOL    HW130857   3.679   0.343   7.883 -0.6688 -0.6110  0.3095
 6466SOL    HW230858   3.538   0.338   7.929 -1.8546  1.6696 -0.3536
 6467SOL     OW30859   0.196   4.057   5.859 -0.0375  0.0137  0.4465
 6467SOL    HW130860   0.212   4.016   5.944  0.9304 -0.3116  0.1098
 6467SOL    HW230861   0.100   4.056   5.860 -0.0307 -1.2270 -0.7844
 6468SOL     OW30862   0.527   1.762   2.560  0.1141  0.8786 -0.6723
 6468SOL    HW130863   0.516   1.668   2.574 -4.2388  1.2358 -1.5320
 6468SOL    HW230864   0.585   1.794   2.629 -1.1236  1.4657  0.1003
 6469SOL     OW30865   4.284   1.134  10.804 -0.2499 -0.0778 -0.0048
 6469SOL    HW130866   4.234   1.216  10.805 -2.6252 -1.4996 -1.2971
 6469SOL    HW230867   4.361   1.174  10.765 -0.1691 -0.4272 -0.2080
 6470SOL     OW30868   2.454   3.212   2.604  0.2201 -0.1419  0.5752
 6470SOL    HW130869   2.383   3.276   2.614 -0.3139 -0.4643 -1.3147
 6470SOL    HW230870   2.468   3.183   2.694 -2.2432 -0.4491  0.8627
 6471SOL     OW30871   4.063   1.333   6.580 -0.2716  0.0348  0.1486
 6471SOL    HW130872   4.047   1.375   6.495 -0.3286 -1.5021 -0.5928
 6471SOL    HW230873   3.974   1.311   6.604  0.6330 -1.9833  1.6077
 6472SOL     OW30874   3.765   3.188   6.951 -0.5465  0.1576 -0.4684
 6472SOL    HW130875   3.694   3.137   6.910 -1.3047  0.6313  0.2725
 6472SOL    HW230876   3.789   3.240   6.874 -3.8901  2.7122  0.2236
 6473SOL     OW30877   4.431   2.295  17.288 -0.0613 -0.6889 -0.0990
 6473SOL    HW130878   4.415   2.357  17.216 -0.0180  1.4573  1.7567
 6473SOL    HW230879   4.526   2.294  17.278 -0.1774 -0.3593 -1.2702
 6474SOL     OW30880   2.539   3.478   5.268  0.2917 -0.3259 -0.3164
 6474SOL    HW130881   2.488   3.448   5.342  0.5820  0.3522  0.1634
 6474SOL    HW230882   2.496   3.429   5.198  1.0001  0.3899 -1.2691
 6475SOL     OW30883   4.025   2.105   7.887 -0.8566 -0.0981 -0.2007
 6475SOL    HW130884   3.949   2.163   7.879 -1.3056 -0.4129  1.8358
 6475SOL    HW230885   4.022   2.081   7.980 -2.4214  2.5258  0.4323
 6476SOL     OW30886   0.301   2.252  12.246  0.0104  0.0448  0.3932
 6476SOL    HW130887   0.390   2.239  12.281 -0.2531 -3.7235 -0.2703
 6476SOL    HW230888   0.323   2.279  12.157 -0.9158  1.1995  0.5161
 6477SOL     OW30889   0.728   2.290   8.086 -0.0878 -0.0091 -0.0178
 6477SOL    HW130890   0.650   2.290   8.142 -1.0132 -0.1661 -1.3006
 6477SOL    HW230891   0.686   2.338   8.014 -1.0504 -0.2861  0.3534
 6478SOL     OW30892   2.684   0.462   7.274  0.6914 -0.1225 -0.4959
 6478SOL    HW130893   2.708   0.544   7.231 -0.8797 -0.8973 -2.8667
 6478SOL    HW230894   2.715   0.486   7.362 -0.1946  0.1207 -0.2483
 6479SOL     OW30895   1.056   1.450   3.113 -0.0966  0.2030 -0.4510
 6479SOL    HW130896   1.097   1.527   3.074  0.8777 -0.3845 -0.5662
 6479SOL    HW230897   0.974   1.486   3.147  0.5930 -0.3430  1.7426
 6480SOL     OW30898   3.593   1.803  14.993  0.0598  0.0151 -0.4896
 6480SOL    HW130899   3.669   1.761  15.034 -0.7718 -2.5547 -1.5531
 6480SOL    HW230900   3.557   1.847  15.070 -1.0179 -0.5513 -0.6613
 6481SOL     OW30901   0.155   0.561   5.780  0.2472  0.2940 -0.6003
 6481SOL    HW130902   0.221   0.536   5.845 -1.3522  0.2380  1.0331
 6481SOL    HW230903   0.126   0.650   5.803  1.9117  0.6279  0.1723
 6482SOL     OW30904   2.039   4.713   2.920 -0.4234 -0.6428 -0.0952
 6482SOL    HW130905   1.986   4.692   2.844  0.1196  1.4322 -1.0325
 6482SOL    HW230906   2.127   4.701   2.885 -0.5485 -0.9807 -0.2918
 6483SOL     OW30907   3.381   0.099   6.385  0.7219 -0.1550  0.0876
 6483SOL    HW130908   3.442   0.064   6.320 -0.3620  1.1365 -1.6179
 6483SOL    HW230909   3.444   0.156   6.430 -0.4915  0.4209  1.0553
 6484SOL     OW30910   0.716   2.013  16.005  1.1610 -0.2247  0.3607
 6484SOL    HW130911   0.724   1.933  15.954  1.8236  0.6935 -0.9558
 6484SOL    HW230912   0.624   2.034  15.994  1.3545  1.0482  1.1680
 6485SOL     OW30913   4.440   1.695   1.357  0.0977 -0.1052  0.4678
 6485SOL    HW130914   4.456   1.644   1.437 -0.7148 -0.4182  0.4329
 6485SOL    HW230915   4.497   1.768   1.380  0.2427  0.0594 -0.4456
 6486SOL     OW30916   3.344   2.000   6.834  0.1634  0.5399 -0.5106
 6486SOL    HW130917   3.405   2.061   6.876 -0.8059  0.6297  0.7543
 6486SOL    HW230918   3.267   2.056   6.842  1.1460  1.8951 -0.5013
 6487SOL     OW30919   1.917   3.377   0.575  0.2166 -0.4809 -0.4772
 6487SOL    HW130920   1.916   3.454   0.520  0.3030 -0.3327 -0.2707
 6487SOL    HW230921   1.974   3.317   0.527 -0.1569 -0.3927 -1.0289
 6488SOL     OW30922   2.559   0.715   2.125  0.3192  0.2955  0.1823
 6488SOL    HW130923   2.584   0.796   2.170  2.2141 -0.3362  0.2818
 6488SOL    HW230924   2.482   0.748   2.079  1.9601  1.5429 -1.6861
 6489SOL     OW30925   3.763   2.332  11.510  0.3640  0.6255 -0.2391
 6489SOL    HW130926   3.782   2.390  11.437  1.0076  1.3336  0.5080
 6489SOL    HW230927   3.729   2.253  11.467  2.8147 -1.1073  1.0475
 6490SOL     OW30928   1.308   3.261   4.153  0.2547  0.3680  0.2544
 6490SOL    HW130929   1.279   3.245   4.063  1.4350 -2.5129  0.3776
 6490SOL    HW230930   1.334   3.353   4.149 -0.4398  0.5711  0.5214
 6491SOL     OW30931   2.117   1.650   3.861 -0.1919 -0.3272  0.1236
 6491SOL    HW130932   2.151   1.655   3.951 -0.4980 -2.9450  0.3882
 6491SOL    HW230933   2.047   1.715   3.866  0.1647 -0.0346  1.5197
 6492SOL     OW30934   4.656   3.675   5.118 -0.1942 -0.5146  0.0167
 6492SOL    HW130935   4.646   3.585   5.149 -2.0589 -0.2987  0.0385
 6492SOL    HW230936   4.667   3.665   5.023  3.5456 -1.0760  0.5078
 6493SOL     OW30937   3.245   0.411  14.886 -0.6196  0.6195  0.6431
 6493SOL    HW130938   3.270   0.411  14.793  1.1411  1.7533  1.1150
 6493SOL    HW230939   3.321   0.365  14.921  0.3065  0.1172 -2.0565
 6494SOL     OW30940   2.948   0.914  10.935  0.0379  0.3320  0.2193
 6494SOL    HW130941   2.884   0.845  10.917 -1.4692  1.5661  0.8906
 6494SOL    HW230942   2.901   0.995  10.919 -1.2708 -0.4106  0.3054
 6495SOL     OW30943   4.236   2.337   6.380  0.3329  0.0330  0.1889
 6495SOL    HW130944   4.291   2.271   6.338  2.0633 -0.2958  2.9485
 6495SOL    HW230945   4.274   2.411   6.333  2.4484 -0.2264  1.4608
 6496SOL     OW30946   1.101   3.623   6.621 -0.3599 -0.4553  0.3042
 6496SOL    HW130947   1.015   3.666   6.625 -0.4395 -0.7715  2.3087
 6496SOL    HW230948   1.121   3.648   6.711 -2.9400 -0.8619  0.9843
 6497SOL     OW30949   0.379   3.120   9.220 -0.4387  0.2799 -0.0991
 6497SOL    HW130950   0.335   3.199   9.249 -0.7251  0.2715 -0.5085
 6497SOL    HW230951   0.317   3.051   9.244  1.9742 -1.6678  0.5258
 6498SOL     OW30952   0.965   1.070   5.212 -0.3545 -0.2842  0.0210
 6498SOL    HW130953   0.883   1.113   5.187 -1.6909 -3.1524 -0.5064
 6498SOL    HW230954   1.024   1.146   5.212 -0.3591 -0.2812  1.2540
 6499SOL     OW30955   0.762   3.433   4.948  0.4323 -0.1384 -0.1146
 6499SOL    HW130956   0.843   3.383   4.934  0.0654 -0.8325  0.2727
 6499SOL    HW230957   0.700   3.364   4.973  0.2884 -0.1072 -0.3893
 6500SOL     OW30958   1.527   1.357   8.808  0.4327 -0.1892  0.0704
 6500SOL    HW130959   1.580   1.321   8.738  2.2203  0.3686  1.1367
 6500SOL    HW230960   1.485   1.282   8.849 -3.4939  2.9565  1.8681
 6501SOL     OW30961   3.179   3.801   5.186 -0.2745 -0.1326 -0.3473
 6501SOL    HW130962   3.111   3.755   5.137  1.3960 -1.6087 -1.2694
 6501SOL    HW230963   3.165   3.892   5.162 -3.2702 -1.3245 -3.1624
 6502SOL     OW30964   4.541   4.070  11.652  0.1071  0.4403  0.0268
 6502SOL    HW130965   4.495   4.150  11.627  2.9309  2.5617  1.6360
 6502SOL    HW230966   4.543   4.087  11.747  0.2933 -1.8265  0.4298
 6503SOL     OW30967   4.464   4.639   5.946 -0.3196  0.0725  0.6751
 6503SOL    HW130968   4.556   4.613   5.948 -0.2558  0.3748  1.7141
 6503SOL    HW230969   4.446   4.608   5.858  1.5822 -1.3725  0.7913
 6504SOL     OW30970   0.009   3.875   7.549  0.1393 -0.0180  0.5441
 6504SOL    HW130971   0.061   3.929   7.490 -0.7793  0.6633  0.3629
 6504SOL    HW230972   0.031   3.785   7.524  1.2482 -0.0634  1.6617
 6505SOL     OW30973   3.591   2.674   3.357 -0.1337  0.4011  0.3388
 6505SOL    HW130974   3.506   2.682   3.312  0.3249 -0.4733 -0.6649
 6505SOL    HW230975   3.609   2.758   3.399 -2.4580  0.6237  0.8964
 6506SOL     OW30976   0.821   2.787  13.509 -0.4982  0.0505 -0.1029
 6506SOL    HW130977   0.789   2.823  13.592  0.1096  1.8409 -0.6422
 6506SOL    HW230978   0.867   2.863  13.473 -0.6030  0.6922  1.0885
 6507SOL     OW30979   1.590   1.720   4.295 -0.3086  0.0067 -0.0731
 6507SOL    HW130980   1.505   1.753   4.264  0.0358  1.9377  1.0023
 6507SOL    HW230981   1.647   1.773   4.240 -0.5853  0.4444  0.0562
 6508SOL     OW30982   4.542   2.236   9.478 -0.0408  1.1981  0.1731
 6508SOL    HW130983   4.633   2.205   9.470 -0.2536  0.7859 -0.6646
 6508SOL    HW230984   4.530   2.296   9.404 -2.7294 -3.3788 -3.1022
 6509SOL     OW30985   4.393   4.211   5.882  0.2992 -0.2114  0.1855
 6509SOL    HW130986   4.365   4.228   5.792 -0.9274  0.0915  0.6121
 6509SOL    HW230987   4.318   4.252   5.927 -0.4414 -0.9979 -0.3206
 6510SOL     OW30988   1.835   0.923   1.185 -0.0099  0.2476 -0.3260
 6510SOL    HW130989   1.743   0.947   1.192  0.0006  0.0702  0.4218
 6510SOL    HW230990   1.838   0.855   1.252  1.2239  1.7438  1.1289
 6511SOL     OW30991   0.661   4.399   8.122 -0.6216 -0.3679 -0.3363
 6511SOL    HW130992   0.657   4.388   8.217  0.5717  1.1956 -0.1045
 6511SOL    HW230993   0.572   4.430   8.106  0.1668  0.8458 -2.3881
 6512SOL     OW30994   0.058   4.653   6.961 -0.3956  0.1669  0.2121
 6512SOL    HW130995   4.700   4.703   6.962 -0.7103 -0.3283 -2.1160
 6512SOL    HW230996   0.122   4.719   6.936  2.0155 -1.5330  1.8053
 6513SOL     OW30997   2.343   1.502   3.256  0.3347 -0.1401  0.4847
 6513SOL    HW130998   2.369   1.568   3.192  0.4331 -0.5516  0.0962
 6513SOL    HW230999   2.356   1.555   3.335  3.4758  1.1336 -0.9061
 6514SOL     OW31000   1.523   1.815   7.828  0.3419  0.5711 -0.2370
 6514SOL    HW131001   1.502   1.755   7.899 -0.2787 -1.4227 -2.1303
 6514SOL    HW231002   1.617   1.804   7.812  0.0786  0.3847 -1.5645
 6515SOL     OW31003   1.478   4.499   6.655 -0.3054 -0.0384 -0.8773
 6515SOL    HW131004   1.522   4.555   6.720  0.7086 -2.5467  0.5766
 6515SOL    HW231005   1.495   4.550   6.576  0.8292 -0.2153 -0.7451
 6516SOL     OW31006   2.728   0.651  16.482 -0.1226 -0.0687  0.0760
 6516SOL    HW131007   2.812   0.606  16.478 -1.3817 -1.9615 -4.1512
 6516SOL    HW231008   2.678   0.577  16.516 -0.7593  0.8990  1.2610
 6517SOL     OW31009   3.740   3.223   0.180  0.6486  0.1950  0.3546
 6517SOL    HW131010   3.711   3.239   0.091  0.7138 -1.6170  0.0135
 6517SOL    HW231011   3.745   3.127   0.185  2.3809  0.1753 -2.0150
 6518SOL     OW31012   3.789   0.227   5.288  0.5942 -0.2211  0.6803
 6518SOL    HW131013   3.860   0.246   5.227 -0.2350  3.0148  0.7027
 6518SOL    HW231014   3.799   0.133   5.299 -3.0554 -0.6901  0.1212
 6519SOL     OW31015   2.677   2.425  14.920 -0.0853 -0.5465  1.1062
 6519SOL    HW131016   2.725   2.364  14.976 -0.4202 -0.4610  1.4850
 6519SOL    HW231017   2.689   2.510  14.962 -0.1862 -0.7551  1.5602
 6520SOL     OW31018   1.581   2.770   8.971 -0.1289 -0.0210 -0.2767
 6520SOL    HW131019   1.633   2.831   8.918  0.8903 -1.6256 -1.1274
 6520SOL    HW231020   1.537   2.716   8.905 -1.6202  1.3311 -0.4065
 6521SOL     OW31021   0.170   3.695   9.483  0.0035  0.9653 -0.1498
 6521SOL    HW131022   0.253   3.653   9.504 -1.0774 -0.9076  0.3483
 6521SOL    HW231023   0.119   3.676   9.562 -2.1046 -0.0087 -1.7579
 6522SOL     OW31024   2.611   1.498   1.540  0.6504 -0.7225 -0.0705
 6522SOL    HW131025   2.645   1.531   1.457 -0.1375  1.8080  0.6167
 6522SOL    HW231026   2.661   1.551   1.603 -0.5580  1.4801 -0.9567
 6523SOL     OW31027   4.058   3.966  16.141  0.4628 -0.4116  0.0559
 6523SOL    HW131028   4.134   3.985  16.087  2.4016 -0.6665  2.6560
 6523SOL    HW231029   4.018   4.052  16.157  0.2579 -0.2446 -1.3718
 6524SOL     OW31030   2.113   1.127  13.863  0.2542  0.4116  0.1948
 6524SOL    HW131031   2.062   1.182  13.803 -0.1037 -0.3795 -0.2316
 6524SOL    HW231032   2.076   1.040  13.848  1.6385 -0.2908  0.8823
 6525SOL     OW31033   1.765   0.789   3.395  0.1081 -0.4722 -0.4560
 6525SOL    HW131034   1.786   0.862   3.336  0.7564  1.7692  2.5218
 6525SOL    HW231035   1.675   0.765   3.371 -0.6918  1.1741  0.7858
 6526SOL     OW31036   3.451   3.324   6.343  0.6816  0.3112 -0.0188
 6526SOL    HW131037   3.522   3.260   6.341  0.8384  0.4780  0.3151
 6526SOL    HW231038   3.499   3.402   6.315  1.7200 -0.0444  0.8009
 6527SOL     OW31039   0.930   3.655   7.699  0.2210  0.0433  0.2363
 6527SOL    HW131040   0.875   3.712   7.753  2.1978  1.9161  0.2760
 6527SOL    HW231041   0.956   3.589   7.764 -0.1562  0.8044  1.1631
 6528SOL     OW31042   0.645   1.725   3.461 -0.0928 -0.1296  0.1596
 6528SOL    HW131043   0.560   1.683   3.454  0.7808 -1.9481  0.4916
 6528SOL    HW231044   0.701   1.707   3.386 -0.7774  1.5772 -0.7716
 6529SOL     OW31045   1.414   0.892  12.595 -0.2100  0.6340 -0.1280
 6529SOL    HW131046   1.456   0.963  12.644  0.9623 -0.9421  1.1330
 6529SOL    HW231047   1.321   0.909  12.611  0.1951  1.7573  0.9769
 6530SOL     OW31048   0.765   0.509  12.124 -0.1017  0.2026 -0.1651
 6530SOL    HW131049   0.752   0.488  12.216 -0.1369  0.5608 -0.0900
 6530SOL    HW231050   0.797   0.597  12.142 -0.9199  0.4835 -0.1042
 6531SOL     OW31051   0.467   2.237   3.452 -0.1630  0.3328  0.1378
 6531SOL    HW131052   0.374   2.212   3.447 -0.0826  0.3715 -1.6481
 6531SOL    HW231053   0.506   2.149   3.454 -0.3439  0.2984  1.9254
 6532SOL     OW31054   2.482   0.773   4.957  0.2612  0.4468  0.2179
 6532SOL    HW131055   2.540   0.744   4.887 -1.5363  0.1281 -1.1486
 6532SOL    HW231056   2.394   0.789   4.923  0.5576  2.0497  0.1991
 6533SOL     OW31057   0.214   0.956   1.714 -0.4593 -0.1923 -0.4405
 6533SOL    HW131058   0.280   0.948   1.646  0.5764  2.3490  0.2512
 6533SOL    HW231059   0.252   0.897   1.779  0.0867 -0.5690 -1.1053
 6534SOL     OW31060   1.835   1.940  11.360 -0.7728  0.3174  0.7872
 6534SOL    HW131061   1.850   1.845  11.353 -2.0901  0.3098 -1.7676
 6534SOL    HW231062   1.916   1.963  11.315 -0.5717 -1.7887  0.0686
 6535SOL     OW31063   3.040   4.698  14.351 -0.3977  0.0531  0.1792
 6535SOL    HW131064   3.034   4.676  14.258 -0.4002 -1.5170  0.5411
 6535SOL    HW231065   2.991   4.625  14.389  1.9970 -2.1922 -1.0038
 6536SOL     OW31066   3.157   0.122   1.815  0.0705  0.0780  0.2077
 6536SOL    HW131067   3.176   0.208   1.777 -1.6900  0.5806  0.4748
 6536SOL    HW231068   3.210   0.121   1.895 -2.1440 -1.7601  1.6117
 6537SOL     OW31069   1.593   2.817   7.249  0.3027  0.9027 -0.0422
 6537SOL    HW131070   1.649   2.742   7.230 -0.6187  0.5920 -1.4444
 6537SOL    HW231071   1.551   2.793   7.332  1.6757  0.0707  0.4204
 6538SOL     OW31072   2.235   1.328   5.078  0.6793 -0.2159  0.2090
 6538SOL    HW131073   2.275   1.415   5.074  1.6649 -0.6751  0.0137
 6538SOL    HW231074   2.170   1.337   5.008  1.5344 -0.6711 -0.6451
 6539SOL     OW31075   2.621   1.491   8.742 -0.2299 -0.4730  0.1391
 6539SOL    HW131076   2.697   1.434   8.735  0.6781  0.5534  1.4465
 6539SOL    HW231077   2.554   1.454   8.685  1.2507 -1.7352 -0.7736
 6540SOL     OW31078   1.408   0.739  17.024 -0.2842 -0.4590 -0.0970
 6540SOL    HW131079   1.377   0.735  17.114  0.8789 -2.6247  0.1923
 6540SOL    HW231080   1.417   0.648  16.995 -0.7452 -0.3924 -0.4466
 6541SOL     OW31081   4.507   0.257   8.453 -0.0870 -0.2309 -0.2497
 6541SOL    HW131082   4.582   0.232   8.507  1.0803 -0.4269 -1.9394
 6541SOL    HW231083   4.510   0.353   8.458  0.8583 -0.2061 -1.3275
 6542SOL     OW31084   3.656   3.486   3.987 -0.1074  0.4807  0.5886
 6542SOL    HW131085   3.633   3.462   3.898 -1.0327  1.7498  0.4834
 6542SOL    HW231086   3.590   3.438   4.037 -0.4281 -0.5077 -0.7955
 6543SOL     OW31087   1.117   3.149  15.480  0.0537  0.2852 -0.0753
 6543SOL    HW131088   1.133   3.204  15.403  0.7443 -0.4279 -0.4322
 6543SOL    HW231089   1.038   3.101  15.454 -0.6525  2.6626 -2.3909
 6544SOL     OW31090   1.659   0.689   0.947  0.3286 -0.0351 -0.1425
 6544SOL    HW131091   1.646   0.780   0.973 -0.6196 -0.3458  0.4804
 6544SOL    HW231092   1.598   0.643   1.004 -1.9584  2.5346 -0.4757
 6545SOL     OW31093   0.684   3.979   6.238 -0.2974  0.1467  0.3101
 6545SOL    HW131094   0.744   4.000   6.167 -0.5425 -0.8102 -0.1813
 6545SOL    HW231095   0.669   4.062   6.283 -1.7154 -0.1560  0.3920
 6546SOL     OW31096   3.248   1.904  10.604  0.0599  0.2883 -0.3235
 6546SOL    HW131097   3.183   1.974  10.610 -1.8922 -1.6859  1.2527
 6546SOL    HW231098   3.208   1.850  10.672  0.4276  2.0566  1.2989
 6547SOL     OW31099   2.227   4.254  10.623 -0.2926 -0.3701 -0.1941
 6547SOL    HW131100   2.242   4.283  10.534 -0.5649 -1.6690 -0.6649
 6547SOL    HW231101   2.298   4.191  10.637  2.0366  2.0902 -0.9433
 6548SOL     OW31102   2.595   1.216   0.647  0.0583 -0.5779  0.0600
 6548SOL    HW131103   2.606   1.136   0.698  0.7604 -2.1661 -2.5924
 6548SOL    HW231104   2.684   1.251   0.644  0.6953 -2.3831 -2.1242
 6549SOL     OW31105   0.069   0.385  15.274 -0.4830 -0.0321  0.0666
 6549SOL    HW131106   0.130   0.313  15.259  1.0757  1.6999 -1.8857
 6549SOL    HW231107   0.120   0.464  15.256  0.9058 -0.8276  0.5169
 6550SOL     OW31108   1.204   0.547   9.085 -0.7508 -0.1630  0.0646
 6550SOL    HW131109   1.238   0.570   9.172 -0.4653  1.1597 -0.3996
 6550SOL    HW231110   1.143   0.616   9.059 -0.8217 -0.5014 -0.6574
 6551SOL     OW31111   3.650   2.618   1.784 -0.7327 -0.1717 -0.8009
 6551SOL    HW131112   3.574   2.561   1.797 -2.4975  1.7246 -2.7359
 6551SOL    HW231113   3.651   2.627   1.688  0.3302 -0.8037 -0.8517
 6552SOL     OW31114   1.147   2.856   7.667 -0.2185 -0.0263 -0.8200
 6552SOL    HW131115   1.094   2.915   7.720  2.6734  0.3095  1.6795
 6552SOL    HW231116   1.229   2.901   7.686 -0.5877  0.9965 -1.6725
 6553SOL     OW31117   3.954   2.583   8.949  0.5443  1.3917  0.0672
 6553SOL    HW131118   4.018   2.541   9.006  1.0128  0.3699 -1.2307
 6553SOL    HW231119   3.875   2.559   8.998  0.5275 -0.3514 -0.8318
 6554SOL     OW31120   0.428   4.489   7.456 -0.3736  0.4404 -0.4159
 6554SOL    HW131121   0.519   4.501   7.480 -0.0158 -2.6321 -0.2243
 6554SOL    HW231122   0.400   4.578   7.434 -1.3986  0.0780 -0.5758
 6555SOL     OW31123   0.034   4.397  13.604 -0.0877  0.3185 -0.3526
 6555SOL    HW131124   0.027   4.488  13.574  0.7608  0.5088  0.0430
 6555SOL    HW231125   4.709   4.398  13.687 -0.7843  0.7123 -0.7448
 6556SOL     OW31126   3.409   4.086  17.683 -0.2712  0.1979  0.9706
 6556SOL    HW131127   3.498   4.073  17.650  0.3447  0.0845  2.6750
 6556SOL    HW231128   3.359   4.121  17.609  0.7382  0.4524  0.3981
 6557SOL     OW31129   0.823   0.330   6.140  0.3615 -0.0357 -1.0067
 6557SOL    HW131130   0.825   0.258   6.204 -2.1397  2.2027  1.5723
 6557SOL    HW231131   0.858   0.405   6.189  1.6077 -0.8980 -0.5685
 6558SOL     OW31132   4.103   3.283   1.311 -0.3278  0.3607  0.0629
 6558SOL    HW131133   4.069   3.369   1.335  1.0829  0.7674  0.6598
 6558SOL    HW231134   4.189   3.310   1.278  0.1713 -1.8628 -0.4428
 6559SOL     OW31135   1.561   3.199   6.830  0.1180 -0.0143  0.3960
 6559SOL    HW131136   1.495   3.155   6.776  0.9271  1.6154 -1.9586
 6559SOL    HW231137   1.530   3.287   6.804  2.8842 -0.2013 -3.6241
 6560SOL     OW31138   0.510   1.435   5.248 -0.1327 -0.2385  0.3331
 6560SOL    HW131139   0.555   1.425   5.332 -1.9052 -0.0572  1.2829
 6560SOL    HW231140   0.564   1.379   5.192  1.4856 -0.2640  1.9014
 6561SOL     OW31141   2.215   1.397   8.009 -0.1830 -0.5367  0.5016
 6561SOL    HW131142   2.234   1.394   8.102  2.1327 -2.1181 -0.0105
 6561SOL    HW231143   2.284   1.450   7.968 -0.1462 -1.3450 -0.5039
 6562SOL     OW31144   2.574   0.961   9.435  0.1444 -0.5030  0.1431
 6562SOL    HW131145   2.594   1.017   9.359 -0.5484  2.3022  2.0477
 6562SOL    HW231146   2.482   0.940   9.418 -0.4428  2.6410 -0.6865
 6563SOL     OW31147   0.105   2.110  16.962  0.1613  0.2905  0.0353
 6563SOL    HW131148   0.109   2.115  16.867 -0.4241 -0.4439 -0.0269
 6563SOL    HW231149   0.109   2.202  16.986  0.7919  0.0955  0.7045
 6564SOL     OW31150   3.688   3.979   6.203 -0.2340 -0.5888  0.8601
 6564SOL    HW131151   3.702   4.030   6.123  2.2590 -2.3839  0.1367
 6564SOL    HW231152   3.594   3.983   6.221 -1.0069 -1.4706 -2.8718
 6565SOL     OW31153   3.626   2.276   2.555  0.0681  0.5671 -0.4107
 6565SOL    HW131154   3.694   2.240   2.612 -0.2788 -0.3208 -0.5476
 6565SOL    HW231155   3.547   2.271   2.609  1.2129 -0.5657  1.1739
 6566SOL     OW31156   2.300   2.413   6.995  0.5271 -0.2564  0.4843
 6566SOL    HW131157   2.239   2.361   6.943  0.7575 -0.8519  0.8166
 6566SOL    HW231158   2.385   2.383   6.962  1.3816  1.1336  1.3882
 6567SOL     OW31159   2.239   2.920  14.701 -0.1519  0.4103  0.1647
 6567SOL    HW131160   2.170   2.956  14.646  0.0057  0.9224  0.3029
 6567SOL    HW231161   2.199   2.951  14.782 -4.5819 -3.9521 -0.3950
 6568SOL     OW31162   3.143   1.948   5.132 -0.6637  0.5852 -1.1350
 6568SOL    HW131163   3.074   2.004   5.169 -0.8780 -1.0214  0.8885
 6568SOL    HW231164   3.207   1.940   5.203 -2.0453 -0.9731 -0.0489
 6569SOL     OW31165   3.392   0.740   2.299 -0.4773 -0.3871  0.5709
 6569SOL    HW131166   3.431   0.760   2.214 -1.6409 -0.0566  0.1173
 6569SOL    HW231167   3.297   0.736   2.286 -0.8014  0.9121  2.4288
 6570SOL     OW31168   0.205   2.049  11.334  0.2423 -0.7573 -0.1335
 6570SOL    HW131169   0.167   2.111  11.396  0.9083 -1.7582  1.2575
 6570SOL    HW231170   0.298   2.067  11.343 -0.3193  0.4685  3.1459
 6571SOL     OW31171   1.778   2.242  11.917 -0.4022 -0.5502  0.2125
 6571SOL    HW131172   1.696   2.270  11.877  0.4764  2.1899  0.3502
 6571SOL    HW231173   1.842   2.296  11.872 -1.1037  0.3591  0.3182
 6572SOL     OW31174   3.156   2.005   2.009  0.1395  0.1439 -0.0646
 6572SOL    HW131175   3.233   1.978   1.960  0.2446 -0.7882  0.6107
 6572SOL    HW231176   3.193   2.036   2.092  0.1676 -3.7921  1.3841
 6573SOL     OW31177   2.642   0.824  11.153 -0.5168  0.0564  0.4281
 6573SOL    HW131178   2.608   0.909  11.180 -0.1155 -0.3577  2.1998
 6573SOL    HW231179   2.696   0.796  11.226 -0.5941 -0.1043  0.4257
 6574SOL     OW31180   0.805   3.426  14.417  0.1368 -0.2099  0.3427
 6574SOL    HW131181   0.818   3.514  14.383  0.4462 -0.5031 -0.2859
 6574SOL    HW231182   0.888   3.378  14.411  0.9601  1.6088 -2.3739
 6575SOL     OW31183   4.395   1.498  13.900  0.2303 -0.1265 -0.1722
 6575SOL    HW131184   4.472   1.537  13.859  0.6935 -0.4848  0.3621
 6575SOL    HW231185   4.433   1.487  13.987  1.3287  1.5856 -0.4507
 6576SOL     OW31186   1.335   0.170   5.246 -0.3081  0.3712  0.4593
 6576SOL    HW131187   1.268   0.171   5.315 -1.0193  1.1183 -0.2429
 6576SOL    HW231188   1.312   0.250   5.200  0.7749 -0.1522 -0.9618
 6577SOL     OW31189   2.137   1.041   7.021  0.0932 -0.1579  0.7270
 6577SOL    HW131190   2.088   0.973   7.066  0.0303 -0.2389  0.5349
 6577SOL    HW231191   2.225   1.004   7.034 -0.1698 -0.8955  0.3605
 6578SOL     OW31192   0.626   2.389   9.122 -0.0854 -0.0402 -0.5076
 6578SOL    HW131193   0.558   2.344   9.071  1.3890 -2.1893 -0.5683
 6578SOL    HW231194   0.632   2.329   9.196  1.7293 -1.9133 -2.1679
 6579SOL     OW31195   2.720   0.306   0.757  0.1637 -0.3022 -0.0786
 6579SOL    HW131196   2.777   0.379   0.780  0.3848 -0.8919  1.2705
 6579SOL    HW231197   2.720   0.267   0.845  1.5149 -2.0264 -0.8385
 6580SOL     OW31198   2.145   4.243   4.177  0.0847 -0.1253 -0.0871
 6580SOL    HW131199   2.192   4.201   4.249 -0.7185  0.6346  0.8690
 6580SOL    HW231200   2.106   4.313   4.228  1.7206  0.1055  0.8462
 6581SOL     OW31201   2.259   1.894   7.741 -0.3498  0.6034 -0.0547
 6581SOL    HW131202   2.294   1.879   7.829  0.6311 -1.6498 -0.8356
 6581SOL    HW231203   2.340   1.898   7.691  0.5215 -0.4815  1.2812
 6582SOL     OW31204   3.499   2.125   4.653  0.3757  0.1268  0.8429
 6582SOL    HW131205   3.494   2.194   4.587 -0.0200  0.0066  0.7529
 6582SOL    HW231206   3.410   2.092   4.645  1.3600 -2.6196  1.0509
 6583SOL     OW31207   4.494   3.740  13.822 -0.2468  0.0452  0.1018
 6583SOL    HW131208   4.540   3.712  13.901  0.2294 -0.3185 -0.3037
 6583SOL    HW231209   4.414   3.688  13.811 -0.5948  0.8369 -1.1013
 6584SOL     OW31210   4.391   1.494  10.255  0.1433  0.1145  0.5061
 6584SOL    HW131211   4.345   1.574  10.229 -3.0751 -1.8004  0.2106
 6584SOL    HW231212   4.447   1.524  10.326 -0.8666 -1.6123  2.0307
 6585SOL     OW31213   3.401   0.692   5.421 -0.0435  0.1867  0.1781
 6585SOL    HW131214   3.308   0.705   5.401 -0.5155 -0.9055  1.6947
 6585SOL    HW231215   3.441   0.721   5.339  1.4028 -1.5181  0.2933
 6586SOL     OW31216   1.924   1.187   8.622  0.8139  0.2437 -0.0066
 6586SOL    HW131217   1.910   1.121   8.690  0.3936  1.8602  1.4419
 6586SOL    HW231218   1.863   1.163   8.551  1.4739  0.2835 -0.5916
 6587SOL     OW31219   2.903   3.266   9.101 -0.1789 -0.2553  0.3757
 6587SOL    HW131220   2.846   3.315   9.160  1.7176  1.9272  0.3671
 6587SOL    HW231221   2.840   3.227   9.040  1.5756 -0.6833 -1.1755
 6588SOL     OW31222   3.775   1.540   8.394 -0.1915  0.2021 -0.3769
 6588SOL    HW131223   3.849   1.549   8.334  1.0633  0.8577  1.2838
 6588SOL    HW231224   3.813   1.564   8.478  2.3284 -1.1455 -1.1258
 6589SOL     OW31225   2.967   1.973   7.438  0.2957  0.3143  0.6774
 6589SOL    HW131226   2.948   2.064   7.416  1.7287 -0.1015 -2.1986
 6589SOL    HW231227   3.060   1.985   7.458  0.7057 -0.1249 -1.0344
 6590SOL     OW31228   1.346   1.141  13.988 -0.0532  0.1882  0.4279
 6590SOL    HW131229   1.366   1.086  14.063 -0.6331 -0.2171  0.2825
 6590SOL    HW231230   1.338   1.070  13.924 -0.6221  0.7500 -0.1322
 6591SOL     OW31231   4.710   2.557  13.950  0.6883 -0.0422 -0.1241
 6591SOL    HW131232   4.703   2.625  14.017  1.4551  0.2275 -0.3129
 6591SOL    HW231233   4.686   2.478  13.998 -1.3346 -0.3793 -1.7069
 6592SOL     OW31234   1.573   4.357  11.749  0.5594  0.3917 -0.2178
 6592SOL    HW131235   1.645   4.350  11.686  1.9120  0.5091  1.3111
 6592SOL    HW231236   1.558   4.264  11.765 -0.1768  0.0128 -3.0471
 6593SOL     OW31237   1.075   2.331  16.416 -0.4419 -0.2758 -0.0207
 6593SOL    HW131238   1.012   2.309  16.348 -0.8759 -2.4068  1.1024
 6593SOL    HW231239   1.053   2.419  16.448  3.9782  0.4730  1.0626
 6594SOL     OW31240   2.624   2.958   3.300  0.0674  0.5437  0.0724
 6594SOL    HW131241   2.640   2.867   3.322  0.4633  0.7097  0.4530
 6594SOL    HW231242   2.573   2.986   3.376 -0.2707 -2.9213  1.1228
 6595SOL     OW31243   1.484   0.582   4.619 -0.3826 -0.2724  0.0097
 6595SOL    HW131244   1.443   0.668   4.613  1.0873  0.5791  2.2960
 6595SOL    HW231245   1.566   0.601   4.664  0.0254  2.0569 -1.7446
 6596SOL     OW31246   4.638   4.715  16.857 -0.2838 -0.1582 -0.1057
 6596SOL    HW131247   4.685   4.715  16.940  0.6514 -0.4461 -0.6376
 6596SOL    HW231248   4.615   4.623  16.851  1.8312 -0.6381 -0.8459
 6597SOL     OW31249   4.115   0.968   8.589 -0.1399 -0.4388 -0.8649
 6597SOL    HW131250   4.044   0.913   8.622  0.5645 -0.8554 -0.0400
 6597SOL    HW231251   4.080   1.057   8.594 -2.5001 -1.3088 -2.1045
 6598SOL     OW31252   0.057   2.695  16.860 -0.1668 -0.1897  0.1189
 6598SOL    HW131253   0.047   2.622  16.921 -1.5330 -0.2025 -0.1244
 6598SOL    HW231254   0.149   2.673  16.844  0.5112  2.3112  0.5946
 6599SOL     OW31255   4.258   1.235   8.680 -0.2013  0.7574 -0.0541
 6599SOL    HW131256   4.237   1.191   8.598  1.8386  3.6771 -2.1634
 6599SOL    HW231257   4.206   1.315   8.672  1.5118  2.0026  1.3284
 6600SOL     OW31258   3.097   2.074   6.484 -0.6176  0.7734 -0.0691
 6600SOL    HW131259   3.038   2.029   6.545 -1.7083  0.2032 -1.5329
 6600SOL    HW231260   3.029   2.095   6.420  1.8719 -1.7068 -3.5269
 6601SOL     OW31261   2.868   4.040   2.617 -0.1097 -0.5294 -0.3602
 6601SOL    HW131262   2.964   4.041   2.618 -0.1140  1.1979 -2.1092
 6601SOL    HW231263   2.859   4.127   2.578  0.2121  0.1539  1.0857
 6602SOL     OW31264   3.416   2.631   5.910  0.2106  0.0873 -0.4788
 6602SOL    HW131265   3.330   2.628   5.869  1.0891 -0.5330 -2.2646
 6602SOL    HW231266   3.412   2.559   5.974  0.1143  0.0762 -0.4971
 6603SOL     OW31267   1.830   0.824   4.484 -0.5720 -0.2190  0.2237
 6603SOL    HW131268   1.868   0.815   4.571 -1.3774  0.3370  0.6323
 6603SOL    HW231269   1.896   0.880   4.443  0.4906 -1.5990  0.0326
 6604SOL     OW31270   3.869   3.331   6.443  0.2605 -0.1637 -0.2580
 6604SOL    HW131271   3.962   3.320   6.422 -0.9570 -1.3325 -5.0942
 6604SOL    HW231272   3.847   3.404   6.385  0.2801 -1.0578 -1.3957
 6605SOL     OW31273   2.689   1.764  10.444  0.1104  0.1592  0.1138
 6605SOL    HW131274   2.717   1.852  10.420  2.3492 -1.2531 -2.4175
 6605SOL    HW231275   2.617   1.794  10.501  0.4160 -0.9051  1.0550
 6606SOL     OW31276   1.472   1.644   8.521 -0.8174  0.0124 -0.2426
 6606SOL    HW131277   1.395   1.680   8.475  1.0281  1.3867 -2.2568
 6606SOL    HW231278   1.514   1.728   8.540 -2.3061  0.7984 -0.3458
 6607SOL     OW31279   2.558   3.298   8.727  0.1248 -0.1436 -0.1212
 6607SOL    HW131280   2.573   3.381   8.771 -0.3059 -0.3704  0.4618
 6607SOL    HW231281   2.616   3.250   8.786  0.1572  1.4563  1.1289
 6608SOL     OW31282   0.038   3.525   5.780  0.5308 -0.4338  0.5630
 6608SOL    HW131283   0.043   3.617   5.807  1.3808  0.3827 -2.3630
 6608SOL    HW231284   4.702   3.543   5.706  2.6349  2.1644 -0.4904
 6609SOL     OW31285   0.858   4.401   6.436 -0.3726 -0.0148 -0.2349
 6609SOL    HW131286   0.925   4.434   6.376  0.1243 -1.7574 -0.6678
 6609SOL    HW231287   0.806   4.480   6.448 -0.2491  0.1081 -0.5163
 6610SOL     OW31288   4.482   0.797  16.239  0.1687  0.1378  0.0421
 6610SOL    HW131289   4.484   0.851  16.318  2.1043 -0.4690  0.4139
 6610SOL    HW231290   4.489   0.712  16.284 -1.2292 -0.4916 -0.9186
 6611SOL     OW31291   2.359   0.305   2.347 -0.6750 -0.0691  0.9057
 6611SOL    HW131292   2.435   0.259   2.310 -2.6783 -2.5205 -0.0973
 6611SOL    HW231293   2.313   0.345   2.273 -1.6679  2.4177  2.8675
 6612SOL     OW31294   3.121   3.251   3.172 -0.6503  0.2965 -0.1518
 6612SOL    HW131295   3.146   3.171   3.219  1.5705  0.9568 -0.2352
 6612SOL    HW231296   3.081   3.212   3.095  1.0831 -2.4111  0.3105
 6613SOL     OW31297   3.516   3.323  13.193  0.2898 -0.1646  0.1595
 6613SOL    HW131298   3.430   3.281  13.188  0.0776  0.2943  0.0084
 6613SOL    HW231299   3.490   3.397  13.247 -1.0387  0.3991 -1.2596
 6614SOL     OW31300   2.434   0.490   8.978  0.1646  0.2196 -0.0208
 6614SOL    HW131301   2.449   0.561   9.041 -0.9188  1.0824 -0.7196
 6614SOL    HW231302   2.340   0.495   8.997 -0.0670  0.7818 -1.2800
 6615SOL     OW31303   0.761   0.493   3.637 -0.1789  0.3364  0.2132
 6615SOL    HW131304   0.758   0.523   3.546 -0.3843 -2.5118 -0.6930
 6615SOL    HW231305   0.776   0.400   3.625 -0.1344  0.0687  2.3934
 6616SOL     OW31306   4.220   1.388   7.878 -0.3813  0.0798 -0.0657
 6616SOL    HW131307   4.145   1.364   7.932  1.2043  0.3752  2.2882
 6616SOL    HW231308   4.206   1.483   7.875  2.8962  0.6305  1.3129
 6617SOL     OW31309   1.060   1.003   0.211 -0.0113  0.0585  0.0726
 6617SOL    HW131310   1.150   1.022   0.235 -0.3608  0.5698  1.0171
 6617SOL    HW231311   1.083   0.939   0.144  1.2647 -1.8881  2.3777
 6618SOL     OW31312   1.161   0.915   5.677 -0.3869  0.3690 -0.5866
 6618SOL    HW131313   1.253   0.888   5.679 -0.0578  1.6769  2.1786
 6618SOL    HW231314   1.157   0.989   5.738 -1.1811 -0.9788  1.0180
 6619SOL     OW31315   4.060   4.010   3.653 -0.2127 -0.2076  0.1123
 6619SOL    HW131316   4.153   4.003   3.670 -0.1264 -1.6349 -0.9373
 6619SOL    HW231317   4.037   3.919   3.674  1.3880 -1.3759 -3.2734
 6620SOL     OW31318   1.770   3.260   5.643  0.1313  0.2718 -0.1250
 6620SOL    HW131319   1.675   3.268   5.644  0.1119  0.1169 -0.7611
 6620SOL    HW231320   1.779   3.166   5.659 -0.2757 -0.3855 -3.7319
 6621SOL     OW31321   1.361   3.239   4.424  0.1101 -0.5717 -0.1613
 6621SOL    HW131322   1.403   3.313   4.467  2.4784 -0.2690 -3.0075
 6621SOL    HW231323   1.327   3.279   4.344 -1.3948 -0.9087  0.3095
 6622SOL     OW31324   1.143   1.334   9.628 -0.1698 -0.2169  0.3646
 6622SOL    HW131325   1.093   1.289   9.696 -1.2931  0.5366  0.0411
 6622SOL    HW231326   1.203   1.391   9.677 -0.5376  1.8206 -1.5255
 6623SOL     OW31327   3.102   1.743  16.216 -0.2829 -0.0186  0.3854
 6623SOL    HW131328   3.007   1.755  16.205 -0.3841 -1.3293 -0.0841
 6623SOL    HW231329   3.118   1.827  16.260 -3.2634 -1.1319  3.6118
 6624SOL     OW31330   4.040   3.192  14.674  0.2686 -0.2162 -0.8905
 6624SOL    HW131331   4.057   3.183  14.768 -2.6941 -0.8639 -0.4113
 6624SOL    HW231332   4.104   3.139  14.626 -0.4089 -1.5232 -0.3612
 6625SOL     OW31333   3.481   4.103  16.167 -0.0287 -0.4810  0.0590
 6625SOL    HW131334   3.437   4.095  16.252 -1.3611 -1.9973 -0.7938
 6625SOL    HW231335   3.569   4.076  16.193 -1.0230 -0.4059  3.5771
 6626SOL     OW31336   0.266   2.558  16.431  0.1451 -0.2464 -0.6020
 6626SOL    HW131337   0.202   2.523  16.369 -2.1756 -0.4444  1.8973
 6626SOL    HW231338   0.339   2.577  16.373  0.6983  1.9462  0.8189
 6627SOL     OW31339   0.803   1.154  12.114 -0.3665 -0.1197  0.2070
 6627SOL    HW131340   0.806   1.243  12.149 -0.2330  0.2417 -0.7134
 6627SOL    HW231341   0.729   1.115  12.161 -0.5770 -1.3497 -1.1465
 6628SOL     OW31342   3.819   4.126   4.021  0.0245  0.7116 -0.4155
 6628SOL    HW131343   3.904   4.089   4.044 -0.2568 -1.3980 -2.8666
 6628SOL    HW231344   3.801   4.174   4.102  1.0648  0.0860  0.1806
 6629SOL     OW31345   0.457   2.942  12.732  0.5361  0.4288 -0.3456
 6629SOL    HW131346   0.522   2.873  12.744  1.4965  1.2815 -0.5839
 6629SOL    HW231347   0.431   2.931  12.640 -0.1274 -1.4301  0.0733
 6630SOL     OW31348   3.423   1.509  13.674  0.1517  0.3356 -0.0546
 6630SOL    HW131349   3.378   1.475  13.752 -0.2247  1.7959  0.3679
 6630SOL    HW231350   3.419   1.603  13.694 -0.6054  0.2961 -0.0251
 6631SOL     OW31351   3.503   3.431   0.077  0.0664  0.1920  0.2442
 6631SOL    HW131352   3.543   3.415   0.162 -1.6699  0.0775  1.0273
 6631SOL    HW231353   3.430   3.481   0.112 -1.0385  0.3694 -2.3162
 6632SOL     OW31354   3.759   4.212  14.132  0.2544  0.2679  0.1696
 6632SOL    HW131355   3.834   4.269  14.114 -0.7788  0.8910 -2.2473
 6632SOL    HW231356   3.699   4.241  14.062 -0.6523 -1.0026  0.4241
 6633SOL     OW31357   4.126   1.660   2.484  0.2953 -0.6738 -0.1466
 6633SOL    HW131358   4.034   1.659   2.458  0.1856  0.3534  0.2080
 6633SOL    HW231359   4.167   1.672   2.398 -0.4917  1.3912 -0.2293
 6634SOL     OW31360   3.106   1.541   7.459  0.5660  0.5273  0.4587
 6634SOL    HW131361   3.154   1.484   7.400 -2.5820  0.9648 -2.5096
 6634SOL    HW231362   3.041   1.584   7.403  0.1512  0.3999  0.8377
 6635SOL     OW31363   3.874   3.418  12.588  0.1983  0.4291 -1.2079
 6635SOL    HW131364   3.933   3.348  12.616 -0.2608  0.4408 -0.2230
 6635SOL    HW231365   3.859   3.472  12.666  0.7431  1.0228 -1.5178
 6636SOL     OW31366   4.375   1.444   2.803  0.6231  0.1455  0.1942
 6636SOL    HW131367   4.397   1.432   2.711 -1.4848  0.9880 -0.4058
 6636SOL    HW231368   4.356   1.537   2.802  0.3443  0.0842 -0.2388
 6637SOL     OW31369   0.812   0.315  10.008 -0.0492 -0.0844  1.2382
 6637SOL    HW131370   0.834   0.248   9.943 -0.0819 -0.0452  1.1868
 6637SOL    HW231371   0.789   0.259  10.082 -0.3449  2.0806  2.8163
 6638SOL     OW31372   2.993   3.823  14.067  0.7258 -0.4184 -0.3768
 6638SOL    HW131373   2.932   3.754  14.040  0.3390 -1.0997  2.2911
 6638SOL    HW231374   3.041   3.826  13.984  0.7937 -3.4490 -0.4537
 6639SOL     OW31375   3.495   1.100   6.279  0.3425 -0.0947  0.5673
 6639SOL    HW131376   3.581   1.086   6.240  0.5766  2.0824  0.2799
 6639SOL    HW231377   3.510   1.140   6.365 -1.5512  1.3173  0.2565
 6640SOL     OW31378   1.285   1.616  11.770  0.1466  0.3939 -0.3760
 6640SOL    HW131379   1.310   1.548  11.707 -0.1736  0.5182 -0.6411
 6640SOL    HW231380   1.340   1.688  11.741  0.3376  0.8123  1.0406
 6641SOL     OW31381   1.357   1.157   9.534  0.3997 -0.3162  0.4633
 6641SOL    HW131382   1.324   1.067   9.529 -0.4838  0.0078  0.5338
 6641SOL    HW231383   1.290   1.208   9.578  1.4061  0.8618  0.6360
 6642SOL     OW31384   4.603   1.642   5.426 -0.3142 -0.7569 -0.2570
 6642SOL    HW131385   4.538   1.578   5.399 -2.2640  1.9869 -2.0509
 6642SOL    HW231386   4.670   1.626   5.360 -0.1215  2.5391 -0.8722
 6643SOL     OW31387   1.441   4.099   4.524 -0.2195 -0.1226  0.5703
 6643SOL    HW131388   1.525   4.077   4.563  0.7099 -2.1955 -2.5943
 6643SOL    HW231389   1.448   4.040   4.449 -1.6866  0.3304  0.0710
 6644SOL     OW31390   3.117   4.606   5.700 -0.6268  0.0824  0.0020
 6644SOL    HW131391   3.066   4.669   5.649 -0.9635 -1.1246 -1.1558
 6644SOL    HW231392   3.182   4.576   5.637 -1.3172 -0.7045 -0.3221
 6645SOL     OW31393   4.150   0.234   3.010  0.2543 -0.2798 -0.1698
 6645SOL    HW131394   4.123   0.295   2.942 -0.8927  0.6629  1.1408
 6645SOL    HW231395   4.167   0.297   3.079  0.0014 -0.4911  0.0877
 6646SOL     OW31396   0.912   4.128   3.498 -0.9043  0.2466  0.2229
 6646SOL    HW131397   0.913   4.058   3.563  0.3044  0.1459  0.0891
 6646SOL    HW231398   0.922   4.079   3.416 -1.1638  1.1245 -0.3431
 6647SOL     OW31399   0.714   2.742  10.747  0.0367  0.6506 -0.3944
 6647SOL    HW131400   0.733   2.754  10.840 -0.4328 -0.9715 -0.0826
 6647SOL    HW231401   0.780   2.800  10.710  0.8003  1.0894  1.6198
 6648SOL     OW31402   1.115   3.822   3.581  0.3927 -0.2308  0.2732
 6648SOL    HW131403   1.032   3.852   3.618  0.2442 -1.7769  1.1505
 6648SOL    HW231404   1.172   3.844   3.654  4.4855 -2.9135 -2.0934
 6649SOL     OW31405   0.182   0.671   7.703 -0.1904  0.0950  0.0351
 6649SOL    HW131406   0.171   0.578   7.681 -0.0632  0.4949 -1.7208
 6649SOL    HW231407   0.092   0.700   7.693 -0.9327 -3.0962 -2.7009
 6650SOL     OW31408   4.500   4.369   6.892  0.1007 -0.3305  0.5948
 6650SOL    HW131409   4.423   4.312   6.889 -0.9515  1.2428 -2.9932
 6650SOL    HW231410   4.538   4.360   6.979  0.1070  0.3611  0.6655
 6651SOL     OW31411   0.650   0.911   3.551  0.0595 -0.1107 -0.1974
 6651SOL    HW131412   0.572   0.856   3.543  0.0375  0.0309 -0.9319
 6651SOL    HW231413   0.616   0.974   3.614 -3.4655  0.9106 -3.1740
 6652SOL     OW31414   0.451   0.840   6.129 -0.7122  0.1673  0.1346
 6652SOL    HW131415   0.416   0.757   6.098 -1.5049  0.5012  0.1300
 6652SOL    HW231416   0.532   0.846   6.078 -1.3483  1.0527 -0.7707
 6653SOL     OW31417   2.736   2.679   8.575 -0.1583 -0.3010  0.1580
 6653SOL    HW131418   2.739   2.734   8.497 -3.1590 -2.0024 -1.1458
 6653SOL    HW231419   2.783   2.598   8.556  1.0415  0.6710 -1.0279
 6654SOL     OW31420   4.618   4.247   8.175  0.0845  0.1769 -0.2890
 6654SOL    HW131421   4.566   4.167   8.183  0.2750  0.0511 -0.3081
 6654SOL    HW231422   4.548   4.306   8.147 -3.0466 -1.8592  3.1577
 6655SOL     OW31423   0.712   1.703   6.062  0.1462 -0.1677 -0.3873
 6655SOL    HW131424   0.715   1.796   6.083 -0.6938 -0.9481  3.1023
 6655SOL    HW231425   0.801   1.670   6.079  0.0833 -1.3715 -2.3065
 6656SOL     OW31426   4.036   3.501   6.072  0.4034  0.3023  0.4433
 6656SOL    HW131427   3.971   3.432   6.064  1.6427 -0.7916 -0.1634
 6656SOL    HW231428   4.002   3.561   6.139 -0.5358  1.1239 -0.7672
 6657SOL     OW31429   0.759   4.215   7.944 -0.3245 -0.5764 -0.1483
 6657SOL    HW131430   0.681   4.161   7.933 -1.6511  1.4769 -0.6819
 6657SOL    HW231431   0.734   4.261   8.024 -2.5827  0.1556 -1.2846
 6658SOL     OW31432   4.268   3.195   7.132 -0.0795 -0.1255 -0.2763
 6658SOL    HW131433   4.332   3.126   7.147  3.0772  2.2935 -2.5680
 6658SOL    HW231434   4.255   3.195   7.037 -0.3684  0.3606 -0.2399
 6659SOL     OW31435   2.766   1.640   8.519  0.1724  0.0313  0.3878
 6659SOL    HW131436   2.739   1.612   8.606 -1.7966  0.8772  0.0499
 6659SOL    HW231437   2.858   1.662   8.536  0.3697 -0.3424 -0.1810
 6660SOL     OW31438   0.103   3.296   7.094  0.2666 -0.3584  0.7904
 6660SOL    HW131439   0.083   3.302   7.001 -1.1022  1.9625  1.2281
 6660SOL    HW231440   0.198   3.306   7.098  0.4108 -1.0134 -0.9575
 6661SOL     OW31441   0.034   1.367   9.875  0.4134 -0.0769 -0.3559
 6661SOL    HW131442   4.687   1.431   9.893  1.4238  1.0977 -0.6165
 6661SOL    HW231443   4.704   1.291   9.851  0.2354 -0.7649  2.2913
 6662SOL     OW31444   4.458   0.615   8.987  0.5136  0.1662  0.0294
 6662SOL    HW131445   4.529   0.673   8.960 -1.5560  1.1009 -3.4087
 6662SOL    HW231446   4.429   0.578   8.903  3.0255 -1.3984 -0.1188
 6663SOL     OW31447   2.479   0.570   7.916  0.0212 -0.1614 -0.0482
 6663SOL    HW131448   2.536   0.597   7.988  0.4077 -0.0650 -0.3839
 6663SOL    HW231449   2.460   0.478   7.935  0.7353 -0.2135  0.3962
 6664SOL     OW31450   2.180   2.314   8.044 -0.0093  0.8069 -0.2509
 6664SOL    HW131451   2.247   2.378   8.017 -0.2560  1.5221  0.8198
 6664SOL    HW231452   2.172   2.319   8.140  0.2689  1.4862 -0.2611
 6665SOL     OW31453   4.287   2.699   9.151 -0.7498 -0.1403 -0.0041
 6665SOL    HW131454   4.256   2.644   9.079  0.9804  2.7517 -2.9474
 6665SOL    HW231455   4.209   2.744   9.183 -0.5654  0.0372  0.2005
 6666SOL     OW31456   4.496   3.762  10.556 -0.1036  0.2133 -0.6317
 6666SOL    HW131457   4.425   3.699  10.547  1.4701 -1.5122 -1.1216
 6666SOL    HW231458   4.471   3.834  10.498 -2.9964 -0.4276 -0.1456
 6667SOL     OW31459   2.515   2.874   0.052 -0.0926 -0.3785 -0.0477
 6667SOL    HW131460   2.557   2.957   0.074 -0.6885 -0.6573  2.1981
 6667SOL    HW231461   2.575   2.805   0.082  2.2967  0.2909 -3.3810
 6668SOL     OW31462   2.161   0.269  17.175 -0.0617 -0.0853  0.4872
 6668SOL    HW131463   2.213   0.199  17.214 -1.2772 -0.7818  0.8686
 6668SOL    HW231464   2.233   0.331  17.184 -0.1095 -0.2291  1.9016
 6669SOL     OW31465   1.591   4.607   8.748 -0.4308 -0.5140 -0.2924
 6669SOL    HW131466   1.662   4.619   8.684 -1.4799 -0.7668 -1.5067
 6669SOL    HW231467   1.616   4.679   8.806 -2.1426 -0.6293  0.5895
 6670SOL     OW31468   2.923   1.172  11.959  0.6891  0.4641  0.2113
 6670SOL    HW131469   2.892   1.156  12.048  0.4195 -0.5579 -0.0670
 6670SOL    HW231470   2.993   1.236  11.973  0.6115  0.6673 -0.3280
 6671SOL     OW31471   2.056   0.907   6.151  0.2636 -0.4891  0.7412
 6671SOL    HW131472   2.119   0.962   6.104 -1.8272  1.0366 -0.2822
 6671SOL    HW231473   2.084   0.819   6.128  0.2656 -0.7226  1.6450
 6672SOL     OW31474   2.782   3.493  12.667  0.2081  0.6478 -0.1903
 6672SOL    HW131475   2.696   3.459  12.643 -0.0370  0.9287  0.3026
 6672SOL    HW231476   2.766   3.518  12.758 -1.6312  2.4453 -1.0132
 6673SOL     OW31477   1.168   0.110   2.176  0.4149  0.1318 -0.1119
 6673SOL    HW131478   1.215   0.048   2.120 -1.0711 -1.0662 -0.0324
 6673SOL    HW231479   1.242   0.162   2.207 -0.0757  0.0343  1.1934
 6674SOL     OW31480   3.014   2.701  12.721 -0.8259 -0.4949  0.1744
 6674SOL    HW131481   2.968   2.636  12.774 -0.9958  0.0476  0.6985
 6674SOL    HW231482   3.093   2.659  12.689 -0.8980 -1.0819  0.7674
 6675SOL     OW31483   2.834   0.644   2.173 -0.6094 -0.0674 -0.0932
 6675SOL    HW131484   2.743   0.663   2.150 -1.1519 -1.3889  0.9564
 6675SOL    HW231485   2.829   0.578   2.242 -1.2404 -3.9821 -3.8596
 6676SOL     OW31486   0.180   0.123   4.139 -0.1460  0.1321  0.5710
 6676SOL    HW131487   0.173   0.057   4.070 -0.0896 -0.5265  1.2044
 6676SOL    HW231488   0.232   0.186   4.087 -0.2289 -1.3193 -1.2593
 6677SOL     OW31489   0.289   3.230   6.345  0.3724  0.0719  0.6644
 6677SOL    HW131490   0.360   3.175   6.314  0.7242  0.5604  0.6105
 6677SOL    HW231491   0.324   3.283   6.416 -0.7107  0.5056  0.8817
 6678SOL     OW31492   1.824   4.531   6.127  0.2194  0.2734 -0.0422
 6678SOL    HW131493   1.787   4.483   6.053  0.2077 -1.6193  1.1697
 6678SOL    HW231494   1.859   4.452   6.169 -0.9843  0.3670  1.1168
 6679SOL     OW31495   0.360   1.083  16.006 -0.2377  0.5899  0.1397
 6679SOL    HW131496   0.434   1.087  16.066 -0.2616  2.6253  0.0393
 6679SOL    HW231497   0.336   0.991  16.015  1.5592  0.0819 -0.1880
 6680SOL     OW31498   3.566   1.219   7.988  0.0213 -0.0077  0.3500
 6680SOL    HW131499   3.506   1.145   7.994  0.2848 -0.3145 -0.7326
 6680SOL    HW231500   3.597   1.224   8.078  0.5430 -3.2519  0.3427
 6681SOL     OW31501   4.117   0.896  11.122 -0.0035  0.0508  0.2682
 6681SOL    HW131502   4.109   0.933  11.210  1.9606 -2.2617  1.4263
 6681SOL    HW231503   4.186   0.834  11.146 -0.4344 -0.9818 -1.2152
 6682SOL     OW31504   0.499   2.973   7.827 -0.0699  0.3083  0.3070
 6682SOL    HW131505   0.567   3.018   7.877 -0.0060 -1.1237  1.5062
 6682SOL    HW231506   0.420   3.008   7.867  0.6284  2.6472 -0.3507
 6683SOL     OW31507   2.227   0.159   2.076 -0.1643  0.0090 -0.6491
 6683SOL    HW131508   2.296   0.171   2.010 -0.9593  1.0551 -1.2859
 6683SOL    HW231509   2.205   0.250   2.093  1.6112  0.1908  0.7295
 6684SOL     OW31510   4.492   2.556   2.105 -0.2242  0.2147  0.2072
 6684SOL    HW131511   4.583   2.567   2.077  0.3370 -2.9137  0.7951
 6684SOL    HW231512   4.476   2.467   2.073  1.7645  0.3952 -1.2809
 6685SOL     OW31513   0.296   0.146   3.250  0.1290  0.4360 -0.3652
 6685SOL    HW131514   0.298   0.071   3.191  0.0342 -0.2462  0.4922
 6685SOL    HW231515   0.383   0.180   3.227  0.1821  1.8683  1.9069
 6686SOL     OW31516   3.439   1.339  14.888  0.5284  0.3354  0.4976
 6686SOL    HW131517   3.438   1.250  14.852 -1.4600  0.3216  0.5818
 6686SOL    HW231518   3.435   1.383  14.802  0.7289  0.3321  0.4870
 6687SOL     OW31519   3.707   4.442   8.211  0.2248  0.0947  0.0358
 6687SOL    HW131520   3.623   4.466   8.251 -0.8894 -0.1003 -2.2339
 6687SOL    HW231521   3.694   4.349   8.196 -1.6520  0.1667  1.1479
 6688SOL     OW31522   0.638   1.063   6.067 -0.0362  0.2378  0.1360
 6688SOL    HW131523   0.670   1.072   6.157 -0.6897  1.7487  0.2024
 6688SOL    HW231524   0.665   1.150   6.039 -0.1686  0.3089  0.2333
 6689SOL     OW31525   0.788   3.684   6.646  0.5871  0.3789 -0.1383
 6689SOL    HW131526   0.804   3.773   6.677 -1.6685  0.1758  1.5659
 6689SOL    HW231527   0.716   3.696   6.584  1.3316 -1.1049 -1.3142
 6690SOL     OW31528   2.577   4.409  10.958  0.1344  0.3262  0.0015
 6690SOL    HW131529   2.620   4.488  10.927  1.2517 -0.8596 -1.4657
 6690SOL    HW231530   2.490   4.412  10.919 -0.1836 -1.2673  0.5567
 6691SOL     OW31531   4.202   1.853   7.428  0.4701 -0.1605  1.0481
 6691SOL    HW131532   4.262   1.854   7.353 -0.0506 -0.9832  0.6217
 6691SOL    HW231533   4.216   1.768   7.468 -1.5603 -1.6800 -1.4920
 6692SOL     OW31534   3.451   2.224   1.541  0.4914  0.0673 -0.0930
 6692SOL    HW131535   3.400   2.273   1.605 -0.1124  0.1453 -0.6315
 6692SOL    HW231536   3.380   2.190   1.487 -0.0524  1.2464 -0.1171
 6693SOL     OW31537   4.065   0.668   8.249  0.2134  0.1026 -0.1546
 6693SOL    HW131538   4.107   0.582   8.247 -0.0234  0.0271 -1.3455
 6693SOL    HW231539   4.139   0.720   8.282  0.6545 -1.5871  1.5428
 6694SOL     OW31540   3.906   0.729  11.132 -0.2441  0.2292  0.2985
 6694SOL    HW131541   3.980   0.790  11.129  0.1737 -0.3115 -0.1894
 6694SOL    HW231542   3.952   0.651  11.163  0.5570 -0.3623 -2.4022
 6695SOL     OW31543   3.596   2.175   1.837  0.0440 -0.0218 -0.3251
 6695SOL    HW131544   3.684   2.200   1.808  0.6282 -2.2889 -0.4936
 6695SOL    HW231545   3.549   2.252   1.805 -1.0194 -0.7485 -0.5085
 6696SOL     OW31546   1.092   1.955  16.558 -0.2502 -0.4254  0.0734
 6696SOL    HW131547   1.137   1.880  16.595  1.1109 -0.0006 -0.6995
 6696SOL    HW231548   1.117   2.028  16.615 -2.3511 -0.0968  0.5940
 6697SOL     OW31549   3.758   2.889   5.127  0.2088 -0.5636 -0.2080
 6697SOL    HW131550   3.818   2.834   5.177  2.0236 -0.6266 -2.4518
 6697SOL    HW231551   3.743   2.963   5.187  0.8893 -0.2128 -0.4788
 6698SOL     OW31552   4.126   4.714   1.490 -0.1880  0.2222 -0.1310
 6698SOL    HW131553   4.178   0.053   1.541 -1.0669 -0.5501  1.6992
 6698SOL    HW231554   4.077   4.670   1.560  0.2987  0.4557  0.3613
 6699SOL     OW31555   1.610   1.760   6.992 -0.6356 -0.4981 -0.3503
 6699SOL    HW131556   1.564   1.775   6.909  0.1841 -0.7826 -0.8560
 6699SOL    HW231557   1.541   1.756   7.058  0.2149  0.5178  0.5952
 6700SOL     OW31558   0.372   0.882   4.128  0.9189 -0.2612  0.3840
 6700SOL    HW131559   0.339   0.807   4.179 -0.5490  0.2399  0.1901
 6700SOL    HW231560   0.347   0.857   4.039  0.2679 -0.1004  0.5200
 6701SOL     OW31561   4.055   3.807   8.565 -0.0371  0.7929  0.3748
 6701SOL    HW131562   3.998   3.813   8.642 -0.1480  0.7327  0.2974
 6701SOL    HW231563   4.015   3.724   8.535 -0.7827  1.7884 -1.3969
 6702SOL     OW31564   3.805   3.703  10.339  0.0122  0.4547 -0.7589
 6702SOL    HW131565   3.785   3.767  10.271  1.8764 -0.2630 -1.9505
 6702SOL    HW231566   3.728   3.726  10.392 -0.7544 -0.1546 -1.6033
 6703SOL     OW31567   2.407   4.190   5.533 -0.1047 -0.0562  0.1282
 6703SOL    HW131568   2.462   4.267   5.544 -0.9759  0.7619 -1.2562
 6703SOL    HW231569   2.470   4.134   5.488 -0.1430 -0.0985  0.1279
 6704SOL     OW31570   0.540   1.110   8.075 -0.0023  0.6103  0.1172
 6704SOL    HW131571   0.553   1.133   7.983  1.9040 -2.6853 -0.4629
 6704SOL    HW231572   0.544   1.199   8.108  2.0463  0.7416 -0.5310
 6705SOL     OW31573   2.876   3.857   0.615 -0.9423  0.3377  0.0686
 6705SOL    HW131574   2.899   3.765   0.600  0.0335  0.7255 -0.8205
 6705SOL    HW231575   2.801   3.862   0.555 -0.0291  0.5217 -1.0672
 6706SOL     OW31576   0.856   0.422   4.306 -0.3148  0.0483 -0.1721
 6706SOL    HW131577   0.889   0.355   4.247 -2.4398 -1.3870  0.2730
 6706SOL    HW231578   0.831   0.372   4.383  4.3604 -0.0476  1.3004
 6707SOL     OW31579   1.124   1.788  13.113 -0.1727 -0.3972  0.0787
 6707SOL    HW131580   1.151   1.759  13.200  2.2234 -2.0624 -1.2540
 6707SOL    HW231581   1.101   1.879  13.135 -1.2237 -0.6106 -0.1155
 6708SOL     OW31582   4.121   4.714   3.158  0.2142 -0.4378  0.3408
 6708SOL    HW131583   4.142   0.057   3.092 -1.3987 -0.4431 -0.1852
 6708SOL    HW231584   4.043   0.021   3.206 -0.5268 -0.6752 -0.7033
 6709SOL     OW31585   3.151   3.285  16.317  0.1748 -0.0609 -0.0572
 6709SOL    HW131586   3.095   3.277  16.239 -0.4514 -2.0621  0.5887
 6709SOL    HW231587   3.082   3.276  16.382  0.1058  1.1522  0.0336
 6710SOL     OW31588   3.348   0.958   9.058  0.5309  0.3209  0.0341
 6710SOL    HW131589   3.360   1.043   9.099  0.7489  0.0016  0.6395
 6710SOL    HW231590   3.349   0.890   9.125  0.3515  0.8372  0.5593
 6711SOL     OW31591   0.943   1.664  14.477 -0.2110 -0.1047  0.2815
 6711SOL    HW131592   0.924   1.751  14.441 -0.0379 -0.5775 -0.9475
 6711SOL    HW231593   0.861   1.648  14.523 -0.8320  2.5289  0.0991
 6712SOL     OW31594   1.644   1.012  14.519 -0.3051  0.1713  0.0302
 6712SOL    HW131595   1.653   0.961  14.438  1.1894  1.6443 -0.7312
 6712SOL    HW231596   1.550   1.005  14.538 -0.3557 -0.5833 -0.4884
 6713SOL     OW31597   3.462   1.546   3.788  0.4581 -0.3815  0.0067
 6713SOL    HW131598   3.490   1.474   3.844  2.8814  0.6295  0.0729
 6713SOL    HW231599   3.516   1.545   3.709 -0.7570  1.0136 -0.8519
 6714SOL     OW31600   2.020   0.748   5.781 -0.0093 -0.6988  0.7638
 6714SOL    HW131601   2.108   0.712   5.772 -0.2842 -1.4922  1.2169
 6714SOL    HW231602   1.975   0.716   5.703  2.2830  0.9608 -1.2527
 6715SOL     OW31603   4.292   4.502   1.723  0.3092 -0.1011  0.3120
 6715SOL    HW131604   4.218   4.443   1.736  0.5402 -0.6672 -0.8688
 6715SOL    HW231605   4.370   4.449   1.706 -0.2414 -0.8839  0.2799
 6716SOL     OW31606   4.194   4.438   2.726  0.2759 -0.5158  0.5100
 6716SOL    HW131607   4.150   4.469   2.806  0.6261  1.1277  0.0685
 6716SOL    HW231608   4.282   4.419   2.760 -0.5067 -3.2449  0.9891
 6717SOL     OW31609   0.610   4.160   6.008 -0.2175 -0.0630  0.1307
 6717SOL    HW131610   0.563   4.158   5.924 -0.8448 -1.1773  0.5057
 6717SOL    HW231611   0.551   4.218   6.055  0.8895  0.9152  0.3006
 6718SOL     OW31612   1.429   2.371   5.039  0.0369 -0.5487  0.3086
 6718SOL    HW131613   1.476   2.327   4.968  1.2176 -1.5655  1.7224
 6718SOL    HW231614   1.434   2.300   5.103  3.3833 -1.6339 -1.1957
 6719SOL     OW31615   0.511   0.765   2.687 -0.2709  0.0329  0.2924
 6719SOL    HW131616   0.528   0.715   2.766 -1.0433 -1.7321 -0.6618
 6719SOL    HW231617   0.530   0.849   2.729  0.9454  0.3649 -0.9307
 6720SOL     OW31618   2.471   0.727   2.773 -0.2659  0.1058 -0.3005
 6720SOL    HW131619   2.471   0.751   2.680  0.8354 -1.6685 -0.7500
 6720SOL    HW231620   2.424   0.644   2.771  0.1914 -0.1489 -0.6801
 6721SOL     OW31621   2.799   2.306   4.977 -0.6860  0.3786  0.2758
 6721SOL    HW131622   2.707   2.320   4.956 -0.9114 -0.0855  0.9668
 6721SOL    HW231623   2.836   2.391   4.953  0.5128 -0.2334 -0.0694
 6722SOL     OW31624   4.576   0.460   3.250 -0.1421 -0.3089 -0.1332
 6722SOL    HW131625   4.650   0.441   3.308 -1.9060 -0.1234  2.1975
 6722SOL    HW231626   4.511   0.456   3.321  0.9131  0.5889  0.8776
 6723SOL     OW31627   1.994   1.146   2.284 -0.9699  0.4084 -0.2763
 6723SOL    HW131628   2.024   1.114   2.369  1.0028  1.8454 -0.4244
 6723SOL    HW231629   2.079   1.174   2.250 -0.6202 -1.1775 -0.7180
 6724SOL     OW31630   0.994   1.218   4.549 -0.0642 -0.2756  0.0250
 6724SOL    HW131631   1.024   1.128   4.538  1.2213  0.1125  0.3846
 6724SOL    HW231632   1.030   1.257   4.470  2.1766 -1.5649  0.4310
 6725SOL     OW31633   0.644   3.851   2.405 -0.3341 -0.2737 -0.5628
 6725SOL    HW131634   0.706   3.916   2.436 -3.1142  1.3416  1.5401
 6725SOL    HW231635   0.706   3.779   2.391 -1.7789 -1.8420  1.1749
 6726SOL     OW31636   2.010   3.887   5.516 -0.2057  0.0204  0.2865
 6726SOL    HW131637   1.968   3.825   5.456 -0.5596 -1.3059  1.9007
 6726SOL    HW231638   2.076   3.830   5.554 -1.4150 -0.8393  1.1112
 6727SOL     OW31639   2.771   3.837  11.117  0.5009 -0.4457  0.2414
 6727SOL    HW131640   2.719   3.770  11.073 -0.9882 -1.4622  3.5062
 6727SOL    HW231641   2.710   3.882  11.175  0.5248  0.1486 -0.2038
 6728SOL     OW31642   2.131   2.491   5.472 -0.0465 -0.3156  0.6651
 6728SOL    HW131643   2.194   2.419   5.466 -1.0384 -1.0686 -0.4801
 6728SOL    HW231644   2.193   2.559   5.497 -1.8737  1.4628  0.3245
 6729SOL     OW31645   2.232   2.538   4.305 -0.1620  0.6525  0.1653
 6729SOL    HW131646   2.265   2.452   4.330 -1.3889  0.7625  2.1549
 6729SOL    HW231647   2.308   2.573   4.259 -1.0587  0.7974 -1.1887
 6730SOL     OW31648   1.667   2.236   6.939  0.5267 -0.0740  0.2892
 6730SOL    HW131649   1.728   2.228   7.012  1.4724  0.1569 -0.4675
 6730SOL    HW231650   1.581   2.200   6.961  1.3997 -2.2320  0.1937
 6731SOL     OW31651   3.107   4.341   2.586  0.2668 -0.3346 -0.1085
 6731SOL    HW131652   3.178   4.386   2.541 -0.2160  1.8571  1.3005
 6731SOL    HW231653   3.077   4.272   2.527  0.8487 -1.7191  1.2354
 6732SOL     OW31654   3.123   0.845   6.923 -0.0662  0.1940  0.2137
 6732SOL    HW131655   3.080   0.922   6.885  2.1558  2.6581  2.7654
 6732SOL    HW231656   3.211   0.877   6.905 -0.7059  0.5853 -2.3046
 6733SOL     OW31657   4.454   4.508  16.976  0.5590 -0.2589  0.2492
 6733SOL    HW131658   4.519   4.546  17.035  0.9208 -1.0368  0.3395
 6733SOL    HW231659   4.508   4.489  16.899  1.1084 -1.1605  0.8668
 6734SOL     OW31660   1.006   3.675   4.799 -0.3882  0.2545  0.2473
 6734SOL    HW131661   1.079   3.622   4.768  0.1974  0.2361  1.6255
 6734SOL    HW231662   0.933   3.641   4.748  0.0960 -4.1231  2.4413
 6735SOL     OW31663   4.507   4.311   9.065 -0.0948  0.0622  0.6700
 6735SOL    HW131664   4.602   4.320   9.058 -0.2133  0.9568  0.2379
 6735SOL    HW231665   4.494   4.226   9.024  1.7289  0.6418 -1.0964
 6736SOL     OW31666   3.873   4.373   7.885  0.3577  0.0236 -0.1778
 6736SOL    HW131667   3.798   4.326   7.921 -0.7926  2.7647  0.9592
 6736SOL    HW231668   3.930   4.296   7.877  1.9429  0.8777  2.9678
 6737SOL     OW31669   0.612   0.520   9.914  0.0597  0.1458  1.2774
 6737SOL    HW131670   0.545   0.500   9.980  0.7452 -0.3782  1.8129
 6737SOL    HW231671   0.685   0.474   9.955  1.3478  0.8188 -0.2785
 6738SOL     OW31672   2.682   4.213   6.420  0.0305  0.3291 -0.5801
 6738SOL    HW131673   2.766   4.167   6.425  0.4798  0.9588 -2.4799
 6738SOL    HW231674   2.696   4.292   6.472 -2.5882  0.1303  0.4252
 6739SOL     OW31675   2.383   1.228  10.421 -0.2115 -0.5433 -0.3033
 6739SOL    HW131676   2.298   1.219  10.463 -0.9368 -0.4495 -1.7528
 6739SOL    HW231677   2.441   1.160  10.457 -0.6418  0.5246  2.3849
 6740SOL     OW31678   2.935   3.065   9.916 -0.2549 -0.3028  0.2726
 6740SOL    HW131679   3.016   3.017   9.897 -0.5305 -0.9974  0.8394
 6740SOL    HW231680   2.881   3.023   9.849 -0.8802  0.4033  0.3371
 6741SOL     OW31681   1.365   3.626   4.184 -0.1898 -0.3641 -0.1919
 6741SOL    HW131682   1.386   3.709   4.227  1.1838 -0.1699 -1.2417
 6741SOL    HW231683   1.452   3.586   4.177  0.6179  1.1829  1.0943
 6742SOL     OW31684   2.831   3.439  11.160  0.0123  0.3986 -0.3760
 6742SOL    HW131685   2.749   3.436  11.209  0.2726  1.8497  0.1273
 6742SOL    HW231686   2.795   3.431  11.071  0.7543 -0.0473 -0.6333
 6743SOL     OW31687   2.066   0.569   1.855  0.1091  0.2695  0.1481
 6743SOL    HW131688   2.087   0.602   1.943 -4.5291 -0.8975  1.6830
 6743SOL    HW231689   2.137   0.507   1.842 -0.1736  0.1035 -0.5599
 6744SOL     OW31690   4.606   1.944   3.940  0.3459  0.0122  0.3217
 6744SOL    HW131691   4.606   1.971   3.848 -0.8588  0.6195  0.4959
 6744SOL    HW231692   4.566   2.014   3.991  0.3217 -2.1112  3.2376
 6745SOL     OW31693   0.751   2.219   5.176  0.3832 -0.0328 -0.2025
 6745SOL    HW131694   0.769   2.203   5.083  0.7990  1.9032 -0.4575
 6745SOL    HW231695   0.656   2.224   5.169  0.3462 -1.0868 -0.4037
 6746SOL     OW31696   4.240   0.782  12.995 -0.0780 -0.3992  0.4081
 6746SOL    HW131697   4.317   0.774  12.938 -1.6657 -0.0974 -1.7504
 6746SOL    HW231698   4.273   0.833  13.069  0.1590 -0.0558  0.0662
 6747SOL     OW31699   0.967   0.983   3.844 -0.4270  0.0685  0.3258
 6747SOL    HW131700   1.001   1.009   3.758 -2.2213  3.0592  0.4945
 6747SOL    HW231701   0.971   0.890   3.826  0.5800  0.1454  0.1741
 6748SOL     OW31702   0.741   4.314   2.154 -0.2196  0.4015  0.4387
 6748SOL    HW131703   0.734   4.390   2.096 -0.1463 -0.6341 -0.9171
 6748SOL    HW231704   0.670   4.254   2.134  1.4002 -1.6201  0.7309
 6749SOL     OW31705   1.099   0.092   6.136 -0.0334  0.2938  0.6360
 6749SOL    HW131706   1.164   0.154   6.167  1.1569 -0.2945 -0.7017
 6749SOL    HW231707   1.022   0.095   6.193 -1.7267  1.2285 -1.6955
 6750SOL     OW31708   3.232   0.944   7.463  0.0508  0.0970  0.1984
 6750SOL    HW131709   3.223   0.854   7.493 -1.1574 -0.4281 -1.7448
 6750SOL    HW231710   3.160   0.954   7.401 -1.0513 -0.2359  1.4196
 6751SOL     OW31711   3.838   0.129   1.450  0.1926  0.4566 -0.4626
 6751SOL    HW131712   3.830   0.049   1.502  1.3989  1.2304  0.9541
 6751SOL    HW231713   3.768   0.119   1.386 -1.9969 -0.2994  2.0587
 6752SOL     OW31714   4.184   1.460  14.643  0.1353 -0.7190 -0.8098
 6752SOL    HW131715   4.206   1.377  14.601  2.7049  0.0842 -1.0595
 6752SOL    HW231716   4.263   1.469  14.696 -0.0452 -0.6849 -0.5484
 6753SOL     OW31717   2.425   4.381  11.205 -0.1633 -0.6803  0.4177
 6753SOL    HW131718   2.483   4.434  11.150  0.7074 -0.5320  1.4909
 6753SOL    HW231719   2.358   4.354  11.142 -1.9317 -0.6411  2.3026
 6754SOL     OW31720   1.705   3.814   8.136 -0.3815  0.4132 -0.3841
 6754SOL    HW131721   1.765   3.765   8.081  1.6965 -0.1883  2.4020
 6754SOL    HW231722   1.627   3.759   8.143  0.2829 -0.5721 -0.8114
 6755SOL     OW31723   0.841   3.440   3.427  0.6921  0.4396  0.8923
 6755SOL    HW131724   0.868   3.503   3.361 -0.8424 -0.5382 -0.6720
 6755SOL    HW231725   0.768   3.411   3.372  0.1187 -1.2262  2.5053
 6756SOL     OW31726   2.448   3.876   5.684  0.0181  0.3955 -0.1307
 6756SOL    HW131727   2.370   3.894   5.632 -1.6430 -0.1103  2.2356
 6756SOL    HW231728   2.419   3.810   5.746  0.8328  1.5385  1.4743
 6757SOL     OW31729   3.223   3.508  10.895 -0.2593 -0.1070 -0.0959
 6757SOL    HW131730   3.284   3.568  10.853 -0.2696  0.8148  1.1888
 6757SOL    HW231731   3.146   3.559  10.922 -0.2960  0.4636 -1.2914
 6758SOL     OW31732   2.182   3.311   7.708 -0.0480 -0.6537  0.8762
 6758SOL    HW131733   2.274   3.306   7.683  0.5593  0.8267  2.8083
 6758SOL    HW231734   2.166   3.219   7.726  0.2062 -0.7475  0.6269
 6759SOL     OW31735   0.739   1.819   2.926 -0.0578 -0.0152 -0.0445
 6759SOL    HW131736   0.761   1.912   2.937  1.7345 -0.5758  1.1043
 6759SOL    HW231737   0.820   1.772   2.908  2.2247  4.3452 -1.1705
 6760SOL     OW31738   3.042   2.953  12.810 -0.3275  0.0915 -0.2665
 6760SOL    HW131739   3.131   2.964  12.776  0.0674  1.3540  1.1613
 6760SOL    HW231740   3.013   2.869  12.776 -1.1340 -0.0180  0.6916
 6761SOL     OW31741   0.899   0.729   4.696  0.3238 -0.0701  0.3078
 6761SOL    HW131742   0.951   0.809   4.706 -1.2874  1.0530 -0.3816
 6761SOL    HW231743   0.971   0.667   4.679  0.5946  0.4111 -0.2934
 6762SOL     OW31744   1.179   0.847   6.038 -0.1693  0.0980 -0.1858
 6762SOL    HW131745   1.212   0.757   6.044 -0.2751  0.0457 -0.4146
 6762SOL    HW231746   1.261   0.896   6.035 -1.5155  2.2617 -0.8472
 6763SOL     OW31747   4.554   0.718  13.246 -0.4824 -0.1865 -0.0375
 6763SOL    HW131748   4.631   0.661  13.240 -1.1959 -1.2899  1.2686
 6763SOL    HW231749   4.584   0.808  13.252 -2.1943  0.2595  2.0198
 6764SOL     OW31750   4.263   2.934   8.031 -0.4670  0.6251 -0.7210
 6764SOL    HW131751   4.259   2.838   8.027  0.0762  0.5028  1.2116
 6764SOL    HW231752   4.223   2.950   8.117  1.6194 -2.2415  0.7873
 6765SOL     OW31753   3.116   2.292  13.047  0.0414  0.3975  0.4938
 6765SOL    HW131754   3.074   2.262  12.966 -0.0174  1.5524  0.1090
 6765SOL    HW231755   3.198   2.313  13.002  0.2361 -0.8158  0.2579
 6766SOL     OW31756   3.575   4.583   0.832 -0.3385  0.4422 -0.2979
 6766SOL    HW131757   3.499   4.632   0.800 -1.2616  0.1860  1.5247
 6766SOL    HW231758   3.532   4.499   0.851 -1.7147  0.9884 -0.9606
 6767SOL     OW31759   1.604   2.606  13.624 -0.1430 -0.1180 -0.1854
 6767SOL    HW131760   1.545   2.584  13.695 -0.3321  0.9104 -0.0171
 6767SOL    HW231761   1.588   2.539  13.558 -2.3662  0.7952 -0.5725
 6768SOL     OW31762   4.462   2.342  10.273 -0.2534 -0.0326  0.0070
 6768SOL    HW131763   4.493   2.393  10.198 -0.5879  1.0618  0.6016
 6768SOL    HW231764   4.383   2.393  10.293  1.1981  2.9531 -1.8336
 6769SOL     OW31765   3.317   0.473   3.481 -0.5722  0.1432 -0.7276
 6769SOL    HW131766   3.246   0.517   3.434 -0.4303 -1.5307 -2.4927
 6769SOL    HW231767   3.368   0.429   3.413 -0.2185  1.1281 -1.1053
 6770SOL     OW31768   0.803   2.191   0.818  0.3871  0.3261 -0.4248
 6770SOL    HW131769   0.877   2.251   0.823  0.8806 -0.3936  0.8753
 6770SOL    HW231770   0.727   2.243   0.793  1.2140  1.6091 -0.2671
 6771SOL     OW31771   3.280   0.704   6.205 -0.9338  0.1430 -0.2018
 6771SOL    HW131772   3.286   0.641   6.277 -2.4640 -1.2091 -1.2595
 6771SOL    HW231773   3.186   0.719   6.192 -1.0097  0.8233  1.1396
 6772SOL     OW31774   4.069   3.320   8.263  0.1044  0.0333  0.0291
 6772SOL    HW131775   4.083   3.227   8.281 -0.5007  0.0385  0.5370
 6772SOL    HW231776   4.011   3.318   8.187 -0.2124  1.8657  0.2149
 6773SOL     OW31777   1.404   3.964   6.721 -0.1471 -0.7301  0.0785
 6773SOL    HW131778   1.418   3.908   6.798  2.1492  0.8374  0.8162
 6773SOL    HW231779   1.496   3.980   6.698  0.0335 -3.3384 -1.1223
 6774SOL     OW31780   1.265   3.850   8.894 -0.4754  0.3549 -0.0746
 6774SOL    HW131781   1.326   3.840   8.967 -1.9974 -3.6019  0.6809
 6774SOL    HW231782   1.295   3.924   8.842  0.8252 -0.2754 -0.2248
 6775SOL     OW31783   3.777   0.656   4.493  0.2217 -0.0611 -0.2618
 6775SOL    HW131784   3.722   0.598   4.546  1.2665 -0.8871 -0.0815
 6775SOL    HW231785   3.861   0.609   4.487 -0.8615 -2.1372  0.7458
 6776SOL     OW31786   2.650   3.140   3.088  0.2366 -0.4392 -0.4823
 6776SOL    HW131787   2.739   3.174   3.090  0.2151 -0.3727 -0.6814
 6776SOL    HW231788   2.654   3.070   3.154 -3.6879  1.3196  1.6514
 6777SOL     OW31789   4.523   2.134  11.108 -0.2509 -0.1901  0.3339
 6777SOL    HW131790   4.617   2.154  11.108  0.1523 -2.0422  0.5042
 6777SOL    HW231791   4.490   2.187  11.036  3.1481  1.2481 -0.1629
 6778SOL     OW31792   2.628   1.707   4.560  0.0797 -0.7872  0.1967
 6778SOL    HW131793   2.551   1.743   4.604  0.4733  0.2822  0.0121
 6778SOL    HW231794   2.679   1.675   4.634 -0.2529 -0.4600  0.5622
 6779SOL     OW31795   4.699   0.164   2.615  0.6497  0.0317  0.9564
 6779SOL    HW131796   4.674   0.223   2.686 -3.5177 -1.9300  1.1356
 6779SOL    HW231797   4.626   0.102   2.614  1.1475 -0.5325 -0.5834
 6780SOL     OW31798   0.858   4.285   9.742 -0.4162 -0.9339 -0.2652
 6780SOL    HW131799   0.896   4.225   9.806 -1.4804 -0.6830  0.5947
 6780SOL    HW231800   0.938   4.310   9.696 -1.2236  3.1143  0.5757
 6781SOL     OW31801   4.125   3.033   2.280 -0.6717 -0.1986  0.2494
 6781SOL    HW131802   4.081   3.070   2.356  0.2127  1.8644 -0.2559
 6781SOL    HW231803   4.092   3.092   2.212  0.0591 -0.0937 -0.0209
 6782SOL     OW31804   0.933   3.461   5.823  0.0446 -0.1590  0.3594
 6782SOL    HW131805   1.007   3.423   5.869 -0.0353  0.8319  1.3030
 6782SOL    HW231806   0.960   3.550   5.800  0.4846 -0.3120  0.2842
 6783SOL     OW31807   3.064   2.490   1.069 -0.0239  0.3354  0.8835
 6783SOL    HW131808   3.158   2.476   1.062 -0.4488 -3.1063  1.9672
 6783SOL    HW231809   3.053   2.527   1.157 -0.3755 -1.5903  1.6742
 6784SOL     OW31810   2.147   1.355   7.015  0.8926 -0.2299  0.3036
 6784SOL    HW131811   2.088   1.360   7.090 -0.5531 -0.4055 -0.8183
 6784SOL    HW231812   2.147   1.262   6.992 -0.8089 -0.0428 -0.4378
 6785SOL     OW31813   3.752   4.387   2.661 -0.3268 -0.1483 -0.2942
 6785SOL    HW131814   3.754   4.428   2.747  1.5667 -1.2466  0.1879
 6785SOL    HW231815   3.826   4.329   2.679 -0.3398 -0.3704 -0.9633
 6786SOL     OW31816   2.586   3.056   6.758 -0.2981  0.2744 -0.1152
 6786SOL    HW131817   2.609   3.138   6.802 -0.0036  0.2829 -0.2869
 6786SOL    HW231818   2.565   2.997   6.831 -0.0239  0.7120  0.3119
 6787SOL     OW31819   1.446   3.483   2.642  0.2940  0.0774  0.5801
 6787SOL    HW131820   1.519   3.489   2.704  0.0500  0.1318  0.8598
 6787SOL    HW231821   1.380   3.437   2.694  0.7391 -0.8066  0.3580
 6788SOL     OW31822   3.946   2.818   7.663 -0.3475 -0.0439 -0.1011
 6788SOL    HW131823   3.919   2.878   7.594  1.7816  1.1284  0.0911
 6788SOL    HW231824   4.032   2.855   7.684 -0.8171  0.9211  0.1586
 6789SOL     OW31825   0.370   3.303   0.863  0.4499  0.1908  0.2704
 6789SOL    HW131826   0.352   3.221   0.908 -0.0943  0.3050  0.2635
 6789SOL    HW231827   0.369   3.361   0.938 -1.1611 -0.5147  0.8076
 6790SOL     OW31828   1.984   4.286   8.293 -0.2967  0.2205 -0.4322
 6790SOL    HW131829   1.928   4.225   8.342  1.0692  1.4044  2.5828
 6790SOL    HW231830   1.946   4.277   8.205 -2.2118 -2.3540  0.6489
 6791SOL     OW31831   3.988   1.645   4.067  0.2513  0.1536 -0.0571
 6791SOL    HW131832   3.924   1.644   4.138  1.7463  2.1865  1.3205
 6791SOL    HW231833   4.032   1.560   4.064 -1.3841 -0.6723 -0.5826
 6792SOL     OW31834   2.591   1.558   5.084 -0.0378 -0.3596 -0.1913
 6792SOL    HW131835   2.568   1.596   4.999 -1.3572 -0.7557 -0.0061
 6792SOL    HW231836   2.661   1.616   5.113 -0.2398  0.3511 -1.1319
 6793SOL     OW31837   3.682   4.683   3.520 -0.1140  0.1802 -0.1428
 6793SOL    HW131838   3.679   4.654   3.429  0.1999 -0.7209  0.1362
 6793SOL    HW231839   3.694   4.604   3.573 -1.9200 -0.5917 -0.9114
 6794SOL     OW31840   0.351   1.859   7.203 -0.7543  0.1402 -0.7127
 6794SOL    HW131841   0.267   1.875   7.246 -0.1513  0.4492  0.3819
 6794SOL    HW231842   0.400   1.805   7.265 -0.0577  1.0869 -0.4386
 6795SOL     OW31843   1.076   4.390   4.617  0.2028  0.5486 -0.0230
 6795SOL    HW131844   1.169   4.413   4.622  0.7503 -1.1475 -2.7168
 6795SOL    HW231845   1.034   4.461   4.665 -1.4011  0.8725 -1.9007
 6796SOL     OW31846   1.258   3.428  12.899  0.3890 -0.0129 -0.1644
 6796SOL    HW131847   1.208   3.509  12.912  0.4678  0.1626 -0.9967
 6796SOL    HW231848   1.271   3.400  12.990 -1.3135 -0.2491  0.0176
 6797SOL     OW31849   2.386   4.339   7.216 -0.2373 -0.1659  0.6965
 6797SOL    HW131850   2.411   4.265   7.160 -1.9184 -0.1845 -0.0262
 6797SOL    HW231851   2.359   4.285   7.290 -0.6840  0.9392  1.3277
 6798SOL     OW31852   0.433   1.782  16.523  0.2044 -0.0521  0.1177
 6798SOL    HW131853   0.491   1.842  16.570 -0.1420  0.8370 -0.6109
 6798SOL    HW231854   0.444   1.814  16.434  1.9923  1.5185  0.8980
 6799SOL     OW31855   3.585   1.364   3.968 -0.7618  0.1803 -0.8078
 6799SOL    HW131856   3.541   1.382   4.051 -0.1573 -0.9464 -0.2443
 6799SOL    HW231857   3.549   1.280   3.940 -0.3748  0.5082 -2.3187
 6800SOL     OW31858   2.028   4.369   2.353 -0.4744 -0.3702  0.3732
 6800SOL    HW131859   1.946   4.388   2.308  0.4509  1.3106 -0.5791
 6800SOL    HW231860   2.000   4.324   2.433 -2.6289 -1.3210 -0.9058
 6801SOL     OW31861   4.311   0.799  11.566  0.0723  0.2641  0.4743
 6801SOL    HW131862   4.331   0.784  11.658  2.2577  0.6568  0.0688
 6801SOL    HW231863   4.402   0.807  11.537  0.6019 -1.6384  1.6245
 6802SOL     OW31864   4.220   0.515   7.415  0.0352 -0.0864 -0.1156
 6802SOL    HW131865   4.210   0.577   7.343  0.0478 -0.7788 -0.7193
 6802SOL    HW231866   4.135   0.508   7.459 -0.2295 -1.8366 -0.8982
 6803SOL     OW31867   0.754   0.327   6.756  0.5282  0.2807  0.3403
 6803SOL    HW131868   0.818   0.334   6.685 -0.3581  0.0538 -0.4774
 6803SOL    HW231869   0.715   0.414   6.759  0.5272  0.3043 -0.4277
 6804SOL     OW31870   4.524   1.917   8.473  0.5102  0.5540  0.0703
 6804SOL    HW131871   4.484   1.893   8.556  3.6190 -0.0436  1.3896
 6804SOL    HW231872   4.593   1.973   8.508  2.4459 -1.1257 -1.0767
 6805SOL     OW31873   3.533   2.819  13.863 -0.0374  0.4481  0.1869
 6805SOL    HW131874   3.507   2.910  13.849 -1.0691  0.0485 -0.4812
 6805SOL    HW231875   3.465   2.763  13.826 -0.7160  1.4733 -0.1073
 6806SOL     OW31876   0.693   0.124  10.190  0.2849  0.4224  0.1843
 6806SOL    HW131877   0.639   0.074  10.128 -1.9406 -0.0698  2.5141
 6806SOL    HW231878   0.665   0.073  10.266  1.6128  0.4954  0.7012
 6807SOL     OW31879   3.980   1.709   6.250 -0.1276  0.3874  0.0085
 6807SOL    HW131880   3.899   1.723   6.199 -0.3325  0.4517  0.3521
 6807SOL    HW231881   4.041   1.707   6.176  1.9162  0.7614  1.7266
 6808SOL     OW31882   3.081   3.009   4.797 -0.0040  0.1635  0.5898
 6808SOL    HW131883   3.089   2.916   4.822 -0.2851  0.0172  0.1415
 6808SOL    HW231884   3.045   3.054   4.874 -0.5372 -1.4500  1.2930
 6809SOL     OW31885   0.953   2.019  16.179 -0.3949 -0.3499  0.9391
 6809SOL    HW131886   0.920   1.963  16.109  1.3772 -1.0291  0.6619
 6809SOL    HW231887   0.977   2.097  16.129 -0.4481 -0.3580  0.9015
 6810SOL     OW31888   2.087   3.006   8.570  0.1940 -0.1340 -0.5367
 6810SOL    HW131889   2.025   3.072   8.602  0.1542 -0.5417  0.2195
 6810SOL    HW231890   2.149   3.060   8.521  0.7025 -1.2403 -1.1104
 6811SOL     OW31891   2.171   3.458  14.991 -0.2777  0.6585  0.7578
 6811SOL    HW131892   2.263   3.459  14.964 -0.4498 -0.8736  0.1336
 6811SOL    HW231893   2.165   3.413  15.076 -0.1548  0.8851  0.8876
 6812SOL     OW31894   3.971   2.678   4.361  0.1358  0.3832 -0.1406
 6812SOL    HW131895   4.006   2.600   4.404  2.1746  0.2707 -1.9968
 6812SOL    HW231896   4.035   2.748   4.376  1.0946 -0.3609 -0.7648
 6813SOL     OW31897   3.298   0.136   3.767  0.2490 -0.5717  0.0842
 6813SOL    HW131898   3.393   0.139   3.764  0.2742 -0.8227  0.7073
 6813SOL    HW231899   3.287   0.069   3.699 -0.2559  0.5749 -0.9760
 6814SOL     OW31900   2.140   4.350   4.631  0.1534  0.1718  0.2631
 6814SOL    HW131901   2.056   4.368   4.589  0.5086  0.7894 -0.1795
 6814SOL    HW231902   2.122   4.266   4.673 -0.2882 -0.5690 -1.3831
 6815SOL     OW31903   3.029   3.864   3.259 -0.0685 -0.3294 -0.2177
 6815SOL    HW131904   2.977   3.818   3.325 -0.8418  0.3770 -0.3391
 6815SOL    HW231905   3.092   3.897   3.323  1.7799 -0.6815 -1.8424
 6816SOL     OW31906   1.454   3.228   5.052 -0.5171  0.1259  0.0308
 6816SOL    HW131907   1.455   3.207   4.958  1.5293 -1.6228  0.4478
 6816SOL    HW231908   1.408   3.155   5.092  0.7221 -0.8323 -0.2953
 6817SOL     OW31909   1.042   3.985   7.446  0.7145 -0.2217 -0.2368
 6817SOL    HW131910   0.955   3.991   7.488  1.0605 -1.7287  0.7111
 6817SOL    HW231911   1.027   3.906   7.395  0.7862  0.5762 -1.4782
 6818SOL     OW31912   2.805   2.992   9.558 -0.1404 -0.4068  0.4688
 6818SOL    HW131913   2.787   3.030   9.473  0.3295 -0.6553  0.2606
 6818SOL    HW231914   2.897   2.969   9.543  0.0080  1.4277 -1.3436
 6819SOL     OW31915   0.953   1.127   2.441  0.0455 -0.1159  0.3379
 6819SOL    HW131916   0.952   1.114   2.346 -0.4363 -0.1485  0.3449
 6819SOL    HW231917   0.981   1.044   2.480 -0.1798  0.5888  2.0164
 6820SOL     OW31918   4.230   1.382   3.384 -0.1890  0.1225 -0.1993
 6820SOL    HW131919   4.151   1.435   3.393  1.2299  2.3343 -0.6329
 6820SOL    HW231920   4.261   1.385   3.475  0.4698 -2.3447 -0.3299
 6821SOL     OW31921   3.385   3.306   8.589 -0.4634 -0.2197 -0.2664
 6821SOL    HW131922   3.425   3.279   8.507  0.8794 -1.2292  0.7148
 6821SOL    HW231923   3.445   3.370   8.628 -0.7858 -0.3171  0.3942
 6822SOL     OW31924   0.986   3.570   3.813 -0.3350 -0.1167  0.1689
 6822SOL    HW131925   0.897   3.573   3.777  0.1006  1.6697 -0.7659
 6822SOL    HW231926   0.988   3.658   3.850  1.7251  0.1598 -0.6139
 6823SOL     OW31927   0.835   0.148   5.561  0.2637 -0.0022  0.5644
 6823SOL    HW131928   0.818   0.177   5.651 -0.9019  0.7469  0.1092
 6823SOL    HW231929   0.752   0.181   5.528  0.0272 -1.6746 -0.4952
 6824SOL     OW31930   3.380   3.135   9.689 -0.3172 -0.3604 -0.3778
 6824SOL    HW131931   3.307   3.091   9.646  0.3403 -2.2312  0.4227
 6824SOL    HW231932   3.445   3.065   9.697 -1.1196 -1.1550 -0.8470
 6825SOL     OW31933   4.398   2.374   1.729  0.0262 -0.3919  0.3369
 6825SOL    HW131934   4.463   2.424   1.679 -1.8289  2.7957  1.1102
 6825SOL    HW231935   4.339   2.340   1.661 -0.4873 -0.8863  1.0301
 6826SOL     OW31936   4.311   2.114   6.029 -0.4190 -0.0458  0.5227
 6826SOL    HW131937   4.373   2.072   5.969  0.1180  2.0303 -0.3742
 6826SOL    HW231938   4.240   2.053   6.009  0.2221 -0.2209 -1.2163
 6827SOL     OW31939   1.343   0.414   5.122 -0.4335 -0.1725  0.3731
 6827SOL    HW131940   1.410   0.479   5.143  0.0686 -0.6762  0.3239
 6827SOL    HW231941   1.292   0.473   5.066 -1.0333 -0.4075  0.6750
 6828SOL     OW31942   2.890   0.932  16.543  0.2323  0.4008  0.0953
 6828SOL    HW131943   2.985   0.932  16.535  0.2935 -1.4043  0.7317
 6828SOL    HW231944   2.880   0.849  16.590  0.0039  1.7265  2.3785
 6829SOL     OW31945   2.274   0.902  14.220 -0.0107 -0.4479  0.7858
 6829SOL    HW131946   2.192   0.885  14.174  0.1656  0.4018  0.1389
 6829SOL    HW231947   2.304   0.980  14.172  0.4308 -0.0189  1.7731
 6830SOL     OW31948   0.445   2.766   1.086 -0.0325 -0.2027  0.3907
 6830SOL    HW131949   0.528   2.781   1.132 -1.0234 -1.0471  2.4406
 6830SOL    HW231950   0.404   2.716   1.156  2.1690  0.0312  1.8361
 6831SOL     OW31951   3.996   3.438   5.068 -0.2135 -0.4565 -0.1563
 6831SOL    HW131952   4.066   3.422   5.004  0.7602  1.0950  0.5371
 6831SOL    HW231953   3.920   3.410   5.016 -0.6836 -1.8066  1.2411
 6832SOL     OW31954   2.110   4.453   6.791 -0.0247  0.2080 -0.2104
 6832SOL    HW131955   2.155   4.491   6.715 -0.2593 -0.6518 -0.7776
 6832SOL    HW231956   2.019   4.446   6.764  0.7368  1.1268 -3.0601
 6833SOL     OW31957   0.890   1.283   0.725  0.2273  0.2470 -0.2889
 6833SOL    HW131958   0.845   1.255   0.804  1.2238 -0.5427  0.0022
 6833SOL    HW231959   0.851   1.229   0.656 -1.7948  1.7206 -0.3065
 6834SOL     OW31960   3.769   0.022  15.541 -0.4818  0.2510  0.4189
 6834SOL    HW131961   3.702   0.030  15.608 -1.6743 -0.6268 -0.6721
 6834SOL    HW231962   3.729   4.662  15.514 -0.2009  0.3386 -0.2747
 6835SOL     OW31963   1.180   2.580  12.151 -0.2813 -0.0793  0.4278
 6835SOL    HW131964   1.268   2.590  12.188  0.0198 -0.1691 -0.2686
 6835SOL    HW231965   1.173   2.663  12.103 -1.2436 -0.6552 -0.3976
 6836SOL     OW31966   1.173   0.384   7.200 -0.3658 -0.3350  0.6202
 6836SOL    HW131967   1.165   0.307   7.256 -0.6794  0.3715  1.5586
 6836SOL    HW231968   1.171   0.463   7.254  0.8780 -0.2445  0.5377
 6837SOL     OW31969   2.323   2.724   2.209 -0.6721  0.0688 -0.5763
 6837SOL    HW131970   2.281   2.796   2.254  2.7880  1.9336 -0.3285
 6837SOL    HW231971   2.417   2.742   2.219 -0.6102 -2.1273  2.7903
 6838SOL     OW31972   0.992   2.317   9.200  0.7475 -0.0330  0.5315
 6838SOL    HW131973   1.072   2.346   9.244 -0.5981  3.8426  0.3711
 6838SOL    HW231974   0.937   2.387   9.233  0.6853 -0.0390  0.4408
 6839SOL     OW31975   4.038   3.272   3.055  0.3752  0.5226 -0.2609
 6839SOL    HW131976   4.133   3.280   3.046  0.4117  0.5485  0.1466
 6839SOL    HW231977   4.026   3.260   3.149 -1.1595  0.9471 -0.3936
 6840SOL     OW31978   1.753   3.032   2.114  0.2144 -0.2692 -0.5586
 6840SOL    HW131979   1.818   3.026   2.184  0.5359 -2.9262 -1.0616
 6840SOL    HW231980   1.700   3.109   2.135  0.4436  0.0143 -1.0240
 6841SOL     OW31981   2.630   3.318  16.690  0.5425 -0.8441  0.3178
 6841SOL    HW131982   2.676   3.330  16.607 -0.1276 -0.6057 -0.0245
 6841SOL    HW231983   2.648   3.408  16.718 -1.3301 -0.2272 -0.3772
 6842SOL     OW31984   0.647   2.622   1.650  0.0259 -0.5670  0.0910
 6842SOL    HW131985   0.726   2.630   1.597 -2.0076  0.2896 -2.7848
 6842SOL    HW231986   0.584   2.659   1.589 -1.7197  0.8948  2.7779
 6843SOL     OW31987   2.851   2.443  14.244  0.0498  0.5421 -0.0245
 6843SOL    HW131988   2.881   2.377  14.182 -0.5775  0.0979  0.1425
 6843SOL    HW231989   2.866   2.525  14.197 -2.0533 -0.9128 -3.2049
 6844SOL     OW31990   2.724   3.197   3.966 -0.1877 -0.2050  0.3685
 6844SOL    HW131991   2.713   3.228   3.876  0.7401 -1.4916 -0.1813
 6844SOL    HW231992   2.698   3.105   3.972 -0.3748 -0.0999  1.2176
 6845SOL     OW31993   1.127   0.513   7.793  0.5102  0.2851  0.3305
 6845SOL    HW131994   1.093   0.598   7.766  0.7654 -0.3606 -1.9651
 6845SOL    HW231995   1.074   0.508   7.873 -0.2663  0.3113 -0.1806
 6846SOL     OW31996   4.417   1.224   6.498 -0.2183  0.0365 -0.1513
 6846SOL    HW131997   4.369   1.228   6.581  0.9746  0.3590  0.5148
 6846SOL    HW231998   4.460   1.309   6.500 -0.7787  0.3248 -0.1492
 6847SOL     OW31999   3.312   2.838   3.456  0.5360 -0.4896 -0.3650
 6847SOL    HW132000   3.219   2.854   3.472  1.2139  1.2315  1.9138
 6847SOL    HW232001   3.359   2.917   3.483 -0.1341 -0.6541  1.3041
 6848SOL     OW32002   1.218   3.327   8.763 -0.2670  0.0011 -0.3291
 6848SOL    HW132003   1.219   3.420   8.785 -1.5770 -0.0062 -0.2257
 6848SOL    HW232004   1.308   3.310   8.735  0.1260  3.1847 -0.9481
 6849SOL     OW32005   0.497   4.165   8.124  0.1182 -0.7141 -0.0387
 6849SOL    HW132006   0.442   4.145   8.200 -0.8998 -0.6652 -0.7587
 6849SOL    HW232007   0.464   4.251   8.096  0.5452 -0.0484  1.5279
 6850SOL     OW32008   4.570   1.395   8.114 -0.0175 -0.4620  0.2439
 6850SOL    HW132009   4.655   1.359   8.088  2.0349  3.3183  1.6861
 6850SOL    HW232010   4.542   1.443   8.036  0.9917 -1.1713 -0.5518
 6851SOL     OW32011   3.437   3.908   9.944 -0.6634  0.5174 -0.2698
 6851SOL    HW132012   3.390   3.864   9.873 -2.2023  1.4924  0.1540
 6851SOL    HW232013   3.477   3.973   9.886  0.3303 -0.5224 -0.7428
 6852SOL     OW32014   3.712   2.013   3.386 -0.2631 -0.0343  0.8340
 6852SOL    HW132015   3.723   2.108   3.376  0.4637 -0.2717 -0.6364
 6852SOL    HW232016   3.726   1.982   3.296 -0.7174 -2.0356  1.4572
 6853SOL     OW32017   4.198   1.664  13.589 -0.7387 -0.0685  0.2582
 6853SOL    HW132018   4.157   1.732  13.642 -1.7192 -0.7266  0.3637
 6853SOL    HW232019   4.282   1.706  13.604 -0.4534 -0.2705 -0.7480
 6854SOL     OW32020   0.212   3.309   5.823  1.1137  0.0083  0.7108
 6854SOL    HW132021   0.171   3.227   5.797  0.5497  0.2515  0.8373
 6854SOL    HW232022   0.141   3.373   5.819  0.2725 -1.1044 -1.6847
 6855SOL     OW32023   4.483   3.094  14.175 -0.6420  0.1741  0.7987
 6855SOL    HW132024   4.404   3.084  14.121  1.1966  0.7763 -1.9913
 6855SOL    HW232025   4.501   3.187  14.164 -0.9223  0.1209 -0.0866
 6856SOL     OW32026   3.078   2.583   4.005  0.6292 -0.1175  0.3239
 6856SOL    HW132027   3.111   2.672   4.004  0.0567  0.1164  2.0641
 6856SOL    HW232028   3.028   2.564   3.926  0.2219 -1.8615  0.9786
 6857SOL     OW32029   2.108   0.041   2.315  0.0097  0.1210 -0.0700
 6857SOL    HW132030   2.143   0.102   2.250 -2.3245  0.3341 -1.1142
 6857SOL    HW232031   2.065   4.699   2.259 -1.2266  0.1233  0.8828
 6858SOL     OW32032   4.701   2.425  13.234 -0.4965 -0.1118  0.0075
 6858SOL    HW132033   0.041   2.450  13.166  0.8161  1.9838  1.9740
 6858SOL    HW232034   0.043   2.422  13.305  0.4980  1.3076 -0.8325
 6859SOL     OW32035   1.612   0.631   1.467 -0.1069  0.6472  0.4182
 6859SOL    HW132036   1.695   0.664   1.434 -0.9157  1.3198 -0.9404
 6859SOL    HW232037   1.640   0.547   1.503 -0.0009 -0.5500 -2.5000
 6860SOL     OW32038   4.657   4.662   4.855 -0.0737 -0.2680  0.4749
 6860SOL    HW132039   4.688   4.575   4.880 -0.3481 -0.9341 -1.4887
 6860SOL    HW232040   4.697   4.659   4.768 -1.8579  3.8194 -0.5016
 6861SOL     OW32041   1.920   1.148   5.111  0.4034  0.6957 -0.3379
 6861SOL    HW132042   1.916   1.243   5.121 -0.1819  1.0293 -3.7465
 6861SOL    HW232043   1.971   1.142   5.030  0.2952  2.0972 -0.5159
 6862SOL     OW32044   4.117   1.410   3.982  0.5315 -0.0103 -0.7471
 6862SOL    HW132045   4.053   1.405   3.911 -2.1109  0.5627  1.5655
 6862SOL    HW232046   4.148   1.319   3.983 -0.6913 -0.4297 -0.1101
 6863SOL     OW32047   1.505   0.831   5.320  1.4766 -0.2205  0.3026
 6863SOL    HW132048   1.462   0.851   5.404  0.4304 -0.7930 -0.0893
 6863SOL    HW232049   1.594   0.835   5.355  1.0215 -0.1551  1.4685
 6864SOL     OW32050   2.015   2.336   3.611 -0.0147  0.5500 -0.4320
 6864SOL    HW132051   2.076   2.293   3.551  2.0280  0.0166  2.0231
 6864SOL    HW232052   1.959   2.262   3.635 -0.1156 -0.2044 -3.1079
 6865SOL     OW32053   3.349   4.268   6.063 -0.2468  0.1201  0.2366
 6865SOL    HW132054   3.438   4.301   6.052  0.0759 -0.6504  0.5535
 6865SOL    HW232055   3.302   4.340   6.021  1.9528  1.7040  0.4902
 6866SOL     OW32056   2.699   2.122  10.731 -0.1308  0.1806 -0.1544
 6866SOL    HW132057   2.742   2.208  10.733 -1.0546  0.6197  1.0714
 6866SOL    HW232058   2.659   2.140  10.817 -0.2170  1.0261 -0.3657
 6867SOL     OW32059   4.182   3.009   1.614 -0.0060 -0.1513  0.4482
 6867SOL    HW132060   4.198   2.919   1.643  1.0020  0.3799  1.5402
 6867SOL    HW232061   4.263   3.023   1.566 -0.0772 -1.2968  0.0039
 6868SOL     OW32062   4.090   0.413   5.598 -0.6741 -0.6069 -0.0573
 6868SOL    HW132063   4.134   0.356   5.535 -1.5132 -0.4533 -0.7832
 6868SOL    HW232064   4.001   0.421   5.565 -1.0438 -0.4673  0.9667
 6869SOL     OW32065   3.731   0.078  16.323  0.3168  0.0578 -0.2230
 6869SOL    HW132066   3.721   0.166  16.358 -0.6506 -0.5623  1.0831
 6869SOL    HW232067   3.642   0.056  16.294 -0.2650  2.8986 -0.5337
 6870SOL     OW32068   0.347   2.698   8.561  0.2540  0.2735 -0.4958
 6870SOL    HW132069   0.443   2.691   8.557  0.2548 -0.3798  0.8062
 6870SOL    HW232070   0.330   2.691   8.467 -1.4895 -0.4435 -0.1206
 6871SOL     OW32071   0.712   4.204   7.142 -0.4689  0.0261 -0.2100
 6871SOL    HW132072   0.668   4.216   7.057  1.4418 -0.2888 -1.2463
 6871SOL    HW232073   0.691   4.285   7.187  0.5339  0.2548 -0.1620
 6872SOL     OW32074   3.193   0.500   4.346  0.0223 -0.0409 -0.1626
 6872SOL    HW132075   3.156   0.504   4.258 -0.8569  0.4285  0.2211
 6872SOL    HW232076   3.114   0.484   4.398  0.0852  0.5332  0.1126
 6873SOL     OW32077   1.441   1.688   3.309 -0.1863  0.3134 -0.2656
 6873SOL    HW132078   1.399   1.757   3.361  1.0691  0.3262  0.7511
 6873SOL    HW232079   1.529   1.697   3.346 -0.1950 -1.0675  0.1005
 6874SOL     OW32080   2.803   2.485   7.086 -0.3949 -0.3407 -0.1796
 6874SOL    HW132081   2.761   2.568   7.108 -0.0197  0.4028 -2.2450
 6874SOL    HW232082   2.731   2.446   7.035 -0.2906  0.3483 -0.8559
 6875SOL     OW32083   0.572   2.280   7.616  0.2164 -0.7075 -0.2871
 6875SOL    HW132084   0.587   2.335   7.693 -0.0137 -2.5160  1.0589
 6875SOL    HW232085   0.515   2.335   7.563  1.9826 -0.6640 -2.1253
 6876SOL     OW32086   1.345   0.449  13.517 -0.2238  0.1527 -0.1511
 6876SOL    HW132087   1.272   0.501  13.482 -1.2420 -1.1085  0.0895
 6876SOL    HW232088   1.336   0.375  13.457 -2.9348 -0.8519  1.5015
 6877SOL     OW32089   3.416   2.088  14.616 -0.2902 -0.0878  0.1774
 6877SOL    HW132090   3.376   2.030  14.681  1.9582 -3.1201 -1.1772
 6877SOL    HW232091   3.501   2.106  14.657 -0.6838  0.5651  0.7286
 6878SOL     OW32092   0.738   0.816   6.681 -0.1346 -0.3298 -0.1868
 6878SOL    HW132093   0.670   0.842   6.619 -0.1840  1.5130  0.6157
 6878SOL    HW232094   0.727   0.721   6.685 -1.7343 -0.1455 -0.3639
 6879SOL     OW32095   4.210   1.773  10.870  0.0849 -0.4029  0.2686
 6879SOL    HW132096   4.224   1.823  10.949 -0.5132  0.1975 -0.0072
 6879SOL    HW232097   4.146   1.705  10.892 -1.8306  1.3056 -0.0200
 6880SOL     OW32098   0.241   0.125   8.476 -0.2657 -0.1375  0.4939
 6880SOL    HW132099   0.299   0.116   8.552  1.2443  1.0647 -0.5045
 6880SOL    HW232100   0.301   0.146   8.404 -2.1347 -1.2878 -1.4008
 6881SOL     OW32101   0.740   0.267   9.341 -0.2857 -0.1690 -0.0834
 6881SOL    HW132102   0.739   0.202   9.411 -2.0406 -2.1430 -1.9771
 6881SOL    HW232103   0.801   0.233   9.276 -1.2797  1.0658 -1.6745
 6882SOL     OW32104   0.865   3.956   9.088 -0.4186 -0.4346 -0.2410
 6882SOL    HW132105   0.823   3.870   9.088 -1.5194  0.1061 -0.4692
 6882SOL    HW232106   0.797   4.002   9.137 -0.9128  0.9894 -2.2354
 6883SOL     OW32107   2.955   1.523   5.800 -0.2695 -0.1912 -0.3071
 6883SOL    HW132108   2.902   1.576   5.859  0.4263  0.1201  0.0397
 6883SOL    HW232109   2.885   1.485   5.747 -0.9028 -0.7180  0.8961
 6884SOL     OW32110   1.855   2.914   0.058  0.0083  0.0908  0.1047
 6884SOL    HW132111   1.891   2.827   0.043  0.3152  0.4275 -1.1290
 6884SOL    HW232112   1.852   2.954  17.664 -0.5606 -1.3976 -0.5665
 6885SOL     OW32113   1.619   4.484   2.019  0.3662 -0.3092 -0.0047
 6885SOL    HW132114   1.609   4.572   1.984 -0.9871 -0.7453 -0.7162
 6885SOL    HW232115   1.526   4.463   2.018  0.1861  0.3733  2.0049
 6886SOL     OW32116   0.684   3.566   8.139  0.2356 -0.1113  0.2611
 6886SOL    HW132117   0.694   3.507   8.213 -0.5906 -1.3926 -0.6461
 6886SOL    HW232118   0.705   3.652   8.174  0.5316 -0.1154  0.0914
 6887SOL     OW32119   2.489   4.492   4.467 -0.0932 -0.0186 -0.0622
 6887SOL    HW132120   2.401   4.521   4.488  0.1581  0.0022  0.9857
 6887SOL    HW232121   2.522   4.559   4.407 -1.0320  0.3033 -0.2030
 6888SOL     OW32122   2.441   2.237  15.652 -0.3414 -0.0889  0.0802
 6888SOL    HW132123   2.536   2.224  15.660 -0.1941  0.1248 -1.4078
 6888SOL    HW232124   2.410   2.149  15.629 -1.1193  0.1649  0.1566
 6889SOL     OW32125   2.682   4.442   6.654 -0.1150  0.1665 -0.2029
 6889SOL    HW132126   2.725   4.401   6.729 -0.0740  1.1532  0.3060
 6889SOL    HW232127   2.593   4.456   6.687 -0.1229  2.2750 -1.1338
 6890SOL     OW32128   1.396   0.332   4.484  0.0491 -0.4723 -0.2251
 6890SOL    HW132129   1.405   0.402   4.549 -2.0241 -2.8131  2.5472
 6890SOL    HW232130   1.312   0.356   4.445 -2.0176 -3.0858  2.7014
 6891SOL     OW32131   4.369   2.160  15.301 -0.1499 -0.4377  0.0952
 6891SOL    HW132132   4.366   2.137  15.208  1.5293 -0.4927  0.0546
 6891SOL    HW232133   4.432   2.233  15.300  1.1585 -1.6174 -2.0178
 6892SOL     OW32134   4.187   0.229   6.682 -0.2765 -0.6302 -0.2974
 6892SOL    HW132135   4.251   0.165   6.712 -0.2125  0.9690  2.9073
 6892SOL    HW232136   4.202   0.310   6.730 -0.8212 -2.0744  2.3006
 6893SOL     OW32137   1.211   1.990   2.171  0.0683 -0.1790  0.3307
 6893SOL    HW132138   1.211   1.895   2.168 -0.7568 -0.0786 -2.2501
 6893SOL    HW232139   1.298   1.996   2.131 -0.8542  0.1772 -1.6143
 6894SOL     OW32140   0.968   0.965  12.820  0.1199 -0.0750  0.3145
 6894SOL    HW132141   0.985   0.886  12.871  0.6776 -0.4212 -0.4070
 6894SOL    HW232142   0.884   0.937  12.784  1.6563 -3.4127 -0.6751
 6895SOL     OW32143   0.140   0.856   5.520 -0.7659  0.0036 -0.2209
 6895SOL    HW132144   0.102   0.810   5.446 -0.4907  1.0176 -0.9913
 6895SOL    HW232145   0.202   0.790   5.548  0.2199  0.8660 -0.3617
 6896SOL     OW32146   1.736   2.220  13.474  0.5114  0.2332 -0.2465
 6896SOL    HW132147   1.672   2.270  13.524  0.1839 -2.5528  2.1351
 6896SOL    HW232148   1.682   2.146  13.446  0.1109  0.5397 -0.2933
 6897SOL     OW32149   2.747   4.540  10.754  0.1713  0.4520 -0.0835
 6897SOL    HW132150   2.779   4.563  10.666  2.5214 -2.4352  0.0319
 6897SOL    HW232151   2.810   4.475  10.784 -1.2142 -0.7654  0.2027
 6898SOL     OW32152   1.468   0.403   2.538  0.5268 -0.1659 -0.2382
 6898SOL    HW132153   1.548   0.368   2.500  0.7708 -0.6795  0.7435
 6898SOL    HW232154   1.421   0.451   2.470 -0.9062 -1.0920  0.1029
 6899SOL     OW32155   4.522   2.835   8.689 -0.1982  0.3648  0.8181
 6899SOL    HW132156   4.607   2.831   8.645 -0.8250 -0.6643 -0.2942
 6899SOL    HW232157   4.492   2.744   8.690 -0.3798  0.3907 -1.7874
 6900SOL     OW32158   4.096   1.956   5.904  0.1200 -0.5251 -0.5476
 6900SOL    HW132159   4.129   1.952   5.814  3.0467  1.1796  0.4635
 6900SOL    HW232160   4.002   1.955   5.882  0.0622  0.2382 -0.3282
 6901SOL     OW32161   0.044   0.983  16.396  0.2513 -0.4383 -0.0626
 6901SOL    HW132162   0.056   0.896  16.435 -1.4088 -0.5553  0.1908
 6901SOL    HW232163   0.118   0.991  16.336  0.5077 -0.9736  0.1818
 6902SOL     OW32164   2.554   1.812  11.414  0.4959  0.4925 -0.0253
 6902SOL    HW132165   2.589   1.746  11.355 -0.8756 -1.6470  1.5736
 6902SOL    HW232166   2.573   1.778  11.502 -1.7661  0.2393  0.3662
 6903SOL     OW32167   0.558   3.085   6.517  0.0725  0.1595 -0.2966
 6903SOL    HW132168   0.643   3.042   6.513 -0.3884 -0.7633 -0.1593
 6903SOL    HW232169   0.515   3.038   6.445 -1.0693  1.1279 -0.2612
 6904SOL     OW32170   0.405   1.806  16.123  0.4937  0.0588  0.4835
 6904SOL    HW132171   0.489   1.766  16.146  1.3717  1.5329 -0.1506
 6904SOL    HW232172   0.424   1.837  16.035 -2.0089  2.1807  0.6945
 6905SOL     OW32173   2.677   1.962   3.191  0.5265 -0.2561  0.0303
 6905SOL    HW132174   2.673   1.981   3.284  0.6285 -1.1961  0.2210
 6905SOL    HW232175   2.613   1.895   3.166 -0.9042  1.1321 -0.0440
 6906SOL     OW32176   1.437   0.951  16.801 -0.0194 -0.0868 -0.8513
 6906SOL    HW132177   1.412   0.881  16.862 -1.9711  1.4295  0.0456
 6906SOL    HW232178   1.532   0.938  16.796  0.3462  1.2494  2.7139
 6907SOL     OW32179   3.829   1.208   7.479 -0.0008 -0.2915  0.5879
 6907SOL    HW132180   3.821   1.211   7.383  0.6732 -0.7537  0.5188
 6907SOL    HW232181   3.778   1.286   7.501 -0.0184 -0.0547 -0.2822
 6908SOL     OW32182   0.962   1.551   6.034 -0.1996  0.2473  0.0654
 6908SOL    HW132183   1.029   1.609   6.070  0.4419 -0.0147 -0.7006
 6908SOL    HW232184   1.006   1.505   5.962 -1.2427  0.6052 -0.8124
 6909SOL     OW32185   1.344   1.260   5.468 -0.1061 -0.0554 -0.2264
 6909SOL    HW132186   1.360   1.223   5.555  0.3577 -1.1591 -0.7774
 6909SOL    HW232187   1.435   1.277   5.444 -0.2984  1.2726 -0.0287
 6910SOL     OW32188   1.381   3.983   5.779 -0.6763 -0.4719 -0.2710
 6910SOL    HW132189   1.393   3.924   5.704  0.4726  0.2308 -0.6461
 6910SOL    HW232190   1.297   4.027   5.776 -0.8988 -0.9986 -1.6853
 6911SOL     OW32191   3.793   0.734   9.919  0.0877  0.3269  0.1158
 6911SOL    HW132192   3.765   0.684   9.842  2.0224  0.1649 -0.4654
 6911SOL    HW232193   3.796   0.820   9.878 -1.4232  0.8262  1.0478
 6912SOL     OW32194   0.352   1.752   0.334  0.2616 -0.6916  0.0579
 6912SOL    HW132195   0.393   1.666   0.322  1.0308 -0.7805  3.3740
 6912SOL    HW232196   0.415   1.811   0.375  0.0618 -0.4196 -0.0283
 6913SOL     OW32197   3.307   4.221  14.644 -0.4206 -0.0498 -0.0758
 6913SOL    HW132198   3.336   4.130  14.648  0.6216  0.3543  1.6542
 6913SOL    HW232199   3.387   4.272  14.641  0.0639 -0.8197 -0.3068
 6914SOL     OW32200   1.235   0.276   6.299  0.0894 -0.5113  0.2971
 6914SOL    HW132201   1.302   0.264   6.366  0.0524  0.2728  0.4745
 6914SOL    HW232202   1.233   0.372   6.302 -2.9048 -0.6010  1.5163
 6915SOL     OW32203   1.237   0.417   2.184  0.1907 -0.2966 -0.7530
 6915SOL    HW132204   1.180   0.386   2.254 -1.9099  1.5206 -1.6288
 6915SOL    HW232205   1.284   0.486   2.230  0.6538 -1.0057 -0.1730
 6916SOL     OW32206   3.082   2.598   1.354 -0.0195 -0.1276  0.4914
 6916SOL    HW132207   3.011   2.662   1.349 -2.3060 -2.7316 -0.3667
 6916SOL    HW232208   3.050   2.521   1.401 -0.6319  0.1285  0.4981
 6917SOL     OW32209   0.041   3.491   4.616  0.1243 -0.0200 -0.4015
 6917SOL    HW132210   0.066   3.538   4.537  0.2336  0.5064 -0.0533
 6917SOL    HW232211   4.708   3.420   4.585 -1.0009  0.9765 -0.6437
 6918SOL     OW32212   2.423   4.435  15.977 -0.0985  0.5771 -0.2978
 6918SOL    HW132213   2.518   4.424  15.980  0.1059  2.3916 -0.4447
 6918SOL    HW232214   2.420   4.509  16.037 -2.0677  0.4373 -0.2331
 6919SOL     OW32215   0.562   4.218   5.565 -0.0455 -0.0549  0.0072
 6919SOL    HW132216   0.511   4.192   5.642 -2.0698 -1.6928 -1.8794
 6919SOL    HW232217   0.647   4.175   5.579 -0.4942 -1.3756 -1.3566
 6920SOL     OW32218   4.214   1.374  12.799 -0.1237 -0.0347 -0.2228
 6920SOL    HW132219   4.221   1.407  12.889  0.9892 -0.1136 -0.2795
 6920SOL    HW232220   4.214   1.280  12.817 -2.6273  0.0535  0.1681
 6921SOL     OW32221   3.644   3.714  16.583  0.4633 -0.2866  0.7291
 6921SOL    HW132222   3.561   3.757  16.561  0.6132 -0.5526 -0.3309
 6921SOL    HW232223   3.632   3.670  16.667  0.7474 -0.2347  0.7992
 6922SOL     OW32224   2.950   0.339  11.311 -0.0587  0.1071  0.0599
 6922SOL    HW132225   2.982   0.418  11.353  1.8701 -1.0639  0.7793
 6922SOL    HW232226   2.915   0.384  11.234 -2.8955 -1.0647  0.6579
 6923SOL     OW32227   3.501   0.978   9.320 -0.1659 -0.0828  0.9558
 6923SOL    HW132228   3.596   0.988   9.317 -0.2159  0.4681  1.3228
 6923SOL    HW232229   3.483   0.905   9.380 -0.1824 -0.7012  0.2130
 6924SOL     OW32230   0.079   1.561   6.652  0.5841  0.2060  0.3202
 6924SOL    HW132231   0.061   1.483   6.599 -2.3268  0.2989  1.1431
 6924SOL    HW232232   0.026   1.625   6.604 -2.0863 -3.5396 -1.7200
 6925SOL     OW32233   3.567   1.010   5.935 -0.5173  0.4432  0.0153
 6925SOL    HW132234   3.573   0.937   5.873 -1.7695  1.1515 -0.9552
 6925SOL    HW232235   3.472   1.020   5.945 -0.3623  1.4662  0.3986
 6926SOL     OW32236   0.936   1.382   2.605 -0.0057  0.2967  0.1205
 6926SOL    HW132237   1.009   1.391   2.666 -0.7694 -1.2401  1.2654
 6926SOL    HW232238   0.944   1.294   2.568  2.5028  1.1010 -1.2317
 6927SOL     OW32239   2.787   1.294   8.616  0.1938 -0.0313 -0.1439
 6927SOL    HW132240   2.849   1.294   8.690 -1.6090  0.9388  1.3579
 6927SOL    HW232241   2.746   1.210   8.635  0.1350  0.0424  0.0560
 6928SOL     OW32242   1.340   0.953  13.798  0.4250  0.5037  0.5850
 6928SOL    HW132243   1.317   0.867  13.764  0.7141  1.3903 -1.8205
 6928SOL    HW232244   1.364   0.989  13.713  0.4271 -0.8960 -0.0060
 6929SOL     OW32245   0.411   0.162   0.382 -0.5629 -0.0416  0.2942
 6929SOL    HW132246   0.380   0.153   0.472 -1.0741  0.0398  0.1235
 6929SOL    HW232247   0.402   0.255   0.364 -0.5508 -0.1264 -0.1483
 6930SOL     OW32248   1.801   4.315   0.774 -0.7841 -0.0601 -0.1637
 6930SOL    HW132249   1.744   4.391   0.767 -1.8878 -1.0963 -2.4773
 6930SOL    HW232250   1.825   4.328   0.866  1.8003  2.6502 -1.2096
 6931SOL     OW32251   4.319   4.594   3.651  0.6095 -0.4733 -0.3388
 6931SOL    HW132252   4.335   4.512   3.697 -1.7154 -0.3605  0.6999
 6931SOL    HW232253   4.376   4.580   3.576  1.0932 -2.3921  0.4020
 6932SOL     OW32254   2.854   2.903   8.727  0.0086 -0.1757 -0.5145
 6932SOL    HW132255   2.802   2.827   8.700 -0.3635 -0.2282  0.3798
 6932SOL    HW232256   2.913   2.857   8.787 -0.1749  0.6556  0.2879
 6933SOL     OW32257   3.847   2.958   5.388  0.1502  0.0064 -0.0976
 6933SOL    HW132258   3.934   2.920   5.395  0.3875  0.5593 -0.0806
 6933SOL    HW232259   3.854   3.053   5.373 -2.4430  0.1301 -0.5418
 6934SOL     OW32260   3.344   1.437   6.387 -0.0830  0.0805  0.0258
 6934SOL    HW132261   3.283   1.410   6.455  0.6908  0.3765  0.8284
 6934SOL    HW232262   3.388   1.358   6.356  0.2758 -0.2514  1.3910
 6935SOL     OW32263   1.573   3.633   3.408  0.5427 -0.0048  0.7362
 6935SOL    HW132264   1.539   3.696   3.472  1.1161  0.5025  0.5478
 6935SOL    HW232265   1.653   3.601   3.449 -0.5071 -1.8476  1.3400
 6936SOL     OW32266   0.238   0.607  13.682 -0.2921 -0.2536  0.2027
 6936SOL    HW132267   0.234   0.647  13.769  0.6822 -0.0460  0.1506
 6936SOL    HW232268   0.292   0.528  13.677 -1.7097 -1.2076  0.0910
 6937SOL     OW32269   0.616   0.191   4.324  0.3783 -0.0871  0.5956
 6937SOL    HW132270   0.613   0.206   4.419 -2.8764  1.8515  0.1485
 6937SOL    HW232271   0.564   0.268   4.304  0.3912 -0.6339 -1.4654
 6938SOL     OW32272   1.233   3.568   3.482 -0.0109  0.4977 -0.0447
 6938SOL    HW132273   1.162   3.626   3.508  1.0823  0.4878  3.0282
 6938SOL    HW232274   1.287   3.591   3.558 -1.7052  2.3900  0.5851
 6939SOL     OW32275   0.096   0.014   5.754  0.1620 -0.0663 -0.0929
 6939SOL    HW132276   0.178   4.688   5.765  0.9024  0.8089 -1.6188
 6939SOL    HW232277   0.043   4.716   5.831  1.9466  0.9720  1.4158
 6940SOL     OW32278   0.079   2.097  11.103 -0.1748 -0.0670 -0.2382
 6940SOL    HW132279   0.105   2.083  11.194 -1.6599 -1.4221 -0.0347
 6940SOL    HW232280   0.079   2.006  11.072 -0.1091 -0.0992 -0.1431
 6941SOL     OW32281   4.611   3.300   3.283  0.1464  0.4090 -0.2222
 6941SOL    HW132282   4.540   3.330   3.340 -0.6115  0.9233 -1.4540
 6941SOL    HW232283   4.594   3.206   3.279 -0.3151  0.3928  2.1407
 6942SOL     OW32284   0.294   0.857   3.530  0.6673 -0.6705 -0.2999
 6942SOL    HW132285   0.370   0.800   3.544  2.0954  0.7135 -2.4523
 6942SOL    HW232286   0.328   0.942   3.559 -0.8909 -0.3375  0.5464
 6943SOL     OW32287   1.827   3.695   8.637 -0.5902  0.4743  0.6304
 6943SOL    HW132288   1.795   3.694   8.547  0.3236 -1.2585  0.3200
 6943SOL    HW232289   1.809   3.788   8.652 -1.3496  0.7867 -2.1871
 6944SOL     OW32290   1.422   2.259   9.016  0.5756 -0.2591 -0.0135
 6944SOL    HW132291   1.364   2.322   8.973  4.2329  2.8054 -0.5034
 6944SOL    HW232292   1.497   2.318   9.028  1.2862 -0.6166 -2.8543
 6945SOL     OW32293   3.434   3.019   2.747  0.1663 -0.1584 -0.1387
 6945SOL    HW132294   3.505   2.996   2.807  1.3702  2.1623 -0.6773
 6945SOL    HW232295   3.388   2.936   2.751 -0.5793  0.1617 -2.1962
 6946SOL     OW32296   0.379   3.502   9.137 -0.0520  0.4043 -0.2997
 6946SOL    HW132297   0.447   3.447   9.177 -1.0426  0.1908  1.0716
 6946SOL    HW232298   0.316   3.480   9.206  2.2835 -1.9471  1.0697
 6947SOL     OW32299   3.783   2.754   7.093 -0.3711  0.3437  0.3548
 6947SOL    HW132300   3.870   2.742   7.053  0.1977  0.9543  1.4055
 6947SOL    HW232301   3.728   2.676   7.081  0.0615  0.2918 -1.3621
 6948SOL     OW32302   3.708   3.923   5.167  0.3875  0.2705  0.6833
 6948SOL    HW132303   3.651   3.935   5.242  0.3691 -0.8816  0.8541
 6948SOL    HW232304   3.799   3.944   5.189  0.1761  1.9695 -0.0275
 6949SOL     OW32305   1.285   0.513  11.966 -0.3277 -0.0489 -0.0253
 6949SOL    HW132306   1.337   0.579  12.014 -2.8963  2.0214 -0.0937
 6949SOL    HW232307   1.261   0.462  12.043 -2.8657  1.2815  0.0487
 6950SOL     OW32308   0.038   1.716   9.494  0.0761  0.4001 -0.1356
 6950SOL    HW132309   4.709   1.776   9.440  2.8972  1.6918 -1.4359
 6950SOL    HW232310   0.019   1.629   9.461 -0.6800  0.9211 -1.0679
 6951SOL     OW32311   1.258   3.380   7.846 -0.0201  0.2220  0.4177
 6951SOL    HW132312   1.163   3.382   7.856 -0.0655  1.3607 -0.3206
 6951SOL    HW232313   1.293   3.466   7.868 -0.2204 -0.1078  2.0194
 6952SOL     OW32314   2.442   3.581  10.794  0.3836  0.4490 -0.2723
 6952SOL    HW132315   2.436   3.526  10.717  0.2866 -0.8964  0.7062
 6952SOL    HW232316   2.535   3.583  10.816  0.1033 -1.8511  1.0655
 6953SOL     OW32317   3.938   3.933   2.511  0.1204  0.0683  0.0385
 6953SOL    HW132318   4.013   3.979   2.474 -0.4625 -0.1188 -1.3864
 6953SOL    HW232319   3.922   3.866   2.444  0.2228  1.1052 -1.0166
 6954SOL     OW32320   3.601   3.566   0.525 -0.3753 -0.7446 -0.1212
 6954SOL    HW132321   3.604   3.567   0.429 -2.1213  3.4258 -0.1231
 6954SOL    HW232322   3.681   3.517   0.545 -0.0299  1.0394  2.8732
 6955SOL     OW32323   2.523   3.610   6.488  0.4211  0.1841  0.4950
 6955SOL    HW132324   2.593   3.673   6.504  2.0797 -1.6195  0.4446
 6955SOL    HW232325   2.522   3.554   6.566 -1.7668 -0.8818 -0.3027
 6956SOL     OW32326   4.280   1.388   7.068 -0.0957  0.7717 -0.3375
 6956SOL    HW132327   4.350   1.342   7.022 -0.9269 -0.7332 -0.1039
 6956SOL    HW232328   4.227   1.432   7.002 -1.6050 -0.4247  0.0921
 6957SOL     OW32329   0.990   2.348   8.663 -0.7960  0.0756 -0.3459
 6957SOL    HW132330   0.928   2.308   8.724  0.0956 -1.8712 -0.7345
 6957SOL    HW232331   1.065   2.289   8.668  0.1700  1.3956  0.5617
 6958SOL     OW32332   0.685   3.121   7.943  0.1836 -0.1333 -0.3551
 6958SOL    HW132333   0.698   3.210   7.910  1.9254  0.5130  2.0832
 6958SOL    HW232334   0.678   3.135   8.037  0.8453 -4.3679  0.3336
 6959SOL     OW32335   0.858   3.354  16.326  0.2826  0.0174  0.1314
 6959SOL    HW132336   0.850   3.286  16.393  0.8068  0.0030  0.1800
 6959SOL    HW232337   0.897   3.428  16.371 -0.7755 -0.4153  1.7417
 6960SOL     OW32338   3.253   1.569   4.064  0.1835  0.3791  0.2719
 6960SOL    HW132339   3.333   1.550   4.112 -0.7729 -1.8018  1.0544
 6960SOL    HW232340   3.242   1.492   4.007 -0.4491  0.0947  0.7750
 6961SOL     OW32341   4.225   2.652   5.158  0.0295  0.8099 -0.5734
 6961SOL    HW132342   4.210   2.567   5.118  2.1028  0.2053 -0.0410
 6961SOL    HW232343   4.321   2.644   5.160 -0.2153 -1.2809  2.6859
 6962SOL     OW32344   4.633   0.257   6.260  0.0109  0.2597 -0.1208
 6962SOL    HW132345   4.559   0.295   6.212 -0.3145 -0.3886 -0.1312
 6962SOL    HW232346   4.652   0.328   6.321 -1.5991  0.1067  0.5903
 6963SOL     OW32347   1.358   2.067  15.198 -0.1748 -0.2465 -0.1525
 6963SOL    HW132348   1.350   1.972  15.202 -0.5142 -0.3077 -2.0094
 6963SOL    HW232349   1.386   2.079  15.107 -0.7448  1.7927 -0.0577
 6964SOL     OW32350   0.201   4.593  10.984 -0.3613  0.3628 -0.5838
 6964SOL    HW132351   0.135   4.660  10.966  0.4962  0.7841 -2.1437
 6964SOL    HW232352   0.162   4.533  11.048  1.4529 -0.3931 -0.2046
 6965SOL     OW32353   3.276   1.427   5.918 -0.1832  0.6473 -0.9030
 6965SOL    HW132354   3.315   1.500   5.966 -2.4651  1.2690 -0.0056
 6965SOL    HW232355   3.346   1.402   5.858 -1.3583 -0.4038 -1.8390
 6966SOL     OW32356   2.987   1.792   1.618  0.4270  0.2139 -1.1987
 6966SOL    HW132357   2.936   1.843   1.681 -1.0454 -2.6765 -0.0695
 6966SOL    HW232358   3.071   1.795   1.664 -0.1903  3.1483 -0.2192
 6967SOL     OW32359   1.670   4.433  15.564  0.2330  0.1635 -0.5849
 6967SOL    HW132360   1.599   4.426  15.501  0.3078 -4.5204 -0.1056
 6967SOL    HW232361   1.737   4.469  15.505  0.0778  0.1956 -0.7407
 6968SOL     OW32362   3.753   1.209  17.336  0.5854  0.2459 -0.0547
 6968SOL    HW132363   3.729   1.233  17.247 -0.0688 -1.8158 -0.4299
 6968SOL    HW232364   3.817   1.141  17.315  1.3949  0.9410  0.1394
 6969SOL     OW32365   2.834   0.742  11.331 -0.7661 -0.2516  0.6826
 6969SOL    HW132366   2.886   0.722  11.253 -2.1800  2.1025 -0.8450
 6969SOL    HW232367   2.816   0.655  11.366 -0.9010 -1.5442 -2.6542
 6970SOL     OW32368   1.879   1.817  17.179  0.1714 -0.7111 -0.4829
 6970SOL    HW132369   1.874   1.774  17.265 -0.3606  1.5826  0.6522
 6970SOL    HW232370   1.882   1.910  17.201  1.5201 -0.0494 -3.5154
 6971SOL     OW32371   3.081   1.756   3.927  0.3317 -0.3946  0.5088
 6971SOL    HW132372   3.131   1.776   3.848 -2.9848  0.0518 -1.4716
 6971SOL    HW232373   3.097   1.826   3.991 -1.5528  0.7338 -0.2817
 6972SOL     OW32374   4.644   2.533  14.391 -0.4109  0.0201 -0.2537
 6972SOL    HW132375   4.683   2.527  14.478  2.2430  1.8134 -1.3342
 6972SOL    HW232376   4.674   2.618  14.359 -0.4347  0.1038 -0.0549
 6973SOL     OW32377   3.871   0.887   5.629 -0.5163  0.1694 -0.3013
 6973SOL    HW132378   3.796   0.847   5.584 -1.3528  1.1463  0.2070
 6973SOL    HW232379   3.822   0.951   5.680 -0.2527  1.0810 -1.2024
 6974SOL     OW32380   1.452   0.035  11.787  0.3362  0.0430  0.7841
 6974SOL    HW132381   1.478   0.079  11.706  2.3507  0.3466  1.6138
 6974SOL    HW232382   1.469   0.098  11.856 -2.3231  1.3551  0.2556
 6975SOL     OW32383   0.902   3.890  12.259 -0.2503  0.0932  0.1438
 6975SOL    HW132384   0.914   3.847  12.344 -2.3853  0.1922  0.4913
 6975SOL    HW232385   0.994   3.902  12.238 -0.0812 -0.0390  0.7999
 6976SOL     OW32386   3.558   1.344   2.521 -0.4876  0.2679 -0.6545
 6976SOL    HW132387   3.482   1.339   2.463  0.7990  0.3564 -2.3518
 6976SOL    HW232388   3.628   1.376   2.464  0.9442  0.7902  1.4084
 6977SOL     OW32389   3.238   2.220   3.635  0.5553  0.1673 -0.1969
 6977SOL    HW132390   3.220   2.196   3.726 -0.7981  0.0190 -0.4953
 6977SOL    HW232391   3.292   2.148   3.604  0.8921 -0.6257  2.2794
 6978SOL     OW32392   2.563   0.267   9.069 -0.0548  0.0141  0.4135
 6978SOL    HW132393   2.501   0.234   9.134  2.0133 -2.2975  1.2554
 6978SOL    HW232394   2.530   0.348   9.031 -1.4094 -0.8571 -0.2711
 6979SOL     OW32395   3.967   1.213   7.718  0.2873 -0.1118 -0.3394
 6979SOL    HW132396   3.919   1.188   7.639 -2.2192 -1.1574  1.4906
 6979SOL    HW232397   3.912   1.160   7.776 -1.0458  2.4168  0.7107
 6980SOL     OW32398   1.174   0.707  11.200 -0.0793  0.0288 -0.6709
 6980SOL    HW132399   1.137   0.738  11.117 -1.6469  1.1390  0.4307
 6980SOL    HW232400   1.144   0.617  11.206 -0.8724  0.2607 -1.2103
 6981SOL     OW32401   3.482   2.459  15.025 -0.1631 -0.0818 -0.6406
 6981SOL    HW132402   3.511   2.476  14.936 -1.3349  0.3605 -0.9298
 6981SOL    HW232403   3.564   2.460  15.074 -1.4089  1.9998  1.3969
 6982SOL     OW32404   1.246   1.229   5.208 -0.0748 -0.1104  0.2933
 6982SOL    HW132405   1.260   1.240   5.302  1.0245  0.7634  0.0321
 6982SOL    HW232406   1.273   1.138   5.197 -0.0361 -0.2901  2.0057
 6983SOL     OW32407   3.500   1.514   2.723 -0.6480 -0.1058 -0.0998
 6983SOL    HW132408   3.515   1.434   2.674 -0.5073  1.3008 -2.3792
 6983SOL    HW232409   3.474   1.569   2.649 -1.9813 -0.4694  0.1032
 6984SOL     OW32410   0.429   0.534   7.119  0.3701 -0.5444  0.3508
 6984SOL    HW132411   0.377   0.579   7.185 -1.9138 -0.3054 -1.6075
 6984SOL    HW232412   0.512   0.527   7.165  0.6038 -0.5686 -0.0689
 6985SOL     OW32413   2.418   3.709   0.758  0.4077 -0.6433  0.4022
 6985SOL    HW132414   2.464   3.691   0.840  1.6727 -2.3697 -0.6702
 6985SOL    HW232415   2.463   3.647   0.700 -2.0931  0.3395 -2.5819
 6986SOL     OW32416   0.706   0.148  16.912 -0.2337 -0.2785 -0.3668
 6986SOL    HW132417   0.698   0.123  17.004  0.1009 -0.5871 -0.4168
 6986SOL    HW232418   0.655   0.076  16.875  0.3839 -0.3212 -1.1453
 6987SOL     OW32419   1.063   1.463  11.910  0.2512 -0.9753 -0.2281
 6987SOL    HW132420   1.082   1.469  11.817  3.2451 -1.5790  0.3522
 6987SOL    HW232421   1.042   1.369  11.914  1.1437 -1.1643  0.0654
 6988SOL     OW32422   1.088   4.300   6.222 -0.1995 -0.4541  0.2613
 6988SOL    HW132423   1.003   4.292   6.178  0.0189  0.9460 -0.4338
 6988SOL    HW232424   1.102   4.211   6.254 -1.2400 -0.0079  1.9524
 6989SOL     OW32425   4.101   2.861   0.734  0.3669 -0.0974  0.1795
 6989SOL    HW132426   4.120   2.951   0.758  1.8681 -0.4516  0.3001
 6989SOL    HW232427   4.140   2.814   0.808  1.0476 -1.1713 -0.8527
 6990SOL     OW32428   3.908   1.040   1.597  0.1671 -0.0457 -0.0133
 6990SOL    HW132429   3.860   0.969   1.553  1.1161 -1.4027  1.1482
 6990SOL    HW232430   3.961   1.077   1.526 -0.1945  2.0616  0.8269
 6991SOL     OW32431   1.539   3.176   2.888 -0.1278  0.5023  0.0972
 6991SOL    HW132432   1.579   3.258   2.860 -0.3228  0.1684 -1.1445
 6991SOL    HW232433   1.445   3.190   2.876 -0.3680 -0.2788  1.0479
 6992SOL     OW32434   0.223   2.417  13.372 -0.1992  0.3373  1.1355
 6992SOL    HW132435   0.274   2.349  13.417 -1.7315 -1.9767 -0.5767
 6992SOL    HW232436   0.267   2.496  13.401  0.4099  0.5528 -0.3926
 6993SOL     OW32437   0.846   2.030  16.422 -0.4626 -0.2447 -0.3778
 6993SOL    HW132438   0.926   1.988  16.452 -1.5742 -1.7672  0.4530
 6993SOL    HW232439   0.866   2.028  16.328 -0.1691  1.1048 -0.3402
 6994SOL     OW32440   1.367   1.353   9.805  0.1824 -0.1514 -0.2494
 6994SOL    HW132441   1.435   1.413   9.836  0.8560 -1.6211  1.1266
 6994SOL    HW232442   1.334   1.307   9.882 -0.3762  0.0727 -0.3551
 6995SOL     OW32443   3.878   4.651   7.463 -0.0495  0.1424  0.0147
 6995SOL    HW132444   3.962   4.674   7.424 -0.0469 -1.9428 -1.2317
 6995SOL    HW232445   3.903   4.635   7.554 -2.2330  0.5142  0.6753
 6996SOL     OW32446   0.024   1.888   8.769 -1.1167  0.0774  0.0854
 6996SOL    HW132447   0.095   1.859   8.712 -1.7145 -1.1040 -0.0597
 6996SOL    HW232448   0.004   1.809   8.820  0.9123 -1.0215 -0.8370
 6997SOL     OW32449   2.464   3.324   5.939  0.6926  0.0672  0.0700
 6997SOL    HW132450   2.391   3.281   5.984 -0.2878  0.8882 -0.7196
 6997SOL    HW232451   2.540   3.311   5.995  1.1177  0.9145 -0.3107
 6998SOL     OW32452   2.219   3.749   3.885 -0.0228 -0.3764 -0.3359
 6998SOL    HW132453   2.140   3.801   3.900  0.0037 -0.1833 -0.8631
 6998SOL    HW232454   2.279   3.816   3.852 -0.8305 -0.2587 -1.5619
 6999SOL     OW32455   0.587   1.129   7.812 -0.1832  0.7511 -0.1309
 6999SOL    HW132456   0.554   1.180   7.739  1.3968  0.2366 -1.2154
 6999SOL    HW232457   0.681   1.148   7.819  0.3798 -2.9853  2.8073
 7000SOL     OW32458   0.226   1.251   6.102 -0.8894 -0.2035 -0.0046
 7000SOL    HW132459   0.276   1.266   6.022 -2.9009 -2.1002 -1.6234
 7000SOL    HW232460   0.158   1.316   6.086 -2.6614 -2.0310  0.1051
 7001SOL     OW32461   2.624   4.495   3.854 -0.0945 -0.2896  0.4068
 7001SOL    HW132462   2.611   4.441   3.932 -0.9901  0.5281  0.8228
 7001SOL    HW232463   2.718   4.488   3.839 -0.2695  0.7997 -1.2035
 7002SOL     OW32464   0.717   3.747   6.355  0.2323 -0.2972 -0.1292
 7002SOL    HW132465   0.643   3.702   6.315  0.1186 -0.4665  0.2704
 7002SOL    HW232466   0.718   3.831   6.308  0.5301  0.0860  0.5669
 7003SOL     OW32467   0.558   4.277  16.516 -0.2432  0.1976  0.1754
 7003SOL    HW132468   0.469   4.251  16.538  0.8526 -2.3614  1.5580
 7003SOL    HW232469   0.598   4.196  16.487 -4.4608 -1.5434 -0.7192
 7004SOL     OW32470   1.325   1.349   9.326  0.2967 -0.1359 -0.1743
 7004SOL    HW132471   1.399   1.341   9.267  0.1991 -4.0728  0.2487
 7004SOL    HW232472   1.357   1.312   9.408  0.8256  1.0441  0.1504
 7005SOL     OW32473   1.560   2.668   6.235  1.0418  0.2028  0.3800
 7005SOL    HW132474   1.617   2.745   6.232 -0.2298  1.0756 -1.4321
 7005SOL    HW232475   1.567   2.637   6.325  1.5119  1.1728  0.6873
 7006SOL     OW32476   3.431   2.587   7.320  0.2021  0.0587  0.0271
 7006SOL    HW132477   3.397   2.611   7.407  0.6102  0.4766  0.0729
 7006SOL    HW232478   3.490   2.662   7.309  0.8201 -0.4297  0.0401
 7007SOL     OW32479   2.407   2.298   1.830  0.3407 -0.6078 -0.0011
 7007SOL    HW132480   2.452   2.242   1.893  2.1187  2.4258  1.4366
 7007SOL    HW232481   2.383   2.227   1.771 -2.3372  0.3706 -0.0660
 7008SOL     OW32482   0.786   4.515   4.160  0.6230  0.2169 -0.1850
 7008SOL    HW132483   0.799   4.438   4.104 -0.3837 -2.1595  2.8423
 7008SOL    HW232484   0.871   4.518   4.204 -0.2192  0.2517  1.4640
 7009SOL     OW32485   3.026   2.095   8.643  0.9423  0.1408 -0.3921
 7009SOL    HW132486   3.095   2.029   8.646  2.3345  1.5779 -0.9930
 7009SOL    HW232487   3.033   2.132   8.731  0.6249  0.9693 -0.7159
 7010SOL     OW32488   2.011   2.370   9.413  0.0071  0.2782 -0.0513
 7010SOL    HW132489   2.040   2.280   9.396  1.3368  0.8691 -0.9335
 7010SOL    HW232490   2.087   2.405   9.461 -0.1545  1.2490 -0.5061
 7011SOL     OW32491   1.525   3.160   1.382 -0.0043 -0.4956 -0.0655
 7011SOL    HW132492   1.547   3.088   1.323 -0.2667 -1.5740  1.1372
 7011SOL    HW232493   1.499   3.114   1.462 -1.8448  0.3156 -0.1988
 7012SOL     OW32494   1.901   4.635   9.953  0.5267  0.2804  0.5353
 7012SOL    HW132495   1.820   4.586   9.969  0.5478 -0.4186 -1.5242
 7012SOL    HW232496   1.937   4.582   9.882  1.6637  2.3477 -0.4100
 7013SOL     OW32497   4.229   2.506   9.424  0.7945  0.4373 -0.1294
 7013SOL    HW132498   4.151   2.561   9.415 -0.3081 -0.4354  4.4816
 7013SOL    HW232499   4.229   2.483   9.517 -0.8561  0.4516 -0.1334
 7014SOL     OW32500   0.311   1.609  14.156 -0.5322 -0.5862  0.0111
 7014SOL    HW132501   0.307   1.704  14.167  2.4008 -0.2127 -2.1013
 7014SOL    HW232502   0.388   1.594  14.101 -0.6277 -2.3666  0.3463
 7015SOL     OW32503   0.936   2.850   6.051  0.0021 -0.9216  0.4492
 7015SOL    HW132504   0.984   2.933   6.049  2.0894 -2.1403 -0.6553
 7015SOL    HW232505   1.001   2.786   6.080  0.8098 -1.4925 -2.5963
 7016SOL     OW32506   0.048   2.107  12.192  0.2227  0.3332 -0.7037
 7016SOL    HW132507   0.103   2.156  12.252 -2.4361  0.4790  1.6161
 7016SOL    HW232508   0.110   2.038  12.170 -0.1591 -0.0224 -0.6653
 7017SOL     OW32509   2.215   0.004  16.387  0.1244 -0.5760 -0.1986
 7017SOL    HW132510   2.122   0.020  16.373  0.0369  0.3808  1.5013
 7017SOL    HW232511   2.245   0.092  16.405  2.0776 -0.5740 -3.4799
 7018SOL     OW32512   1.442   3.032  15.689 -0.1703 -0.4319  0.2119
 7018SOL    HW132513   1.453   2.946  15.731 -0.4796 -0.3108  0.5423
 7018SOL    HW232514   1.355   3.018  15.653 -0.0222  4.0920 -1.9376
 7019SOL     OW32515   1.473   4.620  13.009 -0.0430  0.5300  0.8247
 7019SOL    HW132516   1.565   4.647  13.008 -0.3690  1.6234  1.7890
 7019SOL    HW232517   1.429   4.685  13.063 -0.5416  0.4847  0.4727
 7020SOL     OW32518   0.575   2.809  11.779 -0.3992  0.4075  0.0013
 7020SOL    HW132519   0.541   2.898  11.779  0.7558  0.8556  1.5171
 7020SOL    HW232520   0.614   2.812  11.866 -1.7558  0.8723  0.5975
 7021SOL     OW32521   0.388   2.943   7.275  0.1960 -0.7197 -0.3682
 7021SOL    HW132522   0.323   2.965   7.208  0.3990  2.4778  0.4627
 7021SOL    HW232523   0.377   3.007   7.345 -1.4274 -0.5481 -0.7792
 7022SOL     OW32524   2.433   4.661  11.349 -0.6954  0.0518 -0.1561
 7022SOL    HW132525   2.476   4.642  11.266  0.4462  1.0515  0.2116
 7022SOL    HW232526   2.341   4.668  11.324 -0.4844  0.1529 -0.8947
 7023SOL     OW32527   1.034   3.410  14.151  0.0774  0.1590 -0.4177
 7023SOL    HW132528   1.125   3.382  14.163 -0.5107 -2.0688 -1.2270
 7023SOL    HW232529   1.028   3.487  14.207  2.7085 -1.4078  2.0253
 7024SOL     OW32530   4.428   3.718   0.913 -0.0148 -0.1147 -0.3459
 7024SOL    HW132531   4.516   3.699   0.945  0.0829  1.5742  0.3438
 7024SOL    HW232532   4.373   3.705   0.990 -1.0928 -3.3777 -1.6559
 7025SOL     OW32533   3.725   1.234   8.313 -0.3032 -0.6718  0.0909
 7025SOL    HW132534   3.717   1.329   8.320 -2.2088 -0.8696  0.5286
 7025SOL    HW232535   3.709   1.194   8.399 -1.0141 -1.9299 -0.6249
 7026SOL     OW32536   1.909   1.862   4.860  0.5409  0.0780  0.1930
 7026SOL    HW132537   1.834   1.869   4.918 -1.4844 -1.5658 -2.2300
 7026SOL    HW232538   1.965   1.931   4.896 -0.2376  1.7653 -1.8068
 7027SOL     OW32539   4.091   4.583  13.777  0.0640  0.4763  0.2420
 7027SOL    HW132540   4.040   4.509  13.810 -0.4780 -0.4185 -2.6083
 7027SOL    HW232541   4.022   4.639  13.742  0.9120  2.5379  1.8622
 7028SOL     OW32542   1.233   4.003   3.840 -0.5620  0.6576 -0.3646
 7028SOL    HW132543   1.280   4.020   3.759 -2.2799  2.8384 -0.9129
 7028SOL    HW232544   1.302   4.015   3.906 -3.1377  0.3090  2.4260
 7029SOL     OW32545   0.055   2.102   6.227  0.6083 -0.0611 -0.1857
 7029SOL    HW132546   0.089   2.022   6.266 -1.1701  0.3644  2.2559
 7029SOL    HW232547   0.013   2.062   6.150  0.3667 -0.4789  0.1650
 7030SOL     OW32548   2.172   4.232   6.946 -0.6600  0.0925 -0.1437
 7030SOL    HW132549   2.157   4.319   6.910  1.2777 -0.3528 -1.9999
 7030SOL    HW232550   2.178   4.196   6.857  1.0811  1.9510 -0.7585
 7031SOL     OW32551   2.779   3.051   8.196 -0.6906  0.2891 -0.3973
 7031SOL    HW132552   2.751   3.061   8.287  0.5108  0.8508 -0.0931
 7031SOL    HW232553   2.833   3.129   8.190  1.9942 -1.6110 -1.1242
 7032SOL     OW32554   3.343   4.087   2.530  0.2696  0.2317 -0.0746
 7032SOL    HW132555   3.290   4.052   2.601 -0.4543  2.0971  0.3066
 7032SOL    HW232556   3.425   4.112   2.573  0.9869 -0.1695 -1.2060
 7033SOL     OW32557   4.498   2.428   8.287  0.4875  0.3828  0.2148
 7033SOL    HW132558   4.437   2.374   8.238 -0.2468  1.0777  0.3617
 7033SOL    HW232559   4.487   2.506   8.232  0.6950 -0.4964 -1.0595
 7034SOL     OW32560   1.870   1.807   5.931 -0.6384 -0.1368 -0.0812
 7034SOL    HW132561   1.923   1.805   6.011 -1.1419 -0.7101  0.2374
 7034SOL    HW232562   1.940   1.826   5.867 -0.2559 -3.8779 -0.7927
 7035SOL     OW32563   2.729   2.481   1.228  0.2177 -0.1076  0.2098
 7035SOL    HW132564   2.655   2.524   1.185 -1.4961 -1.0165  2.2240
 7035SOL    HW232565   2.767   2.432   1.155  2.3032 -0.5332  1.5676
 7036SOL     OW32566   0.561   2.278   6.244  0.6851  0.4801  0.6334
 7036SOL    HW132567   0.582   2.322   6.162 -0.1431 -0.3826 -0.0394
 7036SOL    HW232568   0.482   2.227   6.225  1.2540 -0.6682  1.3053
 7037SOL     OW32569   4.003   2.774   8.755 -0.0668 -0.5116 -0.1256
 7037SOL    HW132570   3.986   2.708   8.822  2.2479 -0.1041  0.8833
 7037SOL    HW232571   3.943   2.747   8.686 -0.2958  0.2224 -0.2161
 7038SOL     OW32572   3.494   2.773   4.448 -0.0338 -0.1631 -0.5108
 7038SOL    HW132573   3.519   2.738   4.533 -2.8100 -1.3931 -0.1666
 7038SOL    HW232574   3.420   2.713   4.433  0.4105 -1.0419  0.8801
 7039SOL     OW32575   3.068   1.772  10.764  0.4468  0.4575 -0.0774
 7039SOL    HW132576   2.987   1.821  10.750 -1.3569 -1.6707  2.7122
 7039SOL    HW232577   3.060   1.731  10.850  1.6890  0.9536  0.2655
 7040SOL     OW32578   3.147   0.458   7.659 -0.2800  0.1453 -0.6159
 7040SOL    HW132579   3.165   0.520   7.589 -2.0516  0.4094 -0.8394
 7040SOL    HW232580   3.206   0.493   7.726  0.5212  0.4292 -1.4734
 7041SOL     OW32581   3.145   0.816  16.505  0.2478 -0.3088  0.4236
 7041SOL    HW132582   3.120   0.723  16.502  1.1914 -0.6010  1.1671
 7041SOL    HW232583   3.202   0.823  16.429 -0.7954  1.2754 -0.1925
 7042SOL     OW32584   2.288   2.033   6.346  0.3684  0.3751 -0.2248
 7042SOL    HW132585   2.231   2.009   6.272 -0.0971 -0.3053  0.3596
 7042SOL    HW232586   2.269   2.125   6.363 -2.5940 -0.2850 -0.0830
 7043SOL     OW32587   1.962   4.526  17.225  0.9254 -0.0979  0.2123
 7043SOL    HW132588   1.904   4.450  17.229  0.8306  0.0318  1.3793
 7043SOL    HW232589   1.898   4.592  17.197 -0.5622 -0.8598  1.8630
 7044SOL     OW32590   3.861   2.735   8.425 -0.3752  0.1358  0.0510
 7044SOL    HW132591   3.818   2.721   8.509 -1.5724 -0.4195 -0.6533
 7044SOL    HW232592   3.902   2.821   8.437 -1.5637  0.2622  3.1241
 7045SOL     OW32593   3.875   3.865  12.830  0.7458  0.4469  0.4748
 7045SOL    HW132594   3.854   3.947  12.786 -0.1201  0.3994  0.8147
 7045SOL    HW232595   3.928   3.818  12.765  0.8084  1.3751 -0.1427
 7046SOL     OW32596   0.709   3.085   7.122 -0.3508 -0.3998 -0.2375
 7046SOL    HW132597   0.751   3.008   7.085 -1.1166 -0.9279 -0.0108
 7046SOL    HW232598   0.738   3.151   7.059 -0.2020 -0.2448 -0.0072
 7047SOL     OW32599   2.638   3.711   6.133  0.1713 -0.0563 -0.1279
 7047SOL    HW132600   2.681   3.655   6.197 -0.3408 -0.0344  0.2346
 7047SOL    HW232601   2.646   3.660   6.052 -0.6577  1.7436 -1.3551
 7048SOL     OW32602   1.104   0.129   5.463 -0.2121  0.1062 -0.1267
 7048SOL    HW132603   1.139   0.078   5.537 -0.8722 -1.5792 -0.9640
 7048SOL    HW232604   1.016   0.142   5.499  0.8927 -2.8593  3.6978
 7049SOL     OW32605   1.425   0.206   2.213 -0.5680 -0.5938  0.0278
 7049SOL    HW132606   1.490   0.204   2.143 -1.0021  0.2981 -0.3896
 7049SOL    HW232607   1.397   0.295   2.192 -1.4421 -0.5564  1.3819
 7050SOL     OW32608   4.001   0.949  14.057 -0.2021 -0.3942  0.4137
 7050SOL    HW132609   4.089   0.914  14.076  0.1556  0.1700 -0.1820
 7050SOL    HW232610   4.013   1.039  14.087 -1.2281 -0.7307  1.8135
 7051SOL     OW32611   1.207   3.680   5.301 -0.0958 -0.1389  0.2844
 7051SOL    HW132612   1.240   3.643   5.219  0.7580  2.3431 -0.4923
 7051SOL    HW232613   1.130   3.627   5.321 -1.0740  0.9770 -0.4542
 7052SOL     OW32614   1.881   0.666   7.360 -0.4669  0.3343  0.0416
 7052SOL    HW132615   1.942   0.604   7.320 -0.1676  0.7046 -0.0707
 7052SOL    HW232616   1.854   0.621   7.440  1.9551 -2.3841 -0.6796
 7053SOL     OW32617   2.089   4.350  13.714 -0.0930 -0.1220  0.2380
 7053SOL    HW132618   2.104   4.298  13.636  0.4625 -1.6401  1.3554
 7053SOL    HW232619   2.054   4.280  13.769  0.7490 -0.4027  0.4118
 7054SOL     OW32620   3.422   1.087  15.370  0.3263 -0.1280 -0.4510
 7054SOL    HW132621   3.475   1.155  15.412  0.3711  0.0488 -0.7920
 7054SOL    HW232622   3.384   1.058  15.453 -2.0210  0.0050 -1.5089
 7055SOL     OW32623   1.312   3.284   3.535  0.7157  0.8708 -0.6505
 7055SOL    HW132624   1.227   3.290   3.577  0.4979  0.4131 -1.0276
 7055SOL    HW232625   1.294   3.298   3.442  0.2049  0.6627 -0.5813
 7056SOL     OW32626   4.347   2.463   9.000 -0.2055 -0.4497  0.1274
 7056SOL    HW132627   4.348   2.369   9.020 -0.2502 -1.0116 -2.4653
 7056SOL    HW232628   4.376   2.498   9.084 -0.1968 -1.2298  0.4480
 7057SOL     OW32629   3.018   1.098   7.961  0.3263 -0.7620 -0.3382
 7057SOL    HW132630   3.093   1.134   7.914 -0.8706 -0.3692 -1.9472
 7057SOL    HW232631   3.050   1.117   8.049 -0.3088 -0.7028 -0.1141
 7058SOL     OW32632   0.604   0.758   9.740  0.1389  0.3029  0.2021
 7058SOL    HW132633   0.662   0.780   9.667 -1.4648 -0.4635 -1.2980
 7058SOL    HW232634   0.647   0.679   9.774  0.9886  0.6874  0.0285
 7059SOL     OW32635   0.187   3.238   0.176  0.5170 -0.0847 -0.0178
 7059SOL    HW132636   0.162   3.263   0.265 -0.2482 -2.1645  0.3579
 7059SOL    HW232637   0.277   3.269   0.161  1.5066 -2.7650  0.4329
 7060SOL     OW32638   0.832   3.638   8.789 -0.4716  0.2092  0.3645
 7060SOL    HW132639   0.873   3.567   8.840 -0.0396 -1.6520 -2.5403
 7060SOL    HW232640   0.886   3.715   8.807  1.1503  0.0068 -3.6088
 7061SOL     OW32641   1.991   2.060   4.195 -0.0046  0.2039 -0.4316
 7061SOL    HW132642   2.017   2.078   4.105  0.7360  0.3129 -0.1993
 7061SOL    HW232643   1.932   2.131   4.221  0.1351  0.4224 -0.7110
 7062SOL     OW32644   0.824   0.512   5.387  0.1417  0.2968 -0.1078
 7062SOL    HW132645   0.757   0.457   5.346  0.9000 -0.2115 -0.6729
 7062SOL    HW232646   0.895   0.503   5.323 -0.0077  0.6077 -0.3152
 7063SOL     OW32647   1.738   0.805   9.517  0.1138  0.3421  0.0817
 7063SOL    HW132648   1.675   0.759   9.573 -0.0282  0.2061 -0.1875
 7063SOL    HW232649   1.808   0.812   9.582  1.9934 -2.7584 -1.5796
 7064SOL     OW32650   3.337   1.193   9.258  0.1570  0.4781  0.1627
 7064SOL    HW132651   3.408   1.130   9.270 -0.3034  0.1661  1.2658
 7064SOL    HW232652   3.337   1.238   9.343  2.2065  0.2232  0.3083
 7065SOL     OW32653   2.118   3.702   0.279  0.4235 -0.2185 -0.1356
 7065SOL    HW132654   2.192   3.713   0.339  0.4578  0.9199 -0.3935
 7065SOL    HW232655   2.077   3.788   0.278  2.6853  0.8491 -0.5442
 7066SOL     OW32656   1.846   4.010   8.669  0.2027  0.3701 -0.1424
 7066SOL    HW132657   1.936   3.982   8.684 -0.1115 -0.1185  0.8724
 7066SOL    HW232658   1.843   4.034   8.576 -1.1920  2.1285  0.3636
 7067SOL     OW32659   1.493   3.269   5.666 -0.4397  0.4251  0.0325
 7067SOL    HW132660   1.460   3.220   5.741 -0.0088  0.6890  0.3952
 7067SOL    HW232661   1.446   3.352   5.671 -0.4605  0.3152  1.9931
 7068SOL     OW32662   3.188   2.762   2.842  0.3310  0.0449 -0.6089
 7068SOL    HW132663   3.160   2.672   2.826  1.7431 -0.3362 -0.9485
 7068SOL    HW232664   3.131   2.786   2.915  0.7541 -0.2497 -0.1815
 7069SOL     OW32665   3.154   2.880   4.386 -0.4493  0.3657 -0.7035
 7069SOL    HW132666   3.087   2.897   4.453  0.8233 -0.8272  0.8748
 7069SOL    HW232667   3.213   2.954   4.400  1.5972 -1.5795  0.9394
 7070SOL     OW32668   1.263   2.976   3.401  0.7299  0.3365 -0.4772
 7070SOL    HW132669   1.192   3.015   3.451  0.1627  0.0309 -1.0525
 7070SOL    HW232670   1.264   2.891   3.445  0.8230 -0.1839 -1.4874
 7071SOL     OW32671   0.428   0.015   7.343  0.1031  1.0093  0.8818
 7071SOL    HW132672   0.460   0.085   7.287  0.2022 -0.3381 -0.7328
 7071SOL    HW232673   0.344   4.709   7.308  0.0626  0.8857  1.0773
 7072SOL     OW32674   0.494   2.508   4.896  0.3071 -0.6434 -0.5114
 7072SOL    HW132675   0.421   2.566   4.918  0.7964  1.2950 -4.0055
 7072SOL    HW232676   0.456   2.439   4.841  1.3273 -3.6940  2.5998
 7073SOL     OW32677   1.809   0.054   5.359 -0.0254  0.2213 -0.2824
 7073SOL    HW132678   1.887   0.031   5.309 -0.0535 -0.1380 -0.1637
 7073SOL    HW232679   1.797   4.695   5.409 -0.4090 -0.4784 -1.5103
 7074SOL     OW32680   3.868   1.810   8.583 -0.1637 -0.5070 -0.0900
 7074SOL    HW132681   3.801   1.842   8.643  0.3697 -0.2022  0.3372
 7074SOL    HW232682   3.926   1.770   8.647  1.4837 -0.6493 -1.6566
 7075SOL     OW32683   2.349   1.453  12.889 -0.3326  0.2244  0.1296
 7075SOL    HW132684   2.342   1.548  12.881  0.2412  0.0971 -1.7118
 7075SOL    HW232685   2.354   1.419  12.800  0.4095  0.2518  0.1602
 7076SOL     OW32686   1.805   0.453   8.027  0.4673  0.4122  0.2192
 7076SOL    HW132687   1.731   0.456   8.088 -0.1565  0.2921 -0.5403
 7076SOL    HW232688   1.872   0.477   8.091 -0.0830  0.6197  0.7194
 7077SOL     OW32689   3.659   1.931  13.689  0.2054  0.1161  0.3426
 7077SOL    HW132690   3.668   1.927  13.784 -1.3754  1.9203  0.5760
 7077SOL    HW232691   3.719   2.004  13.675  2.2430 -1.5409  0.4312
 7078SOL     OW32692   3.731   3.498   0.280  0.0059 -0.3630  0.2211
 7078SOL    HW132693   3.748   3.408   0.252 -0.0658 -0.3544  0.1509
 7078SOL    HW232694   3.817   3.535   0.257 -0.7413  0.5243 -1.1380
 7079SOL     OW32695   1.850   2.239   5.680  0.1438  0.3182  0.2571
 7079SOL    HW132696   1.840   2.240   5.776 -1.1440 -1.5579  0.1505
 7079SOL    HW232697   1.888   2.152   5.664 -1.1140  0.0869 -1.4438
 7080SOL     OW32698   1.050   4.607   3.449 -0.0580 -0.4747 -0.2051
 7080SOL    HW132699   0.974   4.647   3.492  1.8815  0.7588  2.0901
 7080SOL    HW232700   1.043   4.518   3.482 -1.9795  0.8737  3.0929
 7081SOL     OW32701   3.011   1.495   2.988 -0.3756 -0.1337 -0.6554
 7081SOL    HW132702   3.104   1.505   3.008 -0.4969  1.8692 -1.0869
 7081SOL    HW232703   3.004   1.413   2.939  2.3652 -1.3002  0.9316
 7082SOL     OW32704   3.131   0.181   7.610 -1.3500 -0.5983  0.3172
 7082SOL    HW132705   3.043   0.148   7.593 -0.7045 -1.6505 -1.0267
 7082SOL    HW232706   3.126   0.277   7.606  2.1911 -0.3503  1.5889
 7083SOL     OW32707   4.232   1.341  10.107 -0.1509 -0.3026 -0.0937
 7083SOL    HW132708   4.272   1.410  10.160 -2.0329  0.8004 -0.1123
 7083SOL    HW232709   4.174   1.314  10.179  0.3984  2.0846  1.2625
 7084SOL     OW32710   4.144   1.955  15.058 -0.6137  0.4230  0.4170
 7084SOL    HW132711   4.213   1.951  14.992 -2.4277 -1.6672 -1.3549
 7084SOL    HW232712   4.163   2.036  15.104  0.3528  0.6498 -0.3990
 7085SOL     OW32713   3.417   3.383   9.580 -0.7421 -0.4903  0.2143
 7085SOL    HW132714   3.422   3.403   9.674  0.2403  1.4323 -0.2351
 7085SOL    HW232715   3.412   3.288   9.592 -3.1938 -0.3327  0.3314
 7086SOL     OW32716   4.199   4.153  12.750  0.2364 -0.1629 -0.3321
 7086SOL    HW132717   4.184   4.138  12.843 -1.0651 -0.3436 -0.5645
 7086SOL    HW232718   4.107   4.160  12.723 -0.5331  1.9783  2.8848
 7087SOL     OW32719   1.699   2.309   2.657  0.3663  0.1431  0.1046
 7087SOL    HW132720   1.650   2.352   2.587 -0.8183 -1.1955  0.1116
 7087SOL    HW232721   1.697   2.377   2.725  0.3538 -0.9077  1.1678
 7088SOL     OW32722   0.361   0.307   9.150 -0.4118  0.0097 -0.0326
 7088SOL    HW132723   0.278   0.298   9.198 -1.0328 -0.5850 -1.2113
 7088SOL    HW232724   0.418   0.233   9.170  0.5398  0.7815  0.1230
 7089SOL     OW32725   2.483   0.735   6.909  0.1555  0.5715  0.5158
 7089SOL    HW132726   2.502   0.800   6.842  0.3550 -0.5402 -0.5099
 7089SOL    HW232727   2.565   0.686   6.911 -0.7189 -0.8810  1.3059
 7090SOL     OW32728   2.438   4.151   7.020  0.2728 -1.0609 -0.2544
 7090SOL    HW132729   2.355   4.172   6.978 -0.0032 -1.6717 -0.0164
 7090SOL    HW232730   2.450   4.060   6.993 -2.2097 -1.7249  0.9175
 7091SOL     OW32731   1.639   3.442   2.839  0.5083  0.5593 -0.5156
 7091SOL    HW132732   1.682   3.472   2.918 -0.0244  3.1476 -1.2298
 7091SOL    HW232733   1.707   3.431   2.773  1.5277 -1.2842  0.8343
 7092SOL     OW32734   1.308   4.598   6.918 -0.9604  0.0025 -0.2327
 7092SOL    HW132735   1.275   4.618   6.830 -1.0649  1.8397  0.2321
 7092SOL    HW232736   1.234   4.623   6.973 -1.1884  0.6583 -0.8341
 7093SOL     OW32737   2.470   0.681   9.153 -0.1646 -0.9599 -0.0973
 7093SOL    HW132738   2.445   0.676   9.246  2.0334  0.9892  0.6124
 7093SOL    HW232739   2.448   0.769   9.123  0.3261 -0.8569 -0.1594
 7094SOL     OW32740   1.342   3.949  17.462  0.3147 -0.2186  0.5856
 7094SOL    HW132741   1.379   4.006  17.395  1.0168 -0.8554  0.4358
 7094SOL    HW232742   1.327   4.025  17.518  1.5677  2.1061 -2.2322
 7095SOL     OW32743   2.950   0.411  13.818  0.2173 -0.4803  0.6247
 7095SOL    HW132744   2.980   0.333  13.866  0.8950  0.3056  1.4788
 7095SOL    HW232745   2.925   0.372  13.735 -0.3196 -0.7130  0.8942
 7096SOL     OW32746   0.259   3.821   2.026 -0.0251 -0.0034 -0.0651
 7096SOL    HW132747   0.254   3.832   2.121  2.2221 -1.3426  0.2263
 7096SOL    HW232748   0.341   3.865   2.003  0.6395 -0.9590  0.4692
 7097SOL     OW32749   3.332   0.157   5.628  0.4703  0.4140  0.2508
 7097SOL    HW132750   3.309   0.244   5.662 -0.8718  0.7315 -1.4733
 7097SOL    HW232751   3.297   0.103   5.699 -2.5063  0.4783 -1.1842
 7098SOL     OW32752   2.814   3.070   9.296 -0.3382  0.5335  0.1929
 7098SOL    HW132753   2.899   3.038   9.266 -1.3217  0.1396 -2.2123
 7098SOL    HW232754   2.820   3.152   9.246  0.6775  0.0783 -0.4231
 7099SOL     OW32755   3.686   1.493   5.591 -0.1443 -0.8868 -0.4902
 7099SOL    HW132756   3.615   1.469   5.650 -0.0811  1.5378  0.5582
 7099SOL    HW232757   3.734   1.542   5.657 -0.3752 -2.0490  0.5339
 7100SOL     OW32758   3.057   3.591   5.903 -0.4837 -0.5889 -0.4279
 7100SOL    HW132759   3.056   3.498   5.928  2.0142 -0.3466  0.5571
 7100SOL    HW232760   3.005   3.623   5.977  0.4358 -0.3960  0.1276
 7101SOL     OW32761   4.481   4.267  13.033 -0.8482  0.0167  0.8349
 7101SOL    HW132762   4.485   4.183  12.987  1.1955 -0.8393  2.5919
 7101SOL    HW232763   4.559   4.263  13.089  0.1495  0.9265 -0.5000
 7102SOL     OW32764   4.351   3.063  14.886  0.1078  0.1645 -0.0058
 7102SOL    HW132765   4.271   3.110  14.863 -0.1210  0.2912  1.0559
 7102SOL    HW232766   4.349   2.999  14.814 -0.9307  0.8034 -0.5384
 7103SOL     OW32767   0.781   2.176   4.922  0.0516  0.1558 -0.8464
 7103SOL    HW132768   0.763   2.082   4.917 -0.2872  0.1643  0.1742
 7103SOL    HW232769   0.739   2.205   4.841  2.0824  0.9473 -1.6155
 7104SOL     OW32770   1.400   3.191   5.380  0.1524  0.4074 -0.5429
 7104SOL    HW132771   1.440   3.176   5.466 -1.0102 -2.7020 -0.5554
 7104SOL    HW232772   1.466   3.155   5.321 -1.4653 -1.2573 -1.3249
 7105SOL     OW32773   3.147   3.345   3.777  0.1865  0.1406 -0.1378
 7105SOL    HW132774   3.089   3.327   3.851 -1.4367 -1.0060 -1.6828
 7105SOL    HW232775   3.093   3.396   3.716  0.7644  0.6079 -0.2529
 7106SOL     OW32776   2.213   3.577   0.841  0.3750 -0.0674  0.1744
 7106SOL    HW132777   2.140   3.625   0.802 -0.5602 -0.3990  1.5142
 7106SOL    HW232778   2.291   3.632   0.836  0.2180  0.0882 -0.4860
 7107SOL     OW32779   4.087   0.972   5.931 -0.0657  0.1844 -0.4140
 7107SOL    HW132780   4.135   0.996   5.852 -0.2837 -0.6174 -0.7899
 7107SOL    HW232781   4.009   0.930   5.894 -1.0678  0.0712  1.7988
 7108SOL     OW32782   0.322   1.186   6.430  0.2349  0.0220 -0.4446
 7108SOL    HW132783   0.294   1.144   6.349 -0.3756 -1.6084  0.6221
 7108SOL    HW232784   0.359   1.270   6.401 -1.1495  0.3110 -1.3474
 7109SOL     OW32785   4.547   1.208   1.519  0.3696 -0.0858  0.5431
 7109SOL    HW132786   4.535   1.210   1.424 -1.6291 -0.2663  0.7892
 7109SOL    HW232787   4.531   1.117   1.544 -1.1482 -0.3368 -1.3276
 7110SOL     OW32788   3.134   3.687   6.795  0.1229 -0.1522 -0.5756
 7110SOL    HW132789   3.218   3.733   6.799  0.1826 -0.6647  3.9266
 7110SOL    HW232790   3.122   3.647   6.881 -0.4604  3.3080  0.9347
 7111SOL     OW32791   3.075   4.201  13.928 -0.3951 -0.0159 -0.1913
 7111SOL    HW132792   3.132   4.164  13.861 -0.6379  0.7640 -0.8321
 7111SOL    HW232793   3.134   4.192  14.003 -0.7085  2.4057  0.3546
 7112SOL     OW32794   3.918   1.485   5.317 -0.2801  0.3661 -0.0465
 7112SOL    HW132795   3.994   1.452   5.366 -1.4309 -2.0917  0.0874
 7112SOL    HW232796   3.916   1.431   5.238  0.4894 -1.5238  1.2301
 7113SOL     OW32797   0.700   2.935   6.131 -0.4517 -0.1713 -0.4800
 7113SOL    HW132798   0.782   2.900   6.096 -0.5562 -0.1333 -0.7673
 7113SOL    HW232799   0.717   3.030   6.125 -0.0247 -0.2690 -0.8304
 7114SOL     OW32800   4.246   4.157   4.949  0.2488  0.8753  0.9682
 7114SOL    HW132801   4.162   4.181   4.911  0.4859  1.5604  0.8698
 7114SOL    HW232802   4.288   4.134   4.866  0.0132 -2.4632  1.7885
 7115SOL     OW32803   3.706   2.684   2.926  0.8383 -0.3763 -0.3476
 7115SOL    HW132804   3.688   2.637   3.007 -0.0134  1.9545  0.8242
 7115SOL    HW232805   3.641   2.651   2.864 -1.9912  0.4371  2.2040
 7116SOL     OW32806   3.312   1.678   8.549 -0.2590  0.4119  0.0510
 7116SOL    HW132807   3.307   1.636   8.635  0.3154 -0.4366 -0.3246
 7116SOL    HW232808   3.327   1.602   8.493 -0.2598  0.0708  0.5071
 7117SOL     OW32809   1.356   0.927   8.486  0.2063  0.1507  0.6110
 7117SOL    HW132810   1.368   0.925   8.391 -0.4187  0.0274  0.5321
 7117SOL    HW232811   1.378   1.015   8.515 -1.6342  0.5959  0.6585
 7118SOL     OW32812   1.738   1.129   6.522 -0.3384 -0.1670  0.2802
 7118SOL    HW132813   1.738   1.196   6.590 -0.1982  1.3455 -1.2306
 7118SOL    HW232814   1.793   1.063   6.565 -1.8979 -2.4501 -1.2028
 7119SOL     OW32815   3.391   3.293   1.214 -0.5971 -0.1510 -0.6162
 7119SOL    HW132816   3.299   3.302   1.237 -0.8733 -1.3011 -1.3001
 7119SOL    HW232817   3.423   3.378   1.244  1.1677 -1.0169 -0.0207
 7120SOL     OW32818   3.636   4.453   3.939 -0.0240  0.1029 -0.5012
 7120SOL    HW132819   3.569   4.389   3.962 -0.6443  1.1048  0.4400
 7120SOL    HW232820   3.611   4.525   3.998 -1.4285  0.0432 -1.0325
 7121SOL     OW32821   2.091   3.566   7.514  0.1446  0.3546 -0.0123
 7121SOL    HW132822   2.177   3.576   7.555  0.8776  0.6164 -1.6305
 7121SOL    HW232823   2.052   3.646   7.548 -1.2595  0.4687 -1.9385
 7122SOL     OW32824   4.029   2.718   6.146  0.7819 -0.3471  0.4177
 7122SOL    HW132825   4.014   2.678   6.231  0.4502 -2.5911 -0.7005
 7122SOL    HW232826   3.978   2.658   6.092  1.1587  0.7106 -1.1144
 7123SOL     OW32827   0.025   4.554  17.106 -0.0727  0.0757 -0.0893
 7123SOL    HW132828   0.063   4.551  17.194  0.0055  0.9824 -0.0935
 7123SOL    HW232829   0.094   4.599  17.057 -3.4079  3.5007 -1.6719
 7124SOL     OW32830   1.420   1.512   7.339  0.3144  0.2751 -0.2081
 7124SOL    HW132831   1.466   1.514   7.423  2.0062  0.5217 -1.1638
 7124SOL    HW232832   1.486   1.466   7.288 -0.7556 -1.3498 -0.1534
 7125SOL     OW32833   1.158   1.533   9.937  0.5473 -0.1021  0.0811
 7125SOL    HW132834   1.253   1.549   9.943  0.7252 -0.4544 -2.0500
 7125SOL    HW232835   1.129   1.582  10.014 -0.0287  1.2055 -0.9668
 7126SOL     OW32836   4.339   3.015   8.553  0.4439  0.0728  0.0230
 7126SOL    HW132837   4.309   2.949   8.490 -0.8247  2.4140 -1.8393
 7126SOL    HW232838   4.418   2.974   8.588  1.3761  1.4583 -0.4197
 7127SOL     OW32839   0.569   0.606   2.931 -0.5255 -0.0203  0.1240
 7127SOL    HW132840   0.641   0.547   2.911 -0.5618 -0.2475  0.6788
 7127SOL    HW232841   0.560   0.587   3.024  2.9665  0.0745  0.4798
 7128SOL     OW32842   2.784   2.104   4.756  0.2563  0.2574  0.1188
 7128SOL    HW132843   2.737   2.033   4.800 -1.2807 -0.5896 -2.8534
 7128SOL    HW232844   2.797   2.172   4.822  1.4834  1.6268 -1.5147
 7129SOL     OW32845   2.924   0.508   9.436  0.0908 -0.1514  0.3562
 7129SOL    HW132846   2.856   0.476   9.376  0.3269  2.7578 -1.4642
 7129SOL    HW232847   2.986   0.546   9.375 -0.2812 -1.4651 -0.8448
 7130SOL     OW32848   0.805   2.994  16.035 -0.0810 -0.5136  0.2364
 7130SOL    HW132849   0.850   2.949  16.107 -0.1827 -0.2183  0.4852
 7130SOL    HW232850   0.874   3.009  15.971 -0.5503 -0.6900 -0.3125
 7131SOL     OW32851   4.104   3.706  16.267 -0.5360  0.1018  0.6446
 7131SOL    HW132852   4.039   3.693  16.336 -0.6355 -2.4397  0.0669
 7131SOL    HW232853   4.063   3.770  16.208  2.0604  3.2836  2.2633
 7132SOL     OW32854   2.786   0.887   7.289  0.3913  0.4936  0.0510
 7132SOL    HW132855   2.768   0.914   7.379  1.7126 -1.9443  1.0220
 7132SOL    HW232856   2.868   0.838   7.297  0.4943  0.3220 -2.0962
 7133SOL     OW32857   3.484   4.609   2.601  0.6427  0.4481 -0.3127
 7133SOL    HW132858   3.524   4.614   2.514  2.5352  1.8092  0.6266
 7133SOL    HW232859   3.518   4.691   2.637  1.4631 -1.2324  2.7196
 7134SOL     OW32860   3.363   0.530   7.836 -0.2190  0.7593  0.3107
 7134SOL    HW132861   3.439   0.492   7.881 -1.7903  1.0135  3.2022
 7134SOL    HW232862   3.328   0.591   7.901  0.2322  0.9430  0.3790
 7135SOL     OW32863   3.876   2.873   1.317  0.2081 -0.4459 -0.0763
 7135SOL    HW132864   3.799   2.917   1.281  0.8889  0.3204 -0.5987
 7135SOL    HW232865   3.887   2.933   1.391 -0.0298 -0.9265  0.3520
 7136SOL     OW32866   1.532   0.300  15.455  0.0833  0.3270 -0.4562
 7136SOL    HW132867   1.628   0.310  15.452  0.0910  0.3948  0.0951
 7136SOL    HW232868   1.512   0.372  15.394  2.9238 -0.0943 -1.9225
 7137SOL     OW32869   2.962   3.940   0.876 -0.1070  0.3923 -0.3316
 7137SOL    HW132870   2.963   3.844   0.880  0.8960  0.4448  0.9206
 7137SOL    HW232871   2.920   3.945   0.790 -2.8456 -0.6868  0.9327
 7138SOL     OW32872   0.103   1.866   2.182  0.6659 -0.2955  0.2696
 7138SOL    HW132873   0.035   1.800   2.195  1.7664 -0.6586  3.9850
 7138SOL    HW232874   0.174   1.803   2.182 -0.0980 -1.1589 -0.5080
 7139SOL     OW32875   2.353   3.368   5.091  0.0706  0.3002 -1.1001
 7139SOL    HW132876   2.327   3.460   5.089  0.0458  0.3806  2.2989
 7139SOL    HW232877   2.291   3.335   5.025  0.8135  2.9742 -3.1128
 7140SOL     OW32878   1.811   2.102  11.613 -0.6849 -0.4703 -0.1442
 7140SOL    HW132879   1.810   2.129  11.522 -2.6487 -1.7885 -0.5136
 7140SOL    HW232880   1.870   2.027  11.617  0.2252  0.1134 -2.7745
 7141SOL     OW32881   4.326   1.178   9.920 -0.8566  0.0849  0.0897
 7141SOL    HW132882   4.318   1.218  10.006  1.4706  0.0780  0.2986
 7141SOL    HW232883   4.370   1.095   9.940 -0.1226  0.2859 -0.6710
 7142SOL     OW32884   3.349   2.310   2.844 -0.0183  0.2745  0.2171
 7142SOL    HW132885   3.344   2.215   2.835  1.6982  0.0968  1.2516
 7142SOL    HW232886   3.260   2.331   2.816 -1.0184 -2.1412  1.5333
 7143SOL     OW32887   0.073   4.646   2.367  0.4579  0.2062  0.3046
 7143SOL    HW132888   0.121   4.581   2.315 -1.1570  0.4032 -1.4219
 7143SOL    HW232889   4.709   4.647   2.327  1.6690 -0.6914 -2.3600
 7144SOL     OW32890   2.546   0.770   2.514  0.7309 -0.8511 -0.5507
 7144SOL    HW132891   2.612   0.704   2.533 -0.9616 -2.7336 -1.2957
 7144SOL    HW232892   2.602   0.839   2.477 -1.1262  0.5662 -0.7037
 7145SOL     OW32893   0.608   3.434   8.861 -0.0145 -0.2051 -0.2817
 7145SOL    HW132894   0.637   3.432   8.952  1.5645 -2.9044 -0.8505
 7145SOL    HW232895   0.545   3.363   8.873 -2.0307  1.5294 -0.6098
 7146SOL     OW32896   0.040   1.472  10.361 -0.1422  0.1502  0.1413
 7146SOL    HW132897   4.710   1.505  10.434  0.2971 -1.3307  1.1106
 7146SOL    HW232898   0.122   1.443  10.401  1.1040  0.9644 -1.8110
 7147SOL     OW32899   3.456   2.068   9.124 -0.0206  0.1983 -0.6171
 7147SOL    HW132900   3.444   2.138   9.188  0.2513  1.1383 -1.5902
 7147SOL    HW232901   3.503   1.999   9.171 -0.4245  0.6537  0.4525
 7148SOL     OW32902   3.899   0.485   0.435  0.2948 -0.8798  0.4085
 7148SOL    HW132903   3.924   0.394   0.415  1.5395 -0.6432  0.8815
 7148SOL    HW232904   3.854   0.509   0.354 -0.9622 -0.0890  1.3347
 7149SOL     OW32905   3.809   0.791   8.263  0.5871 -0.1541 -0.0432
 7149SOL    HW132906   3.758   0.748   8.195 -3.4968  1.6625  1.8590
 7149SOL    HW232907   3.894   0.748   8.255  0.5534  0.5265 -3.7825
 7150SOL     OW32908   1.383   4.542  14.369 -0.5400 -0.4609  0.4887
 7150SOL    HW132909   1.340   4.626  14.387 -0.2745 -0.3133  0.4306
 7150SOL    HW232910   1.310   4.480  14.378 -0.2907 -0.3777  3.1460
 7151SOL     OW32911   1.745   4.200   7.275 -0.2567 -0.1438  0.2797
 7151SOL    HW132912   1.834   4.204   7.239 -0.1292 -0.7884  0.5400
 7151SOL    HW232913   1.731   4.108   7.295 -0.1741  0.1680  1.8071
 7152SOL     OW32914   4.474   2.818  14.238  0.3044  0.1683 -0.5576
 7152SOL    HW132915   4.565   2.789  14.230  1.5314  2.7235  3.7751
 7152SOL    HW232916   4.491   2.912  14.230 -0.3534  0.2185 -1.3502
 7153SOL     OW32917   2.078   3.291   1.595 -0.1906  0.2602  0.3326
 7153SOL    HW132918   2.121   3.225   1.650  1.8031 -0.0633 -1.6172
 7153SOL    HW232919   2.053   3.238   1.520 -0.0872  0.1725  0.3609
 7154SOL     OW32920   3.175   1.242  13.703 -0.1671 -0.1048 -0.8077
 7154SOL    HW132921   3.216   1.318  13.744  0.8135 -0.5978 -0.8861
 7154SOL    HW232922   3.109   1.218  13.767  1.8792 -2.8948  0.2585
 7155SOL     OW32923   4.535   0.956   6.772 -0.5102 -0.2023 -1.1747
 7155SOL    HW132924   4.581   0.874   6.788 -1.3065 -0.4571 -0.1990
 7155SOL    HW232925   4.479   0.934   6.697 -0.8078 -1.7976 -0.4815
 7156SOL     OW32926   0.396   4.558   1.903 -0.1312 -0.0958 -0.3874
 7156SOL    HW132927   0.317   4.527   1.858 -1.0786  0.7068  0.7173
 7156SOL    HW232928   0.399   4.646   1.864  2.1988 -0.0007 -0.0037
 7157SOL     OW32929   3.359   3.897   8.414  0.4319  0.9246 -0.2659
 7157SOL    HW132930   3.304   3.819   8.414  0.6196  0.8003  0.9747
 7157SOL    HW232931   3.335   3.926   8.502 -0.8368 -1.0490  0.0401
 7158SOL     OW32932   3.567   4.322  11.488 -0.2538  0.0178 -0.1062
 7158SOL    HW132933   3.504   4.313  11.559 -1.9867 -0.9639 -1.7634
 7158SOL    HW232934   3.639   4.262  11.506 -0.0012 -0.0239 -1.2164
 7159SOL     OW32935   0.959   3.310   8.894 -0.2542  0.4198  0.3413
 7159SOL    HW132936   1.043   3.311   8.848 -0.3110  0.9276  0.2476
 7159SOL    HW232937   0.992   3.305   8.984 -1.1078  0.9235  0.6888
 7160SOL     OW32938   2.005   1.675   7.269 -0.0797 -0.0745  0.1748
 7160SOL    HW132939   1.941   1.712   7.208 -2.1432 -0.1951  2.2371
 7160SOL    HW232940   2.080   1.730   7.248 -0.4470  0.0498 -0.8394
 7161SOL     OW32941   4.129   3.033   1.199  0.5005  0.5237 -0.4738
 7161SOL    HW132942   4.040   3.004   1.180 -0.5305  1.0787  3.6026
 7161SOL    HW232943   4.117   3.120   1.236  2.5406 -0.5506  2.7158
 7162SOL     OW32944   1.956   0.255   6.025 -0.0280 -0.8178  1.2106
 7162SOL    HW132945   1.968   0.162   6.010  1.2379 -0.5452  0.6211
 7162SOL    HW232946   1.860   0.256   6.026 -0.0391  0.0850 -0.8964
 7163SOL     OW32947   3.409   0.226   5.973  0.2475 -0.0129 -0.1059
 7163SOL    HW132948   3.386   0.277   5.896  0.4110 -0.7832 -0.6670
 7163SOL    HW232949   3.341   0.253   6.035 -1.8909  0.1738 -2.5362
 7164SOL     OW32950   0.305   3.294  14.166 -0.6244 -0.1511  0.0296
 7164SOL    HW132951   0.399   3.297  14.184 -0.6203 -2.1029  0.3480
 7164SOL    HW232952   0.302   3.229  14.096  0.2961  1.5433 -1.5741
 7165SOL     OW32953   2.053   2.189   8.924  0.3735  0.6303 -0.6600
 7165SOL    HW132954   2.101   2.112   8.893 -3.3280 -1.1570 -1.9933
 7165SOL    HW232955   1.978   2.193   8.865  1.0952  0.0665 -1.6059
 7166SOL     OW32956   0.055   1.166   8.842  0.9219  0.2205 -0.1670
 7166SOL    HW132957   0.110   1.114   8.784 -0.3207  0.1934 -1.2981
 7166SOL    HW232958   4.704   1.113   8.816 -1.7799  2.0328  3.7661
 7167SOL     OW32959   4.281   2.762   6.009  0.4375 -0.4573  0.1003
 7167SOL    HW132960   4.293   2.790   6.100 -0.7794 -1.2673  0.5119
 7167SOL    HW232961   4.221   2.690   6.026 -0.4874  0.1509 -0.5710
 7168SOL     OW32962   2.973   2.148   1.409 -0.1692  0.2616 -0.4551
 7168SOL    HW132963   2.913   2.142   1.335  0.6549  0.0649 -1.1059
 7168SOL    HW232964   2.949   2.237   1.434  2.6161  0.3312  1.9947
 7169SOL     OW32965   3.176   0.966  11.932 -0.0830  0.5808  0.1614
 7169SOL    HW132966   3.241   0.927  11.873 -0.8235  2.2970 -1.8052
 7169SOL    HW232967   3.199   0.934  12.019  0.8068 -1.7082 -0.9273
 7170SOL     OW32968   0.653   1.355   5.837  0.3544  0.1170 -0.0286
 7170SOL    HW132969   0.670   1.435   5.786 -2.2796  0.0286 -1.0710
 7170SOL    HW232970   0.589   1.306   5.785  1.4307  0.2881 -1.5048
 7171SOL     OW32971   0.717   1.708   5.061 -0.4217 -0.7383 -0.0671
 7171SOL    HW132972   0.794   1.758   5.087 -0.8899  1.0196 -2.0558
 7171SOL    HW232973   0.731   1.620   5.096  0.9349 -0.4037  0.2264
 7172SOL     OW32974   2.606   1.975   0.056 -0.0734  0.2366 -0.3458
 7172SOL    HW132975   2.654   1.994   0.137 -0.1456 -0.8009 -0.0673
 7172SOL    HW232976   2.626   1.884   0.035  2.1035  0.7421 -0.4988
 7173SOL     OW32977   2.177   2.080   7.210  0.9229  0.5735  0.5450
 7173SOL    HW132978   2.235   2.134   7.156  1.5261  0.8758  1.5003
 7173SOL    HW232979   2.187   1.989   7.180  0.7595  0.5814  0.4683
 7174SOL     OW32980   3.378   1.820  14.441  0.2777  0.0424 -0.5694
 7174SOL    HW132981   3.470   1.810  14.415 -0.5292 -0.5394 -3.2069
 7174SOL    HW232982   3.380   1.855  14.530  1.2924 -4.1268  1.0322
 7175SOL     OW32983   2.272   2.909   2.409  0.0282 -0.4505 -0.1330
 7175SOL    HW132984   2.194   2.919   2.463  0.1323  0.4583 -0.1567
 7175SOL    HW232985   2.317   2.993   2.412 -0.1473 -0.3901  0.8707
 7176SOL     OW32986   0.549   3.449   5.805  0.4497 -0.7365 -0.1862
 7176SOL    HW132987   0.501   3.462   5.886  0.6796 -1.6643  0.1002
 7176SOL    HW232988   0.640   3.449   5.835  0.4240  0.9625 -0.1140
 7177SOL     OW32989   4.190   1.912  12.922 -0.3729  0.1399  0.1159
 7177SOL    HW132990   4.185   1.896  12.828  1.3823 -2.3488  0.4518
 7177SOL    HW232991   4.100   1.925  12.951 -1.2057  0.6959 -2.6608
 7178SOL     OW32992   3.765   1.429   8.050  0.6400  0.2782 -0.1894
 7178SOL    HW132993   3.698   1.368   8.019  3.0348 -2.1978 -0.3801
 7178SOL    HW232994   3.716   1.509   8.069  0.9489  0.6675 -1.0742
 7179SOL     OW32995   4.250   2.368   5.964  0.2998  0.0260  0.4044
 7179SOL    HW132996   4.320   2.403   6.019 -0.0764 -1.5778  1.9205
 7179SOL    HW232997   4.268   2.279   5.995  2.7908  0.3526 -0.0649
 7180SOL     OW32998   4.441   1.159   8.947 -0.4001  0.1031 -0.0162
 7180SOL    HW132999   4.441   1.174   8.852 -0.2035 -2.3437 -0.4058
 7180SOL    HW233000   4.429   1.065   8.937  1.3902 -0.1198 -0.0415
 7181SOL     OW33001   2.996   1.134  10.095  0.5255  0.3098  0.4858
 7181SOL    HW133002   2.998   1.079  10.173  0.6289  1.7633  1.5054
 7181SOL    HW233003   2.915   1.184  10.110 -0.1925 -0.4435 -0.8497
 7182SOL     OW33004   1.324   2.095   7.512  0.0972 -0.3217 -0.4566
 7182SOL    HW133005   1.298   2.128   7.598  0.7248 -0.1511 -0.3296
 7182SOL    HW233006   1.344   2.006   7.539  1.0861  0.0313 -0.0057
 7183SOL     OW33007   3.893   2.037   4.185 -0.5113 -0.1407  0.4689
 7183SOL    HW133008   3.886   2.073   4.273  0.0147 -2.5776  1.4999
 7183SOL    HW233009   3.835   1.962   4.197  2.2306 -2.4097 -0.3423
 7184SOL     OW33010   4.567   1.546  13.518  0.0187 -0.7428 -0.5051
 7184SOL    HW133011   4.620   1.528  13.595  0.8508  0.0978 -0.8864
 7184SOL    HW233012   4.510   1.610  13.560  0.3136 -0.5976 -0.3331
 7185SOL     OW33013   4.109   4.670   3.844  0.1031 -0.4062 -0.3797
 7185SOL    HW133014   4.195   4.637   3.816 -0.1087 -2.2804  1.2082
 7185SOL    HW233015   4.090   4.605   3.911 -1.2502  1.9049  1.4605
 7186SOL     OW33016   3.659   1.149  11.818  0.1030  0.6605 -0.5848
 7186SOL    HW133017   3.609   1.163  11.898 -3.3515  0.8455 -2.7727
 7186SOL    HW233018   3.598   1.169  11.747 -3.8714  0.4874  2.7910
 7187SOL     OW33019   2.811   4.397  12.131 -0.3010  0.6368  0.0040
 7187SOL    HW133020   2.821   4.470  12.070  0.0876  1.1926  0.7384
 7187SOL    HW233021   2.784   4.319  12.083  1.3488  0.2935 -0.3510
 7188SOL     OW33022   4.267   4.437  17.233  0.1690  0.4626  0.4009
 7188SOL    HW133023   4.280   4.342  17.231 -5.5087 -0.2963 -0.7878
 7188SOL    HW233024   4.347   4.476  17.200  0.3207 -2.8885 -3.1886
 7189SOL     OW33025   2.477   1.277   8.384  0.5743  0.1105 -0.0863
 7189SOL    HW133026   2.567   1.253   8.362  1.1429  1.5210  0.6600
 7189SOL    HW233027   2.452   1.193   8.422  0.6898  0.8968  1.7010
 7190SOL     OW33028   2.459   4.126   4.808 -0.7941 -0.4300 -0.3407
 7190SOL    HW133029   2.381   4.168   4.843  0.2213  0.2445  1.1279
 7190SOL    HW233030   2.499   4.205   4.771  2.3064 -0.8994  2.0044
 7191SOL     OW33031   0.390   3.862   5.223 -0.3478  0.1469 -0.5777
 7191SOL    HW133032   0.406   3.953   5.248 -2.1122  0.2275  0.2786
 7191SOL    HW233033   0.406   3.859   5.129  2.3587  0.7643 -0.1560
 7192SOL     OW33034   2.733   3.542   8.188 -0.7501  0.5090  0.1883
 7192SOL    HW133035   2.754   3.585   8.271  0.1027  1.5321 -0.5504
 7192SOL    HW233036   2.640   3.565   8.188 -1.0658 -0.8019  0.3146
 7193SOL     OW33037   0.066   1.745   0.321  1.0551 -0.3810 -0.6778
 7193SOL    HW133038   0.161   1.758   0.327  1.1508 -1.2519 -0.2311
 7193SOL    HW233039   0.053   1.707   0.408  3.2913  1.4479  0.4427
 7194SOL     OW33040   1.953   2.502   5.676  0.8916  0.0758 -0.2722
 7194SOL    HW133041   2.010   2.500   5.598  2.1881 -0.9875  0.6966
 7194SOL    HW233042   1.925   2.413   5.653  1.8088 -0.7123  1.6197
 7195SOL     OW33043   0.509   0.982  14.653 -0.4244  0.3682  0.2493
 7195SOL    HW133044   0.597   0.956  14.679 -0.1873  1.4589  0.5455
 7195SOL    HW233045   0.522   1.076  14.642 -0.6823  0.3412 -0.2685
 7196SOL     OW33046   3.076   2.792  13.977 -0.4630 -0.5522  0.0346
 7196SOL    HW133047   3.070   2.823  14.067  0.1362  0.3238 -0.2282
 7196SOL    HW233048   3.029   2.863  13.934  2.2590 -0.3826 -2.7038
 7197SOL     OW33049   3.278   1.200   4.272 -0.5817 -0.0046 -0.1354
 7197SOL    HW133050   3.237   1.159   4.349 -1.4931  1.6389  0.2601
 7197SOL    HW233051   3.205   1.238   4.223  0.0539 -0.5986 -1.5205
 7198SOL     OW33052   3.500   3.744   2.935 -0.3590  0.1089 -0.4805
 7198SOL    HW133053   3.571   3.738   2.999  1.4256 -0.2700 -2.4990
 7198SOL    HW233054   3.549   3.691   2.872  1.6708  2.0008 -0.5029
 7199SOL     OW33055   2.454   1.800   9.757  0.2358 -0.2915 -0.0718
 7199SOL    HW133056   2.516   1.849   9.704 -0.2751 -0.2492 -0.6369
 7199SOL    HW233057   2.440   1.862   9.829  1.7590 -0.3722  0.2994
 7200SOL     OW33058   2.645   2.103   7.039  0.3656  0.1450 -0.3505
 7200SOL    HW133059   2.701   2.032   7.006 -0.5697  0.6935 -3.1481
 7200SOL    HW233060   2.557   2.070   7.020  0.5730  0.3844 -1.7057
 7201SOL     OW33061   4.328   1.255  14.883 -0.4682  0.2752 -0.0370
 7201SOL    HW133062   4.341   1.190  14.815 -0.7158  0.0691  0.1148
 7201SOL    HW233063   4.398   1.223  14.940 -0.0022 -2.8696 -2.3799
 7202SOL     OW33064   4.540   0.902   5.630  0.3737 -0.0308 -0.0965
 7202SOL    HW133065   4.517   0.985   5.671 -2.5284 -1.4570  1.1069
 7202SOL    HW233066   4.636   0.898   5.626  0.4893  2.0138  0.8067
 7203SOL     OW33067   0.829   3.329  15.381  0.7297 -0.0494  0.5694
 7203SOL    HW133068   0.865   3.334  15.292  0.1655 -2.4623  0.2318
 7203SOL    HW233069   0.888   3.261  15.412  0.9363  0.1344  0.5798
 7204SOL     OW33070   1.690   1.633   6.162 -0.3364 -0.0728  0.2253
 7204SOL    HW133071   1.690   1.594   6.075  0.1628 -1.0935  0.6845
 7204SOL    HW233072   1.611   1.686   6.160 -0.0057  0.4656  1.5313
 7205SOL     OW33073   1.956   4.121  11.722 -0.1696 -0.2132  0.1245
 7205SOL    HW133074   1.985   4.032  11.744  1.3524  0.7411  1.8894
 7205SOL    HW233075   2.015   4.146  11.651 -2.0248 -0.3630 -1.4929
 7206SOL     OW33076   2.465   1.745   3.117  0.0687  0.0386 -0.2723
 7206SOL    HW133077   2.522   1.687   3.066 -0.9032 -1.2990  0.1820
 7206SOL    HW233078   2.407   1.786   3.053 -0.4813  0.4434  0.5006
 7207SOL     OW33079   0.637   2.598   0.041 -0.1932  0.0532 -0.1230
 7207SOL    HW133080   0.594   2.600   0.127 -0.7770 -0.3824 -0.4090
 7207SOL    HW233081   0.682   2.517   0.065  1.3121  0.8035 -0.3784
 7208SOL     OW33082   0.852   0.007   8.957 -0.1025  0.5539  0.0143
 7208SOL    HW133083   0.803   0.015   9.039  1.0748 -0.5309  0.8433
 7208SOL    HW233084   0.916   0.076   8.975 -1.4286  1.7174  0.2686
 7209SOL     OW33085   3.935   4.416  12.243 -0.1439 -0.3921  0.3269
 7209SOL    HW133086   4.000   4.363  12.290  0.7111 -2.3387 -3.1263
 7209SOL    HW233087   3.855   4.397  12.292  0.2175 -0.2137  0.9942
 7210SOL     OW33088   3.207   3.704   0.584  0.1181 -0.4425  0.2353
 7210SOL    HW133089   3.117   3.672   0.578  1.0727 -3.2107  0.5074
 7210SOL    HW233090   3.227   3.737   0.496 -1.6426 -1.4032 -0.5202
 7211SOL     OW33091   3.445   3.007   3.224  0.0046 -0.0706 -0.1755
 7211SOL    HW133092   3.477   2.918   3.214 -0.2161  0.0840 -2.1951
 7211SOL    HW233093   3.351   2.994   3.213  0.5651 -4.1940  0.0496
 7212SOL     OW33094   0.768   4.607   9.963 -0.1178 -0.6541  0.8417
 7212SOL    HW133095   0.684   4.643   9.991 -0.1377  0.7694 -1.0753
 7212SOL    HW233096   0.765   4.533  10.024  0.9885 -0.6273  0.9247
 7213SOL     OW33097   2.758   4.065   0.413  0.0881 -0.4635  0.3824
 7213SOL    HW133098   2.694   3.999   0.387 -0.6783  0.7310 -0.7732
 7213SOL    HW233099   2.720   4.132   0.356 -1.3159 -0.2061  1.6262
 7214SOL     OW33100   0.859   2.037   3.715 -0.1214 -0.2418 -0.1199
 7214SOL    HW133101   0.802   2.113   3.702 -1.3774 -1.1959 -0.1105
 7214SOL    HW233102   0.797   1.965   3.706 -0.6062  0.0794  0.5926
 7215SOL     OW33103   1.929   3.618   2.393 -0.3631 -0.0280  0.0098
 7215SOL    HW133104   1.992   3.562   2.347 -0.8368  0.0121 -0.6709
 7215SOL    HW233105   1.847   3.581   2.360 -0.8112  1.9098 -1.0397
 7216SOL     OW33106   3.503   1.986  13.467  0.0858 -0.5501  0.2856
 7216SOL    HW133107   3.566   1.973  13.538  0.5664 -0.7165 -0.1679
 7216SOL    HW233108   3.432   2.033  13.511  0.2828 -0.2282  0.2574
 7217SOL     OW33109   4.521   1.946   9.875 -0.3511 -0.2124 -0.2722
 7217SOL    HW133110   4.575   1.979   9.946 -0.7098 -1.8836  0.7785
 7217SOL    HW233111   4.589   1.946   9.807 -1.8186  0.2286 -1.7448
 7218SOL     OW33112   2.874   2.842   4.521  0.5212  0.1993  0.1097
 7218SOL    HW133113   2.851   2.889   4.442 -1.0914 -1.9961 -0.7352
 7218SOL    HW233114   2.848   2.756   4.489 -1.7462  0.3442  1.5791
 7219SOL     OW33115   3.883   1.428  15.408  0.4255  0.1391 -0.4808
 7219SOL    HW133116   3.961   1.397  15.362 -0.4792 -0.7546 -1.3951
 7219SOL    HW233117   3.843   1.346  15.434  0.3219  0.1733 -0.5314
 7220SOL     OW33118   2.326   1.968   2.710 -0.1468  0.0473 -1.3232
 7220SOL    HW133119   2.245   1.946   2.662 -0.6027 -3.7396  1.1946
 7220SOL    HW233120   2.310   2.059   2.732  2.5164 -0.1607  1.4264
 7221SOL     OW33121   3.352   4.228   2.257 -0.1095  0.2078 -0.2189
 7221SOL    HW133122   3.403   4.169   2.313 -0.8274 -0.1496  0.0683
 7221SOL    HW233123   3.344   4.304   2.315  1.7912 -0.1779  0.5454
 7222SOL     OW33124   0.681   3.031   5.715  0.1159  0.1931  0.5537
 7222SOL    HW133125   0.729   2.948   5.722  1.6984  1.1006  0.4422
 7222SOL    HW233126   0.745   3.087   5.671 -1.1212  2.6264  1.8596
 7223SOL     OW33127   1.368   0.846  15.273 -0.6405 -0.3494 -0.2209
 7223SOL    HW133128   1.420   0.857  15.352 -2.5178  3.5728  0.4372
 7223SOL    HW233129   1.280   0.865  15.306  0.0303  1.0830  0.6981
 7224SOL     OW33130   4.601   3.476   7.187  0.3921 -0.0538  0.2017
 7224SOL    HW133131   4.663   3.541   7.156 -0.9477  0.4052 -1.5519
 7224SOL    HW233132   4.550   3.526   7.250  2.5979  0.5442  1.4752
 7225SOL     OW33133   2.059   0.822   3.572  0.1924  0.2311 -0.4522
 7225SOL    HW133134   2.140   0.771   3.576  0.6840  1.1028  0.9434
 7225SOL    HW233135   2.063   0.873   3.492 -4.1947  0.2895 -0.6514
 7226SOL     OW33136   4.486   0.691  10.267 -0.0888  0.9155  0.2681
 7226SOL    HW133137   4.394   0.697  10.290 -0.3303  3.0706 -1.2248
 7226SOL    HW233138   4.476   0.664  10.176 -0.0874 -0.1238  0.5775
 7227SOL     OW33139   1.073   2.740   9.048 -0.5732 -0.4410  0.2305
 7227SOL    HW133140   1.069   2.661   8.994 -1.8022  0.4580 -0.9856
 7227SOL    HW233141   1.165   2.763   9.062 -0.7478 -0.1375  0.8692
 7228SOL     OW33142   2.043   1.294   9.603 -0.0351 -0.2141 -0.7948
 7228SOL    HW133143   2.060   1.359   9.672  0.5804 -1.8498  0.6008
 7228SOL    HW233144   2.007   1.217   9.647  0.9898 -1.2655 -1.7901
 7229SOL     OW33145   2.348   1.991   4.813 -0.2115  0.0592 -0.2595
 7229SOL    HW133146   2.370   2.046   4.889  0.4921 -0.6234  0.0307
 7229SOL    HW233147   2.397   2.040   4.746  0.4954  2.3525  1.9477
 7230SOL     OW33148   1.932   2.018   9.809 -0.5041 -0.1867  0.4206
 7230SOL    HW133149   2.017   1.997   9.847 -0.4155 -1.6050 -0.5639
 7230SOL    HW233150   1.884   1.940   9.839 -2.1975  0.0050 -1.7954
 7231SOL     OW33151   0.892   4.700   0.579 -0.2498  0.0665 -0.2671
 7231SOL    HW133152   0.974   4.671   0.619  0.1352 -1.4685 -2.1048
 7231SOL    HW233153   0.919   0.066   0.560  2.1625 -0.7572 -0.6709
 7232SOL     OW33154   3.186   2.959  14.194  0.4594 -0.2990 -0.1738
 7232SOL    HW133155   3.250   2.958  14.266 -0.2836 -1.3352  0.4660
 7232SOL    HW233156   3.253   2.952  14.125 -0.8236  1.1475 -1.5922
 7233SOL     OW33157   3.564   1.780   9.536  0.2541  0.4170  0.1284
 7233SOL    HW133158   3.657   1.767   9.555  0.1820  1.3896  1.1246
 7233SOL    HW233159   3.531   1.730   9.611  0.6513  1.5062  1.0290
 7234SOL     OW33160   4.569   2.157   2.313 -0.0980 -0.6162 -0.3664
 7234SOL    HW133161   4.633   2.105   2.362  0.3546 -0.9479 -1.3225
 7234SOL    HW233162   4.550   2.102   2.237 -4.0416  0.8028 -0.3688
 7235SOL     OW33163   2.244   3.735   5.542  0.2117 -0.3359 -0.1972
 7235SOL    HW133164   2.301   3.683   5.598  0.3635  1.1418  1.0089
 7235SOL    HW233165   2.242   3.691   5.457  1.0339  1.4976 -1.1620
 7236SOL     OW33166   2.081   1.146   5.402  0.0520  0.3046 -0.5003
 7236SOL    HW133167   2.081   1.097   5.484 -1.3872 -0.4119 -0.9280
 7236SOL    HW233168   2.104   1.078   5.338 -1.1133 -0.3691 -0.1934
 7237SOL     OW33169   2.226   1.129   6.093  0.9140 -0.2457 -0.0908
 7237SOL    HW133170   2.159   1.129   6.161  1.9215 -1.0027  0.9197
 7237SOL    HW233171   2.302   1.149   6.149 -0.4693 -0.2923  1.8039
 7238SOL     OW33172   0.945   1.777   1.523 -0.2608 -0.2662 -0.0910
 7238SOL    HW133173   0.926   1.835   1.449  0.1701 -1.6295 -1.2705
 7238SOL    HW233174   0.855   1.746   1.535 -0.9995  2.1753  0.8194
 7239SOL     OW33175   3.929   1.048   9.640  0.2342 -0.5460 -0.0066
 7239SOL    HW133176   4.002   0.987   9.631  0.7662  0.0462  0.3193
 7239SOL    HW233177   3.969   1.113   9.697  0.7097  0.7275 -1.7871
 7240SOL     OW33178   1.250   0.133   1.415 -0.0735 -0.3237 -0.3644
 7240SOL    HW133179   1.214   0.092   1.494  0.2766  1.7570  0.8836
 7240SOL    HW233180   1.305   0.055   1.406 -2.0596 -1.9533  1.6909
 7241SOL     OW33181   2.599   2.085  14.055 -0.2614  0.1199 -0.2389
 7241SOL    HW133182   2.674   2.027  14.045 -0.2031  0.0159  0.8576
 7241SOL    HW233183   2.590   2.090  14.150  0.0363  3.2188 -0.3779
 7242SOL     OW33184   3.534   1.271  16.278 -0.1580  0.1251 -0.3601
 7242SOL    HW133185   3.519   1.228  16.194  2.3106 -0.1618 -0.6561
 7242SOL    HW233186   3.536   1.363  16.254  2.9006  0.1236 -0.1901
 7243SOL     OW33187   4.391   4.249  12.424 -0.1902 -0.3012 -0.7108
 7243SOL    HW133188   4.439   4.182  12.376  0.7029  0.7200 -1.2379
 7243SOL    HW233189   4.413   4.219  12.513  0.7705  0.3225 -0.7327
 7244SOL     OW33190   1.277   0.003   9.296  0.4430 -0.7397  0.0662
 7244SOL    HW133191   1.298   0.043   9.380  1.4956  0.8298 -0.9474
 7244SOL    HW233192   1.298   0.074   9.235  0.7388 -0.1991  0.8100
 7245SOL     OW33193   1.652   0.547   6.462 -0.7015  0.5213  0.1018
 7245SOL    HW133194   1.727   0.539   6.522 -1.3691  0.9573  0.9994
 7245SOL    HW233195   1.622   0.456   6.462  0.5852  0.0974 -0.2825
 7246SOL     OW33196   0.540   0.753   8.607 -0.3534 -0.1816  0.6898
 7246SOL    HW133197   0.474   0.792   8.664 -3.4870 -0.3056 -2.8341
 7246SOL    HW233198   0.527   0.660   8.626 -1.8100  0.6647  3.7717
 7247SOL     OW33199   0.412   0.931   9.682  0.3700 -0.0824  0.4673
 7247SOL    HW133200   0.493   0.882   9.698  1.6955  1.5457 -1.2398
 7247SOL    HW233201   0.448   1.017   9.663 -0.2237  0.4811  1.9752
 7248SOL     OW33202   3.625   0.607   3.363 -0.3583 -0.3454  0.2187
 7248SOL    HW133203   3.608   0.626   3.271  0.1600 -1.0014 -0.0205
 7248SOL    HW233204   3.593   0.517   3.360 -1.2300 -0.0940  2.0515
 7249SOL     OW33205   2.874   0.294  14.140 -0.0261  0.2202  0.4118
 7249SOL    HW133206   2.946   0.354  14.160 -0.9284  1.3834  0.1516
 7249SOL    HW233207   2.911   0.206  14.152 -0.7404 -0.1450 -0.0669
 7250SOL     OW33208   3.997   2.169  11.818 -0.2130  0.2015  0.6879
 7250SOL    HW133209   4.088   2.196  11.812  0.0633 -0.6654  0.9810
 7250SOL    HW233210   3.979   2.133  11.731  0.0497 -1.5704  1.3591
 7251SOL     OW33211   4.268   1.672   0.605  0.6106  0.5937  0.1069
 7251SOL    HW133212   4.227   1.597   0.648 -0.4454  1.2483  0.2459
 7251SOL    HW233213   4.260   1.635   0.518  0.3975 -0.1750  0.4563
 7252SOL     OW33214   1.897   3.118  17.538  0.4410  0.0441 -0.5033
 7252SOL    HW133215   1.907   3.174  17.615 -2.8065  0.1093 -0.1554
 7252SOL    HW233216   1.990   3.096  17.527  0.2650 -0.7120 -0.5023
 7253SOL     OW33217   0.197   4.657   4.368  0.1454 -0.3314  0.3908
 7253SOL    HW133218   0.140   4.716   4.318 -0.0220  0.0006  0.9753
 7253SOL    HW233219   0.187   4.573   4.323  2.3697 -1.2396  1.5708
 7254SOL     OW33220   1.803   0.154   1.442  0.2760  0.3674 -0.0818
 7254SOL    HW133221   1.745   0.167   1.367  0.6207  0.9234 -0.2447
 7254SOL    HW233222   1.885   0.126   1.402  0.1535  0.8316 -0.6505
 7255SOL     OW33223   1.235   4.633   2.600 -0.0374  0.1631 -0.4803
 7255SOL    HW133224   1.323   4.670   2.594  0.9250 -2.2286 -1.0701
 7255SOL    HW233225   1.257   4.555   2.652 -0.2060 -0.7275 -1.7592
 7256SOL     OW33226   4.096   0.375  12.916  0.2862  0.6878  0.0754
 7256SOL    HW133227   4.157   0.441  12.884  1.2532 -0.1802  0.1655
 7256SOL    HW233228   4.025   0.429  12.954  1.0526  0.8227  1.3190
 7257SOL     OW33229   3.710   1.597   4.038 -0.7900 -0.6784 -0.0417
 7257SOL    HW133230   3.750   1.639   3.962 -2.1870  0.5647 -0.0974
 7257SOL    HW233231   3.659   1.519   4.015 -2.9330  0.2576  1.5787
 7258SOL     OW33232   1.783   2.219  14.618  0.0497 -0.1796  0.4196
 7258SOL    HW133233   1.843   2.200  14.690  0.2925  0.4074  0.3724
 7258SOL    HW233234   1.840   2.216  14.542 -1.3941 -0.1833 -0.6598
 7259SOL     OW33235   3.160   1.038   9.600  0.4712 -0.4157  0.4455
 7259SOL    HW133236   3.118   0.967   9.552 -1.2455  0.7048  0.2964
 7259SOL    HW233237   3.093   1.106   9.601  1.3979  0.5512 -1.7407
 7260SOL     OW33238   0.418   1.658  17.317 -0.5510  0.2384  0.2879
 7260SOL    HW133239   0.429   1.599  17.242 -2.5790 -3.9693  3.2832
 7260SOL    HW233240   0.333   1.701  17.304 -0.2368  0.5287 -0.7961
 7261SOL     OW33241   2.637   2.976   8.430 -0.3425  0.2536 -0.2559
 7261SOL    HW133242   2.571   2.949   8.494 -0.4038 -0.2641 -0.5432
 7261SOL    HW233243   2.665   2.892   8.394 -2.9929 -0.2687 -1.0820
 7262SOL     OW33244   2.851   0.212   6.218  0.1904 -0.0070  0.3542
 7262SOL    HW133245   2.888   0.144   6.274  0.2053  0.0853  0.4554
 7262SOL    HW233246   2.864   0.180   6.129 -0.8959  1.4740 -0.3348
 7263SOL     OW33247   4.347   4.462   6.421 -0.0484  0.2179  0.6917
 7263SOL    HW133248   4.399   4.429   6.493  0.2227  2.0981  1.3555
 7263SOL    HW233249   4.413   4.493   6.359 -0.9769 -1.1369 -0.9710
 7264SOL     OW33250   3.709   3.347   3.403 -0.2837 -0.0995  0.0737
 7264SOL    HW133251   3.622   3.325   3.371 -0.7292  0.0661  1.1519
 7264SOL    HW233252   3.719   3.435   3.367 -2.6728  1.5123  3.2472
 7265SOL     OW33253   1.827   1.852   1.593  0.3520 -0.1407 -0.0073
 7265SOL    HW133254   1.848   1.760   1.607  2.7933  0.2914 -0.8092
 7265SOL    HW233255   1.908   1.893   1.564 -2.0983  2.7078 -2.8677
 7266SOL     OW33256   1.485   1.389  10.901  0.0192  0.2567 -0.1150
 7266SOL    HW133257   1.402   1.344  10.887 -0.5631  1.3756 -0.1876
 7266SOL    HW233258   1.477   1.382  10.996  5.0394  0.3929  0.3446
 7267SOL     OW33259   1.466   4.307   3.724 -0.5170 -0.5069  0.0961
 7267SOL    HW133260   1.372   4.298   3.742 -0.5755  1.2987  0.7328
 7267SOL    HW233261   1.484   4.219   3.691  1.9471 -0.0669  0.2755
 7268SOL     OW33262   3.635   3.203   5.083  0.0589  0.2845 -0.1552
 7268SOL    HW133263   3.620   3.158   5.001 -2.6890 -1.2089  1.1739
 7268SOL    HW233264   3.573   3.275   5.067 -1.1131 -0.6189  0.3627
 7269SOL     OW33265   3.338   1.171  12.641  0.0537 -0.1564 -0.1995
 7269SOL    HW133266   3.311   1.196  12.729 -2.2206  0.1084 -0.9793
 7269SOL    HW233267   3.256   1.134  12.609 -0.2432 -0.5031  0.9584
 7270SOL     OW33268   3.214   2.840   8.500 -0.0656 -0.0300 -0.7654
 7270SOL    HW133269   3.173   2.922   8.528  0.7333 -0.5775  2.0009
 7270SOL    HW233270   3.173   2.817   8.417  0.6850  1.1714 -1.4696
 7271SOL     OW33271   4.322   2.134  14.974  0.2297  0.4971 -0.1270
 7271SOL    HW133272   4.365   2.220  14.966 -0.8965  1.1662  1.0314
 7271SOL    HW233273   4.331   2.092  14.889  0.0689 -0.5404  0.3668
 7272SOL     OW33274   1.014   3.631  14.304  0.3779 -0.5576  0.0262
 7272SOL    HW133275   0.998   3.699  14.239 -0.7657 -1.0487 -0.2144
 7272SOL    HW233276   1.075   3.670  14.366  1.0753 -1.1437 -0.2781
 7273SOL     OW33277   4.673   4.414   4.641  0.4385 -0.0810  0.4171
 7273SOL    HW133278   4.690   4.378   4.728 -1.0433 -1.6489  0.0646
 7273SOL    HW233279   4.594   4.366   4.616  0.5533  1.3330 -2.7193
 7274SOL     OW33280   0.126   0.400   8.139  0.8335  0.3083  0.3183
 7274SOL    HW133281   0.051   0.435   8.091  0.9774  2.5264  1.6993
 7274SOL    HW233282   0.200   0.414   8.081  0.7013 -0.4175 -0.0304
 7275SOL     OW33283   4.707   3.252   4.460  0.4390  0.4916 -0.1666
 7275SOL    HW133284   0.046   3.188   4.495 -0.1391  1.3302  2.4087
 7275SOL    HW233285   4.666   3.201   4.391 -0.0453  0.6748 -0.0155
 7276SOL     OW33286   2.739   2.796   0.909 -0.0668  0.1353 -0.3805
 7276SOL    HW133287   2.758   2.758   0.824 -1.0942  0.7131 -0.8673
 7276SOL    HW233288   2.754   2.886   0.881  1.5075 -0.0787 -0.2060
 7277SOL     OW33289   3.374   3.357   9.272  0.3434  0.1040  0.1853
 7277SOL    HW133290   3.467   3.378   9.277  0.4562 -0.9729  2.4395
 7277SOL    HW233291   3.357   3.356   9.177 -0.4837 -0.7871  0.3396
 7278SOL     OW33292   2.266   2.096  15.313 -0.0837 -0.5206 -0.5339
 7278SOL    HW133293   2.224   2.163  15.367  0.0496 -0.5971 -0.3382
 7278SOL    HW233294   2.267   2.030  15.382  1.5585  0.2941  0.2203
 7279SOL     OW33295   1.336   2.905   0.633 -1.0959 -0.3432  0.3425
 7279SOL    HW133296   1.375   2.845   0.697 -0.5189  0.1813  0.4756
 7279SOL    HW233297   1.250   2.865   0.619 -0.4498 -1.9977  1.1109
 7280SOL     OW33298   1.085   0.741   3.577 -0.4326  0.2204 -0.0761
 7280SOL    HW133299   1.108   0.702   3.493  0.8131 -3.5147  1.9975
 7280SOL    HW233300   1.172   0.768   3.605  0.5821 -0.6044 -2.4051
 7281SOL     OW33301   0.747   1.220   6.649  0.6565 -0.2030  0.2924
 7281SOL    HW133302   0.744   1.247   6.741 -2.9926  2.6302 -0.6562
 7281SOL    HW233303   0.664   1.174   6.636  1.2311 -0.8632 -1.0599
 7282SOL     OW33304   1.833   3.206   6.258  0.8627  0.1843 -0.3332
 7282SOL    HW133305   1.895   3.142   6.293 -1.8464 -1.0558  2.2702
 7282SOL    HW233306   1.878   3.219   6.175 -0.9872  1.5633 -1.1260
 7283SOL     OW33307   1.081   2.842  12.064  0.9014  0.2127 -0.2125
 7283SOL    HW133308   1.140   2.874  12.133 -1.2492 -0.0512  1.7536
 7283SOL    HW233309   1.075   2.933  12.032  0.6538  0.6643  1.1009
 7284SOL     OW33310   2.401   0.746   3.504 -0.1953 -0.1759 -0.2896
 7284SOL    HW133311   2.397   0.840   3.488 -0.1054 -0.0484  0.4456
 7284SOL    HW233312   2.344   0.713   3.435  1.7626 -3.6740 -0.2693
 7285SOL     OW33313   1.371   0.330   5.620  0.1737 -0.2085 -0.1071
 7285SOL    HW133314   1.307   0.380   5.569  0.7057  1.9072  1.2687
 7285SOL    HW233315   1.440   0.396   5.628 -0.1906  0.4716 -2.6294
 7286SOL     OW33316   4.196   1.036   9.487 -0.4063  0.5281  0.0236
 7286SOL    HW133317   4.187   1.125   9.454  0.7612 -0.1360 -2.0861
 7286SOL    HW233318   4.291   1.026   9.488 -0.2062  2.3045 -1.1076
 7287SOL     OW33319   2.890   1.165   5.037  0.2593  0.0282 -0.3128
 7287SOL    HW133320   2.899   1.070   5.032 -0.7084 -0.0975  0.3031
 7287SOL    HW233321   2.802   1.174   5.001  0.3405  1.3921 -0.1732
 7288SOL     OW33322   1.233   2.690   9.435  0.0760 -0.0258  0.0200
 7288SOL    HW133323   1.265   2.648   9.515  0.0621  1.1289  0.6366
 7288SOL    HW233324   1.150   2.643   9.425  0.2411 -0.7595  2.1230
 7289SOL     OW33325   0.602   0.156   6.530 -0.4452 -0.6864  0.6652
 7289SOL    HW133326   0.598   0.234   6.475 -0.8091 -0.4651  1.0054
 7289SOL    HW233327   0.599   0.200   6.616  0.7542  1.7651 -0.5463
 7290SOL     OW33328   0.330   0.465   2.722 -0.1525  0.8315  0.3211
 7290SOL    HW133329   0.299   0.423   2.642  0.7478  1.3492 -0.2917
 7290SOL    HW233330   0.378   0.536   2.680 -1.5493  0.7695 -1.3829
 7291SOL     OW33331   4.346   4.388   2.371 -0.1533 -0.9439  0.0864
 7291SOL    HW133332   4.375   4.339   2.294  2.8405 -0.4353  0.8655
 7291SOL    HW233333   4.269   4.437   2.343  1.4454  1.1813 -0.5839
 7292SOL     OW33334   0.482   1.548   6.566  0.3290  0.2154 -0.4250
 7292SOL    HW133335   0.475   1.483   6.637  1.5208  0.9449  0.3692
 7292SOL    HW233336   0.446   1.491   6.499 -1.9338 -0.0197  0.9960
 7293SOL     OW33337   2.830   0.553  15.154 -0.4159 -0.5295 -0.2420
 7293SOL    HW133338   2.918   0.555  15.119  0.7201  0.6828  2.6635
 7293SOL    HW233339   2.788   0.603  15.084  1.3120  0.2560 -0.7064
 7294SOL     OW33340   3.499   1.058   4.877  0.3075 -0.0660  0.5064
 7294SOL    HW133341   3.416   1.096   4.849  0.0745 -0.5527  0.5287
 7294SOL    HW233342   3.463   1.043   4.965  1.4106 -0.1161  0.9610
 7295SOL     OW33343   2.980   3.258   0.895  0.4293  0.2305 -0.5291
 7295SOL    HW133344   2.921   3.333   0.891 -1.0938 -0.9897 -0.7890
 7295SOL    HW233345   3.062   3.301   0.867  1.2772  1.0291  3.2244
 7296SOL     OW33346   2.199   4.538   1.257  0.0993 -0.3422 -1.0629
 7296SOL    HW133347   2.111   4.576   1.258 -0.3121 -1.2822 -1.3235
 7296SOL    HW233348   2.251   4.613   1.285 -0.6199 -0.0482 -0.5114
 7297SOL     OW33349   2.177   1.113   7.481  0.3359  0.4308 -0.5428
 7297SOL    HW133350   2.122   1.188   7.503 -0.5921 -0.1843 -0.7729
 7297SOL    HW233351   2.128   1.045   7.527  1.7817  1.0156  1.8904
 7298SOL     OW33352   1.912   1.480  16.328  0.0213 -0.4724 -0.0042
 7298SOL    HW133353   1.975   1.483  16.256  3.2628 -1.1188  2.8244
 7298SOL    HW233354   1.895   1.574  16.338  0.1961 -0.4105 -0.2908
 7299SOL     OW33355   4.557   4.343   5.676 -0.0120 -0.0228  0.0864
 7299SOL    HW133356   4.585   4.294   5.754 -2.3320 -1.6836 -0.1575
 7299SOL    HW233357   4.632   4.347   5.617 -0.0720 -1.1343 -0.0495
 7300SOL     OW33358   3.046   1.191  13.969  0.2870  0.6388  0.1961
 7300SOL    HW133359   3.091   1.263  14.013 -0.2578 -0.2658  2.2488
 7300SOL    HW233360   2.970   1.189  14.027  0.7466 -0.3786  0.7539
 7301SOL     OW33361   4.009   0.701   3.492 -0.7547 -0.1921 -0.1058
 7301SOL    HW133362   4.092   0.741   3.468 -0.4097 -0.8162  0.0400
 7301SOL    HW233363   4.024   0.678   3.584 -1.2458  2.4109  0.6255
 7302SOL     OW33364   1.552   4.597   2.569 -0.1808  0.2899  0.5721
 7302SOL    HW133365   1.535   4.595   2.475 -0.3833 -1.2746  0.6351
 7302SOL    HW233366   1.607   4.674   2.580 -1.1765  1.0204  0.4461
 7303SOL     OW33367   2.570   0.804   8.677 -0.3453 -0.1252 -0.2350
 7303SOL    HW133368   2.502   0.736   8.670 -0.2525 -0.1286 -1.0475
 7303SOL    HW233369   2.638   0.756   8.630 -2.3796 -1.9272 -1.3724
 7304SOL     OW33370   3.798   3.968  14.239 -0.1929  0.5039  0.2197
 7304SOL    HW133371   3.885   3.950  14.203 -1.6742 -3.8742 -1.1666
 7304SOL    HW233372   3.790   4.056  14.203  1.9939  1.4040  1.8830
 7305SOL     OW33373   4.080   0.961  14.345  0.5526 -0.0701  0.5904
 7305SOL    HW133374   4.042   1.038  14.386 -1.1838 -0.4786 -0.2539
 7305SOL    HW233375   4.168   0.983  14.377  1.0006 -0.0279 -0.6557
 7306SOL     OW33376   4.717   0.760  17.029 -1.6813 -1.0197  0.1533
 7306SOL    HW133377   0.012   0.818  16.955  0.5153 -0.7513  0.9003
 7306SOL    HW233378   0.075   0.708  17.025 -1.0273 -0.0183  0.2820
 7307SOL     OW33379   1.995   3.758   3.159 -0.4769  0.2531 -0.1331
 7307SOL    HW133380   2.086   3.774   3.132  0.1495 -3.0749  0.0195
 7307SOL    HW233381   1.972   3.694   3.092  0.5624  0.4798 -0.7062
 7308SOL     OW33382   0.607   0.995   2.796 -0.5199  0.2032 -0.3601
 7308SOL    HW133383   0.600   1.026   2.886 -0.6656 -0.9721  0.0365
 7308SOL    HW233384   0.617   1.074   2.743  0.1184 -0.4492 -1.2077
 7309SOL     OW33385   0.848   4.104  15.382 -0.0732 -0.2579 -0.0487
 7309SOL    HW133386   0.837   4.012  15.358  2.2688 -0.9509  1.5064
 7309SOL    HW233387   0.934   4.096  15.424  0.4622  0.2892 -1.0362
 7310SOL     OW33388   0.496   1.472   4.420  0.0584  0.3803 -0.2057
 7310SOL    HW133389   0.413   1.446   4.460 -0.4757  1.5935 -0.5300
 7310SOL    HW233390   0.547   1.393   4.437  0.7128  0.9253  0.3643
 7311SOL     OW33391   2.026   2.319   6.305 -0.3364 -0.2964  0.0685
 7311SOL    HW133392   1.940   2.283   6.284  0.0427 -1.2749  0.2123
 7311SOL    HW233393   2.000   2.370   6.382  1.2429  0.4504  0.1172
 7312SOL     OW33394   4.318   1.700   3.196  0.0094  1.0331 -0.1444
 7312SOL    HW133395   4.238   1.753   3.198 -0.5881  0.0432  1.6194
 7312SOL    HW233396   4.365   1.720   3.277  1.7455 -2.7688 -0.2399
 7313SOL     OW33397   2.259   3.736  14.503 -0.3869  0.5050  0.3692
 7313SOL    HW133398   2.289   3.646  14.518 -1.0700  0.3799  1.0136
 7313SOL    HW233399   2.333   3.770  14.453  1.2078 -0.2486  2.2044
 7314SOL     OW33400   1.545   0.419   8.965  0.5466 -0.6934  0.1467
 7314SOL    HW133401   1.569   0.510   8.980  0.7746 -0.5308 -1.1977
 7314SOL    HW233402   1.536   0.399   9.058  0.2181  0.9471  0.4657
 7315SOL     OW33403   2.820   3.799   1.112  1.0028 -0.0116  0.2202
 7315SOL    HW133404   2.842   3.892   1.117 -0.5197  0.3587 -0.2888
 7315SOL    HW233405   2.894   3.770   1.058 -1.5594 -2.5650 -1.8628
 7316SOL     OW33406   2.244   3.073   2.143  0.5337  0.7626 -0.3752
 7316SOL    HW133407   2.295   3.022   2.080  0.9126 -0.9379  1.3241
 7316SOL    HW233408   2.308   3.129   2.187  0.2077 -0.2337  1.3228
 7317SOL     OW33409   2.834   0.966   5.488 -1.0029 -0.1264  0.9769
 7317SOL    HW133410   2.755   1.019   5.481 -1.5509 -0.7613  2.4248
 7317SOL    HW233411   2.825   0.906   5.562 -1.5729 -0.6409  0.4916
 7318SOL     OW33412   3.719   2.397   7.225  0.9038 -0.1388 -0.0437
 7318SOL    HW133413   3.752   2.429   7.141 -2.5257  0.6183 -1.0691
 7318SOL    HW233414   3.784   2.442   7.281 -0.6478  1.9235  0.1171
 7319SOL     OW33415   1.072   1.123  16.435 -0.3613  0.4177 -0.1317
 7319SOL    HW133416   1.078   1.215  16.461 -1.5516  0.8976 -1.5467
 7319SOL    HW233417   1.138   1.074  16.484 -0.2770 -0.1137 -0.7724
 7320SOL     OW33418   3.021   0.151   2.121 -0.1430 -0.0367 -0.1371
 7320SOL    HW133419   2.977   0.182   2.042  2.2186 -2.3081 -2.3130
 7320SOL    HW233420   2.967   0.077   2.147 -0.3551 -1.0902 -3.6127
 7321SOL     OW33421   0.360   0.752   1.230  0.1222 -0.0960  0.1528
 7321SOL    HW133422   0.318   0.783   1.311 -0.1996  0.0161 -0.0540
 7321SOL    HW233423   0.448   0.731   1.261 -0.7082 -1.0108  1.9147
 7322SOL     OW33424   1.350   2.114   4.704 -0.0735 -0.5377  1.0456
 7322SOL    HW133425   1.426   2.081   4.751 -0.1785 -0.5962  1.1777
 7322SOL    HW233426   1.348   2.073   4.617 -1.9664  1.3301  0.2055
 7323SOL     OW33427   0.644   1.474   5.500 -0.2830 -0.3248  0.1724
 7323SOL    HW133428   0.738   1.457   5.493  0.0002  0.9274  0.8906
 7323SOL    HW233429   0.647   1.562   5.537  2.5138 -0.3715  0.0544
 7324SOL     OW33430   1.372   2.790   2.723  0.2999  0.2164 -0.4152
 7324SOL    HW133431   1.348   2.698   2.733  2.8539 -0.6676 -2.3652
 7324SOL    HW233432   1.417   2.804   2.806 -0.2818  3.1536 -0.5711
 7325SOL     OW33433   1.450   1.979   2.038  0.2816  0.2106 -0.8022
 7325SOL    HW133434   1.517   2.021   1.984 -1.8004  2.8240 -1.3375
 7325SOL    HW233435   1.409   1.916   1.978 -0.4804  0.0862 -0.1456
 7326SOL     OW33436   2.506   1.562   2.457  0.7026 -0.2383 -0.4889
 7326SOL    HW133437   2.491   1.564   2.552  1.8916  3.4864 -0.3927
 7326SOL    HW233438   2.586   1.509   2.459  0.9507  0.1521 -0.2756
 7327SOL     OW33439   1.537   3.134   4.227  0.0760  0.1412 -0.0682
 7327SOL    HW133440   1.444   3.156   4.218 -0.0820 -0.7429 -0.5847
 7327SOL    HW233441   1.561   3.146   4.135 -0.6897 -0.4252 -0.3401
 7328SOL     OW33442   0.075   2.423   2.027 -0.0830  0.1761 -0.0684
 7328SOL    HW133443   0.058   2.330   2.042  1.4651 -0.3493 -1.5533
 7328SOL    HW233444   0.117   2.444   2.111  1.0324  1.6727 -1.0068
 7329SOL     OW33445   3.835   2.160   8.873 -0.3890 -0.4077 -0.4554
 7329SOL    HW133446   3.802   2.078   8.836 -0.9797  0.0232 -0.8772
 7329SOL    HW233447   3.923   2.156   8.835 -0.6624 -2.1146 -0.8787
 7330SOL     OW33448   1.640   3.505   7.458  0.0360 -0.4092 -0.0883
 7330SOL    HW133449   1.711   3.484   7.518  0.5022 -1.1365 -0.8864
 7330SOL    HW233450   1.582   3.540   7.525  0.3790 -0.8018  0.4155
 7331SOL     OW33451   1.393   2.080   2.441 -0.0879 -0.8166  0.1183
 7331SOL    HW133452   1.448   2.015   2.397 -1.7552 -0.6053 -2.2377
 7331SOL    HW233453   1.358   2.139   2.375  1.5168  0.9086  0.8121
 7332SOL     OW33454   1.513   0.611   7.641 -0.1883  0.6311  0.0602
 7332SOL    HW133455   1.460   0.537   7.612  3.1071 -0.5831 -2.7964
 7332SOL    HW233456   1.464   0.651   7.713  1.3304  1.1625  0.7940
 7333SOL     OW33457   2.532   2.531   6.495 -0.4710 -0.1139 -0.1999
 7333SOL    HW133458   2.563   2.444   6.470  0.4662 -0.2076  1.2811
 7333SOL    HW233459   2.571   2.581   6.424  0.8851 -0.4976  0.2694
 7334SOL     OW33460   3.018   3.642  11.218  0.2626  0.6964 -0.1098
 7334SOL    HW133461   2.940   3.589  11.198 -0.3292  1.3183  0.5859
 7334SOL    HW233462   3.067   3.577  11.269  1.7205  1.1991 -0.8944
 7335SOL     OW33463   3.495   1.739   5.696 -0.2284  0.2124 -0.1986
 7335SOL    HW133464   3.481   1.650   5.726  3.4765 -0.1531  0.5016
 7335SOL    HW233465   3.416   1.776   5.736 -0.9876  1.0830 -2.4980
 7336SOL     OW33466   2.330   1.015  10.194 -0.5227 -0.5019 -0.1809
 7336SOL    HW133467   2.246   0.997  10.153 -0.3640  0.2653 -0.8386
 7336SOL    HW233468   2.306   1.073  10.266  0.9976 -2.7969  2.1849
 7337SOL     OW33469   1.678   0.384   1.541 -0.3569  0.4841  0.3635
 7337SOL    HW133470   1.723   0.300   1.531 -2.4153 -0.6717  0.8169
 7337SOL    HW233471   1.584   0.363   1.537 -0.5210  0.7271  3.1835
 7338SOL     OW33472   1.259   2.675   6.022 -1.0790 -0.3216  0.2488
 7338SOL    HW133473   1.227   2.619   6.093 -1.3537  1.4243  1.4962
 7338SOL    HW233474   1.338   2.627   5.998 -0.7811  1.0842 -1.6129
 7339SOL     OW33475   4.429   2.741   3.711  0.1263  0.1946 -0.0727
 7339SOL    HW133476   4.496   2.799   3.747  2.2621 -1.5389 -1.2667
 7339SOL    HW233477   4.357   2.798   3.682 -2.5430 -2.8776  0.4814
 7340SOL     OW33478   0.150   3.046  12.721  0.0650  0.8409 -0.0912
 7340SOL    HW133479   0.204   3.077  12.647  0.6248 -0.6480 -0.2959
 7340SOL    HW233480   0.081   2.999  12.675  1.5896 -2.8651  1.4506
 7341SOL     OW33481   3.003   0.446   6.806  0.2452  0.1384  0.2073
 7341SOL    HW133482   3.003   0.495   6.724  1.1266  0.6728  0.5167
 7341SOL    HW233483   3.010   0.514   6.874 -1.6897  0.7083 -0.1773
 7342SOL     OW33484   3.351   1.008  13.707  0.3923  0.1135  0.1921
 7342SOL    HW133485   3.309   1.081  13.662  2.2491 -0.0632 -1.8427
 7342SOL    HW233486   3.410   1.056  13.765  0.4542 -0.6606  0.7807
 7343SOL     OW33487   1.560   2.788   4.649  0.3958  0.0101 -0.1940
 7343SOL    HW133488   1.468   2.812   4.649  0.2254 -0.6304  0.9975
 7343SOL    HW233489   1.563   2.737   4.568 -1.9640  0.8035 -0.7533
 7344SOL     OW33490   4.339   1.433   3.148  0.1017 -0.0310 -0.5515
 7344SOL    HW133491   4.296   1.416   3.231  2.6838 -0.2632  0.7559
 7344SOL    HW233492   4.331   1.529   3.140  0.7825  0.0948  0.2672
 7345SOL     OW33493   2.352   3.632   7.310  0.3930 -0.5888 -0.0155
 7345SOL    HW133494   2.439   3.604   7.337  1.2496  0.3260 -1.8650
 7345SOL    HW233495   2.359   3.726   7.329 -0.8243 -0.7081  1.0782
 7346SOL     OW33496   0.178   2.195   9.171  0.1991  0.1554  0.4279
 7346SOL    HW133497   0.149   2.158   9.088  0.5877  1.0920 -0.1259
 7346SOL    HW233498   0.139   2.283   9.166  0.8354  0.4316  0.2974
 7347SOL     OW33499   2.949   1.394   3.747  0.2750  0.0706 -0.1635
 7347SOL    HW133500   2.918   1.470   3.697  1.3387  0.7782  0.2660
 7347SOL    HW233501   2.958   1.327   3.679  1.4363  0.2509 -0.1726
 7348SOL     OW33502   3.880   2.507   5.184 -0.3899  0.0768 -0.1418
 7348SOL    HW133503   3.873   2.505   5.089  1.1600 -1.3242 -0.2397
 7348SOL    HW233504   3.926   2.591   5.191 -1.3713  0.5033  1.2400
 7349SOL     OW33505   2.396   4.384   3.721 -0.0943  0.0165 -0.4038
 7349SOL    HW133506   2.319   4.365   3.774 -0.5684 -0.7352 -1.3632
 7349SOL    HW233507   2.431   4.465   3.760  0.5745  0.4540 -1.9323
 7350SOL     OW33508   0.158   0.610   4.144 -0.6521 -0.2852  0.0213
 7350SOL    HW133509   0.237   0.620   4.197 -0.9589 -0.8709  0.5980
 7350SOL    HW233510   0.133   0.529   4.189 -0.6187  0.6282  1.6749
 7351SOL     OW33511   3.487   2.989   8.547  0.0611  0.0363  0.0938
 7351SOL    HW133512   3.409   2.941   8.519 -1.5484  0.1710  4.2234
 7351SOL    HW233513   3.486   3.076   8.508  0.5339 -0.5661 -1.2428
 7352SOL     OW33514   4.659   1.186   6.714 -0.1419 -0.4231  0.5439
 7352SOL    HW133515   4.595   1.119   6.739  0.9053 -1.7184 -0.2504
 7352SOL    HW233516   4.721   1.167   6.785  1.0882  2.9188  0.3836
 7353SOL     OW33517   4.072   2.778   5.349 -0.0774 -0.4114  0.1104
 7353SOL    HW133518   4.048   2.699   5.398 -2.2165  0.1414 -0.0777
 7353SOL    HW233519   4.130   2.745   5.280 -1.2064  0.0203 -1.0494
 7354SOL     OW33520   2.090   3.473   4.249  0.6423 -0.2049 -0.3416
 7354SOL    HW133521   2.101   3.549   4.193 -0.9492  1.2307  1.2740
 7354SOL    HW233522   2.176   3.462   4.289  0.6831  2.0037  0.1685
 7355SOL     OW33523   2.107   0.415  10.156 -0.5700 -0.3147  0.1887
 7355SOL    HW133524   2.034   0.378  10.205  1.0080 -3.0694  0.4481
 7355SOL    HW233525   2.163   0.463  10.216  1.9608 -0.6778 -1.8641
 7356SOL     OW33526   2.114   2.329  12.094  0.2469 -0.1436  0.0525
 7356SOL    HW133527   2.050   2.290  12.153  0.8179 -1.3439 -0.1169
 7356SOL    HW233528   2.183   2.361  12.153  0.6761  2.3135 -1.7792
 7357SOL     OW33529   0.271   2.786   7.930 -0.5425  0.7614  0.1923
 7357SOL    HW133530   0.224   2.782   7.847  1.9670  0.2580 -1.2028
 7357SOL    HW233531   0.303   2.876   7.923  3.5245 -0.7544 -0.5592
 7358SOL     OW33532   1.456   1.832   4.906  0.2761  0.3470 -0.3863
 7358SOL    HW133533   1.466   1.738   4.918 -2.2456  0.6755  4.5860
 7358SOL    HW233534   1.437   1.838   4.813 -1.5880 -2.3148 -0.1675
 7359SOL     OW33535   4.666   0.503   6.061  0.4407 -0.0716  0.5400
 7359SOL    HW133536   4.667   0.587   6.014  0.6528  0.6833  1.9058
 7359SOL    HW233537   4.597   0.526   6.123 -0.8036 -1.0571 -0.4709
 7360SOL     OW33538   0.238   4.183   8.763  0.8418 -0.4832  0.1194
 7360SOL    HW133539   0.314   4.202   8.819  1.0697 -0.0216 -0.3451
 7360SOL    HW233540   0.250   4.088   8.757 -1.5286 -0.7035 -1.0635
 7361SOL     OW33541   4.515   4.538   3.922 -0.0804 -0.3129 -0.3528
 7361SOL    HW133542   4.458   4.476   3.877 -1.3847  1.5018 -1.2200
 7361SOL    HW233543   4.555   4.588   3.851  1.1463  0.9758  1.2349
 7362SOL     OW33544   1.786   2.565   2.427 -0.0374 -0.4630  0.3775
 7362SOL    HW133545   1.752   2.638   2.376  0.8065  0.2693  0.8810
 7362SOL    HW233546   1.848   2.610   2.485 -0.6469 -0.2238  0.8441
 7363SOL     OW33547   3.276   3.937  14.593 -0.1096 -0.0973 -0.1920
 7363SOL    HW133548   3.197   3.973  14.553  0.2728  0.7465 -0.1904
 7363SOL    HW233549   3.335   3.926  14.519  1.7151  0.5583  1.1609
 7364SOL     OW33550   1.798   3.968   3.545  0.4124  0.1061  0.1824
 7364SOL    HW133551   1.775   4.040   3.486  0.3189 -0.0327  0.0497
 7364SOL    HW233552   1.816   3.902   3.479  0.8206  0.4748 -0.0730
 7365SOL     OW33553   2.107   4.682   5.635 -0.3117 -0.6181  0.1796
 7365SOL    HW133554   2.081   4.624   5.707 -1.1154  0.2775  0.5976
 7365SOL    HW233555   2.171   4.623   5.596 -0.7171 -2.1065  1.7486
 7366SOL     OW33556   2.811   3.590  17.634 -0.2063  0.6586  0.1728
 7366SOL    HW133557   2.870   3.655  17.596  2.1988 -1.3922  0.3692
 7366SOL    HW233558   2.793   3.530  17.562 -1.1903 -0.6558  1.5285
 7367SOL     OW33559   3.638   1.433   2.265 -0.2914  0.1671 -0.0041
 7367SOL    HW133560   3.586   1.512   2.256 -1.0575 -0.3483 -0.1066
 7367SOL    HW233561   3.670   1.421   2.176  2.7492  0.7059  1.0016
 7368SOL     OW33562   4.443   3.071   5.200  0.3183  0.0354 -0.1699
 7368SOL    HW133563   4.506   3.068   5.271  1.4592 -3.3046 -1.3185
 7368SOL    HW233564   4.362   3.042   5.242 -0.0330  1.7116  0.3074
 7369SOL     OW33565   3.053   1.684   6.553  0.1985 -0.1115  0.2946
 7369SOL    HW133566   3.089   1.738   6.482 -1.6422  1.4496  0.5460
 7369SOL    HW233567   3.068   1.729   6.636 -1.2882  1.1169 -0.1044
 7370SOL     OW33568   2.137   3.078   9.212  0.1053  0.0230 -0.1037
 7370SOL    HW133569   2.149   3.158   9.160 -1.3116 -0.5614 -1.3368
 7370SOL    HW233570   2.047   3.052   9.195 -0.5621  1.5533  1.1621
 7371SOL     OW33571   2.765   0.808   5.722 -0.8545  0.3039 -0.0951
 7371SOL    HW133572   2.754   0.883   5.781  2.4948 -0.0163  0.9025
 7371SOL    HW233573   2.698   0.749   5.757 -0.1301  1.5056  3.3387
 7372SOL     OW33574   3.380   1.337   2.130  0.6343 -0.1596 -0.0935
 7372SOL    HW133575   3.426   1.314   2.049  0.3251 -1.1128  0.0001
 7372SOL    HW233576   3.370   1.249   2.166 -1.2448 -0.3582 -1.0671
 7373SOL     OW33577   1.944   1.065   1.760 -0.4797 -0.5949  0.1957
 7373SOL    HW133578   1.921   1.019   1.679 -0.7911  1.0901 -0.6808
 7373SOL    HW233579   1.865   1.109   1.791  1.3479  3.1313 -0.4775
 7374SOL     OW33580   3.336   0.869  11.731 -0.3163 -0.3560  0.2292
 7374SOL    HW133581   3.318   0.950  11.683 -0.7604  1.5628  3.6250
 7374SOL    HW233582   3.424   0.852  11.699 -0.5462 -0.4714 -0.3389
 7375SOL     OW33583   3.726   0.708   7.004  0.2836  0.1785  0.2668
 7375SOL    HW133584   3.695   0.668   7.085  1.1781  1.5377  1.2805
 7375SOL    HW233585   3.714   0.800   7.029  0.6765  1.0753 -2.7703
 7376SOL     OW33586   0.947   1.932  14.375 -0.3200 -0.0836  0.2996
 7376SOL    HW133587   0.974   2.013  14.418 -0.2075  0.8237 -1.4764
 7376SOL    HW233588   0.906   1.982  14.305  1.5160  0.5630 -0.3217
 7377SOL     OW33589   0.115   2.982  14.140 -0.2087  0.1647 -0.0726
 7377SOL    HW133590   0.038   3.038  14.130 -1.2960 -1.6080 -1.6744
 7377SOL    HW233591   0.179   3.045  14.108  1.6027 -1.7976 -0.3826
 7378SOL     OW33592   1.590   2.598   1.018 -0.8658 -0.1844 -0.4661
 7378SOL    HW133593   1.642   2.673   0.989  0.3342 -1.4242 -1.5216
 7378SOL    HW233594   1.632   2.569   1.099 -0.2544  2.4853  0.1503
 7379SOL     OW33595   0.613   2.574   4.648  0.4476 -0.4997  0.0943
 7379SOL    HW133596   0.539   2.544   4.595 -1.3132  3.8302  0.0926
 7379SOL    HW233597   0.575   2.575   4.736  0.0731  1.7515 -0.0890
 7380SOL     OW33598   3.373   4.026   8.060  0.4641  0.6646  0.3679
 7380SOL    HW133599   3.371   4.001   7.967 -0.0312  0.9548  0.2993
 7380SOL    HW233600   3.323   3.948   8.087 -1.1936  1.5606 -0.0763
 7381SOL     OW33601   3.505   3.291   0.323 -0.2526  0.2433  0.3344
 7381SOL    HW133602   3.575   3.226   0.340 -0.3200 -0.8195 -3.6143
 7381SOL    HW233603   3.464   3.255   0.245  0.0285 -0.5992  0.5683
 7382SOL     OW33604   4.564   3.846   8.753  0.7035 -0.7271  0.4129
 7382SOL    HW133605   4.583   3.754   8.771 -1.2945 -1.2346  0.0287
 7382SOL    HW233606   4.476   3.842   8.714  1.2805  0.8488 -1.0537
 7383SOL     OW33607   0.159   1.975   7.476 -0.0784 -0.0421 -0.6489
 7383SOL    HW133608   0.253   1.993   7.474 -0.7706  3.6961  1.4325
 7383SOL    HW233609   0.130   2.008   7.391  1.9709  1.0623 -0.9140
 7384SOL     OW33610   4.627   0.735   8.791  0.6753 -0.2760 -0.3037
 7384SOL    HW133611   4.643   0.705   8.701  0.6313 -0.3412 -0.2898
 7384SOL    HW233612   4.629   0.829   8.771 -2.8459  0.0964  1.1309
 7385SOL     OW33613   3.732   1.617  13.716  0.5597 -0.1898 -0.2779
 7385SOL    HW133614   3.693   1.704  13.725  2.4811  0.5591  0.9731
 7385SOL    HW233615   3.698   1.582  13.634 -0.4800  1.5968 -0.6236
 7386SOL     OW33616   3.934   2.328   7.662 -0.4556 -0.0090  0.2691
 7386SOL    HW133617   3.932   2.364   7.750  0.5351 -0.6161  0.5363
 7386SOL    HW233618   4.023   2.293   7.663  0.1409  1.6162  2.9501
 7387SOL     OW33619   3.582   0.313  12.770  0.1305 -0.1327  0.4845
 7387SOL    HW133620   3.600   0.362  12.851  2.4773  1.9464 -1.2897
 7387SOL    HW233621   3.506   0.260  12.794 -0.1697 -0.1944 -0.5996
 7388SOL     OW33622   4.663   2.590   0.918 -0.3230  0.7853 -0.1694
 7388SOL    HW133623   4.629   2.657   0.977 -0.8196 -0.9545  1.5186
 7388SOL    HW233624   0.032   2.615   0.909  0.1080 -0.0716  1.9001
 7389SOL     OW33625   1.056   1.097  12.212 -0.0383 -0.2057  0.0523
 7389SOL    HW133626   0.974   1.080  12.165  0.3902 -1.6677 -0.1460
 7389SOL    HW233627   1.107   1.146  12.148 -0.5677 -1.6455 -1.4719
 7390SOL     OW33628   1.989   2.332   2.590 -0.4241  0.2067  0.1850
 7390SOL    HW133629   1.975   2.338   2.496 -0.1827  1.3201  0.2168
 7390SOL    HW233630   1.900   2.341   2.622 -1.1508 -0.5024 -1.6235
 7391SOL     OW33631   1.179   0.819   1.176  0.4313 -0.0732  0.4893
 7391SOL    HW133632   1.204   0.869   1.098  0.5003 -1.0736 -0.1377
 7391SOL    HW233633   1.251   0.829   1.237  1.3613  2.5006 -1.0717
 7392SOL     OW33634   2.614   2.214   5.389 -0.1980 -0.2898 -0.0786
 7392SOL    HW133635   2.623   2.163   5.308 -0.7793  1.2502 -1.1146
 7392SOL    HW233636   2.520   2.230   5.382 -0.8569 -5.1287 -2.5552
 7393SOL     OW33637   4.035   2.210  15.798 -0.6099  0.4078  0.5146
 7393SOL    HW133638   4.094   2.145  15.760  0.3844  0.8058  1.3707
 7393SOL    HW233639   3.973   2.161  15.851 -0.6443 -0.4709 -0.3460
 7394SOL     OW33640   1.980   2.710   4.701  0.0262 -0.0477  0.5894
 7394SOL    HW133641   2.044   2.739   4.766 -1.4514  1.3688  1.3975
 7394SOL    HW233642   1.895   2.724   4.743  0.3681 -0.7982  1.5008
 7395SOL     OW33643   4.552   0.719  15.389  0.0975  0.2477 -0.1745
 7395SOL    HW133644   4.620   0.773  15.349  0.4883 -0.8037 -0.8988
 7395SOL    HW233645   4.487   0.728  15.320 -0.1003  0.4457  0.0342
 7396SOL     OW33646   3.259   2.852   1.685 -0.5444 -0.3701  0.3455
 7396SOL    HW133647   3.184   2.897   1.723  0.0785 -1.1676  2.5434
 7396SOL    HW233648   3.312   2.919   1.642 -0.1207  0.1629  1.6881
 7397SOL     OW33649   3.037   2.825  11.728  0.0921 -0.1985 -0.4598
 7397SOL    HW133650   2.973   2.753  11.726 -0.5729  0.4597 -2.3265
 7397SOL    HW233651   2.967   2.890  11.731 -0.5972 -1.0317  1.6813
 7398SOL     OW33652   2.650   1.536  14.528 -0.2298 -0.2360  0.1871
 7398SOL    HW133653   2.608   1.579  14.602 -0.6578 -0.4511  0.0663
 7398SOL    HW233654   2.587   1.471  14.499 -1.6508  1.7529 -1.1549
 7399SOL     OW33655   2.611   1.668   0.441  0.1888 -0.4349 -0.4900
 7399SOL    HW133656   2.538   1.615   0.411 -0.8115  0.7780 -0.1698
 7399SOL    HW233657   2.579   1.757   0.427 -0.0583 -0.4079  0.2162
 7400SOL     OW33658   0.080   1.012   8.339  0.2282 -0.2892  0.0717
 7400SOL    HW133659   0.113   0.946   8.278  2.8295  0.8561  0.2379
 7400SOL    HW233660   0.001   0.967   8.368  0.0720 -0.4365 -0.5806
 7401SOL     OW33661   3.187   3.823  15.655 -0.4191  0.3936 -0.1273
 7401SOL    HW133662   3.261   3.763  15.654  1.5828  2.8283  1.2172
 7401SOL    HW233663   3.155   3.834  15.565 -0.7484 -2.2077 -0.3135
 7402SOL     OW33664   2.271   3.750  12.894  0.3205 -0.1453  0.7330
 7402SOL    HW133665   2.349   3.805  12.891  1.3207 -1.5972  0.1132
 7402SOL    HW233666   2.203   3.816  12.903  0.6216  0.0792  1.3713
 7403SOL     OW33667   2.593   1.697   6.239 -0.0865  0.1898  0.3261
 7403SOL    HW133668   2.537   1.674   6.165  0.7109  2.4562 -0.9711
 7403SOL    HW233669   2.631   1.779   6.207 -0.8340  0.0931 -0.8031
 7404SOL     OW33670   3.902   1.311   3.767 -0.2322  0.3106 -0.4350
 7404SOL    HW133671   3.811   1.338   3.779 -0.7881 -0.9967 -1.6041
 7404SOL    HW233672   3.914   1.350   3.680 -1.5992  0.7271 -0.4393
 7405SOL     OW33673   0.277   4.611   6.144  0.1259 -0.0300  0.1579
 7405SOL    HW133674   0.286   4.700   6.111 -1.1597 -0.4347 -1.2748
 7405SOL    HW233675   0.283   4.625   6.239  2.7374 -0.1008 -0.0046
 7406SOL     OW33676   0.505   0.466   9.673 -0.2843 -0.6162  0.2906
 7406SOL    HW133677   0.549   0.484   9.756 -0.6934  0.4714  0.2752
 7406SOL    HW233678   0.445   0.541   9.678  0.8587  0.2087  1.5973
 7407SOL     OW33679   1.094   0.782   7.688  0.2758 -0.4140 -0.0663
 7407SOL    HW133680   1.032   0.739   7.629  1.4039 -0.7330 -1.0250
 7407SOL    HW233681   1.042   0.849   7.733  1.6660  0.6655 -0.0530
 7408SOL     OW33682   1.437   3.614   6.183  0.1728  0.5603 -0.5696
 7408SOL    HW133683   1.505   3.549   6.164  0.8548  0.7429  1.3293
 7408SOL    HW233684   1.414   3.652   6.098  0.1924  0.1664 -0.7547
 7409SOL     OW33685   3.426   3.257   8.980  0.7746 -0.8673 -0.1722
 7409SOL    HW133686   3.332   3.271   8.969  0.7155 -0.7635  0.5004
 7409SOL    HW233687   3.424   3.162   8.976  0.4535 -0.8545 -0.4017
 7410SOL     OW33688   0.040   3.637   8.060 -0.2828 -0.0403 -0.1479
 7410SOL    HW133689   4.702   3.710   8.073  0.0363  0.7742 -3.3385
 7410SOL    HW233690   0.125   3.674   8.083  0.1533 -0.1592 -1.5898
 7411SOL     OW33691   1.058   3.507   0.167  0.7619 -0.1152 -0.0569
 7411SOL    HW133692   0.997   3.437   0.140 -0.6400  1.5237 -1.1464
 7411SOL    HW233693   1.043   3.529   0.259 -0.7400  0.3009 -0.3973
 7412SOL     OW33694   0.941   1.599  11.278  0.0688 -0.0920 -0.1286
 7412SOL    HW133695   0.915   1.653  11.353  0.0270 -1.7384  1.0559
 7412SOL    HW233696   1.019   1.562  11.320  0.7864 -0.1074 -1.4743
 7413SOL     OW33697   3.858   0.424   7.179  0.4865 -0.5220 -0.5325
 7413SOL    HW133698   3.811   0.358   7.128  0.3201 -0.9162  0.1375
 7413SOL    HW233699   3.805   0.503   7.186 -0.9318 -1.3045 -2.4394
 7414SOL     OW33700   2.323   2.652   5.655  0.1144  0.3050 -0.3998
 7414SOL    HW133701   2.386   2.711   5.614 -1.2025  2.2165  0.3480
 7414SOL    HW233702   2.388   2.584   5.672  0.4057  0.6681 -0.0722
 7415SOL     OW33703   2.900   0.320   1.614  0.5397  0.2168  0.2036
 7415SOL    HW133704   2.848   0.391   1.577  1.4042  0.9229  0.3282
 7415SOL    HW233705   2.883   0.250   1.551 -2.3697  1.7519 -0.7063
 7416SOL     OW33706   1.389   0.093   4.639 -0.1114  0.4788 -0.1330
 7416SOL    HW133707   1.389   0.172   4.585  1.2403  0.8956  0.4864
 7416SOL    HW233708   1.478   0.085   4.672  0.2553  2.4045 -0.6709
 7417SOL     OW33709   1.828   1.586   0.826  0.3987 -0.2885 -0.2905
 7417SOL    HW133710   1.836   1.558   0.917  0.0370 -0.6089 -0.3588
 7417SOL    HW233711   1.776   1.666   0.835  1.3180  0.5179 -2.2672
 7418SOL     OW33712   2.561   1.156   5.239 -0.1173 -0.2666  0.0668
 7418SOL    HW133713   2.596   1.206   5.313 -0.8407  2.2367 -1.3105
 7418SOL    HW233714   2.466   1.162   5.253 -0.0249  0.5727  0.3400
 7419SOL     OW33715   0.557   4.539   8.616 -0.5305 -0.0344 -0.2973
 7419SOL    HW133716   0.464   4.520   8.623  0.0532 -1.7561  2.8006
 7419SOL    HW233717   0.571   4.601   8.687  0.3674 -0.6216  0.0397
 7420SOL     OW33718   4.176   2.705   6.805  0.3785 -0.2499 -0.1147
 7420SOL    HW133719   4.186   2.669   6.717  1.7492  3.5017 -1.5206
 7420SOL    HW233720   4.250   2.766   6.803  0.8001 -0.7846 -0.8089
 7421SOL     OW33721   2.302   2.061   1.405  0.2640  0.2691  0.3864
 7421SOL    HW133722   2.316   2.109   1.323  1.6484 -1.6690 -0.5069
 7421SOL    HW233723   2.336   2.128   1.465  2.1173  0.9044 -1.3621
 7422SOL     OW33724   0.683   3.809   3.498 -0.2810 -0.3796 -0.5837
 7422SOL    HW133725   0.695   3.770   3.412  2.0093 -2.2600  0.6084
 7422SOL    HW233726   0.617   3.874   3.472  0.0373 -1.2207 -3.4407
 7423SOL     OW33727   2.934   0.475   6.167 -0.5026  0.4719 -0.2237
 7423SOL    HW133728   3.013   0.471   6.221  0.6871  0.9217 -1.9589
 7423SOL    HW233729   2.887   0.396   6.194  0.8761 -0.1948  0.1905
 7424SOL     OW33730   2.053   3.915   3.645 -0.1033 -0.4038 -0.2201
 7424SOL    HW133731   2.004   3.893   3.566 -1.9322  3.9578 -0.2540
 7424SOL    HW233732   2.006   3.859   3.707  1.7421 -1.3481  0.3575
 7425SOL     OW33733   0.860   1.212   3.673 -0.5274  0.1206 -0.0444
 7425SOL    HW133734   0.792   1.160   3.716 -0.6540  1.2192  1.0916
 7425SOL    HW233735   0.913   1.140   3.639 -2.3858 -0.9096 -0.7308
 7426SOL     OW33736   3.621   1.920   2.173  0.4870  0.2242 -0.2527
 7426SOL    HW133737   3.667   1.901   2.092  0.5519  0.4250 -0.2645
 7426SOL    HW233738   3.590   2.009   2.155 -0.8560 -0.7148 -2.4563
 7427SOL     OW33739   2.164   1.585  12.303  0.1134  0.1022  0.3024
 7427SOL    HW133740   2.186   1.598  12.396 -0.5349 -0.5387  0.5460
 7427SOL    HW233741   2.103   1.659  12.294  1.2278  1.0998  0.9318
 7428SOL     OW33742   2.872   2.558   6.210 -0.1684  0.2431 -0.8631
 7428SOL    HW133743   2.944   2.611   6.244  0.3811 -0.7454 -0.4840
 7428SOL    HW233744   2.797   2.595   6.255 -0.7431  0.3870 -1.9226
 7429SOL     OW33745   0.702   3.641   6.900  0.1579 -0.1340  0.8795
 7429SOL    HW133746   0.612   3.651   6.869  0.3034 -1.4729  0.0221
 7429SOL    HW233747   0.745   3.627   6.816 -1.9706  0.0020 -0.2335
 7430SOL     OW33748   0.640   2.594   6.971 -0.4340  0.0066  0.3496
 7430SOL    HW133749   0.604   2.681   6.954  1.8113  1.2271  1.7862
 7430SOL    HW233750   0.651   2.555   6.884 -1.7713 -1.3555  0.7850
 7431SOL     OW33751   3.758   3.546  17.302 -0.2950  0.2860  0.4072
 7431SOL    HW133752   3.712   3.571  17.382 -0.0868 -2.4456  1.3904
 7431SOL    HW233753   3.813   3.620  17.279 -1.5134  1.1466  0.2626
 7432SOL     OW33754   3.455   0.212  10.747  0.6126  0.0635  0.1531
 7432SOL    HW133755   3.501   0.277  10.800 -0.4221 -0.2497  1.4536
 7432SOL    HW233756   3.488   0.236  10.661  0.2973  2.7847  0.8037
 7433SOL     OW33757   1.332   2.949  12.195  0.4499  0.3684 -0.2767
 7433SOL    HW133758   1.423   2.948  12.167  0.2302 -1.7009 -0.9425
 7433SOL    HW233759   1.316   3.034  12.155  0.9041 -0.5497 -2.4156
 7434SOL     OW33760   4.440   0.675  14.907 -0.0681  0.3856 -0.4364
 7434SOL    HW133761   4.527   0.653  14.874  0.5172  1.0866  0.6069
 7434SOL    HW233762   4.449   0.628  14.990  1.7984  1.4843  0.0094
 7435SOL     OW33763   1.230   0.025   5.719  0.5990  0.0928  0.1458
 7435SOL    HW133764   1.144   0.028   5.761  0.6749  0.2491  0.2926
 7435SOL    HW233765   1.245   4.654   5.730 -0.0324  0.0359  0.5240
 7436SOL     OW33766   0.741   0.234   4.552 -0.1260  0.6926 -0.1563
 7436SOL    HW133767   0.811   0.199   4.608 -1.8436 -1.1056  0.8557
 7436SOL    HW233768   0.674   0.258   4.617  0.4955  0.6079  0.5148
 7437SOL     OW33769   1.404   0.730   5.679  0.1203 -0.2366 -0.0878
 7437SOL    HW133770   1.332   0.680   5.717  0.4627 -0.4464  0.2976
 7437SOL    HW233771   1.468   0.659   5.665 -0.0040 -0.9265  2.9097
 7438SOL     OW33772   4.525   4.709   6.551  0.2165 -0.0782  0.0961
 7438SOL    HW133773   4.555   0.077   6.551  0.8633 -0.2865  2.2924
 7438SOL    HW233774   4.439   4.720   6.511 -0.8773 -0.6469  2.2634
 7439SOL     OW33775   0.327   2.029  13.597  0.1852  0.0303 -0.2616
 7439SOL    HW133776   0.319   2.123  13.615  0.4694  0.1198 -0.6174
 7439SOL    HW233777   0.370   2.027  13.512 -0.2561  0.1658 -0.4910
 7440SOL     OW33778   3.818   1.848  10.529 -0.1442  0.1143  0.1957
 7440SOL    HW133779   3.907   1.879  10.545 -0.4550  1.5807 -0.9690
 7440SOL    HW233780   3.818   1.757  10.560 -0.8599 -0.7219 -2.2070
 7441SOL     OW33781   3.470   2.407  15.491 -0.5794  0.0741  0.2773
 7441SOL    HW133782   3.550   2.451  15.520  0.6505 -3.3890  2.1537
 7441SOL    HW233783   3.417   2.420  15.570 -0.7692  0.1774  0.1345
 7442SOL     OW33784   1.741   2.890  15.314 -0.0986  0.6208  0.5538
 7442SOL    HW133785   1.768   2.930  15.397 -0.2923 -2.1103  1.9320
 7442SOL    HW233786   1.756   2.964  15.256 -2.5670 -1.2008 -2.4118
 7443SOL     OW33787   1.115   1.501  11.013  0.2762  0.1327  0.7357
 7443SOL    HW133788   1.038   1.547  11.047 -0.3389 -0.1738 -0.2675
 7443SOL    HW233789   1.144   1.464  11.096 -1.3921 -0.6822  0.9473
 7444SOL     OW33790   3.748   4.481   5.120 -0.0934 -0.0708  0.2464
 7444SOL    HW133791   3.843   4.468   5.116  0.1757  2.1691 -0.3790
 7444SOL    HW233792   3.741   4.534   5.041 -1.5183  0.6748  0.8941
 7445SOL     OW33793   0.007   4.659  14.132  0.2445 -0.4628  0.5979
 7445SOL    HW133794   4.684   4.707  14.063  1.4774  1.5586  1.1905
 7445SOL    HW233795   4.689   4.688  14.214  1.0500 -1.2575  1.2748
 7446SOL     OW33796   4.000   1.238   9.226  0.7145  0.2314 -0.2780
 7446SOL    HW133797   4.047   1.187   9.160  0.8194  0.3444 -0.2888
 7446SOL    HW233798   3.918   1.246   9.176  0.9778  0.9697 -0.5787
 7447SOL     OW33799   2.056   0.137   6.695 -0.3076  0.0295 -0.3724
 7447SOL    HW133800   2.135   0.088   6.674 -0.1468  0.0950  0.0828
 7447SOL    HW233801   2.090   0.220   6.728 -2.4846  0.0613  1.8050
 7448SOL     OW33802   2.234   2.848   0.158 -0.1998 -0.0130 -0.0199
 7448SOL    HW133803   2.309   2.855   0.099  1.1870 -2.5513  1.4831
 7448SOL    HW233804   2.195   2.762   0.145 -0.9477  0.2899  0.2024
 7449SOL     OW33805   0.503   1.411   9.290 -0.3819  0.4277 -0.0943
 7449SOL    HW133806   0.529   1.319   9.290  0.3301  0.6252 -1.1361
 7449SOL    HW233807   0.540   1.448   9.370  0.2465 -0.8127  0.1958
 7450SOL     OW33808   1.000   2.622   4.803  0.2470  0.1474  0.1396
 7450SOL    HW133809   1.011   2.536   4.763 -0.6859 -0.0682  0.3509
 7450SOL    HW233810   0.916   2.602   4.843 -0.5613  0.8857 -1.1718
 7451SOL     OW33811   1.842   0.966   3.198  0.3972  0.1083 -0.5762
 7451SOL    HW133812   1.886   1.049   3.180  2.9891 -0.8037  1.4609
 7451SOL    HW233813   1.766   0.971   3.141 -0.0760  2.8070  0.2790
 7452SOL     OW33814   3.320   4.507   4.374 -0.1657 -0.4978  0.3781
 7452SOL    HW133815   3.289   4.447   4.306  2.8024 -0.3859 -1.0746
 7452SOL    HW233816   3.345   4.440   4.438 -1.6677 -2.2378 -0.8695
 7453SOL     OW33817   3.912   1.854  15.667 -0.5192  0.2787 -0.6084
 7453SOL    HW133818   3.963   1.929  15.636 -0.3600 -0.0816 -1.2213
 7453SOL    HW233819   3.859   1.837  15.589  1.1193 -3.2579 -0.9757
 7454SOL     OW33820   3.771   3.413  16.349  0.3931  0.5045 -0.1601
 7454SOL    HW133821   3.822   3.486  16.384 -0.3640  1.0802 -0.2579
 7454SOL    HW233822   3.816   3.379  16.271  0.3151  1.8549 -0.7853
 7455SOL     OW33823   4.144   0.942  11.395  0.4280 -0.6691  0.3134
 7455SOL    HW133824   4.109   1.026  11.426  2.7941 -0.9671  3.7631
 7455SOL    HW233825   4.199   0.918  11.469 -3.9099 -2.3963  3.0155
 7456SOL     OW33826   2.415   2.747   2.937 -0.0239 -0.3409  0.2403
 7456SOL    HW133827   2.375   2.736   2.851  0.7856 -0.6389 -0.0867
 7456SOL    HW233828   2.506   2.729   2.915  0.4166  0.3195  1.4974
 7457SOL     OW33829   0.950   3.708   8.047  0.2175 -0.3601  0.0364
 7457SOL    HW133830   0.965   3.792   8.002 -0.9204 -1.2086 -1.9240
 7457SOL    HW233831   0.865   3.683   8.011 -0.3552  0.3429  0.9128
 7458SOL     OW33832   0.677   4.476  16.668 -0.1746 -0.2396 -0.2935
 7458SOL    HW133833   0.626   4.421  16.610  1.5859 -2.5890  0.3873
 7458SOL    HW233834   0.706   4.409  16.730 -0.4349 -0.1829 -0.1109
 7459SOL     OW33835   2.526   2.994  11.930 -0.1696 -0.4735  0.4408
 7459SOL    HW133836   2.449   3.050  11.919 -1.1173 -1.6707  1.0433
 7459SOL    HW233837   2.517   2.947  11.847  1.8817  0.4848 -0.3380
 7460SOL     OW33838   1.329   4.140  12.204  0.6675  0.2342 -0.4033
 7460SOL    HW133839   1.351   4.231  12.182 -0.4853  0.2018 -1.7308
 7460SOL    HW233840   1.383   4.104  12.133  1.1119 -0.3018  0.2075
 7461SOL     OW33841   3.302   2.883   8.769  0.0408  0.0325 -0.5472
 7461SOL    HW133842   3.250   2.831   8.707 -0.0596  1.2966 -1.5085
 7461SOL    HW233843   3.372   2.910   8.711  0.8185 -1.6059 -0.3856
 7462SOL     OW33844   3.852   2.708   3.821 -0.0157  0.8277  0.0641
 7462SOL    HW133845   3.893   2.622   3.827 -0.1173  0.7263 -0.6929
 7462SOL    HW233846   3.760   2.682   3.823  0.1829 -0.0036 -1.8106
 7463SOL     OW33847   0.683   3.333   6.174 -0.1419 -0.4507  0.4613
 7463SOL    HW133848   0.628   3.405   6.142  0.8052 -1.0988 -2.6268
 7463SOL    HW233849   0.704   3.285   6.095 -1.3018  1.3924 -0.9722
 7464SOL     OW33850   0.240   0.813   2.615  0.3127  0.3539 -0.5925
 7464SOL    HW133851   0.336   0.810   2.617  0.3473  1.0950 -1.1373
 7464SOL    HW233852   0.221   0.738   2.558  2.9814 -1.2618  0.6036
 7465SOL     OW33853   3.761   3.222   8.585 -0.0274  0.5696 -0.4405
 7465SOL    HW133854   3.807   3.280   8.646 -2.1735  0.8694  0.8749
 7465SOL    HW233855   3.732   3.289   8.523 -4.0285  0.1110  0.9143
 7466SOL     OW33856   4.714   1.783   8.177 -0.0431 -0.5513 -0.1641
 7466SOL    HW133857   4.709   1.747   8.266 -0.3121  1.1197  0.4884
 7466SOL    HW233858   4.626   1.772   8.141  0.0788  1.1445 -0.9797
 7467SOL     OW33859   4.073   2.158   8.765  0.9279 -0.2831  0.1085
 7467SOL    HW133860   4.055   2.252   8.763  1.3672 -0.1664  1.8763
 7467SOL    HW233861   4.163   2.154   8.795  1.0772  0.6964 -0.2127
 7468SOL     OW33862   3.149   4.199  16.337 -0.2231  0.3180 -0.1744
 7468SOL    HW133863   3.071   4.147  16.358 -1.2920  2.1753  0.4223
 7468SOL    HW233864   3.152   4.197  16.242  0.7703  0.8254 -0.1557
 7469SOL     OW33865   1.266   3.252  12.154 -0.3574  0.0086 -0.9097
 7469SOL    HW133866   1.245   3.325  12.212  0.9628  1.7244 -2.5850
 7469SOL    HW233867   1.361   3.264  12.146  0.0945 -4.9085 -2.7407
 7470SOL     OW33868   1.956   0.897   4.008  0.1237 -0.1039  0.3944
 7470SOL    HW133869   1.968   0.981   4.052  0.4470  0.3451 -0.5509
 7470SOL    HW233870   2.029   0.847   4.045  0.7771  1.1253  0.7602
 7471SOL     OW33871   2.591   3.463   5.728  0.4023  0.5731  0.0914
 7471SOL    HW133872   2.661   3.414   5.686  0.3326 -0.5297  1.2395
 7471SOL    HW233873   2.548   3.397   5.783  1.0610 -0.6305 -0.8504
 7472SOL     OW33874   3.275   4.474   5.500 -0.2947  0.4940  0.0748
 7472SOL    HW133875   3.337   4.403   5.515  1.0230  1.2511 -1.8259
 7472SOL    HW233876   3.212   4.428   5.445  0.0116 -0.3924  0.4680
 7473SOL     OW33877   3.747   2.882   4.437  0.4965  0.8085 -0.3131
 7473SOL    HW133878   3.772   2.796   4.404  0.1470  0.5936 -0.0148
 7473SOL    HW233879   3.652   2.880   4.438  0.4771  1.4637 -0.2188
 7474SOL     OW33880   2.596   3.216   5.066  0.0452 -0.2332  0.0012
 7474SOL    HW133881   2.628   3.299   5.030 -0.3801  0.1687  0.5495
 7474SOL    HW233882   2.508   3.241   5.096  0.2065 -0.6636  0.8346
 7475SOL     OW33883   2.460   4.252   8.378 -0.4039 -0.6944  0.8241
 7475SOL    HW133884   2.445   4.279   8.288  0.6578 -0.8882  0.5833
 7475SOL    HW233885   2.409   4.311   8.434  1.8321  1.3946  0.6544
 7476SOL     OW33886   1.419   2.315   2.939 -0.1688 -0.4284  0.2238
 7476SOL    HW133887   1.507   2.299   2.975 -0.3121  1.3936  1.3740
 7476SOL    HW233888   1.370   2.288   3.017 -3.7087  0.8013 -1.6178
 7477SOL     OW33889   3.763   3.753   6.602 -0.5970 -0.4742  0.2446
 7477SOL    HW133890   3.710   3.712   6.671 -0.9117  0.9850  0.8551
 7477SOL    HW233891   3.694   3.777   6.540 -1.7870 -0.3818  1.6053
 7478SOL     OW33892   1.534   1.386   8.436 -0.1893 -0.3911 -0.8672
 7478SOL    HW133893   1.627   1.407   8.427 -0.3983  0.0667 -2.0358
 7478SOL    HW233894   1.505   1.473   8.462 -1.1801 -0.3944 -1.9241
 7479SOL     OW33895   0.470   0.496   4.004 -0.3519 -0.4300 -0.3568
 7479SOL    HW133896   0.482   0.521   4.096 -0.7774 -0.6056 -0.2502
 7479SOL    HW233897   0.515   0.566   3.957 -1.3370  0.6268  0.2600
 7480SOL     OW33898   1.190   2.625   4.224 -0.1240  0.2679  0.9913
 7480SOL    HW133899   1.137   2.594   4.151  0.4560  1.0017  0.2561
 7480SOL    HW233900   1.273   2.581   4.205 -1.4674 -1.5566 -0.6444
 7481SOL     OW33901   1.198   2.946  15.624  0.4712 -0.1554  0.1641
 7481SOL    HW133902   1.111   2.922  15.656  0.2222  2.2744  1.3096
 7481SOL    HW233903   1.181   3.028  15.577 -1.4588 -0.7873 -0.2355
 7482SOL     OW33904   4.000   3.097   7.241  0.5284 -0.1818  0.1661
 7482SOL    HW133905   4.073   3.158   7.231 -0.4018  0.8445 -0.3456
 7482SOL    HW233906   4.010   3.057   7.155 -1.4906 -0.2670 -0.0088
 7483SOL     OW33907   1.496   2.557   6.492 -0.4201 -0.6274 -0.1468
 7483SOL    HW133908   1.549   2.478   6.483 -0.3882 -0.5757 -0.4097
 7483SOL    HW233909   1.497   2.587   6.583 -0.3280  0.4997 -0.5100
 7484SOL     OW33910   1.183   0.551   0.340  0.2573 -0.4511 -0.6201
 7484SOL    HW133911   1.241   0.514   0.273 -0.6667  1.6305 -2.5836
 7484SOL    HW233912   1.099   0.544   0.295 -1.2937  1.3729  2.0383
 7485SOL     OW33913   2.694   1.204  11.721 -0.1079  0.4987  0.1748
 7485SOL    HW133914   2.702   1.126  11.777  1.9160 -0.2160 -1.1208
 7485SOL    HW233915   2.767   1.185  11.663 -0.3496  3.5909 -1.1438
 7486SOL     OW33916   0.531   2.236  15.144  0.0239 -0.2066 -0.7106
 7486SOL    HW133917   0.500   2.254  15.055 -1.2562 -1.1191 -0.4500
 7486SOL    HW233918   0.451   2.254  15.195  0.7891  2.4294 -0.4311
 7487SOL     OW33919   4.263   2.787   8.848 -0.3443  0.3987 -0.6374
 7487SOL    HW133920   4.176   2.781   8.809 -1.3309  0.2174  1.6329
 7487SOL    HW233921   4.252   2.873   8.889  1.7304 -0.6377  2.0899
 7488SOL     OW33922   2.326   3.253   8.655 -0.3514 -0.2189 -0.1040
 7488SOL    HW133923   2.412   3.263   8.696 -0.0466  0.6800 -0.9538
 7488SOL    HW233924   2.351   3.234   8.565  0.6156 -0.7821  0.2794
 7489SOL     OW33925   1.858   2.133   9.543 -0.2405  0.1948  0.1018
 7489SOL    HW133926   1.780   2.187   9.551 -0.5467 -0.0829 -1.0407
 7489SOL    HW233927   1.846   2.066   9.611 -0.0220  1.9311  1.8327
 7490SOL     OW33928   3.788   2.133   5.992 -0.8340  0.4771 -0.0287
 7490SOL    HW133929   3.832   2.182   5.923  0.4397 -0.5507  0.0462
 7490SOL    HW233930   3.773   2.052   5.943 -0.9919 -0.5500  1.7172
 7491SOL     OW33931   3.657   0.060   7.282  0.5658 -0.2956  0.6794
 7491SOL    HW133932   3.651   4.716   7.213  3.0333 -1.0380  1.1705
 7491SOL    HW233933   3.721   0.023   7.342  0.9848  0.7694  0.8811
 7492SOL     OW33934   1.308   4.659  12.785 -0.0658 -0.3527  0.3430
 7492SOL    HW133935   1.303   4.574  12.740  2.4257 -1.6858  2.5964
 7492SOL    HW233936   1.347   4.641  12.870  0.3589  2.5249  0.7636
 7493SOL     OW33937   1.006   1.221   2.830 -0.2171  0.0551  0.1104
 7493SOL    HW133938   1.039   1.216   2.920  0.8179  1.3411 -0.1855
 7493SOL    HW233939   0.938   1.288   2.840 -0.7828 -0.9359  2.7714
 7494SOL     OW33940   3.553   3.055  11.155  0.2746  0.0690  0.2893
 7494SOL    HW133941   3.639   3.022  11.183  0.0663  1.9697  3.2597
 7494SOL    HW233942   3.507   2.976  11.128  2.0272 -0.5879 -0.7501
 7495SOL     OW33943   0.281   0.243   5.768  0.4409  0.3407  0.0131
 7495SOL    HW133944   0.267   0.328   5.728 -2.6351  0.8502  2.1731
 7495SOL    HW233945   0.197   0.206   5.743  0.2024 -0.4242  1.9656
 7496SOL     OW33946   1.491   1.058  13.145 -0.0123  0.0987  0.3567
 7496SOL    HW133947   1.451   1.144  13.133 -0.1647 -0.2751 -1.7509
 7496SOL    HW233948   1.574   1.077  13.102 -0.7199  3.4163  0.4382
 7497SOL     OW33949   0.006   2.577   5.500 -0.0987  0.2476 -0.5938
 7497SOL    HW133950   0.043   2.625   5.574  0.1266 -2.7660  1.2538
 7497SOL    HW233951   4.693   2.507   5.555  0.9617  0.7639  0.7543
 7498SOL     OW33952   4.311   2.881   7.132 -0.0331 -0.1266 -0.3141
 7498SOL    HW133953   4.362   2.867   7.052 -1.7283  1.4812 -1.6852
 7498SOL    HW233954   4.227   2.914   7.101 -1.7027 -2.4962  1.6785
 7499SOL     OW33955   1.024   3.941  12.530  0.1990 -0.3742  0.1280
 7499SOL    HW133956   0.967   3.988  12.590  1.1109  0.7419  0.1174
 7499SOL    HW233957   1.072   4.020  12.506 -1.1300  0.2686 -0.4144
 7500SOL     OW33958   2.089   3.026   2.571 -0.0825 -0.1669  0.5798
 7500SOL    HW133959   2.082   3.105   2.625  0.3209  0.9772 -1.0355
 7500SOL    HW233960   2.002   2.985   2.577  0.5746 -1.5798  0.3395
 7501SOL     OW33961   1.632   0.853   5.704 -0.4368  0.3659 -0.2776
 7501SOL    HW133962   1.546   0.814   5.683  0.0082 -0.8949  0.2061
 7501SOL    HW233963   1.654   0.902   5.626 -1.9858 -0.6924 -1.3935
 7502SOL     OW33964   3.391   2.636   0.845 -0.5928 -0.3134  0.3955
 7502SOL    HW133965   3.300   2.625   0.872 -0.7702 -0.8825 -0.4633
 7502SOL    HW233966   3.423   2.551   0.875  3.2250  0.1420 -2.4075
 7503SOL     OW33967   3.133   0.185   4.700 -0.1633 -0.0019  0.3719
 7503SOL    HW133968   3.115   0.124   4.772 -0.8327  0.9030  0.9802
 7503SOL    HW233969   3.161   0.116   4.639  0.1061  0.0576  0.4308
 7504SOL     OW33970   1.186   0.118   0.652 -0.7168  0.3769  0.0907
 7504SOL    HW133971   1.152   0.154   0.734 -3.1282 -0.0614 -0.7135
 7504SOL    HW233972   1.211   0.201   0.611 -0.2411 -0.1236 -0.6436
 7505SOL     OW33973   0.437   1.752   4.470 -0.1476  0.4431 -0.1822
 7505SOL    HW133974   0.347   1.744   4.503 -0.3364 -1.5456 -1.1938
 7505SOL    HW233975   0.460   1.664   4.442  2.0394  0.6139  1.0717
 7506SOL     OW33976   2.147   4.424   3.459 -0.1130  0.3656 -0.2419
 7506SOL    HW133977   2.227   4.373   3.466  0.6084  1.6910  1.1284
 7506SOL    HW233978   2.085   4.353   3.473 -0.2105  0.9955  2.3972
 7507SOL     OW33979   0.826   2.016   9.334 -0.3508 -0.0092 -0.0392
 7507SOL    HW133980   0.914   2.025   9.298 -0.8826 -1.0675 -1.6744
 7507SOL    HW233981   0.803   1.932   9.293  1.5300 -0.0664 -0.9510
 7508SOL     OW33982   2.843   3.291   8.328 -0.3260  0.2647  0.4835
 7508SOL    HW133983   2.808   3.320   8.413 -0.2032  0.3376  0.5094
 7508SOL    HW233984   2.819   3.369   8.277  0.4234 -0.8078 -1.4885
 7509SOL     OW33985   2.514   1.600  14.756  0.2301  0.2330 -0.0623
 7509SOL    HW133986   2.426   1.565  14.769  0.2727  0.0183 -0.3634
 7509SOL    HW233987   2.550   1.609  14.845 -0.6521 -1.5079  0.4693
 7510SOL     OW33988   4.610   2.084   7.722 -0.6014 -0.0008  0.1322
 7510SOL    HW133989   4.596   2.091   7.816 -0.0068  1.4046  0.1122
 7510SOL    HW233990   4.698   2.046   7.718 -0.6373 -0.0717  0.0125
 7511SOL     OW33991   0.254   0.107   2.723 -0.0192 -0.4881 -0.7051
 7511SOL    HW133992   0.184   0.053   2.687  1.5897 -2.3015 -1.1158
 7511SOL    HW233993   0.213   0.125   2.808  1.1146  1.5366 -0.5959
 7512SOL     OW33994   1.396   4.404   5.252  0.3237  0.3442  0.3460
 7512SOL    HW133995   1.396   4.433   5.160  1.3506  0.2694  0.3246
 7512SOL    HW233996   1.303   4.407   5.275  0.7545 -0.0124  2.1111
 7513SOL     OW33997   1.745   1.557   6.403 -0.4783  0.0124 -0.3640
 7513SOL    HW133998   1.751   1.597   6.316  0.1957  0.1573 -0.2515
 7513SOL    HW233999   1.711   1.473   6.372 -1.2142  0.2009 -0.0584
 7514SOL     OW34000   4.688   0.124   9.428  0.5137 -0.1303 -0.5962
 7514SOL    HW134001   0.038   0.177   9.396  0.4285  1.0504  1.1890
 7514SOL    HW234002   4.609   0.177   9.420 -0.2678 -0.9978  1.3203
 7515SOL     OW34003   2.468   0.477   4.570  0.5962 -0.6550 -0.2671
 7515SOL    HW134004   2.489   0.475   4.477  0.8287  0.0614 -0.2261
 7515SOL    HW234005   2.445   0.569   4.579  1.7010 -0.6766  2.8869
 7516SOL     OW34006   1.817   3.391   2.644 -0.1562  0.6849  0.2042
 7516SOL    HW134007   1.897   3.389   2.591 -1.1895 -0.2422 -1.3266
 7516SOL    HW234008   1.752   3.353   2.585  0.7607  1.6965 -1.4615
 7517SOL     OW34009   3.758   0.325   5.851  0.1325  0.6447  0.0583
 7517SOL    HW134010   3.723   0.255   5.907 -0.3606  1.4560  0.7619
 7517SOL    HW234011   3.748   0.270   5.774 -3.7672  0.5736  0.6195
 7518SOL     OW34012   4.141   4.407   9.336 -0.8431  0.2124 -0.5885
 7518SOL    HW134013   4.112   4.469   9.403  0.7603  0.6278 -0.2909
 7518SOL    HW234014   4.054   4.386   9.300 -0.4294 -1.8036 -0.4402
 7519SOL     OW34015   2.453   2.987   0.738  0.0398  0.7052  0.2863
 7519SOL    HW134016   2.508   3.018   0.667  1.2636  0.3120  1.0520
 7519SOL    HW234017   2.429   2.900   0.707  0.8981  0.7580 -0.4965
 7520SOL     OW34018   0.431   3.450   6.494  0.7562  0.0046  0.1227
 7520SOL    HW134019   0.522   3.438   6.469  1.2495 -1.4966  2.6683
 7520SOL    HW234020   0.441   3.422   6.585  1.1492  0.5367  0.2449
 7521SOL     OW34021   4.165   0.930   2.642  0.5499 -0.2228 -0.4054
 7521SOL    HW134022   4.113   1.009   2.654 -0.1908 -0.7530 -0.1141
 7521SOL    HW234023   4.152   0.907   2.550 -0.7815  0.3342 -0.3462
 7522SOL     OW34024   0.414   0.673   3.296  0.4110  0.1578  0.3648
 7522SOL    HW134025   0.332   0.683   3.248  1.1193  2.9059 -0.3292
 7522SOL    HW234026   0.449   0.753   3.255 -1.5066  0.3771 -0.8586
 7523SOL     OW34027   3.187   4.126   7.473  0.2247 -0.3640 -0.6110
 7523SOL    HW134028   3.132   4.096   7.545  0.1906  1.7149  0.2227
 7523SOL    HW234029   3.160   4.067   7.403  1.6085  0.5204 -1.8866
 7524SOL     OW34030   3.107   1.375   8.630  0.5582 -0.3409  0.7256
 7524SOL    HW134031   3.137   1.302   8.685  1.2705 -0.4032  0.2557
 7524SOL    HW234032   3.087   1.438   8.699  0.4813  0.2556  0.1534
 7525SOL     OW34033   2.339   3.095   5.189 -0.0989  1.1268  0.4307
 7525SOL    HW134034   2.345   3.128   5.278 -0.0643 -1.0459  1.2399
 7525SOL    HW234035   2.268   3.148   5.153  0.0708  1.0230 -0.0586
 7526SOL     OW34036   1.164   1.513   4.467 -0.0273  0.1573 -0.0168
 7526SOL    HW134037   1.114   1.591   4.444  2.7084  1.8594 -0.1062
 7526SOL    HW234038   1.205   1.549   4.546  0.4422 -0.5742  0.0742
 7527SOL     OW34039   1.294   2.780   7.213 -0.5583  0.4681  0.0058
 7527SOL    HW134040   1.278   2.822   7.297 -0.6579 -0.5401  0.4860
 7527SOL    HW234041   1.316   2.689   7.234 -1.0589  0.7605  1.8166
 7528SOL     OW34042   4.201   0.368   3.277 -0.3086  0.3837  0.0414
 7528SOL    HW134043   4.269   0.385   3.341 -0.1238  2.7222 -0.7722
 7528SOL    HW234044   4.179   0.458   3.250 -3.6218 -0.3880  0.0971
 7529SOL     OW34045   1.230   2.992   5.166  0.6725 -0.1595 -0.4439
 7529SOL    HW134046   1.307   2.986   5.110  0.5675 -0.1407 -0.5899
 7529SOL    HW234047   1.182   2.921   5.124 -1.7797 -0.0772  2.2075
 7530SOL     OW34048   1.593   4.632   4.061  0.2177 -0.0657  0.2297
 7530SOL    HW134049   1.566   4.706   4.007  0.0233  0.4803  1.0734
 7530SOL    HW234050   1.605   4.562   3.997 -1.3517  0.3795 -0.5641
 7531SOL     OW34051   1.038   1.814  11.752  0.0595 -0.0623  0.5182
 7531SOL    HW134052   0.980   1.833  11.826  1.0322  1.8113  0.7926
 7531SOL    HW234053   1.114   1.770  11.790 -0.2941 -1.1106 -0.0097
 7532SOL     OW34054   3.837   3.373  15.776 -0.3454 -0.3401 -0.1858
 7532SOL    HW134055   3.831   3.444  15.712  2.6332  1.4226  1.4817
 7532SOL    HW234056   3.825   3.295  15.722  2.3877 -1.9993  1.5960
 7533SOL     OW34057   2.787   0.133   5.687  0.2694 -0.0875 -0.4938
 7533SOL    HW134058   2.738   0.075   5.628  0.7386  0.3485 -1.3185
 7533SOL    HW234059   2.839   0.172   5.616  1.4333  1.7214  1.3649
 7534SOL     OW34060   2.492   4.251   4.333 -0.4907  0.1790  0.2946
 7534SOL    HW134061   2.491   4.280   4.242 -0.6223  1.6238  0.7615
 7534SOL    HW234062   2.496   4.336   4.376 -0.7781  0.6646 -0.6442
 7535SOL     OW34063   4.712   0.380   7.089  0.2716  0.2312 -0.2682
 7535SOL    HW134064   0.034   0.387   7.174 -3.0043 -0.6903  1.5254
 7535SOL    HW234065   4.624   0.403   7.117  0.0138 -1.1898  0.0959
 7536SOL     OW34066   1.480   3.362  11.228 -0.1190  0.2995 -0.6064
 7536SOL    HW134067   1.418   3.289  11.229 -1.4797  1.4262 -0.8794
 7536SOL    HW234068   1.561   3.318  11.249 -0.3094 -1.0851 -2.7353
 7537SOL     OW34069   0.458   0.142  16.178  0.1878 -0.5969 -0.7636
 7537SOL    HW134070   0.401   0.087  16.125  0.3238 -0.6339 -0.8714
 7537SOL    HW234071   0.439   0.232  16.151  1.1922  0.2556  1.4150
 7538SOL     OW34072   2.173   4.029   4.014  0.7304 -0.0298  0.5598
 7538SOL    HW134073   2.122   4.106   4.039  0.4560 -0.7803  2.2858
 7538SOL    HW234074   2.114   3.994   3.947 -0.1582  1.6863  0.4447
 7539SOL     OW34075   2.070   4.550   0.705  0.7349 -0.0070  0.4061
 7539SOL    HW134076   2.117   4.615   0.652 -1.7409  1.2960 -0.2196
 7539SOL    HW234077   1.997   4.519   0.652  1.1056 -0.6282  0.2626
 7540SOL     OW34078   3.579   3.689   5.743 -0.2285  0.2493  0.0549
 7540SOL    HW134079   3.657   3.634   5.734 -0.3910  0.0835 -0.3312
 7540SOL    HW234080   3.510   3.623   5.753  1.5989 -1.4751  1.2116
 7541SOL     OW34081   3.830   0.245  17.467  0.4513 -0.7864 -0.3280
 7541SOL    HW134082   3.744   0.232  17.508 -0.0350  1.3758 -0.6391
 7541SOL    HW234083   3.845   0.161  17.423 -0.6856 -0.5083 -1.2664
 7542SOL     OW34084   3.102   0.845   6.614 -0.8023 -0.3153  0.2071
 7542SOL    HW134085   3.119   0.921   6.668  0.6140 -0.8770  0.5356
 7542SOL    HW234086   3.136   0.883   6.533 -3.7427 -1.4334 -1.5630
 7543SOL     OW34087   1.355   1.801   9.383 -0.7537 -0.2757 -0.7004
 7543SOL    HW134088   1.309   1.719   9.397  0.1405 -0.4456  1.3798
 7543SOL    HW234089   1.395   1.820   9.468  0.7454 -1.3880 -1.1583
 7544SOL     OW34090   2.762   1.986   1.728  0.1992 -0.2713  0.5457
 7544SOL    HW134091   2.716   1.994   1.812  0.5516  0.5878  0.6664
 7544SOL    HW234092   2.841   2.038   1.740 -0.1364  0.3899 -0.1027
 7545SOL     OW34093   0.375   3.995   1.498  0.2601 -0.2985  0.4154
 7545SOL    HW134094   0.345   3.998   1.589 -0.2506 -1.4722  0.2870
 7545SOL    HW234095   0.374   3.901   1.479  0.3993  0.0966 -1.5824
 7546SOL     OW34096   4.086   4.534   6.339 -0.4862  0.2454 -0.0024
 7546SOL    HW134097   4.128   4.597   6.281  0.8882 -2.2109 -1.6789
 7546SOL    HW234098   4.166   4.500   6.377 -0.8397 -4.0835 -3.1693
 7547SOL     OW34099   3.062   3.121   3.566 -0.9785 -0.0590  0.4049
 7547SOL    HW134100   3.079   3.200   3.617  3.4357  1.0411 -2.8291
 7547SOL    HW234101   3.005   3.159   3.499 -1.6576  0.6755  1.4056
 7548SOL     OW34102   2.500   1.818   9.328 -0.0803  0.4682  0.7507
 7548SOL    HW134103   2.501   1.723   9.318  0.6089  0.5897 -0.2409
 7548SOL    HW234104   2.415   1.836   9.370  0.2032  1.6363  0.8093
 7549SOL     OW34105   3.482   1.669  15.525  0.1193  0.0397 -0.4203
 7549SOL    HW134106   3.455   1.732  15.592 -1.0192 -0.9331  0.0308
 7549SOL    HW234107   3.402   1.648  15.477 -0.3724 -0.1825  0.4970
 7550SOL     OW34108   4.039   1.150   2.735  0.1403  0.0999  0.2886
 7550SOL    HW134109   4.088   1.214   2.787 -1.9147  1.9216 -0.0652
 7550SOL    HW234110   3.953   1.151   2.777 -0.2476  1.1968 -0.5381
 7551SOL     OW34111   4.114   3.398  12.420 -0.4640 -0.0802 -0.3189
 7551SOL    HW134112   4.126   3.372  12.329  0.4803 -1.3913  0.1856
 7551SOL    HW234113   4.019   3.411  12.422 -0.4362  0.1251 -0.3450
 7552SOL     OW34114   0.212   3.084   8.918  0.2564  0.4218  0.1516
 7552SOL    HW134115   0.134   3.138   8.931 -0.2253 -0.2469  0.0358
 7552SOL    HW234116   0.281   3.141   8.954 -0.3381  1.5300 -0.4489
 7553SOL     OW34117   1.276   3.108  11.187  0.1083 -0.0698  0.3325
 7553SOL    HW134118   1.300   3.101  11.279  1.2784 -0.6337 -0.0127
 7553SOL    HW234119   1.191   3.066  11.197 -0.1900  0.3881 -0.2421
 7554SOL     OW34120   4.714   2.717   2.878  0.0453  0.1967  0.3951
 7554SOL    HW134121   0.016   2.715   2.786  2.9691  0.2458  1.1924
 7554SOL    HW234122   4.676   2.630   2.883  1.5040 -0.5231 -1.3787
 7555SOL     OW34123   1.880   4.706   9.026  0.3570 -0.1917  0.1682
 7555SOL    HW134124   1.888   4.667   9.113 -0.7361  1.2706  0.9316
 7555SOL    HW234125   1.909   4.629   8.977  0.6667  0.1766 -0.2274
 7556SOL     OW34126   0.544   3.356   6.737 -0.4078 -0.0133 -0.0005
 7556SOL    HW134127   0.637   3.377   6.739  0.1538 -2.5507  1.3373
 7556SOL    HW234128   0.503   3.424   6.791  0.5212 -0.6614  1.5368
 7557SOL     OW34129   2.483   2.655   8.748  0.1961 -0.4033 -0.7034
 7557SOL    HW134130   2.578   2.662   8.738  0.3501 -0.0631  0.8938
 7557SOL    HW234131   2.481   2.577   8.804  1.1753 -0.7329 -1.1278
 7558SOL     OW34132   0.049   2.752   9.191 -0.0476 -0.0554  0.3894
 7558SOL    HW134133   4.693   2.726   9.238  0.0893 -2.5203 -0.7491
 7558SOL    HW234134   0.011   2.810   9.125 -1.5160  1.4172  2.5488
 7559SOL     OW34135   1.305   4.460   9.496 -0.0234 -0.0761  0.2799
 7559SOL    HW134136   1.346   4.543   9.519  1.0011 -0.7183  0.7365
 7559SOL    HW234137   1.297   4.473   9.401  2.2789 -2.2398 -0.1958
 7560SOL     OW34138   1.460   1.458   3.159  0.0692 -0.1532 -0.2228
 7560SOL    HW134139   1.452   1.534   3.217  2.0195 -1.6109  1.9926
 7560SOL    HW234140   1.380   1.457   3.108 -0.3530 -1.9110  0.5012
 7561SOL     OW34141   0.482   1.437  17.123 -0.6993 -0.1092 -0.2158
 7561SOL    HW134142   0.411   1.373  17.124 -1.0059  0.2640  1.1385
 7561SOL    HW234143   0.483   1.456  17.029 -0.7752 -1.5879 -0.5188
 7562SOL     OW34144   4.636   2.817   7.094  0.4528  0.1188  0.4895
 7562SOL    HW134145   4.589   2.755   7.149 -0.5114 -0.3777 -0.8887
 7562SOL    HW234146   4.619   2.760   7.019  1.0792  1.3983 -0.6402
 7563SOL     OW34147   2.630   1.950   9.618 -0.5764  0.2672  0.1038
 7563SOL    HW134148   2.633   1.996   9.534 -1.9703 -0.3720 -0.2817
 7563SOL    HW234149   2.655   1.862   9.590  1.9542  0.9890  0.0517
 7564SOL     OW34150   4.385   3.848   4.165 -0.1968  0.4658  0.0805
 7564SOL    HW134151   4.463   3.810   4.206  0.1708  1.6209  0.4428
 7564SOL    HW234152   4.376   3.788   4.090  1.0508  0.4671 -0.0763
 7565SOL     OW34153   2.439   2.451   9.794 -0.4729  0.3754 -0.0971
 7565SOL    HW134154   2.518   2.457   9.740 -0.2765 -1.6035 -0.0446
 7565SOL    HW234155   2.413   2.359   9.782 -2.2885  1.1381 -1.9146
 7566SOL     OW34156   4.199   2.908   5.038 -0.0343 -0.0850  0.3204
 7566SOL    HW134157   4.214   2.819   5.070  0.6080 -0.1785 -0.2486
 7566SOL    HW234158   4.203   2.956   5.121 -0.5987  1.2397 -0.4182
 7567SOL     OW34159   2.834   1.168   7.019  0.5271 -0.2717  0.1553
 7567SOL    HW134160   2.742   1.193   7.023  0.0619 -1.8461 -0.6757
 7567SOL    HW234161   2.831   1.088   6.965 -0.4254 -0.3272  0.2940
 7568SOL     OW34162   0.029   2.772   8.528  0.1669  0.3174 -0.2505
 7568SOL    HW134163   4.701   2.698   8.496  1.1476 -0.9847  1.2192
 7568SOL    HW234164   0.083   2.728   8.594 -0.3118 -0.6592 -0.5112
 7569SOL     OW34165   4.010   0.754  10.250 -0.6805  0.0637 -0.0120
 7569SOL    HW134166   4.030   0.813  10.177 -0.5894 -0.4279 -0.3792
 7569SOL    HW234167   4.094   0.738  10.292 -1.5788 -0.2257  1.6442
 7570SOL     OW34168   1.180   3.070   4.867 -0.3703  0.2597  0.0471
 7570SOL    HW134169   1.141   3.040   4.949  1.3239  0.3213  0.8799
 7570SOL    HW234170   1.172   3.164   4.881 -1.4959  0.2332 -0.4461
 7571SOL     OW34171   3.401   4.471   0.031  0.0175 -0.1570  0.2708
 7571SOL    HW134172   3.306   4.482   0.028  0.0240 -0.8026 -3.3663
 7571SOL    HW234173   3.427   4.513  17.642  2.7313 -1.5487  0.3945
 7572SOL     OW34174   2.046   4.212   6.546 -0.2433 -0.5996  0.2081
 7572SOL    HW134175   2.066   4.129   6.590 -1.3647 -0.6767  0.5605
 7572SOL    HW234176   2.009   4.180   6.464  0.5651 -3.4839  0.9574
 7573SOL     OW34177   3.885   2.966   6.228  0.4916  0.3694  0.3654
 7573SOL    HW134178   3.905   2.949   6.136 -1.6939 -1.4933  0.2214
 7573SOL    HW234179   3.855   2.878   6.251  0.2895  0.1603 -0.6720
 7574SOL     OW34180   1.912   3.628   1.923  0.1869  0.4178 -0.6173
 7574SOL    HW134181   1.902   3.537   1.952  0.6165  1.0665  1.5414
 7574SOL    HW234182   1.975   3.617   1.852  1.5053 -1.0870  0.7728
 7575SOL     OW34183   2.320   2.214   5.876  0.5705  0.0019 -0.1370
 7575SOL    HW134184   2.242   2.242   5.923  1.0647 -1.0464  1.3377
 7575SOL    HW234185   2.284   2.166   5.802  1.5197  0.2972 -0.7878
 7576SOL     OW34186   1.918   4.613   9.274 -0.3574 -0.2611 -0.2547
 7576SOL    HW134187   1.867   4.544   9.316 -0.5946 -1.2892 -2.2383
 7576SOL    HW234188   2.008   4.594   9.300 -0.7209 -2.2562 -0.4468
 7577SOL     OW34189   2.907   0.867   4.951  0.3491 -0.0217 -0.0551
 7577SOL    HW134190   2.990   0.887   4.907 -0.1707  0.8990 -0.6290
 7577SOL    HW234191   2.937   0.869   5.042  1.0525 -0.1369 -0.2829
 7578SOL     OW34192   3.878   3.067   2.931 -0.9801  0.2011  0.0087
 7578SOL    HW134193   3.942   3.129   2.967 -1.3658  1.2250 -1.0296
 7578SOL    HW234194   3.893   3.069   2.836  1.0167 -0.8416  0.3014
 7579SOL     OW34195   2.520   4.324   7.632 -0.2085  0.3820 -0.2489
 7579SOL    HW134196   2.482   4.397   7.680 -0.5498  1.0037 -1.4672
 7579SOL    HW234197   2.448   4.261   7.640 -1.0362  1.2630 -0.8492
 7580SOL     OW34198   4.432   2.003   5.819  0.1424  0.1743 -0.1523
 7580SOL    HW134199   4.351   1.981   5.773  0.7403  0.2161 -1.2166
 7580SOL    HW234200   4.483   1.930   5.783  1.2711  1.3238 -0.8309
 7581SOL     OW34201   0.142   2.420  11.312 -0.2058 -0.0411 -0.4236
 7581SOL    HW134202   0.166   2.503  11.270  1.5526 -0.3021  0.0732
 7581SOL    HW234203   0.189   2.360  11.253  0.9737  1.3202 -0.8815
 7582SOL     OW34204   0.321   2.175   5.881 -0.3346 -0.0556 -0.5527
 7582SOL    HW134205   0.242   2.178   5.828 -1.1657  0.1225  0.6823
 7582SOL    HW234206   0.376   2.242   5.841 -3.4414  3.6590  1.3648
 7583SOL     OW34207   2.007   2.729   1.140  0.0716 -0.6719 -0.5895
 7583SOL    HW134208   1.961   2.742   1.057 -0.7902  0.0637 -0.0047
 7583SOL    HW234209   2.087   2.686   1.112  1.9836  0.5038  3.0962
 7584SOL     OW34210   1.273   3.026  10.861 -0.2253  0.3122 -0.1040
 7584SOL    HW134211   1.255   3.120  10.852 -1.7269 -0.0240 -0.6864
 7584SOL    HW234212   1.190   2.984  10.841  0.7368 -1.4093 -0.4433
 7585SOL     OW34213   2.768   4.428   6.199 -0.4579  0.2150 -0.0368
 7585SOL    HW134214   2.775   4.366   6.271 -2.4755  1.2196  1.0055
 7585SOL    HW234215   2.836   4.398   6.138  1.6915  2.7347  1.1346
 7586SOL     OW34216   4.129   2.424   8.370  0.3168 -0.4491  0.2687
 7586SOL    HW134217   4.035   2.419   8.391  0.5502 -1.3066  1.1417
 7586SOL    HW234218   4.160   2.491   8.430 -0.8353  1.3291 -1.1465
 7587SOL     OW34219   3.850   1.285  13.774 -0.3452  0.0693  0.2774
 7587SOL    HW134220   3.886   1.200  13.797 -0.7405  0.3894  2.0869
 7587SOL    HW234221   3.798   1.298  13.854 -0.1061 -0.6781  0.5452
 7588SOL     OW34222   0.679   4.391  13.611  0.2618  0.3085 -0.0432
 7588SOL    HW134223   0.673   4.323  13.544 -2.5193  1.5252 -1.0213
 7588SOL    HW234224   0.773   4.383  13.628  0.4929  0.5776 -1.2144
 7589SOL     OW34225   3.212   2.239  17.652  0.0125  0.1982  0.2092
 7589SOL    HW134226   3.246   2.235  17.562 -1.3372  0.0417 -0.2906
 7589SOL    HW234227   3.141   2.302  17.646 -1.0458 -1.1132 -0.9661
 7590SOL     OW34228   0.022   1.028   4.407 -0.2719 -0.5651  0.4077
 7590SOL    HW134229   0.038   0.949   4.356 -2.8351  0.0913 -1.4557
 7590SOL    HW234230   4.670   1.001   4.461 -0.8318  0.0653 -0.0359
 7591SOL     OW34231   2.261   2.996  13.269 -0.0345  0.3481 -0.0402
 7591SOL    HW134232   2.171   2.964  13.268 -0.1818  0.7063  3.6328
 7591SOL    HW234233   2.300   2.944  13.339  1.3496  0.4019 -0.7616
 7592SOL     OW34234   2.792   3.228   6.412  0.7236 -0.2229  0.1172
 7592SOL    HW134235   2.846   3.150   6.400  1.7245  0.4491  0.2447
 7592SOL    HW234236   2.771   3.211   6.504 -0.2676 -1.5959 -0.3674
 7593SOL     OW34237   1.641   4.645  13.363 -0.0863  0.6849  0.1397
 7593SOL    HW134238   1.587   4.716  13.327  1.9243  2.4039  0.5510
 7593SOL    HW234239   1.722   4.645  13.311 -0.0596  0.3152  0.1813
 7594SOL     OW34240   4.134   0.430  15.851 -0.2182  0.1184 -0.0140
 7594SOL    HW134241   4.046   0.421  15.814 -1.3591 -1.0517  2.9438
 7594SOL    HW234242   4.120   0.505  15.908 -1.1608 -0.0514 -0.0218
 7595SOL     OW34243   1.671   1.791   9.536  0.0776  0.0231 -0.4841
 7595SOL    HW134244   1.582   1.816   9.559 -0.3487 -0.7435 -1.3106
 7595SOL    HW234245   1.666   1.698   9.514 -1.8759  0.5011 -2.0743
 7596SOL     OW34246   4.221   0.389   8.611 -0.0302  0.7192  0.0892
 7596SOL    HW134247   4.237   0.294   8.609 -0.5262  0.5792  2.0556
 7596SOL    HW234248   4.198   0.397   8.519  0.2285 -0.6885 -0.0958
 7597SOL     OW34249   4.607   2.467   2.868 -0.3015 -0.4389  0.0904
 7597SOL    HW134250   4.538   2.445   2.805  0.2956  1.1573 -1.1280
 7597SOL    HW234251   4.563   2.459   2.952 -0.8437  1.9553  0.0195
 7598SOL     OW34252   2.620   0.519   4.934  0.1339 -0.3172  0.2162
 7598SOL    HW134253   2.539   0.562   4.961 -0.0887 -1.9121  2.0840
 7598SOL    HW234254   2.586   0.449   4.878  0.7846 -1.1541  0.8516
 7599SOL     OW34255   1.809   1.698   4.429  0.1339  0.2763 -0.1469
 7599SOL    HW134256   1.731   1.690   4.373 -1.1816 -1.1688  1.8883
 7599SOL    HW234257   1.791   1.778   4.479  0.4542  0.9749 -1.1260
 7600SOL     OW34258   1.543   3.900   7.789  0.0776 -0.3193 -0.5048
 7600SOL    HW134259   1.524   3.934   7.702 -0.4284  1.2292  0.1933
 7600SOL    HW234260   1.535   3.807   7.768  1.0292 -0.9286  1.8221
 7601SOL     OW34261   0.326   3.542   3.979  0.4042  0.5392  0.9631
 7601SOL    HW134262   0.265   3.616   3.982  1.4773  1.4507  0.1907
 7601SOL    HW234263   0.412   3.583   3.980  0.3439  0.6769  0.5229
 7602SOL     OW34264   1.411   0.677  10.986  0.3537 -0.4153  0.5905
 7602SOL    HW134265   1.362   0.632  10.917  1.0135 -2.9011  1.7374
 7602SOL    HW234266   1.355   0.753  11.005 -0.3692 -0.3052 -1.9848
 7603SOL     OW34267   2.373   2.498   7.995  0.3148 -0.7328 -0.2155
 7603SOL    HW134268   2.432   2.536   7.930 -0.4761  1.6741  0.4884
 7603SOL    HW234269   2.397   2.554   8.069  1.8090 -0.3447 -0.9848
 7604SOL     OW34270   1.976   1.029   5.826  0.0783  0.0277 -0.4227
 7604SOL    HW134271   1.987   0.952   5.771  4.5764  0.0874  0.3592
 7604SOL    HW234272   2.062   1.023   5.868 -0.8697  0.6805  1.5997
 7605SOL     OW34273   3.463   3.630   8.656 -0.3566  0.3122 -0.3195
 7605SOL    HW134274   3.500   3.645   8.569 -3.3436  0.5491 -1.5608
 7605SOL    HW234275   3.532   3.584   8.703 -2.0366 -3.6617 -1.8186
 7606SOL     OW34276   3.325   2.438   3.382  0.1994 -0.6761 -0.3233
 7606SOL    HW134277   3.407   2.423   3.428 -0.4148  1.4729  1.4575
 7606SOL    HW234278   3.351   2.402   3.297  1.1374  0.0640 -0.3438
 7607SOL     OW34279   2.301   3.217   6.828 -0.2937  0.7614  0.0087
 7607SOL    HW134280   2.335   3.275   6.897  1.1671  1.5363 -1.3586
 7607SOL    HW234281   2.257   3.154   6.885 -0.3014 -0.4678 -1.3695
 7608SOL     OW34282   3.827   3.261   5.986  0.4255  0.3648  0.2365
 7608SOL    HW134283   3.869   3.176   5.998 -0.4749  0.1287  1.8641
 7608SOL    HW234284   3.833   3.273   5.892  1.7348 -1.0983  0.1458
 7609SOL     OW34285   4.569   0.606   2.894 -0.3695  0.1940  0.2808
 7609SOL    HW134286   4.606   0.551   2.824  2.2106  1.6833  0.4768
 7609SOL    HW234287   4.640   0.671   2.897  1.1219 -1.4515  0.6874
 7610SOL     OW34288   4.310   4.308   7.292  0.3788  0.2973  0.4127
 7610SOL    HW134289   4.336   4.400   7.286  3.3302 -0.4257  1.6524
 7610SOL    HW234290   4.233   4.324   7.347 -0.9284 -1.2490 -0.9858
 7611SOL     OW34291   4.591   0.977   3.033 -0.0329 -0.1849 -0.4494
 7611SOL    HW134292   4.583   1.072   3.041  1.1774 -0.2329  1.3955
 7611SOL    HW234293   4.610   0.965   2.940 -2.2053  0.5267 -0.9746
 7612SOL     OW34294   3.196   2.525   8.206 -0.0057  0.4653 -0.1558
 7612SOL    HW134295   3.144   2.503   8.129  1.9318 -2.9028 -0.4848
 7612SOL    HW234296   3.260   2.589   8.173 -0.4162 -0.1858 -2.2012
 7613SOL     OW34297   2.141   1.648   7.844 -0.0867 -0.9705  0.0193
 7613SOL    HW134298   2.078   1.636   7.916 -0.8804  2.0637 -0.1816
 7613SOL    HW234299   2.222   1.618   7.885  1.3146  3.1676  0.2863
 7614SOL     OW34300   4.228   1.828   1.749  0.3017  0.0833 -0.1388
 7614SOL    HW134301   4.210   1.770   1.675 -2.3376  0.4219  0.2459
 7614SOL    HW234302   4.322   1.841   1.735  1.0169 -1.7227  3.1309
 7615SOL     OW34303   2.346   3.039   1.470  0.5365  0.3647 -0.1834
 7615SOL    HW134304   2.314   2.974   1.533  0.4326 -1.3257 -1.9925
 7615SOL    HW234305   2.287   3.013   1.399  0.6460  0.9756 -0.5003
 7616SOL     OW34306   0.229   1.435   2.774  0.3735  0.1585 -0.1109
 7616SOL    HW134307   0.228   1.370   2.844  1.6287  0.3236  0.0559
 7616SOL    HW234308   0.183   1.382   2.709 -1.9496  0.8937  0.9279
 7617SOL     OW34309   2.087   0.436   3.847 -0.3393 -0.4714 -0.3432
 7617SOL    HW134310   2.122   0.508   3.794  1.5311 -0.8384  0.4196
 7617SOL    HW234311   2.006   0.477   3.877 -0.1562 -0.3693  0.0048
 7618SOL     OW34312   1.763   1.553   9.419 -0.4279  0.0481  0.7156
 7618SOL    HW134313   1.843   1.566   9.367 -0.2729  4.2508  2.0692
 7618SOL    HW234314   1.699   1.558   9.348 -0.1174  1.4738  0.5395
 7619SOL     OW34315   1.583   1.924   2.307  0.5587  0.4998 -0.2376
 7619SOL    HW134316   1.670   1.912   2.267  1.1565  1.5486  0.7761
 7619SOL    HW234317   1.533   1.908   2.227 -1.8944  0.8529  1.2558
 7620SOL     OW34318   2.946   2.448   8.631 -0.0582 -0.4220 -0.7887
 7620SOL    HW134319   3.032   2.418   8.660 -0.1027  0.4733  0.2424
 7620SOL    HW234320   2.974   2.494   8.552  0.5136 -1.7291 -1.3461
 7621SOL     OW34321   0.178   2.373   2.889  0.6271  0.3325  0.0429
 7621SOL    HW134322   0.171   2.312   2.816 -1.0314  0.3424  0.1834
 7621SOL    HW234323   0.083   2.386   2.897  0.7223  2.0230 -1.7255
 7622SOL     OW34324   3.696   1.665   5.378 -0.6256  0.2632  0.0397
 7622SOL    HW134325   3.683   1.595   5.443 -0.8682 -0.8382 -1.1914
 7622SOL    HW234326   3.786   1.646   5.349 -1.4919  1.8092 -3.5521
 7623SOL     OW34327   1.261   2.951   7.995  0.1154 -0.1509  0.1180
 7623SOL    HW134328   1.220   2.926   8.077  0.6737  1.7982  0.9925
 7623SOL    HW234329   1.181   2.986   7.958  0.4358  0.2266 -0.2224
 7624SOL     OW34330   3.511   4.029   3.930 -0.1929 -0.1558  1.0098
 7624SOL    HW134331   3.552   3.943   3.926 -0.0197  0.0351 -1.2494
 7624SOL    HW234332   3.422   3.994   3.928 -0.1766 -0.0525 -2.6001
 7625SOL     OW34333   2.197   3.735   8.121  0.0111  0.0930 -0.0909
 7625SOL    HW134334   2.290   3.756   8.114  0.0666 -0.5612 -1.3408
 7625SOL    HW234335   2.200   3.658   8.178  0.3727  0.3107  0.1799
 7626SOL     OW34336   1.201   0.937   2.444 -0.2158  0.3409 -0.1594
 7626SOL    HW134337   1.190   0.974   2.531  0.0121 -0.9613  0.4257
 7626SOL    HW234338   1.253   1.007   2.405 -0.2330  1.7733  2.4195
 7627SOL     OW34339   0.708   4.397  10.132  0.9363  0.2900 -0.3368
 7627SOL    HW134340   0.754   4.336  10.190 -0.6197 -1.0980 -0.5345
 7627SOL    HW234341   0.662   4.333  10.078 -1.4933 -0.6107  2.7453
 7628SOL     OW34342   4.374   3.428  10.217 -0.3365  0.7879  0.4417
 7628SOL    HW134343   4.468   3.411  10.220 -0.4106  0.0835 -1.6001
 7628SOL    HW234344   4.362   3.508  10.166 -0.0783  0.6531  0.1717
 7629SOL     OW34345   1.578   4.195   7.036  0.4416 -0.1357 -0.3249
 7629SOL    HW134346   1.606   4.251   6.964 -1.5077 -1.3971 -2.0447
 7629SOL    HW234347   1.622   4.233   7.113 -0.5182  0.7709 -0.2296
 7630SOL     OW34348   3.368   2.982  17.358  0.0559  0.1673  0.1358
 7630SOL    HW134349   3.413   2.898  17.355 -0.4351 -0.0746 -0.4565
 7630SOL    HW234350   3.439   3.043  17.338  1.7919 -1.8254  0.2579
 7631SOL     OW34351   2.066   3.538   1.715 -0.1988 -0.2098  0.2954
 7631SOL    HW134352   2.041   3.578   1.631  0.0533  0.1857  0.4080
 7631SOL    HW234353   2.055   3.446   1.694  0.3063 -0.5787  1.7112
 7632SOL     OW34354   2.654   3.517   4.273 -0.8025  0.8366  0.8343
 7632SOL    HW134355   2.697   3.458   4.334  3.1870  1.4018 -1.4351
 7632SOL    HW234356   2.737   3.545   4.233 -1.4278  1.2005 -0.2328
 7633SOL     OW34357   0.616   2.960   2.633 -0.4368 -0.2268  0.8584
 7633SOL    HW134358   0.651   2.900   2.567 -0.5519 -0.2119  0.7830
 7633SOL    HW234359   0.556   2.896   2.672  1.0012 -1.7648  0.5814
 7634SOL     OW34360   2.832   1.432   6.150  0.1773  0.0252 -0.6018
 7634SOL    HW134361   2.858   1.498   6.214  1.1687  0.7679 -1.7717
 7634SOL    HW234362   2.742   1.412   6.176 -0.0503 -0.4739 -1.8147
 7635SOL     OW34363   1.888   3.315  15.365  0.0464  0.0936  0.2427
 7635SOL    HW134364   1.835   3.257  15.309  2.3434 -2.8045  1.1061
 7635SOL    HW234365   1.836   3.324  15.444  1.5690 -0.0957  1.2575
 7636SOL     OW34366   0.204   0.491  14.904 -0.2124 -0.2673 -0.2254
 7636SOL    HW134367   0.243   0.404  14.909 -0.2911 -0.3039 -0.2538
 7636SOL    HW234368   0.129   0.480  14.846 -0.8694  2.4839  0.0933
 7637SOL     OW34369   4.694   0.833   1.512 -0.2379  0.1404 -0.7268
 7637SOL    HW134370   0.057   0.856   1.546 -0.7723  1.2034 -0.1227
 7637SOL    HW234371   4.633   0.879   1.569  0.1518 -0.1425 -0.0843
 7638SOL     OW34372   1.379   0.891   4.903 -0.1225  0.0718  0.1418
 7638SOL    HW134373   1.424   0.958   4.852  2.5952 -2.1926 -0.3949
 7638SOL    HW234374   1.336   0.843   4.832 -2.2960 -1.4607  2.5014
 7639SOL     OW34375   4.097   0.208  11.251  0.3656 -0.1365  0.0482
 7639SOL    HW134376   4.061   0.289  11.216 -1.1520 -0.5145  0.7190
 7639SOL    HW234377   4.019   0.172  11.293  1.4041 -0.7732  1.4249
 7640SOL     OW34378   0.953   3.756   7.291  0.0947 -0.3897  0.1633
 7640SOL    HW134379   0.871   3.775   7.244  0.6342  0.3341 -0.4794
 7640SOL    HW234380   0.916   3.693   7.353  2.1829 -1.3997  0.3685
 7641SOL     OW34381   1.553   2.648   4.389  0.2423  0.4215 -0.3489
 7641SOL    HW134382   1.527   2.613   4.304 -1.6272 -0.1541  0.4555
 7641SOL    HW234383   1.574   2.738   4.367 -1.6908  1.0638  0.3907
 7642SOL     OW34384   2.384   2.511   1.285  0.0748  0.8897 -0.3113
 7642SOL    HW134385   2.365   2.530   1.193  0.9437 -0.7458 -0.8378
 7642SOL    HW234386   2.430   2.427   1.279 -4.0699 -1.5188  1.3769
 7643SOL     OW34387   0.170   1.666  17.144 -0.2431  0.2220  0.0748
 7643SOL    HW134388   0.186   1.759  17.130  2.1733 -0.3098 -0.5934
 7643SOL    HW234389   0.125   1.640  17.064 -1.0080  2.5732 -0.2548
 7644SOL     OW34390   2.305   2.580  10.094 -0.3038 -0.3898 -0.3487
 7644SOL    HW134391   2.262   2.654  10.049  0.7551  0.1412 -0.4849
 7644SOL    HW234392   2.268   2.575  10.182  1.6576  1.1195  0.5692
 7645SOL     OW34393   0.114   3.393   8.641  0.1288  0.0462 -0.0427
 7645SOL    HW134394   0.188   3.342   8.674 -1.1969 -0.7876  1.6698
 7645SOL    HW234395   0.160   3.438   8.571  0.8801 -0.1803  0.2991
 7646SOL     OW34396   3.239   4.628  10.376  0.1442  0.5648 -0.1315
 7646SOL    HW134397   3.198   4.547  10.346 -0.5651  0.8341  0.1086
 7646SOL    HW234398   3.331   4.602  10.368 -0.4831 -1.6299 -0.0415
 7647SOL     OW34399   4.032   0.311   5.857 -0.3827  0.4355 -0.4456
 7647SOL    HW134400   3.940   0.336   5.864 -0.4989  0.2455 -1.2458
 7647SOL    HW234401   4.062   0.340   5.770 -1.5148  3.1913  0.0630
 7648SOL     OW34402   2.073   4.648   2.049  0.5717 -0.0503  0.6747
 7648SOL    HW134403   2.129   0.002   2.044 -1.4263  1.2517 -2.0404
 7648SOL    HW234404   2.006   4.659   1.981  0.8698  1.2087  0.5899
 7649SOL     OW34405   0.302   0.155   0.670  0.0464 -0.0081  0.2378
 7649SOL    HW134406   0.263   0.140   0.756  0.0720  2.3197  0.6568
 7649SOL    HW234407   0.304   0.250   0.679 -0.7004  0.2455 -2.1549
 7650SOL     OW34408   2.618   0.613   5.846 -0.4760  0.0476 -0.2120
 7650SOL    HW134409   2.618   0.525   5.808 -3.3704 -0.2733  0.5639
 7650SOL    HW234410   2.691   0.607   5.908  0.9415  1.9573 -1.6774
 7651SOL     OW34411   0.547   2.730   7.368 -0.5573  0.0357 -0.5554
 7651SOL    HW134412   0.606   2.764   7.435 -1.2676  0.6841 -0.2633
 7651SOL    HW234413   0.492   2.806   7.351 -1.2990 -0.2079  0.7407
 7652SOL     OW34414   0.446   2.902   8.792 -0.1140  0.1800 -0.4453
 7652SOL    HW134415   0.476   2.815   8.767 -0.1868 -0.7421  2.6390
 7652SOL    HW234416   0.508   2.910   8.865  1.0643  1.6544 -1.6016
 7653SOL     OW34417   1.265   0.778   4.696 -0.0515 -0.0291 -0.0927
 7653SOL    HW134418   1.220   0.848   4.650 -1.4660  1.0469  2.8782
 7653SOL    HW234419   1.211   0.704   4.670  2.9194 -1.4374 -2.2234
 7654SOL     OW34420   4.398   4.465   3.392  0.1111 -0.0722 -0.5179
 7654SOL    HW134421   4.467   4.479   3.326  2.3011 -2.4807  1.2188
 7654SOL    HW234422   4.370   4.383   3.350  1.1468 -0.5304 -0.3334
 7655SOL     OW34423   0.231   0.910   1.442  0.1177  0.4794  0.3621
 7655SOL    HW134424   0.164   0.966   1.402 -0.4540 -1.9820 -2.1321
 7655SOL    HW234425   0.304   0.968   1.465 -0.2673  1.4612 -0.9107
 7656SOL     OW34426   0.001   2.896   3.109  0.2433 -0.1791  0.3502
 7656SOL    HW134427   0.013   2.977   3.058  0.9478 -0.8285 -0.4995
 7656SOL    HW234428   4.709   2.836   3.036  2.3269  0.3351 -0.4944
 7657SOL     OW34429   3.260   1.218   7.526 -0.2749  0.8348 -0.2141
 7657SOL    HW134430   3.330   1.270   7.486  0.2243 -0.5152 -1.0925
 7657SOL    HW234431   3.284   1.144   7.470  1.4383  1.4511 -0.3121
 7658SOL     OW34432   1.384   4.664  15.815 -0.4577  0.0019 -0.0866
 7658SOL    HW134433   1.424   4.578  15.808  0.2345  0.2106  1.2828
 7658SOL    HW234434   1.424   4.703  15.737  1.2836 -0.4560  0.5666
 7659SOL     OW34435   2.112   1.576  13.290 -0.2306  0.2856  0.3429
 7659SOL    HW134436   2.019   1.559  13.276 -0.6431  1.8952  1.1553
 7659SOL    HW234437   2.148   1.499  13.246 -1.2180  0.8542 -1.4585
 7660SOL     OW34438   3.462   3.191  16.448  0.4232  0.2546 -0.1795
 7660SOL    HW134439   3.439   3.246  16.523  0.8622  0.5832 -0.2906
 7660SOL    HW234440   3.414   3.237  16.379 -3.2455 -0.7616  1.6880
 7661SOL     OW34441   2.800   2.531   0.007  0.2218  0.2183 -0.6559
 7661SOL    HW134442   2.808   2.457   0.068 -1.1074  0.3576 -0.3041
 7661SOL    HW234443   2.735   2.581   0.056  0.6810  1.3879 -1.2629
 7662SOL     OW34444   4.028   2.413   3.452 -0.2984  0.3346 -0.0203
 7662SOL    HW134445   4.115   2.413   3.412  0.1353 -0.7866  0.9167
 7662SOL    HW234446   4.005   2.506   3.448 -2.3162 -0.2315 -1.6422
 7663SOL     OW34447   4.364   2.190   4.352 -0.2762  0.0610  0.1625
 7663SOL    HW134448   4.415   2.132   4.296  0.4853 -2.0993  3.0772
 7663SOL    HW234449   4.431   2.255   4.375 -0.3874 -0.7669  2.9212
 7664SOL     OW34450   0.852   2.326  16.255  0.1466  0.2871  0.4329
 7664SOL    HW134451   0.861   2.377  16.174 -0.0252 -0.5069 -0.0928
 7664SOL    HW234452   0.764   2.288  16.246 -0.1533  1.4059 -1.4883
 7665SOL     OW34453   3.731   1.896   8.798  0.3800 -0.9163 -0.3046
 7665SOL    HW134454   3.645   1.867   8.829 -0.0805  0.5199 -0.1977
 7665SOL    HW234455   3.786   1.838   8.850  0.1343 -0.5304  0.3896
 7666SOL     OW34456   2.270   2.475  15.564 -0.2520 -0.3340 -0.0036
 7666SOL    HW134457   2.303   2.390  15.591  0.8467  0.2567  0.4978
 7666SOL    HW234458   2.226   2.500  15.646 -1.8140  0.0399 -0.9593
 7667SOL     OW34459   1.523   4.644   6.002  0.5645 -0.6044 -0.4169
 7667SOL    HW134460   1.574   4.637   5.921  1.4745  1.9424 -0.0481
 7667SOL    HW234461   1.475   4.721   5.973 -0.1054 -0.8354  0.0831
 7668SOL     OW34462   2.064   2.741   8.470 -0.7322 -0.1421  0.5354
 7668SOL    HW134463   2.076   2.828   8.507 -2.4035  0.3785 -0.1607
 7668SOL    HW234464   1.992   2.711   8.525 -0.8173 -1.2011 -0.1603
 7669SOL     OW34465   1.678   1.948   5.008 -0.5567 -0.1101 -0.2512
 7669SOL    HW134466   1.693   1.949   5.103 -0.1617  1.2577 -0.3219
 7669SOL    HW234467   1.618   1.874   5.004 -0.2632 -0.2540 -1.7610
 7670SOL     OW34468   3.226   4.472   2.945  0.2090  0.3111  0.3987
 7670SOL    HW134469   3.302   4.450   2.999  0.8562  0.4781 -0.4570
 7670SOL    HW234470   3.186   4.385   2.939 -1.2932  0.9364  1.3253
 7671SOL     OW34471   0.151   4.041  11.571  0.1346 -0.1047  0.2101
 7671SOL    HW134472   0.067   4.078  11.600  0.0148  0.0277 -0.3149
 7671SOL    HW234473   0.163   4.078  11.484  1.7430 -1.2373 -0.0358
 7672SOL     OW34474   0.702   3.939  14.639  0.1939  0.0569  0.4086
 7672SOL    HW134475   0.611   3.968  14.643 -0.3076 -1.6451  1.6234
 7672SOL    HW234476   0.735   3.975  14.557 -0.2564  1.6956  0.9495
 7673SOL     OW34477   1.514   2.821   2.058  0.0604  0.1344  0.1793
 7673SOL    HW134478   1.489   2.905   2.095 -0.3540  0.6572 -1.2826
 7673SOL    HW234479   1.529   2.839   1.965 -2.3791 -0.8226 -0.4005
 7674SOL     OW34480   1.094   0.340  16.212 -0.7696  0.6411  0.4158
 7674SOL    HW134481   1.072   0.282  16.140  1.6472 -0.4558  0.5613
 7674SOL    HW234482   1.099   0.422  16.163  2.3516  0.0770 -0.1975
 7675SOL     OW34483   3.478   4.641   5.775 -0.3853  0.0577  0.7461
 7675SOL    HW134484   3.480   4.662   5.682  2.4794 -1.0045  0.5566
 7675SOL    HW234485   3.487   4.546   5.769 -0.1766  0.0217  1.5766
 7676SOL     OW34486   3.272   4.125  13.747  0.2567  0.2652 -0.3959
 7676SOL    HW134487   3.304   4.035  13.754 -0.9364 -0.1184  0.1748
 7676SOL    HW234488   3.349   4.159  13.701 -0.4582  0.9391 -1.0774
 7677SOL     OW34489   1.648   2.814  10.498 -0.1179 -0.2483 -0.6478
 7677SOL    HW134490   1.674   2.864  10.421 -1.8935  1.1163 -0.3423
 7677SOL    HW234491   1.554   2.829  10.491 -0.0360 -0.0467 -1.3217
 7678SOL     OW34492   3.000   0.321   5.776 -0.1650  0.2966  0.2419
 7678SOL    HW134493   3.033   0.275   5.853  1.3481 -1.2108 -1.2793
 7678SOL    HW234494   2.945   0.261   5.725  0.4740 -0.0255 -0.0738
 7679SOL     OW34495   1.206   0.902   3.249 -0.2500  0.2275  0.3782
 7679SOL    HW134496   1.156   0.982   3.263  1.3983  1.7507 -2.3501
 7679SOL    HW234497   1.284   0.922   3.301  0.1124  0.7541 -0.3683
 7680SOL     OW34498   0.211   3.993   0.866 -0.1432 -0.5123 -0.2351
 7680SOL    HW134499   0.293   3.957   0.833 -1.6660 -2.2655 -2.1485
 7680SOL    HW234500   0.228   4.083   0.839 -1.6965 -0.8003 -2.2013
 7681SOL     OW34501   0.766   2.241  10.663  0.0630 -0.3405 -0.3717
 7681SOL    HW134502   0.744   2.322  10.710 -0.0408 -1.6485  1.8487
 7681SOL    HW234503   0.837   2.273  10.608 -0.1195  2.5984  1.1177
 7682SOL     OW34504   0.024   2.342  15.102  0.7263 -0.1896  0.3384
 7682SOL    HW134505   4.723   2.383  15.019  2.8762  0.0149 -0.1863
 7682SOL    HW234506   4.658   2.328  15.134  1.0850  0.9420  1.8455
 7683SOL     OW34507   4.530   2.340   6.040 -0.2786 -0.2509  0.0616
 7683SOL    HW134508   4.572   2.417   6.001  0.5349 -0.1429  1.1735
 7683SOL    HW234509   4.585   2.280   5.990 -1.3861  0.4995 -2.0658
 7684SOL     OW34510   1.249   0.535   1.273  0.5018 -0.1899  0.1262
 7684SOL    HW134511   1.186   0.536   1.201  1.8377 -2.2776 -1.0406
 7684SOL    HW234512   1.199   0.564   1.349  0.5725 -0.2662  0.2019
 7685SOL     OW34513   2.833   0.949   2.433 -0.5642  0.4332  0.2883
 7685SOL    HW134514   2.764   1.001   2.474 -0.0917  1.7460 -0.6246
 7685SOL    HW234515   2.881   0.915   2.509  0.0161 -0.9535 -0.6835
 7686SOL     OW34516   3.780   1.924  17.080  0.4429 -0.6187 -0.3018
 7686SOL    HW134517   3.842   1.959  17.016  0.8363 -1.4245 -0.3505
 7686SOL    HW234518   3.704   1.974  17.048  0.4845  0.1924  0.8706
 7687SOL     OW34519   3.847   4.426   6.194 -0.0432 -0.2092  0.4072
 7687SOL    HW134520   3.872   4.516   6.176 -1.1400 -0.5791 -3.1275
 7687SOL    HW234521   3.899   4.419   6.273  1.4340  0.1902 -0.5328
 7688SOL     OW34522   4.080   0.713   9.926  0.3500 -0.0732 -0.2300
 7688SOL    HW134523   3.988   0.700   9.947 -0.0041  0.9881 -1.1345
 7688SOL    HW234524   4.072   0.711   9.831  1.4499 -0.2276 -0.3235
 7689SOL     OW34525   1.580   2.071  11.732 -0.4341 -0.4250  0.1878
 7689SOL    HW134526   1.671   2.081  11.705 -0.4072 -0.8903  0.1134
 7689SOL    HW234527   1.559   2.156  11.771  0.9239 -0.1612  0.3507
 7690SOL     OW34528   0.344   0.484   7.997 -0.1441  0.1211  0.5996
 7690SOL    HW134529   0.416   0.451   8.051 -0.1197  0.7881  0.9686
 7690SOL    HW234530   0.374   0.448   7.913 -2.5572  2.1184 -1.1245
 7691SOL     OW34531   2.848   0.129   7.562 -0.7743  0.0526 -0.6898
 7691SOL    HW134532   2.785   0.095   7.625 -0.3007  0.8224  0.2020
 7691SOL    HW234533   2.799   0.123   7.480 -0.9841 -2.1435 -0.3899
 7692SOL     OW34534   4.698   1.207  10.295 -0.4813  0.3072  0.2580
 7692SOL    HW134535   4.701   1.302  10.306 -0.6204  0.3673 -0.2038
 7692SOL    HW234536   0.068   1.180  10.291 -0.7131 -0.6014  1.0542
 7693SOL     OW34537   4.571   3.438   7.900  0.0867 -0.2045 -0.1642
 7693SOL    HW134538   4.640   3.377   7.874  0.0350  0.3582 -1.5886
 7693SOL    HW234539   4.505   3.376   7.932 -0.2320 -0.3845 -1.1896
 7694SOL     OW34540   1.665   2.280   7.436 -0.2597 -0.6085  0.0083
 7694SOL    HW134541   1.612   2.360   7.432 -0.7053 -0.8954  0.1722
 7694SOL    HW234542   1.629   2.228   7.365 -0.1240 -1.6633  0.7073
 7695SOL     OW34543   2.890   4.006  10.939 -0.5405  0.4570  0.0584
 7695SOL    HW134544   2.818   4.017  11.002  0.5206 -2.1121  1.7308
 7695SOL    HW234545   2.859   3.927  10.894  1.0025 -0.8896  1.3417
 7696SOL     OW34546   1.419   2.438   7.117  0.5261  0.0154  0.3063
 7696SOL    HW134547   1.329   2.447   7.149  0.8845 -0.4581  1.4587
 7696SOL    HW234548   1.441   2.371   7.182 -1.4073 -1.8594 -0.9964
 7697SOL     OW34549   1.989   4.625   7.469 -0.4521  0.2851 -0.6404
 7697SOL    HW134550   2.007   4.599   7.379  1.1957 -1.8035  0.2654
 7697SOL    HW234551   1.953   4.542   7.502  1.7324 -0.3547  0.1640
 7698SOL     OW34552   1.948   3.115   4.163  0.0672 -0.6091 -0.3394
 7698SOL    HW134553   2.024   3.080   4.115  1.4851 -0.3167  1.6794
 7698SOL    HW234554   1.991   3.136   4.246  0.5533  2.0399 -1.2621
 7699SOL     OW34555   1.046   1.577   3.530 -0.2714  0.5708 -0.1322
 7699SOL    HW134556   1.133   1.539   3.515 -0.9310 -0.7617 -0.5866
 7699SOL    HW234557   1.025   1.551   3.620  1.1265 -2.5561 -0.6836
 7700SOL     OW34558   4.256   3.907  13.455 -0.3321 -0.8576  0.0777
 7700SOL    HW134559   4.260   3.906  13.550  0.0805 -0.3969  0.0632
 7700SOL    HW234560   4.306   3.829  13.431  1.0425  0.1870 -0.4151
 7701SOL     OW34561   0.646   4.247  17.272  0.4093 -0.2650  0.7961
 7701SOL    HW134562   0.701   4.192  17.329 -0.0758 -2.9458 -1.2966
 7701SOL    HW234563   0.572   4.186  17.266 -1.4566  2.3292 -2.0279
 7702SOL     OW34564   4.345   1.896   7.206 -0.0633  0.3031  0.0410
 7702SOL    HW134565   4.385   1.809   7.207  0.9922  0.7923  1.1648
 7702SOL    HW234566   4.397   1.929   7.133 -1.0830 -0.4844 -1.0445
 7703SOL     OW34567   4.014   1.700  14.153  0.1847 -0.6463  0.0310
 7703SOL    HW134568   3.930   1.744  14.168  0.9051  0.9285 -0.5473
 7703SOL    HW234569   3.993   1.671  14.065  1.2252  0.6573 -0.6477
 7704SOL     OW34570   4.601   3.586   5.573  0.7763 -0.0552  0.7873
 7704SOL    HW134571   4.551   3.649   5.523  1.0657 -0.3609  0.1090
 7704SOL    HW234572   4.564   3.504   5.539  0.5206 -0.0713  1.1040
 7705SOL     OW34573   3.060   4.213  14.726 -1.0087 -0.4389  0.2646
 7705SOL    HW134574   3.054   4.158  14.647 -2.0275 -1.0620  0.7795
 7705SOL    HW234575   3.154   4.228  14.714 -0.9492  0.3985  1.8755
 7706SOL     OW34576   2.514   3.919   0.320 -0.2838 -0.2421  0.3989
 7706SOL    HW134577   2.481   3.874   0.242 -0.8662 -0.1170  0.5774
 7706SOL    HW234578   2.458   3.996   0.325  0.1369  0.1496 -1.0075
 7707SOL     OW34579   3.046   2.697   6.531 -0.1466 -0.3645  0.5414
 7707SOL    HW134580   3.109   2.628   6.509 -0.1663  0.4244 -1.9963
 7707SOL    HW234581   2.980   2.645   6.576 -0.4058 -1.3798 -1.0004
 7708SOL     OW34582   2.468   0.909   8.927 -0.4055 -0.3974 -0.1067
 7708SOL    HW134583   2.542   0.968   8.940 -0.7822 -0.1515  0.9209
 7708SOL    HW234584   2.496   0.871   8.844 -3.1618  0.1316 -1.2769
 7709SOL     OW34585   3.997   4.631   4.274 -0.4613  0.5128  0.2037
 7709SOL    HW134586   4.075   4.600   4.227 -1.9972  1.3801 -2.9331
 7709SOL    HW234587   4.002   4.576   4.352 -0.5609 -0.8531 -0.7457
 7710SOL     OW34588   1.918   4.187  11.996  0.6691  0.2463 -0.2421
 7710SOL    HW134589   1.834   4.231  12.005 -0.3353 -1.6619 -0.3042
 7710SOL    HW234590   1.925   4.170  11.902  0.4887  1.9122 -0.5469
 7711SOL     OW34591   3.700   3.386   0.805  0.4365 -0.8607  0.1134
 7711SOL    HW134592   3.733   3.475   0.812  1.0813 -1.1595  0.8655
 7711SOL    HW234593   3.731   3.371   0.716 -2.7016 -0.1530 -1.0950
 7712SOL     OW34594   4.565   2.641   7.568  0.0800  0.1956  0.3174
 7712SOL    HW134595   4.586   2.570   7.629  0.1000 -0.7642 -0.7920
 7712SOL    HW234596   4.482   2.667   7.608  0.3003 -0.5919  1.3028
 7713SOL     OW34597   2.442   2.948   1.939  0.3158 -0.0884 -0.4193
 7713SOL    HW134598   2.435   2.998   1.857  0.5541  0.8337  0.1216
 7713SOL    HW234599   2.420   2.859   1.912 -0.5993  0.1644 -0.5116
 7714SOL     OW34600   0.241   3.138  12.949 -0.3005 -0.1967 -0.3555
 7714SOL    HW134601   0.196   3.081  12.886 -0.8213 -1.5116  1.2085
 7714SOL    HW234602   0.172   3.187  12.993  0.3894 -1.1672  1.8048
 7715SOL     OW34603   0.787   1.643  14.100 -0.6576 -0.1008  0.1249
 7715SOL    HW134604   0.694   1.654  14.078 -0.3621  3.1248  0.4213
 7715SOL    HW234605   0.788   1.688  14.185 -1.5192  0.1194  0.0166
 7716SOL     OW34606   1.289   0.409   7.592 -0.3154 -0.1534 -0.1376
 7716SOL    HW134607   1.247   0.457   7.520  1.0622  1.6804  0.2793
 7716SOL    HW234608   1.234   0.434   7.666 -1.3887  2.2448 -1.7533
 7717SOL     OW34609   2.469   2.368   4.547  0.8914  0.2860  0.1338
 7717SOL    HW134610   2.485   2.459   4.525  0.1660  0.4068  0.1086
 7717SOL    HW234611   2.430   2.340   4.464 -0.2725  0.1287  0.7269
 7718SOL     OW34612   2.045   0.199   3.710 -0.8015 -0.5215 -0.0872
 7718SOL    HW134613   1.966   0.217   3.658 -0.2132  0.1786 -0.7419
 7718SOL    HW234614   2.060   0.282   3.755 -0.0111 -1.0648  0.6372
 7719SOL     OW34615   3.539   2.551   9.131  0.9305  0.2373  0.1088
 7719SOL    HW134616   3.587   2.507   9.061 -0.2432  0.3830 -0.7880
 7719SOL    HW234617   3.451   2.517   9.147  1.7899 -1.1439  1.8746
 7720SOL     OW34618   0.357   2.301   1.275 -0.0041 -0.3006  0.3654
 7720SOL    HW134619   0.381   2.230   1.215  0.2027 -1.4794  1.8272
 7720SOL    HW234620   0.433   2.360   1.272 -0.0951 -0.2171 -0.2466
 7721SOL     OW34621   0.324   2.571  12.423  0.1280  0.0428  0.1613
 7721SOL    HW134622   0.238   2.581  12.382 -0.8941  0.9828  2.5030
 7721SOL    HW234623   0.304   2.521  12.503 -1.1108 -2.0528 -1.4465
 7722SOL     OW34624   0.072   3.362   9.531 -0.0728  0.0326  0.1435
 7722SOL    HW134625   0.020   3.282   9.543 -1.0455  0.4778 -1.1479
 7722SOL    HW234626   0.073   3.410   9.614 -0.4895  0.3503 -0.0377
 7723SOL     OW34627   0.335   3.237   7.734  0.0341  0.3057 -0.1151
 7723SOL    HW134628   0.337   3.202   7.823 -2.0706 -0.3048 -0.3114
 7723SOL    HW234629   0.392   3.314   7.733 -1.1336  1.1972  0.9556
 7724SOL     OW34630   4.494   1.785   9.613  0.6309 -0.3073  0.1439
 7724SOL    HW134631   4.583   1.761   9.638  0.7265  2.1387  2.1176
 7724SOL    HW234632   4.460   1.811   9.699 -1.3096  0.4893 -0.8559
 7725SOL     OW34633   1.289   2.312   9.250 -0.4619  0.1329 -0.7427
 7725SOL    HW134634   1.319   2.267   9.170  0.5661 -1.5532  0.5921
 7725SOL    HW234635   1.346   2.276   9.318 -0.3848  1.0108 -0.3501
 7726SOL     OW34636   2.193   0.707   3.307  0.5720  0.1092 -0.0740
 7726SOL    HW134637   2.116   0.670   3.263 -0.1437 -0.5171  1.6927
 7726SOL    HW234638   2.263   0.685   3.246 -0.5758  0.6487 -1.5753
 7727SOL     OW34639   4.598   0.301  12.010  0.2665  0.3071  0.1616
 7727SOL    HW134640   4.655   0.298  12.087 -0.9189  1.6153  1.0993
 7727SOL    HW234641   4.597   0.397  12.004  1.0159  0.2974 -0.1152
 7728SOL     OW34642   1.020   0.547   2.597 -0.2742  0.1693  0.0513
 7728SOL    HW134643   0.966   0.623   2.576 -0.2011 -0.4033 -2.3145
 7728SOL    HW234644   1.004   0.489   2.521 -0.3883 -0.7403  0.7704
 7729SOL     OW34645   2.126   4.517   8.188 -0.1779  0.0223 -0.0553
 7729SOL    HW134646   2.151   4.497   8.098  0.7381 -4.9837  1.3322
 7729SOL    HW234647   2.067   4.446   8.214  1.4906 -1.6877 -0.9523
 7730SOL     OW34648   3.667   4.304   4.884 -0.1888 -0.2319  0.0613
 7730SOL    HW134649   3.661   4.400   4.891 -0.2448 -0.3000  1.0678
 7730SOL    HW234650   3.646   4.275   4.973 -2.8244 -1.4980 -0.9787
 7731SOL     OW34651   2.454   0.435   4.288 -0.0432  0.1605  0.5611
 7731SOL    HW134652   2.497   0.367   4.236  1.6925  1.0282  0.8917
 7731SOL    HW234653   2.381   0.386   4.327 -0.2516  1.0431  1.2743
 7732SOL     OW34654   3.318   3.567   5.848  0.2709 -0.5252 -0.3534
 7732SOL    HW134655   3.225   3.592   5.843  0.5177  0.9123  2.0105
 7732SOL    HW234656   3.318   3.547   5.941  2.0129  1.6366  0.1151
 7733SOL     OW34657   4.243   0.099   4.828 -0.4754  0.6696 -0.1868
 7733SOL    HW134658   4.162   0.133   4.866 -1.0672  0.7598 -1.4935
 7733SOL    HW234659   4.212   0.042   4.758 -0.0811  0.1707  0.0518
 7734SOL     OW34660   4.423   0.543   1.922 -0.0919  0.0494 -0.0897
 7734SOL    HW134661   4.487   0.614   1.921  1.6675 -1.5425 -0.6095
 7734SOL    HW234662   4.472   0.474   1.967 -0.1234  0.5130  0.6590
 7735SOL     OW34663   2.220   3.913   5.081  0.1305 -0.6266  0.0033
 7735SOL    HW134664   2.169   3.971   5.024  0.0031 -0.9088 -0.1654
 7735SOL    HW234665   2.243   3.969   5.156  1.1002  0.3843 -1.0395
 7736SOL     OW34666   1.374   1.940   5.669 -0.1841  0.6516  0.7240
 7736SOL    HW134667   1.296   1.885   5.661 -1.6033  2.7396  0.2132
 7736SOL    HW234668   1.365   1.997   5.593 -0.1989 -0.7406 -0.3104
 7737SOL     OW34669   1.892   3.319   1.174  0.3301  0.2997  0.2429
 7737SOL    HW134670   1.937   3.365   1.246  2.1885 -1.5390  0.2348
 7737SOL    HW234671   1.906   3.375   1.098  1.2789 -1.0491 -0.5668
 7738SOL     OW34672   2.418   1.884   2.487  0.5924  0.0061 -0.6020
 7738SOL    HW134673   2.425   1.793   2.514  0.7411  0.6677  1.6037
 7738SOL    HW234674   2.379   1.923   2.566  1.7570  0.7270 -0.3698
 7739SOL     OW34675   0.000   3.658   3.388  0.2322 -0.1461  0.3967
 7739SOL    HW134676   4.692   3.581   3.341 -0.1743 -0.2402  0.8126
 7739SOL    HW234677   4.647   3.669   3.446  0.5753 -2.6890  1.3231
 7740SOL     OW34678   0.580   3.233   7.339  0.3989  0.3675 -0.5101
 7740SOL    HW134679   0.595   3.191   7.254 -0.6454 -1.2504  0.0988
 7740SOL    HW234680   0.519   3.300   7.307  0.2387 -0.7803 -2.6396
 7741SOL     OW34681   4.677   1.681   8.445  0.0944 -0.1099 -0.2755
 7741SOL    HW134682   4.629   1.600   8.463  0.4561  0.0444  1.4160
 7741SOL    HW234683   4.617   1.750   8.470 -0.9490 -1.3951  0.7722
 7742SOL     OW34684   1.077   1.715  16.675 -0.4165  1.0766 -0.3410
 7742SOL    HW134685   1.090   1.659  16.752 -0.3499 -0.6095 -1.5727
 7742SOL    HW234686   0.994   1.758  16.697 -0.5030  0.9071 -0.3347
 7743SOL     OW34687   0.845   2.521   7.593  0.4931  0.7123 -0.6553
 7743SOL    HW134688   0.777   2.553   7.652  2.0884  2.4289  0.2550
 7743SOL    HW234689   0.812   2.539   7.506 -2.2292 -2.1754 -0.2251
 7744SOL     OW34690   3.111   1.084   6.450 -0.1717 -0.3545  0.2061
 7744SOL    HW134691   3.132   1.072   6.358  1.1187  1.6915  0.2264
 7744SOL    HW234692   3.064   1.167   6.446  0.4347 -0.1310 -1.8412
 7745SOL     OW34693   2.228   1.035   9.890  0.3382  0.1261  0.4988
 7745SOL    HW134694   2.207   0.990   9.972  0.5837  0.8551  0.9526
 7745SOL    HW234695   2.143   1.039   9.847 -0.3669  0.5704  1.9383
 7746SOL     OW34696   1.010   4.337   5.753  0.2510  0.2983  0.6219
 7746SOL    HW134697   1.085   4.392   5.775 -0.2037  1.3970 -0.5906
 7746SOL    HW234698   0.941   4.359   5.816  1.3212  2.4951  1.0240
 7747SOL     OW34699   0.132   3.089  16.056 -0.0635  0.8109 -0.5701
 7747SOL    HW134700   0.048   3.086  16.102  0.5188  1.0269  0.5014
 7747SOL    HW234701   0.154   2.997  16.040  1.1760  0.8040  1.2385
 7748SOL     OW34702   1.506   0.879   6.642 -0.2754  0.2481 -0.4147
 7748SOL    HW134703   1.563   0.849   6.713 -0.2345 -0.7571 -0.8584
 7748SOL    HW234704   1.503   0.802   6.584  0.0516  1.1139 -1.5905
 7749SOL     OW34705   2.493   2.400   3.983 -0.2307  0.2241 -0.3968
 7749SOL    HW134706   2.454   2.324   4.027  1.1962 -0.2529  0.0216
 7749SOL    HW234707   2.424   2.465   3.999 -0.9852 -0.5690 -0.3907
 7750SOL     OW34708   4.033   2.065  10.123  0.1178 -0.3386  0.4809
 7750SOL    HW134709   4.050   2.107  10.208  0.3876  0.5261 -0.0117
 7750SOL    HW234710   4.100   2.105  10.068  0.2640 -0.5446  0.5078
 7751SOL     OW34711   3.469   2.026   5.055 -0.2059  0.3407 -0.4393
 7751SOL    HW134712   3.470   1.949   4.998 -0.4414  0.1605 -0.1979
 7751SOL    HW234713   3.503   1.980   5.132  1.9344  1.8151 -0.4955
 7752SOL     OW34714   3.740   0.451   4.243 -0.1306 -0.4836  0.0178
 7752SOL    HW134715   3.782   0.440   4.328  2.0650 -0.9181 -1.1201
 7752SOL    HW234716   3.797   0.397   4.188  0.7009  1.4712 -1.0380
 7753SOL     OW34717   3.725   3.657   1.175  0.1288  0.3181 -0.7170
 7753SOL    HW134718   3.761   3.653   1.264 -0.5243 -0.8091 -0.5073
 7753SOL    HW234719   3.806   3.652   1.124  0.6578  0.8306  0.0570
 7754SOL     OW34720   2.383   0.313   7.931  0.5717  0.2491  0.5648
 7754SOL    HW134721   2.343   0.246   7.875 -1.9113  0.8686  1.5885
 7754SOL    HW234722   2.458   0.260   7.959  0.7676  0.1169 -0.1836
 7755SOL     OW34723   4.351   4.381   5.469 -0.2903  0.0651 -0.2582
 7755SOL    HW134724   4.275   4.387   5.527  0.1717  0.7184  0.2655
 7755SOL    HW234725   4.411   4.327   5.520 -0.1711  1.2468  0.8401
 7756SOL     OW34726   0.027   2.399  16.330  0.6297 -0.2293 -0.0425
 7756SOL    HW134727   0.004   2.423  16.420  1.0890 -0.3368  0.1029
 7756SOL    HW234728   0.012   2.304  16.333  1.2947 -0.3275 -0.0219
 7757SOL     OW34729   2.553   1.137  14.623  0.1421 -0.3890  0.9801
 7757SOL    HW134730   2.515   1.051  14.642  0.4148 -0.1392  2.7291
 7757SOL    HW234731   2.590   1.165  14.707  2.4861 -0.7141  0.0334
 7758SOL     OW34732   0.590   1.117   1.242  0.2721  0.0569 -0.3040
 7758SOL    HW134733   0.584   1.106   1.337 -1.9411  2.1890 -0.2162
 7758SOL    HW234734   0.639   1.199   1.244  0.8426 -0.2534 -1.2912
 7759SOL     OW34735   3.720   1.521  17.376  0.0971  0.0632  0.4710
 7759SOL    HW134736   3.772   1.528  17.296  0.6503 -0.5826  0.7725
 7759SOL    HW234737   3.674   1.605  17.367  2.5122  1.1513 -1.6253
 7760SOL     OW34738   4.516   0.000   7.816  0.3828 -0.4342  0.0085
 7760SOL    HW134739   4.519   4.633   7.849  0.2451 -0.5497 -0.2962
 7760SOL    HW234740   4.460   4.710   7.740  0.0945 -0.3304  0.2006
 7761SOL     OW34741   4.555   1.404   8.508 -0.0799 -0.3920 -0.4549
 7761SOL    HW134742   4.561   1.435   8.598  1.0075  0.8119 -0.9487
 7761SOL    HW234743   4.641   1.365   8.496 -0.5074 -1.6461  0.5995
 7762SOL     OW34744   1.574   3.269   3.618 -0.2532 -0.5521  0.1588
 7762SOL    HW134745   1.481   3.246   3.610 -0.0179 -1.1676 -0.8586
 7762SOL    HW234746   1.615   3.235   3.539  0.1321  0.1756  0.0460
 7763SOL     OW34747   3.960   0.504   7.508 -0.3727 -0.4059 -0.0504
 7763SOL    HW134748   3.963   0.489   7.602  0.5547 -2.1592 -0.3646
 7763SOL    HW234749   3.899   0.437   7.478  2.3177 -2.7061 -0.4097
 7764SOL     OW34750   3.769   3.971   7.628  0.3658 -0.1076 -0.1903
 7764SOL    HW134751   3.746   3.888   7.585  0.8351 -0.3804  0.0795
 7764SOL    HW234752   3.681   4.002   7.650  0.9889  1.4804  0.0239
 7765SOL     OW34753   2.629   0.979   4.695 -0.1664 -0.2350  0.6771
 7765SOL    HW134754   2.701   1.038   4.673  0.1603 -0.2920  1.5864
 7765SOL    HW234755   2.661   0.938   4.776 -1.0032  1.0163  1.6492
 7766SOL     OW34756   2.113   3.330  15.228 -0.5696 -0.3680 -0.0338
 7766SOL    HW134757   2.149   3.259  15.282  2.1352  1.0159 -0.0339
 7766SOL    HW234758   2.029   3.342  15.274 -1.6092 -1.8735 -1.5473
 7767SOL     OW34759   1.166   2.556   7.770 -0.0098 -0.2771  0.1097
 7767SOL    HW134760   1.235   2.596   7.717 -0.2116 -0.9220 -0.6291
 7767SOL    HW234761   1.089   2.598   7.730 -0.6789 -1.3833  0.2325
 7768SOL     OW34762   3.972   1.940   6.656 -0.4271  0.2381  0.0101
 7768SOL    HW134763   4.033   1.935   6.582 -0.4319 -0.6107  0.0664
 7768SOL    HW234764   3.928   2.024   6.644 -3.2250 -1.4792 -2.0518
 7769SOL     OW34765   1.939   4.349   9.965 -0.1477  0.0160 -0.1547
 7769SOL    HW134766   1.880   4.362   9.890 -0.0415  1.0335 -0.0604
 7769SOL    HW234767   1.877   4.344  10.037 -0.9504  0.5091 -0.8105
 7770SOL     OW34768   1.216   0.036   2.908 -0.7369 -0.3176 -0.5268
 7770SOL    HW134769   1.172   4.680   2.937 -0.8412  0.1758  0.6500
 7770SOL    HW234770   1.307   0.008   2.896 -0.5343 -0.1336  0.5713
 7771SOL     OW34771   1.986   2.397  11.850  0.0964  0.1514 -0.0862
 7771SOL    HW134772   2.037   2.371  11.926  0.1510 -0.8616 -0.4727
 7771SOL    HW234773   2.038   2.462  11.802 -0.6244  0.8188  0.0452
 7772SOL     OW34774   3.970   4.680  14.901  0.1222  0.6410  0.2741
 7772SOL    HW134775   3.890   4.713  14.943  0.0796  0.1676  0.5643
 7772SOL    HW234776   4.039   4.716  14.957 -0.9295  1.2281  1.2010
 7773SOL     OW34777   1.592   3.291   9.189 -0.2801  0.1541  0.0423
 7773SOL    HW134778   1.587   3.342   9.271  0.3182  0.2158  0.0428
 7773SOL    HW234779   1.586   3.203   9.224 -0.5072  0.1125 -0.1050
 7774SOL     OW34780   2.143   3.578   9.625  0.2121 -0.7278  0.7665
 7774SOL    HW134781   2.098   3.659   9.648  0.3942 -0.2333 -0.6143
 7774SOL    HW234782   2.081   3.538   9.565 -0.3945  0.9381  0.2855
 7775SOL     OW34783   4.368   3.192  10.068 -0.2558 -0.5186  0.1689
 7775SOL    HW134784   4.328   3.252  10.130  0.5533 -0.2901  0.4693
 7775SOL    HW234785   4.458   3.220  10.083 -0.8094  0.9396  0.7364
 7776SOL     OW34786   1.392   1.703   5.185  0.1694  0.4204  0.3342
 7776SOL    HW134787   1.360   1.613   5.176 -2.2398  1.1284  2.1220
 7776SOL    HW234788   1.486   1.684   5.183  0.0373 -0.1978  0.0807
 7777SOL     OW34789   1.001   0.054   6.545  0.4885  0.7918 -0.5758
 7777SOL    HW134790   0.920   0.016   6.577  1.6845 -1.2044  0.0554
 7777SOL    HW234791   1.067   0.003   6.591  1.0011 -0.2556 -2.4720
 7778SOL     OW34792   3.598   0.742   1.666  0.7322  0.3548 -0.3565
 7778SOL    HW134793   3.600   0.782   1.579  1.4302  0.1120 -0.4532
 7778SOL    HW234794   3.621   0.822   1.712  1.1342 -0.6373  1.1710
 7779SOL     OW34795   3.307   3.023   4.584  0.4167  0.2306  0.1167
 7779SOL    HW134796   3.293   3.117   4.585 -0.9350  0.0356 -1.1201
 7779SOL    HW234797   3.267   2.986   4.663 -0.3965  2.4002  0.7180
 7780SOL     OW34798   1.034   4.398   8.551 -0.2818  0.1176 -0.3317
 7780SOL    HW134799   0.988   4.450   8.618  1.8961 -0.1104  1.3127
 7780SOL    HW234800   1.097   4.468   8.531  0.5472 -0.4813  0.2017
 7781SOL     OW34801   1.034   0.608   1.442 -0.1967  0.0331 -0.0813
 7781SOL    HW134802   1.015   0.668   1.514  0.9145  1.0180 -0.6043
 7781SOL    HW234803   0.946   0.584   1.414  0.2933 -1.7584 -0.0729
 7782SOL     OW34804   2.106   3.242   6.463  0.3001  0.2596  0.3408
 7782SOL    HW134805   2.091   3.151   6.438 -0.7349  0.0791  1.6158
 7782SOL    HW234806   2.188   3.229   6.510  0.7254 -1.9992 -1.0201
 7783SOL     OW34807   4.423   2.878  12.896  0.0604 -0.8845 -0.4427
 7783SOL    HW134808   4.339   2.859  12.939 -0.7002 -0.1972 -1.6134
 7783SOL    HW234809   4.456   2.954  12.942 -0.6391 -0.8537  0.0065
 7784SOL     OW34810   0.203   1.998   1.212 -0.0544 -0.1346  0.2665
 7784SOL    HW134811   0.151   2.026   1.137  1.0486  1.0328 -0.0581
 7784SOL    HW234812   0.158   1.916   1.232 -0.9093  0.5066  0.9193
 7785SOL     OW34813   3.609   4.200   7.872 -0.1777  0.1916 -0.7028
 7785SOL    HW134814   3.527   4.231   7.913  0.0308 -0.4474  0.2070
 7785SOL    HW234815   3.570   4.191   7.785 -1.1114  2.2996 -0.4998
 7786SOL     OW34816   4.263   0.959   8.140  0.0351  0.0842 -0.6791
 7786SOL    HW134817   4.301   1.037   8.099  0.4567  0.4291  0.3720
 7786SOL    HW234818   4.189   0.952   8.081 -0.6032  0.7644  0.0459
 7787SOL     OW34819   1.789   4.126   7.696 -0.0784 -0.6673 -0.1417
 7787SOL    HW134820   1.779   4.093   7.785 -3.2030 -0.5983 -0.4823
 7787SOL    HW234821   1.703   4.117   7.657 -0.3898 -1.3268  0.6880
 7788SOL     OW34822   4.699   3.500  17.248  0.1632  0.0754 -0.4853
 7788SOL    HW134823   0.029   3.562  17.198  1.1592 -0.5954 -0.2639
 7788SOL    HW234824   4.623   3.491  17.190 -0.6887 -2.1786  0.9973
 7789SOL     OW34825   0.405   2.285   4.692  0.3399 -0.0497 -0.0033
 7789SOL    HW134826   0.394   2.199   4.651 -1.0848 -0.8881  2.1523
 7789SOL    HW234827   0.385   2.344   4.619 -0.0995 -1.4220 -0.9912
 7790SOL     OW34828   0.307   4.334  13.230 -0.6329  0.8590 -0.0900
 7790SOL    HW134829   0.364   4.388  13.284  0.6914 -0.7264  0.1235
 7790SOL    HW234830   0.269   4.278  13.298  0.5941  1.2562  0.9259
 7791SOL     OW34831   1.460   0.833   9.289  0.0320  0.3451  0.4985
 7791SOL    HW134832   1.450   0.884   9.369 -0.6582  0.9339  0.0408
 7791SOL    HW234833   1.397   0.761   9.298  0.5204 -0.2771 -1.0136
 7792SOL     OW34834   2.179   3.579   5.994  1.2033 -0.2731  0.1048
 7792SOL    HW134835   2.191   3.609   6.084  1.6713 -2.6819  0.8413
 7792SOL    HW234836   2.178   3.660   5.942 -0.6300 -0.5699 -0.3225
 7793SOL     OW34837   2.839   2.911  16.387  0.4875 -1.0136 -0.6629
 7793SOL    HW134838   2.784   2.836  16.364 -1.7855 -0.5106  3.0720
 7793SOL    HW234839   2.910   2.873  16.439 -0.1200 -1.0409  0.1498
 7794SOL     OW34840   4.416   4.663   0.133  0.2082 -0.5912  0.3253
 7794SOL    HW134841   4.369   4.584   0.106  1.0738 -1.2140  0.6420
 7794SOL    HW234842   4.506   4.631   0.139  0.2572 -0.6123 -0.5917
 7795SOL     OW34843   2.602   2.137   1.527 -0.0061 -0.2033  0.2176
 7795SOL    HW134844   2.534   2.087   1.572 -0.8129 -0.4317 -1.2391
 7795SOL    HW234845   2.673   2.079   1.555  0.1915 -0.5852 -1.0745
 7796SOL     OW34846   1.870   0.046   8.610  0.5426  0.2078 -0.1687
 7796SOL    HW134847   1.955   0.083   8.632  0.1738 -0.6486  2.5957
 7796SOL    HW234848   1.896   4.692   8.559  2.8898  2.1893 -1.9969
 7797SOL     OW34849   3.918   2.638   2.447  0.9908 -0.0048  0.0783
 7797SOL    HW134850   3.870   2.555   2.441 -0.5492  0.9086 -0.4464
 7797SOL    HW234851   3.917   2.682   2.362 -1.5796  1.2063  0.7160
 7798SOL     OW34852   4.712   1.850  15.244  0.5611  0.7364 -0.5647
 7798SOL    HW134853   0.085   1.845  15.251  0.6804  0.1702 -2.8671
 7798SOL    HW234854   4.681   1.894  15.324  2.0288 -1.8086  1.4242
 7799SOL     OW34855   2.340   4.504  15.427  0.2095 -0.5238  0.7251
 7799SOL    HW134856   2.301   4.568  15.487 -2.4975 -1.5655  0.0708
 7799SOL    HW234857   2.393   4.458  15.492  0.8690 -2.6064 -1.3105
 7800SOL     OW34858   2.477   3.925  10.855 -0.6958 -0.1013  0.1342
 7800SOL    HW134859   2.410   3.856  10.857 -1.7261  0.8620 -1.4595
 7800SOL    HW234860   2.506   3.949  10.943 -0.3566 -1.1953  0.3328
 7801SOL     OW34861   4.471   0.345   1.037 -0.3572  0.0417  0.0267
 7801SOL    HW134862   4.527   0.277   1.000 -1.9205 -2.6279  2.6473
 7801SOL    HW234863   4.512   0.369   1.120  0.0747 -1.3789  0.2212
 7802SOL     OW34864   1.850   1.299  13.301  0.0686 -0.5107  0.0675
 7802SOL    HW134865   1.763   1.285  13.337  0.9994 -0.1028  2.4969
 7802SOL    HW234866   1.896   1.321  13.382  0.4511  0.8994 -0.5366
 7803SOL     OW34867   0.505   2.351   7.061  0.1095 -0.3038  0.1108
 7803SOL    HW134868   0.574   2.407   7.025  0.3716  0.2683  1.5199
 7803SOL    HW234869   0.432   2.389   7.013 -0.1733  0.2092  0.9530
 7804SOL     OW34870   3.190   0.900  11.173 -0.0494  0.0229  0.5474
 7804SOL    HW134871   3.147   0.818  11.147 -0.0064 -0.4405  1.9091
 7804SOL    HW234872   3.269   0.901  11.120 -0.9965 -0.5474 -0.8701
 7805SOL     OW34873   3.893   1.460   2.896 -0.0129  0.1955 -0.0317
 7805SOL    HW134874   3.982   1.424   2.897 -0.6653 -1.3842  2.0208
 7805SOL    HW234875   3.901   1.491   2.986 -0.7318  2.5469 -0.7925
 7806SOL     OW34876   3.646   3.861   7.108  0.4957 -0.0464 -0.5190
 7806SOL    HW134877   3.727   3.866   7.159  0.1154  2.2096 -0.1462
 7806SOL    HW234878   3.633   3.955   7.101  1.9329  0.2650  1.0985
 7807SOL     OW34879   3.557   2.997   1.977 -0.4444  0.3450 -0.0481
 7807SOL    HW134880   3.481   3.043   2.013 -1.2874 -3.0770  2.5620
 7807SOL    HW234881   3.509   2.932   1.925 -2.2362  1.2321  0.4837
 7808SOL     OW34882   1.527   0.495   7.146  0.7094 -0.3599 -0.0693
 7808SOL    HW134883   1.544   0.449   7.064  3.5602 -0.7542  0.7568
 7808SOL    HW234884   1.553   0.420   7.200  0.2542  0.3837  1.1680
 7809SOL     OW34885   4.478   1.874  11.454  0.1241  0.1782  0.2635
 7809SOL    HW134886   4.495   1.883  11.548 -2.0670 -1.3427  0.7863
 7809SOL    HW234887   4.478   1.780  11.439  0.0216  0.0619  0.9809
 7810SOL     OW34888   0.035   1.628   2.997 -0.3243 -0.2654  0.0059
 7810SOL    HW134889   4.710   1.548   2.977 -0.8453  0.1542 -0.4376
 7810SOL    HW234890   4.688   1.692   2.977 -0.3036 -0.1167  0.4176
 7811SOL     OW34891   1.742   4.626   7.110  0.0999  0.0380 -0.0312
 7811SOL    HW134892   1.708   4.658   7.194 -1.0213  1.6295 -1.1012
 7811SOL    HW234893   1.820   4.575   7.133  1.2856  2.3195  1.1144
 7812SOL     OW34894   4.573   4.104   4.671  0.1694 -0.1731 -0.6019
 7812SOL    HW134895   4.612   4.074   4.753  3.0986  2.6226 -0.9676
 7812SOL    HW234896   4.480   4.084   4.680 -0.1906  1.1547 -1.2550
 7813SOL     OW34897   0.594   4.674   7.024  0.3103 -0.0077  0.5425
 7813SOL    HW134898   0.579   0.043   7.048 -1.0689  0.0923 -0.7063
 7813SOL    HW234899   0.575   4.623   7.103 -0.8578  0.9922  0.9138
 7814SOL     OW34900   0.434   1.849  11.981 -0.0737 -0.2559  0.1205
 7814SOL    HW134901   0.439   1.916  11.913 -1.1349 -0.8628 -0.5507
 7814SOL    HW234902   0.437   1.767  11.931  2.3005  1.3555 -2.3649
 7815SOL     OW34903   4.683   2.012  16.350 -0.4424  0.3231 -0.0192
 7815SOL    HW134904   4.658   2.050  16.266 -1.0983  1.2771  0.6092
 7815SOL    HW234905   0.043   1.965  16.336 -0.0028  1.5998 -1.7160
 7816SOL     OW34906   3.861   3.194   5.250 -0.4437 -0.3641 -0.0968
 7816SOL    HW134907   3.927   3.183   5.181  0.7674  2.3512  0.6588
 7816SOL    HW234908   3.784   3.208   5.195  0.0917 -1.7210 -1.1925
 7817SOL     OW34909   2.830   0.026   4.268 -0.3662  0.5848 -0.2055
 7817SOL    HW134910   2.809   0.101   4.211 -2.4358 -1.4538 -2.1138
 7817SOL    HW234911   2.915   4.720   4.236 -1.6378 -1.7424 -1.5309
 7818SOL     OW34912   2.853   4.614   4.771 -0.5136  0.2008  0.2495
 7818SOL    HW134913   2.822   4.601   4.681 -2.6171 -2.6146  1.3894
 7818SOL    HW234914   2.814   4.699   4.792 -0.0766  0.5785 -0.4491
 7819SOL     OW34915   1.194   1.314   6.033  0.0369 -0.3591  0.1366
 7819SOL    HW134916   1.136   1.300   6.108  2.1181 -0.5885  1.6850
 7819SOL    HW234917   1.261   1.352   6.089 -0.3526  0.8929 -0.2210
 7820SOL     OW34918   2.504   3.675  12.686  0.1671  0.6842  0.0704
 7820SOL    HW134919   2.461   3.749  12.641  0.9344  0.4270 -1.0776
 7820SOL    HW234920   2.516   3.600  12.628  0.4509 -0.4131  1.5470
 7821SOL     OW34921   0.859   3.922   3.650  0.1310  0.2813 -0.0331
 7821SOL    HW134922   0.845   3.906   3.743  0.4711  0.4722  0.0525
 7821SOL    HW234923   0.790   3.878   3.601 -1.0617  0.2582  1.7100
 7822SOL     OW34924   0.324   4.463   3.843  0.3354 -0.4599 -0.5039
 7822SOL    HW134925   0.375   4.417   3.909  0.8950 -0.3326 -0.8465
 7822SOL    HW234926   0.302   4.394   3.781 -0.0270  1.8869 -3.0057
 7823SOL     OW34927   3.084   3.783  15.910  0.4422  0.1612  0.6931
 7823SOL    HW134928   3.133   3.813  15.834 -0.5167 -2.6975 -1.0394
 7823SOL    HW234929   3.135   3.709  15.943 -0.5784 -0.8535 -0.0163
 7824SOL     OW34930   4.238   3.031  14.581  0.3454 -0.2134 -0.4443
 7824SOL    HW134931   4.235   3.042  14.486  1.1139  1.0449 -0.3216
 7824SOL    HW234932   4.274   2.944  14.594 -0.2811 -0.4142 -0.0628
 7825SOL     OW34933   2.403   3.570  14.882  0.6739 -0.4993 -0.0998
 7825SOL    HW134934   2.449   3.490  14.856  1.2964 -0.2718  0.3189
 7825SOL    HW234935   2.474   3.631  14.902 -0.6405  1.0106 -0.0287
 7826SOL     OW34936   0.139   3.347   3.428 -0.0763 -0.1361 -0.2751
 7826SOL    HW134937   0.134   3.259   3.465  2.0392 -0.2493 -0.2472
 7826SOL    HW234938   0.047   3.374   3.420  0.2379  0.9321 -0.2580
 7827SOL     OW34939   1.284   2.737   0.940  0.1874  0.2978  0.1565
 7827SOL    HW134940   1.196   2.770   0.959  0.1054 -0.5972  1.3216
 7827SOL    HW234941   1.342   2.781   1.002  2.2714 -0.7001 -1.0878
 7828SOL     OW34942   0.700   0.957   9.920 -0.2863  0.0510  0.2059
 7828SOL    HW134943   0.750   1.001   9.851 -0.5023 -0.4480 -0.2691
 7828SOL    HW234944   0.674   0.877   9.875 -0.1759  1.0801 -1.6939
 7829SOL     OW34945   0.287   1.547  12.177 -0.2750 -0.3797  0.3190
 7829SOL    HW134946   0.304   1.506  12.093 -1.0033  0.7564 -0.3740
 7829SOL    HW234947   0.362   1.512  12.225  0.1486  1.6552  1.1331
 7830SOL     OW34948   3.268   2.230   8.959 -0.4166  0.4577 -0.3691
 7830SOL    HW134949   3.351   2.277   8.966  0.9758 -2.1498  0.7168
 7830SOL    HW234950   3.285   2.147   9.004 -0.2372  0.6114 -0.1511
 7831SOL     OW34951   3.588   3.408   3.732  0.1783 -0.3594  0.0863
 7831SOL    HW134952   3.558   3.466   3.662 -0.2311 -0.6016  0.0628
 7831SOL    HW234953   3.670   3.368   3.705  0.2260 -0.4795  0.4094
 7832SOL     OW34954   0.868   0.104   6.303 -0.3353  0.0470  0.1232
 7832SOL    HW134955   0.862   0.009   6.299  1.4302 -0.0864  0.5891
 7832SOL    HW234956   0.901   0.106   6.393 -1.4055  0.6761  0.4933
 7833SOL     OW34957   2.969   0.603   6.581  0.2486 -0.3901 -0.4115
 7833SOL    HW134958   3.046   0.650   6.613  1.4138 -1.3461 -1.7968
 7833SOL    HW234959   2.933   0.673   6.527  1.0456  0.1792 -0.1957
 7834SOL     OW34960   0.125   0.927   9.641  0.0495 -0.4904  0.1043
 7834SOL    HW134961   0.218   0.914   9.657 -0.4631 -1.9594  1.9158
 7834SOL    HW234962   0.094   0.936   9.731  0.3191  0.1213  0.1327
 7835SOL     OW34963   2.501   2.845  14.818 -0.3759 -0.1820  0.2696
 7835SOL    HW134964   2.440   2.899  14.869  0.6158  0.6146  0.6231
 7835SOL    HW234965   2.564   2.837  14.890  0.7885  1.0134 -0.6273
 7836SOL     OW34966   4.185   0.702   6.602 -0.1988  0.0831  0.2956
 7836SOL    HW134967   4.200   0.617   6.644 -0.6685 -1.4256 -2.6038
 7836SOL    HW234968   4.169   0.760   6.676  0.8317 -1.0884  1.4238
 7837SOL     OW34969   3.922   1.796   5.240 -0.5633 -0.3207  0.2019
 7837SOL    HW134970   3.987   1.740   5.197  0.5851  2.1302 -1.2526
 7837SOL    HW234971   3.907   1.870   5.182  0.5710  0.7928  1.3321
 7838SOL     OW34972   4.064   1.874  13.736 -0.4295 -0.6496 -0.5585
 7838SOL    HW134973   4.113   1.951  13.707 -0.7698  0.5579  2.0835
 7838SOL    HW234974   3.981   1.882  13.688 -1.5290 -0.8511  1.3167
 7839SOL     OW34975   3.613   3.145   2.541  0.2479 -0.0149 -0.4655
 7839SOL    HW134976   3.547   3.101   2.595 -0.2525 -0.8455 -1.7477
 7839SOL    HW234977   3.638   3.072   2.485 -1.1620 -0.5600 -0.3849
 7840SOL     OW34978   4.676   4.635  10.223 -0.5947  0.4994 -0.0772
 7840SOL    HW134979   4.641   4.557  10.181 -2.6885  1.2736  0.2547
 7840SOL    HW234980   4.619   4.642  10.299  1.6937  0.0762  1.6937
 7841SOL     OW34981   0.815   1.575   3.137  0.3219  0.4997 -0.5228
 7841SOL    HW134982   0.724   1.579   3.165  0.8616 -0.2635  1.3820
 7841SOL    HW234983   0.846   1.648   3.191 -2.4288  1.0211  0.3358
 7842SOL     OW34984   3.886   3.938   8.772  0.8127 -0.0565  0.0163
 7842SOL    HW134985   3.827   3.968   8.703 -0.9253 -1.2089  0.9946
 7842SOL    HW234986   3.819   3.914   8.835  2.0001 -4.7778 -0.5072
 7843SOL     OW34987   4.723   1.777   0.816  0.2484 -0.1467  0.4571
 7843SOL    HW134988   0.007   1.845   0.882  0.4168  0.5497 -0.2808
 7843SOL    HW234989   4.652   1.732   0.863  0.0923 -0.5506 -0.1701
 7844SOL     OW34990   1.973   3.167  14.747  0.3021 -0.6311  0.0568
 7844SOL    HW134991   2.023   3.106  14.801 -0.1854  0.1877  1.4255
 7844SOL    HW234992   1.944   3.226  14.816 -2.1854 -0.9144 -0.7477
 7845SOL     OW34993   2.829   3.832   9.340  0.6482  1.0774 -0.4100
 7845SOL    HW134994   2.852   3.761   9.400  1.3217 -0.6884 -2.7782
 7845SOL    HW234995   2.903   3.890   9.362 -1.0845  3.6318 -1.3243
 7846SOL     OW34996   3.015   3.717  10.915  0.2456  0.3803 -0.4662
 7846SOL    HW134997   2.972   3.635  10.890  3.0937 -0.9804 -0.9069
 7846SOL    HW234998   3.029   3.758  10.830 -1.5786 -1.0814 -1.4812
 7847SOL     OW34999   1.577   0.523   3.706 -0.3656 -0.1734  0.6671
 7847SOL    HW135000   1.576   0.559   3.795 -0.2101  1.5444 -0.0415
 7847SOL    HW235001   1.546   0.435   3.728  1.2229 -0.6232  1.1038
 7848SOL     OW35002   1.670   4.381   5.329  0.5234  0.4981  0.4199
 7848SOL    HW135003   1.688   4.460   5.279 -1.5793  1.7819  1.6691
 7848SOL    HW235004   1.577   4.372   5.305  0.0773  0.7763  2.0266
 7849SOL     OW35005   3.767   0.861  10.386  0.4809 -0.4796  0.4531
 7849SOL    HW135006   3.842   0.816  10.348  1.0518 -1.5512  2.8939
 7849SOL    HW235007   3.697   0.810  10.344  0.9564  1.1545 -2.3265
 7850SOL     OW35008   1.419   2.473   3.369  0.5840 -0.0628  0.1541
 7850SOL    HW135009   1.425   2.544   3.305 -0.4740 -0.6513 -0.5914
 7850SOL    HW235010   1.494   2.416   3.351  1.1888  0.2184  1.7190
 7851SOL     OW35011   1.736   2.402   7.899 -0.0662 -0.2034 -0.3848
 7851SOL    HW135012   1.806   2.340   7.879 -0.4380 -1.1747  1.3422
 7851SOL    HW235013   1.782   2.486   7.902  0.6533 -0.6375  0.5844
 7852SOL     OW35014   0.392   1.344   7.317 -1.2880  0.4502  0.2705
 7852SOL    HW135015   0.311   1.395   7.311 -2.0143 -0.6035  1.0322
 7852SOL    HW235016   0.373   1.256   7.286  0.6299  0.2583 -0.3572
 7853SOL     OW35017   3.613   3.308   2.951  0.1410  0.2005  0.1056
 7853SOL    HW135018   3.646   3.218   2.956 -0.6240  0.0041  1.7852
 7853SOL    HW235019   3.676   3.352   2.894 -1.8458  1.5620 -1.0117
 7854SOL     OW35020   2.321   3.659   1.682 -0.1638  0.3374 -0.1712
 7854SOL    HW135021   2.348   3.670   1.773 -1.3134  1.9400 -0.0093
 7854SOL    HW235022   2.239   3.610   1.686 -1.6656  2.7107 -1.6259
 7855SOL     OW35023   1.222   0.499   5.393  0.6159  0.3737  0.1697
 7855SOL    HW135024   1.281   0.524   5.322 -0.2784  0.9342 -0.3798
 7855SOL    HW235025   1.189   0.584   5.421 -0.5291 -0.3752  1.0960
 7856SOL     OW35026   1.430   2.555   9.268 -1.0482 -0.2507 -0.0355
 7856SOL    HW135027   1.380   2.474   9.255 -0.2888 -0.9832  1.7025
 7856SOL    HW235028   1.375   2.605   9.328  0.7979  2.1740 -0.3377
 7857SOL     OW35029   1.706   3.796   6.070  0.2908  0.0180 -0.6643
 7857SOL    HW135030   1.742   3.795   5.981  0.0433 -1.1461 -0.7482
 7857SOL    HW235031   1.674   3.886   6.076  0.1911 -0.1157  0.8632
 7858SOL     OW35032   1.018   3.834   3.892 -0.6590  0.6636  0.1922
 7858SOL    HW135033   1.080   3.906   3.880 -0.8099  0.7909  0.1751
 7858SOL    HW235034   0.954   3.868   3.954 -0.4294 -2.5448  2.2074
 7859SOL     OW35035   2.244   3.375   2.682 -0.3536  0.0765  0.2501
 7859SOL    HW135036   2.265   3.454   2.632  0.5935  0.3103  1.0360
 7859SOL    HW235037   2.218   3.417   2.764  0.7400  3.0701 -0.9372
 7860SOL     OW35038   1.192   1.798   3.843 -0.0602  0.2144  0.2053
 7860SOL    HW135039   1.172   1.829   3.931 -0.9005 -1.4720  0.6248
 7860SOL    HW235040   1.258   1.860   3.813  2.3781 -1.5060  2.0398
 7861SOL     OW35041   2.250   3.573   2.508  0.0711 -0.0980 -0.5350
 7861SOL    HW135042   2.224   3.603   2.421  0.6691 -1.6204 -1.2491
 7861SOL    HW235043   2.286   3.657   2.536  0.3812 -0.7881  1.1251
 7862SOL     OW35044   3.455   1.874   6.637 -0.1080  0.1739  0.0017
 7862SOL    HW135045   3.422   1.947   6.584 -1.1411 -1.3571 -1.4541
 7862SOL    HW235046   3.426   1.912   6.720  0.7500  2.1001 -0.5772
 7863SOL     OW35047   1.087   4.327   0.792 -0.3628  0.1908  0.1918
 7863SOL    HW135048   1.036   4.380   0.854  1.8668  0.3293  1.9105
 7863SOL    HW235049   1.102   4.250   0.846  1.7234  1.1917  1.0437
 7864SOL     OW35050   0.531   2.450   3.778 -0.6202  0.0197 -0.0908
 7864SOL    HW135051   0.499   2.431   3.867  1.6219 -2.8936  0.1235
 7864SOL    HW235052   0.455   2.499   3.746 -0.0416 -1.1735 -3.2572
 7865SOL     OW35053   3.918   3.633   7.877  0.2378 -0.4718 -0.7187
 7865SOL    HW135054   3.844   3.659   7.932 -2.1009 -2.7076 -2.7879
 7865SOL    HW235055   3.949   3.704   7.822 -0.8655  0.7857  0.2809
 7866SOL     OW35056   2.853   4.674   2.195  0.3602 -0.0576  0.7279
 7866SOL    HW135057   2.779   4.625   2.159  0.1989  1.2821 -0.7708
 7866SOL    HW235058   2.901   4.608   2.245  2.0545  1.0472  0.5731
 7867SOL     OW35059   2.353   0.169   9.231  0.8070 -0.1733 -0.4380
 7867SOL    HW135060   2.393   0.100   9.284 -1.7976 -0.1730  1.5008
 7867SOL    HW235061   2.353   0.121   9.148  0.8044  0.5830 -0.8747
 7868SOL     OW35062   0.316   2.190  16.013 -0.1874 -0.4130 -0.6393
 7868SOL    HW135063   0.262   2.259  16.051  1.0809 -0.9451  2.1766
 7868SOL    HW235064   0.331   2.146  16.097  1.1936 -2.3845 -1.9104
 7869SOL     OW35065   1.355   3.404  12.627  0.6580 -0.1981 -0.1029
 7869SOL    HW135066   1.320   3.376  12.712 -0.4349 -1.8182 -1.0613
 7869SOL    HW235067   1.448   3.407  12.647  0.6552  0.3851 -0.1772
 7870SOL     OW35068   4.026   1.316   8.066  0.3226 -0.1745 -0.5490
 7870SOL    HW135069   3.939   1.353   8.080  1.2202  1.0487  1.9460
 7870SOL    HW235070   4.057   1.308   8.156 -1.7130 -0.8393  0.0893
 7871SOL     OW35071   3.170   1.053  10.859  0.4058  0.0790 -0.0523
 7871SOL    HW135072   3.103   1.004  10.906 -1.8636  0.5960 -2.7278
 7871SOL    HW235073   3.146   1.146  10.863  1.1809  0.3212 -1.0156
 7872SOL     OW35074   4.331   0.702   0.528  0.4445  0.1960 -0.1398
 7872SOL    HW135075   4.398   0.725   0.463 -0.4142 -1.0966 -1.4969
 7872SOL    HW235076   4.252   0.736   0.485 -0.5676 -1.3613  0.4737
 7873SOL     OW35077   0.394   1.869   8.630 -0.8047  0.2648  0.5398
 7873SOL    HW135078   0.386   1.877   8.535 -0.9126  0.4282  0.5615
 7873SOL    HW235079   0.428   1.781   8.646  0.5214  0.7681  0.4850
 7874SOL     OW35080   2.505   4.325   2.659  0.5349 -0.0004  0.4062
 7874SOL    HW135081   2.468   4.413   2.655  0.2899 -0.1638 -1.1574
 7874SOL    HW235082   2.440   4.276   2.709  2.5083 -0.2171  2.7419
 7875SOL     OW35083   4.584   3.459   3.057  0.2853  0.6941  0.2485
 7875SOL    HW135084   4.517   3.506   3.108  0.0616  1.2427 -0.5409
 7875SOL    HW235085   4.620   3.401   3.123  2.6037  0.6532 -1.0478
 7876SOL     OW35086   0.087   3.923   8.640  0.5899 -0.0175 -0.1262
 7876SOL    HW135087   0.154   3.931   8.708  0.9254 -2.0391 -0.2367
 7876SOL    HW235088   0.003   3.902   8.680  0.2734 -2.2725 -2.0397
 7877SOL     OW35089   3.274   2.807   9.066 -0.3145  0.1465  0.3171
 7877SOL    HW135090   3.335   2.876   9.094  0.2159 -0.2446  0.1187
 7877SOL    HW235091   3.313   2.735   9.116  2.3233 -0.2865 -2.3569
 7878SOL     OW35092   0.157   3.385   4.119  0.1529 -0.8804  0.4587
 7878SOL    HW135093   0.240   3.408   4.078 -0.3567  1.6147  0.8453
 7878SOL    HW235094   0.187   3.325   4.188 -1.6863  0.3605  2.3144
 7879SOL     OW35095   3.272   0.313   3.973  0.4087  0.7963  0.1162
 7879SOL    HW135096   3.258   0.234   3.922  0.4265 -0.5753  2.2605
 7879SOL    HW235097   3.214   0.309   4.048 -0.0313 -1.2132 -0.3469
 7880SOL     OW35098   4.007   1.813   3.478  0.8233  0.2415 -0.2993
 7880SOL    HW135099   4.004   1.907   3.459 -0.0802 -0.0879 -1.8122
 7880SOL    HW235100   4.016   1.810   3.573 -1.1384 -0.9240 -0.1488
 7881SOL     OW35101   1.449   3.979   3.650  0.1997 -0.0627 -0.1264
 7881SOL    HW135102   1.446   3.975   3.554 -4.4689 -0.1538  0.0121
 7881SOL    HW235103   1.544   3.986   3.655  0.3570 -1.4803 -1.0141
 7882SOL     OW35104   2.421   0.707   6.349 -0.4067 -0.0860 -0.2551
 7882SOL    HW135105   2.435   0.756   6.267 -1.2910  1.5090  0.5527
 7882SOL    HW235106   2.386   0.622   6.325  2.2710 -1.3592  0.3143
 7883SOL     OW35107   4.429   3.099  10.925  0.6969  0.3856 -0.1762
 7883SOL    HW135108   4.358   3.050  10.884 -0.2983  0.5692  1.3194
 7883SOL    HW235109   4.384   3.130  11.004 -0.2272 -1.0425 -0.1383
 7884SOL     OW35110   0.529   4.319   6.667  0.0278  0.6507  0.4718
 7884SOL    HW135111   0.534   4.412   6.692  0.7823  0.0121  2.6706
 7884SOL    HW235112   0.477   4.336   6.589  2.4777  0.8323 -1.1123
 7885SOL     OW35113   3.113   4.045   5.055 -0.2657  0.3977  0.1870
 7885SOL    HW135114   3.187   4.106   5.058  1.4206 -1.6583  0.0666
 7885SOL    HW235115   3.130   4.012   4.967 -0.8384 -0.8058  0.5184
 7886SOL     OW35116   1.424   3.841   6.345  0.1063  0.2492 -0.1343
 7886SOL    HW135117   1.430   3.753   6.307 -2.7764  0.4803 -1.1078
 7886SOL    HW235118   1.338   3.834   6.385  0.0204 -1.2647 -0.5676
 7887SOL     OW35119   3.082   3.495   6.261  0.3967  0.4850 -0.5140
 7887SOL    HW135120   3.024   3.426   6.229 -0.6788  3.0423 -4.0788
 7887SOL    HW235121   3.021   3.545   6.316  3.2898  1.1617  2.0737
 7888SOL     OW35122   2.819   4.313   1.642  0.0321  0.0564 -0.3664
 7888SOL    HW135123   2.833   4.293   1.550 -0.1579  0.3524 -0.4596
 7888SOL    HW235124   2.776   4.234   1.675  3.4197 -1.5049  0.3186
 7889SOL     OW35125   2.292   0.171   2.762  0.2793 -0.2697  0.4782
 7889SOL    HW135126   2.334   0.258   2.759 -1.2338  0.4193 -1.0890
 7889SOL    HW235127   2.223   0.177   2.696 -1.1041  1.0133  2.0299
 7890SOL     OW35128   3.225   2.855   2.590  0.4945 -0.3624  0.0043
 7890SOL    HW135129   3.172   2.833   2.666 -1.9035 -1.5718 -1.9999
 7890SOL    HW235130   3.312   2.823   2.613  0.6419  0.1475  0.1727
 7891SOL     OW35131   2.137   2.695   7.962 -0.0707 -0.1675  0.6068
 7891SOL    HW135132   2.219   2.683   7.915  0.4466  3.9864  0.4550
 7891SOL    HW235133   2.164   2.659   8.047 -1.9711  1.2970  1.8391
 7892SOL     OW35134   3.561   4.386  14.605 -0.7457  0.1529  0.2283
 7892SOL    HW135135   3.655   4.379  14.626 -0.8904  0.8938  1.1012
 7892SOL    HW235136   3.564   4.382  14.510  0.4291 -2.6630  0.3730
 7893SOL     OW35137   2.745   4.691   6.543  0.0483  0.0500  0.0661
 7893SOL    HW135138   2.727   4.693   6.449  1.3679  2.2154 -0.1396
 7893SOL    HW235139   2.730   4.600   6.570 -1.0046  0.6568  1.5275
 7894SOL     OW35140   2.360   3.138   0.382  0.2259  0.3096 -0.0999
 7894SOL    HW135141   2.398   3.178   0.460 -0.3547 -1.4844  1.0735
 7894SOL    HW235142   2.434   3.152   0.323  0.6697  0.7501  0.5609
 7895SOL     OW35143   1.686   4.659   4.571  0.5810  0.0676  0.5689
 7895SOL    HW135144   1.662   0.028   4.577 -1.3954 -0.3781 -0.4011
 7895SOL    HW235145   1.665   4.640   4.480  1.2371 -0.4923  0.5262
 7896SOL     OW35146   0.007   3.035   8.056 -0.3275 -0.4428 -0.4051
 7896SOL    HW135147   0.010   3.102   8.125 -0.7825 -0.7619 -0.0741
 7896SOL    HW235148   4.687   2.971   8.112 -2.2156  0.6350 -0.6126
 7897SOL     OW35149   2.693   3.030  11.053  0.2795 -0.4803 -0.2080
 7897SOL    HW135150   2.721   3.094  11.119 -1.9728  2.3573 -1.9685
 7897SOL    HW235151   2.757   2.959  11.055 -1.3578 -1.9272  0.6230
 7898SOL     OW35152   4.598   4.367   2.512  0.5042  0.0179 -0.6231
 7898SOL    HW135153   4.630   4.282   2.482  0.0508 -0.8976  1.4966
 7898SOL    HW235154   4.506   4.354   2.487 -0.2819  0.1506  2.1434
 7899SOL     OW35155   0.501   4.378   4.039 -0.1001 -0.0827 -0.1525
 7899SOL    HW135156   0.462   4.389   4.125  1.5136  0.1784  0.5466
 7899SOL    HW235157   0.554   4.302   4.063 -1.0683 -0.4940  0.6811
 7900SOL     OW35158   0.677   4.152   9.310  0.2871 -0.5748 -0.2882
 7900SOL    HW135159   0.666   4.071   9.359  0.9062 -1.7525 -2.0749
 7900SOL    HW235160   0.587   4.184   9.314  0.7726  0.8472 -0.6934
 7901SOL     OW35161   0.178   0.598   2.434 -0.1425 -0.3872 -0.7058
 7901SOL    HW135162   0.155   0.505   2.427  0.4883 -0.3287 -3.4977
 7901SOL    HW235163   0.220   0.601   2.348  0.6470 -1.3115 -0.3604
 7902SOL     OW35164   3.731   4.375   8.498 -0.4081  0.6326  0.0253
 7902SOL    HW135165   3.654   4.317   8.502 -0.2124  0.3957  0.3808
 7902SOL    HW235166   3.796   4.308   8.519  0.9277  2.0976  0.5025
 7903SOL     OW35167   2.619   3.362  11.320 -0.7377  0.1751  0.0450
 7903SOL    HW135168   2.554   3.369  11.250 -0.6833 -0.9499 -0.1143
 7903SOL    HW235169   2.592   3.426  11.386  0.8894  2.8197 -1.8424
 7904SOL     OW35170   4.686   2.676  14.971  0.2810 -0.1347  0.7897
 7904SOL    HW135171   0.020   2.703  14.899 -1.6599  1.3500 -0.1855
 7904SOL    HW235172   4.672   2.590  14.932 -0.5071  0.9381 -1.2794
 7905SOL     OW35173   1.836   0.468   5.208 -0.5484  0.3888  0.1412
 7905SOL    HW135174   1.762   0.411   5.227  1.1212 -0.8865  2.7701
 7905SOL    HW235175   1.914   0.412   5.208 -1.4304 -0.8424 -2.4801
 7906SOL     OW35176   3.390   1.169   3.156  0.4584 -0.3131  0.5039
 7906SOL    HW135177   3.482   1.150   3.138 -0.1261 -0.2548 -2.5521
 7906SOL    HW235178   3.350   1.111   3.091 -1.0943  1.0931  0.1971
 7907SOL     OW35179   3.825   0.149   2.955  0.4954 -0.6901  0.5900
 7907SOL    HW135180   3.844   0.186   2.869 -1.4136 -0.8360  0.1081
 7907SOL    HW235181   3.851   0.231   2.997 -0.3829 -0.2808  0.3140
 7908SOL     OW35182   0.465   1.584   6.093  0.2059 -0.2515  0.7660
 7908SOL    HW135183   0.459   1.675   6.122 -0.0766 -0.4803  1.4321
 7908SOL    HW235184   0.550   1.591   6.051 -0.4699 -0.2892 -0.6056
 7909SOL     OW35185   0.516   4.703  16.489 -0.0742  0.2688  0.1058
 7909SOL    HW135186   0.600   4.710  16.444 -0.4725  0.0555 -0.6778
 7909SOL    HW235187   0.487   4.625  16.441 -0.2750 -0.3436  1.2329
 7910SOL     OW35188   3.869   4.358   3.063 -0.1879 -0.2349 -0.3504
 7910SOL    HW135189   3.844   4.276   3.020 -0.6979  0.1296 -0.7480
 7910SOL    HW235190   3.838   4.427   3.005  1.6924 -0.2583 -1.3701
 7911SOL     OW35191   2.251   1.078  10.708 -0.3507 -0.1500 -0.3340
 7911SOL    HW135192   2.340   1.077  10.672 -1.0750  2.2522 -2.2349
 7911SOL    HW235193   2.200   1.107  10.632 -0.1610 -2.9941 -1.5252
 7912SOL     OW35194   1.579   3.458  15.960  0.2490 -0.0073 -0.4579
 7912SOL    HW135195   1.498   3.506  15.944 -0.0355  0.0716  1.2823
 7912SOL    HW235196   1.644   3.527  15.945 -0.0221  0.0123 -1.5380
 7913SOL     OW35197   2.324   2.883  10.694 -0.3612 -0.4588  0.0404
 7913SOL    HW135198   2.398   2.927  10.736 -2.1591  0.3749  2.3428
 7913SOL    HW235199   2.252   2.937  10.725 -1.0900 -0.5448 -1.5210
 7914SOL     OW35200   0.449   1.750   5.082  0.2398  0.9462  0.0700
 7914SOL    HW135201   0.542   1.732   5.069  0.0024  0.2531 -0.6692
 7914SOL    HW235202   0.439   1.835   5.039 -1.1181  2.5303  3.4845
 7915SOL     OW35203   2.148   0.468   7.951 -0.3058  0.7167 -0.7816
 7915SOL    HW135204   2.193   0.530   8.008 -0.7384  1.1443 -0.9028
 7915SOL    HW235205   2.219   0.406   7.938  0.7850  1.6057  1.0211
 7916SOL     OW35206   1.214   2.221   8.759  0.4146  0.0133  0.4099
 7916SOL    HW135207   1.171   2.170   8.827 -0.9026 -0.7644 -0.9970
 7916SOL    HW235208   1.295   2.170   8.755 -0.3148 -1.1864  1.1628
 7917SOL     OW35209   1.852   0.646  11.256 -0.3310  0.1761 -0.1271
 7917SOL    HW135210   1.764   0.613  11.238 -0.0240 -1.8332  2.0392
 7917SOL    HW235211   1.887   0.649  11.167  0.5477 -1.0898  0.1932
 7918SOL     OW35212   4.535   2.956   4.469 -0.1447  0.3098 -0.4124
 7918SOL    HW135213   4.539   3.029   4.407 -1.6418  0.3592 -0.4483
 7918SOL    HW235214   4.484   2.999   4.538  0.9910  1.0710 -0.0533
 7919SOL     OW35215   3.410   2.858   8.198 -0.2534  0.1721 -0.3530
 7919SOL    HW135216   3.404   2.819   8.111 -3.1531  0.9514 -0.5022
 7919SOL    HW235217   3.385   2.950   8.185 -1.6439 -0.1945 -0.3242
 7920SOL     OW35218   3.518   0.983  15.147  0.3653 -0.0863  0.9060
 7920SOL    HW135219   3.488   1.022  15.229  2.2933 -1.6338  2.3627
 7920SOL    HW235220   3.575   1.057  15.126 -0.7436  0.3079 -0.6936
 7921SOL     OW35221   1.496   3.069   6.087 -0.3666 -0.3306 -0.0952
 7921SOL    HW135222   1.437   3.022   6.145  0.8441 -1.6485  0.0672
 7921SOL    HW235223   1.525   2.994   6.037  1.2627  1.0088 -1.1698
 7922SOL     OW35224   3.044   4.209   6.835  0.2560 -0.1038 -0.4809
 7922SOL    HW135225   3.032   4.293   6.879 -0.4882  0.1041 -1.0933
 7922SOL    HW235226   3.131   4.212   6.796  0.0012 -0.0073 -1.0307
 7923SOL     OW35227   1.112   3.392   3.335  0.0166 -0.2963 -0.6514
 7923SOL    HW135228   1.020   3.420   3.336 -0.3121 -1.2629 -2.9896
 7923SOL    HW235229   1.157   3.450   3.396 -3.1302 -0.5297  1.9343
 7924SOL     OW35230   1.403   2.124  17.270 -0.2776 -0.3412 -0.1035
 7924SOL    HW135231   1.351   2.189  17.317  1.6132  0.5845  0.6883
 7924SOL    HW235232   1.489   2.127  17.311 -0.1947  1.6064 -0.4502
 7925SOL     OW35233   4.470   0.349   5.731 -0.3483 -0.1544  0.6275
 7925SOL    HW135234   4.496   0.315   5.817 -0.6117  2.0281  1.5822
 7925SOL    HW235235   4.465   0.273   5.673 -2.7300 -0.1440  0.8060
 7926SOL     OW35236   0.085   2.387   7.657  0.2141  0.0207 -0.5060
 7926SOL    HW135237   0.015   2.436   7.700 -0.0358  1.3064 -2.4006
 7926SOL    HW235238   0.040   2.342   7.586 -0.2913  2.6430 -1.8338
 7927SOL     OW35239   2.129   4.321   8.735  0.7386  0.0050  0.0858
 7927SOL    HW135240   2.124   4.289   8.644 -2.1399 -2.4703  1.0877
 7927SOL    HW235241   2.197   4.273   8.780  1.0610  0.7045  0.3431
 7928SOL     OW35242   4.435   2.170   6.254  0.1922 -0.5955 -0.2930
 7928SOL    HW135243   4.392   2.139   6.174  1.0556  0.3710 -1.1359
 7928SOL    HW235244   4.505   2.216   6.208 -0.3145 -0.4219 -0.8925
 7929SOL     OW35245   0.147   0.119   8.141 -0.4247 -0.2576  0.4240
 7929SOL    HW135246   0.051   0.116   8.146 -0.3658 -2.9126  0.0768
 7929SOL    HW235247   0.154   0.207   8.177  1.0416  0.0923 -0.7099
 7930SOL     OW35248   1.438   4.071   8.450  0.0194 -0.0271 -0.1737
 7930SOL    HW135249   1.343   4.063   8.445  0.0988 -1.9396  1.1169
 7930SOL    HW235250   1.464   3.989   8.492  1.6079 -0.3246 -1.7426
 7931SOL     OW35251   1.456   1.413  11.147  0.1106 -0.3391 -0.0480
 7931SOL    HW135252   1.490   1.497  11.178  0.7244 -0.3908 -0.5894
 7931SOL    HW235253   1.422   1.379  11.230  1.4674 -1.5398  0.0272
 7932SOL     OW35254   4.360   1.124   6.258  0.2431 -0.2763  0.6170
 7932SOL    HW135255   4.360   1.031   6.278 -0.1141  0.2595  3.0469
 7932SOL    HW235256   4.378   1.158   6.346  2.8057  1.7663 -0.6755
 7933SOL     OW35257   0.870   1.222  12.784  0.0896 -0.3909 -0.3203
 7933SOL    HW135258   0.934   1.152  12.795  1.3139  0.4899 -1.8123
 7933SOL    HW235259   0.932   1.295  12.789 -0.5718  0.2438 -1.2494
 7934SOL     OW35260   1.184   3.357   5.888  0.1558 -0.4716  0.6964
 7934SOL    HW135261   1.238   3.279   5.881 -0.4871 -0.9496  1.0930
 7934SOL    HW235262   1.248   3.421   5.919 -0.7961  0.5865  0.4966
 7935SOL     OW35263   3.623   0.196   4.922  0.4004  0.0054 -0.3678
 7935SOL    HW135264   3.679   0.270   4.946  0.1085  0.2198 -0.3490
 7935SOL    HW235265   3.656   0.168   4.837  3.1512 -0.1506  0.7473
 7936SOL     OW35266   1.225   3.407   6.401  0.2074  0.3160  0.6709
 7936SOL    HW135267   1.178   3.455   6.469 -4.2972 -0.8838 -1.6245
 7936SOL    HW235268   1.292   3.470   6.373  1.8988 -1.6860  0.1717
 7937SOL     OW35269   1.282   2.467   8.893 -0.1542 -0.3758 -0.3871
 7937SOL    HW135270   1.333   2.503   8.820 -0.2481  1.0913  0.2513
 7937SOL    HW235271   1.224   2.421   8.833  0.0824 -0.0065 -0.9013
 7938SOL     OW35272   4.338   3.144  11.174 -0.2024  0.3295 -0.2088
 7938SOL    HW135273   4.276   3.078  11.204  0.5347 -0.4055 -0.2938
 7938SOL    HW235274   4.404   3.102  11.228 -0.6480  0.7817  0.6876
 7939SOL     OW35275   0.534   2.487   2.296  0.5030  0.3348  0.0630
 7939SOL    HW135276   0.539   2.442   2.212 -1.7198  0.9740 -0.4087
 7939SOL    HW235277   0.522   2.580   2.276 -0.9992  0.3183  0.8915
 7940SOL     OW35278   2.501   2.703  16.634 -0.0923 -0.3438 -0.5434
 7940SOL    HW135279   2.560   2.645  16.682  1.2946  1.0158 -0.6102
 7940SOL    HW235280   2.409   2.680  16.649  0.3452 -0.5060  1.9778
 7941SOL     OW35281   0.566   0.208   9.738 -0.1443 -0.0929 -0.1404
 7941SOL    HW135282   0.651   0.236   9.772  0.8154 -0.8687 -1.8966
 7941SOL    HW235283   0.530   0.292   9.712  1.6478  0.3090 -1.2933
 7942SOL     OW35284   0.436   3.085   5.658  0.0971 -0.2164  0.5524
 7942SOL    HW135285   0.527   3.073   5.686  0.3014 -0.2298 -0.1382
 7942SOL    HW235286   0.452   3.145   5.585 -2.6167  0.4114  0.4796
 7943SOL     OW35287   0.617   0.936   4.027 -0.1881 -0.1544  0.1121
 7943SOL    HW135288   0.597   1.025   3.998 -0.4092 -0.6136 -1.1153
 7943SOL    HW235289   0.536   0.913   4.073 -0.3451  0.0057 -0.0860
 7944SOL     OW35290   0.547   3.308  14.294 -0.1869  0.4488 -0.5036
 7944SOL    HW135291   0.622   3.312  14.234 -0.6548 -2.1761 -1.2758
 7944SOL    HW235292   0.588   3.329  14.378 -1.2047 -0.2541  0.1698
 7945SOL     OW35293   4.060   3.436   6.869 -0.3255  0.2106 -0.1501
 7945SOL    HW135294   4.017   3.354   6.845 -2.2864  0.8963  1.0233
 7945SOL    HW235295   4.057   3.486   6.787  0.9184 -1.3570 -1.1489
 7946SOL     OW35296   2.508   3.865   1.619 -0.5920  0.4619  0.3143
 7946SOL    HW135297   2.597   3.849   1.651 -0.9929 -1.4093  0.4509
 7946SOL    HW235298   2.461   3.792   1.658  1.3439 -0.9064  0.0753
 7947SOL     OW35299   3.812   3.927  16.745  0.6296  0.0125  0.2688
 7947SOL    HW135300   3.861   3.974  16.813  1.0584 -1.5334  1.0148
 7947SOL    HW235301   3.816   3.983  16.667 -2.9084 -1.0349 -0.6985
 7948SOL     OW35302   1.455   2.892   2.967 -0.4498 -0.7240 -0.8403
 7948SOL    HW135303   1.387   2.910   3.033  0.0130 -1.6457 -0.1116
 7948SOL    HW235304   1.464   2.977   2.925 -0.0362 -0.5182 -0.3399
 7949SOL     OW35305   1.680   0.939   2.949 -0.2563 -0.0940  0.0825
 7949SOL    HW135306   1.609   0.974   2.897  1.7727  3.1254 -0.4863
 7949SOL    HW235307   1.753   0.936   2.888  0.0576 -4.7867  0.6289
 7950SOL     OW35308   3.815   0.163   5.632  0.2843  0.5849 -0.2373
 7950SOL    HW135309   3.758   0.157   5.556 -0.7530  1.7479  0.4416
 7950SOL    HW235310   3.820   0.073   5.665 -1.7959 -0.0690 -1.6798
 7951SOL     OW35311   3.204   2.560   7.149  0.1567 -0.2398  0.0638
 7951SOL    HW135312   3.248   2.546   7.065 -2.5322  2.4519 -1.7993
 7951SOL    HW235313   3.275   2.575   7.212 -0.1157  0.1088  0.2882
 7952SOL     OW35314   3.859   4.500   2.401 -0.5372 -0.2343  0.0844
 7952SOL    HW135315   3.826   4.590   2.394 -0.3247 -0.0189  1.7315
 7952SOL    HW235316   3.794   4.472   2.465 -0.0586  1.1175  1.1740
 7953SOL     OW35317   4.044   2.037   1.417 -0.2137  0.1600 -0.3233
 7953SOL    HW135318   4.115   2.084   1.461  0.0894  0.7259 -1.4056
 7953SOL    HW235319   4.014   2.105   1.357 -3.2957 -0.3914  0.6149
 7954SOL     OW35320   1.779   4.327   3.112 -0.0794 -0.4298  0.5390
 7954SOL    HW135321   1.757   4.320   3.019  0.7582 -0.4558  0.3379
 7954SOL    HW235322   1.739   4.411   3.133 -2.4920 -1.2020 -1.0249
 7955SOL     OW35323   1.194   0.482   0.083 -0.0683  0.5359 -0.3283
 7955SOL    HW135324   1.144   0.488   0.001 -2.2993 -3.0962  0.7517
 7955SOL    HW235325   1.267   0.425   0.057  1.3167  1.6829  1.0662
 7956SOL     OW35326   1.525   0.518  15.700  0.0360 -0.2249 -0.0859
 7956SOL    HW135327   1.562   0.446  15.649 -0.5501 -1.0934  0.7245
 7956SOL    HW235328   1.597   0.581  15.710 -0.5424  0.5841 -1.1172
 7957SOL     OW35329   0.945   0.927  13.337  0.0813  0.8359  0.3599
 7957SOL    HW135330   0.892   0.983  13.393  0.9073  1.5559  0.4175
 7957SOL    HW235331   0.941   0.992  13.267 -0.2180  0.2290 -0.1865
 7958SOL     OW35332   3.824   1.656  15.195  0.1207 -0.2330 -0.1053
 7958SOL    HW135333   3.831   1.572  15.149 -1.3016 -0.1990 -0.3676
 7958SOL    HW235334   3.915   1.686  15.182  0.5476 -0.8399  1.5558
 7959SOL     OW35335   2.004   4.171   5.230  0.0566  0.5750 -0.4266
 7959SOL    HW135336   2.010   4.126   5.146  0.5415  2.5069 -1.4271
 7959SOL    HW235337   1.911   4.174   5.251  0.4842  1.7323  1.3421
 7960SOL     OW35338   0.535   1.192   9.044  0.8282 -0.3958  0.2547
 7960SOL    HW135339   0.440   1.188   9.052  0.7809 -0.9564 -0.5488
 7960SOL    HW235340   0.564   1.119   9.098  0.0573 -0.1409  1.0078
 7961SOL     OW35341   1.316   2.516  13.748 -0.2693  0.1713  0.4843
 7961SOL    HW135342   1.364   2.575  13.805  0.8343 -0.8705  0.6353
 7961SOL    HW235343   1.320   2.564  13.666 -1.3453 -0.0052  0.3268
 7962SOL     OW35344   4.187   2.659   0.410  0.1463  0.6847 -0.2577
 7962SOL    HW135345   4.236   2.605   0.347 -0.0341  1.2958 -0.9196
 7962SOL    HW235346   4.220   2.633   0.496 -0.8371 -1.0800 -0.4044
 7963SOL     OW35347   1.008   2.037   3.228 -0.1496  0.0815  0.4193
 7963SOL    HW135348   1.081   2.094   3.252 -0.5938  0.9978 -0.4090
 7963SOL    HW235349   0.940   2.073   3.284 -2.0226 -1.9892 -0.5382
 7964SOL     OW35350   1.460   0.542  16.578  0.1868  0.2629 -0.3142
 7964SOL    HW135351   1.546   0.560  16.616 -0.4708  0.0924  1.2239
 7964SOL    HW235352   1.421   0.541  16.665 -1.4258  1.1566 -1.0324
 7965SOL     OW35353   3.811   0.591  10.205  0.5845 -0.5430  0.5064
 7965SOL    HW135354   3.877   0.659  10.222 -1.1041  1.1877  0.1189
 7965SOL    HW235355   3.836   0.574  10.114 -0.8805 -1.2727  0.2396
 7966SOL     OW35356   0.277   3.530   0.023 -0.2270 -0.6516 -0.1711
 7966SOL    HW135357   0.320   3.446   0.041 -0.4114 -0.3463  1.6347
 7966SOL    HW235358   0.251   3.556   0.111  0.0762 -0.7056 -0.0653
 7967SOL     OW35359   0.990   0.712  12.931 -0.1524 -0.1598 -0.3351
 7967SOL    HW135360   1.038   0.661  12.996  0.8620  0.9272 -0.2448
 7967SOL    HW235361   1.009   0.668  12.848 -2.6581 -0.1550 -0.9138
 7968SOL     OW35362   1.249   1.785  13.645  0.1057 -0.4234 -0.7700
 7968SOL    HW135363   1.186   1.828  13.703  2.8230 -2.1038  3.4350
 7968SOL    HW235364   1.330   1.832  13.664 -1.2189  0.8629  1.8287
 7969SOL     OW35365   2.558   1.469   7.481  0.5798 -0.2716 -0.2656
 7969SOL    HW135366   2.595   1.504   7.563 -4.2480  0.7632  1.4541
 7969SOL    HW235367   2.597   1.382   7.484  1.2008  0.1002  2.3643
 7970SOL     OW35368   3.867   1.626   5.736 -0.0080  0.2207  0.0066
 7970SOL    HW135369   3.925   1.638   5.661 -1.4002 -2.9470 -1.5898
 7970SOL    HW235370   3.925   1.625   5.813  1.9652 -0.2894 -1.5040
 7971SOL     OW35371   3.181   3.577   1.111  0.0615  0.2261  0.8164
 7971SOL    HW135372   3.167   3.508   1.177  1.0048  0.3521  1.1454
 7971SOL    HW235373   3.273   3.604   1.109  0.2595 -0.5609 -0.4633
 7972SOL     OW35374   3.775   2.412  17.680 -0.1841 -0.4271 -0.2991
 7972SOL    HW135375   3.808   2.481   0.044  1.2662 -2.8257  1.7522
 7972SOL    HW235376   3.734   2.356   0.054  0.3143 -1.3831 -0.8000
 7973SOL     OW35377   4.047   0.033  12.523 -0.1068 -0.1282 -0.3438
 7973SOL    HW135378   4.099   0.016  12.445  1.3881  1.2627  0.3352
 7973SOL    HW235379   4.005   4.672  12.540 -1.4551  0.5572 -0.2897
 7974SOL     OW35380   1.817   3.079   2.881  0.4050 -0.5288  0.0829
 7974SOL    HW135381   1.794   3.084   2.788 -1.2449  1.5380  0.5939
 7974SOL    HW235382   1.729   3.091   2.916  0.6019  1.5514 -0.1248
 7975SOL     OW35383   2.256   4.219  10.097 -0.1583  0.4727 -0.1449
 7975SOL    HW135384   2.232   4.139  10.050 -1.1449  1.1996 -0.8722
 7975SOL    HW235385   2.325   4.188  10.155  0.0919  1.4451  0.0824
 7976SOL     OW35386   1.908   2.669   3.637  0.3841 -0.3444 -0.1579
 7976SOL    HW135387   1.986   2.684   3.689  0.4128 -0.4670 -0.1641
 7976SOL    HW235388   1.896   2.756   3.599  3.6560 -0.0940 -0.5772
 7977SOL     OW35389   3.523   2.741   2.616 -0.5955 -0.0254  0.2732
 7977SOL    HW135390   3.523   2.649   2.641 -1.1549 -0.4242 -1.1766
 7977SOL    HW235391   3.547   2.747   2.523 -1.2830 -0.9987  0.0377
 7978SOL     OW35392   3.081   1.121   5.430  0.1951  0.3449 -0.2367
 7978SOL    HW135393   3.055   1.207   5.465 -0.7805  0.4819 -1.3022
 7978SOL    HW235394   3.000   1.071   5.436 -1.1545  2.4432 -0.9947
 7979SOL     OW35395   4.454   2.537   4.748  0.4806 -0.7081 -0.0735
 7979SOL    HW135396   4.496   2.592   4.814 -0.5866  1.1638 -0.9363
 7979SOL    HW235397   4.450   2.449   4.785  1.4784 -0.8063 -0.2033
 7980SOL     OW35398   0.568   4.465  10.899  0.1110 -0.6234 -0.2390
 7980SOL    HW135399   0.536   4.476  10.989  0.2781  0.7552 -0.3461
 7980SOL    HW235400   0.559   4.370  10.890  2.3655 -0.9471  1.0461
 7981SOL     OW35401   1.134   0.314   4.181  0.4864  0.3826  0.0635
 7981SOL    HW135402   1.213   0.302   4.128  0.7913  0.9901  0.3815
 7981SOL    HW235403   1.099   0.226   4.174  0.4487  0.3464  0.6922
 7982SOL     OW35404   1.212   2.310  15.215 -0.0741 -0.9151  0.0613
 7982SOL    HW135405   1.142   2.273  15.268  0.6037  1.1575  2.3781
 7982SOL    HW235406   1.249   2.226  15.187 -0.0475 -1.4470  1.6664
 7983SOL     OW35407   1.202   1.581   9.419 -0.4018  0.3495  0.4453
 7983SOL    HW135408   1.114   1.544   9.430 -0.6117  0.2689 -1.5855
 7983SOL    HW235409   1.243   1.494   9.412 -1.6421 -0.2779  1.0018
 7984SOL     OW35410   4.051   2.542   5.919 -0.1367  0.4237  0.3452
 7984SOL    HW135411   4.109   2.471   5.946 -0.6035 -0.8495 -2.0051
 7984SOL    HW235412   4.093   2.581   5.842  1.3541  0.2535  1.0904
 7985SOL     OW35413   0.453   1.343   6.774  0.1433 -0.9952  0.2167
 7985SOL    HW135414   0.531   1.337   6.828  0.9245  0.9337 -0.7162
 7985SOL    HW235415   0.385   1.365   6.837 -0.2838 -1.5585 -0.0506
 7986SOL     OW35416   0.473   1.689   3.787 -0.1816 -0.1356  0.4356
 7986SOL    HW135417   0.453   1.703   3.880  0.0867  0.4175  0.4028
 7986SOL    HW235418   0.406   1.620   3.782 -2.9268  2.3908  2.1462
 7987SOL     OW35419   0.642   1.022   9.250  0.7576 -0.2009 -0.1065
 7987SOL    HW135420   0.551   1.004   9.270  1.4126 -1.2297  1.9374
 7987SOL    HW235421   0.688   1.016   9.334 -0.4320 -0.1445  0.5445
 7988SOL     OW35422   4.528   2.843   0.227 -0.4122 -0.3783 -0.2002
 7988SOL    HW135423   4.582   2.914   0.262 -1.2580  0.1333  0.0602
 7988SOL    HW235424   4.439   2.875   0.240 -1.0044 -2.4624  0.8433
 7989SOL     OW35425   2.891   1.244   8.891  0.2699  0.0575 -0.1322
 7989SOL    HW135426   2.805   1.208   8.910  0.1442  1.2299  1.5346
 7989SOL    HW235427   2.910   1.275   8.980 -1.4775 -1.5828  0.8121
 7990SOL     OW35428   0.998   0.471  14.750 -0.0581 -0.3991  0.3314
 7990SOL    HW135429   0.927   0.466  14.686  1.4844 -4.4993 -1.0367
 7990SOL    HW235430   0.945   0.526  14.807  0.3303  0.8124 -0.4693
 7991SOL     OW35431   1.649   4.202   9.251 -0.4270 -0.2184 -0.1304
 7991SOL    HW135432   1.680   4.173   9.166 -1.4124  2.2804 -1.3580
 7991SOL    HW235433   1.557   4.220   9.229 -0.6192 -2.0425 -0.7466
 7992SOL     OW35434   2.688   4.243  12.634 -0.8185  0.3188 -0.1640
 7992SOL    HW135435   2.747   4.304  12.679 -1.7070  1.9702 -1.2047
 7992SOL    HW235436   2.603   4.260  12.676 -1.1091  1.3021 -1.1574
 7993SOL     OW35437   2.707   3.861  10.726  0.5520  0.4695 -0.7307
 7993SOL    HW135438   2.705   3.765  10.735 -1.4312  0.5853  0.0888
 7993SOL    HW235439   2.640   3.894  10.786  0.5154  1.0034 -1.0690
 7994SOL     OW35440   3.949   2.843   2.664  0.4715 -0.0497 -0.4338
 7994SOL    HW135441   3.967   2.827   2.756 -1.5314  3.9070  0.6467
 7994SOL    HW235442   3.938   2.752   2.635 -1.7230 -0.4200  1.5786
 7995SOL     OW35443   0.169   4.379   5.145 -0.1703 -0.3918 -0.0272
 7995SOL    HW135444   0.257   4.368   5.182  0.1099 -3.3119 -1.6055
 7995SOL    HW235445   0.140   4.290   5.127 -1.1959 -0.1221  0.2727
 7996SOL     OW35446   2.203   1.477  10.337 -0.2222  0.2195 -0.5657
 7996SOL    HW135447   2.150   1.397  10.335  2.0017 -1.2955  0.7934
 7996SOL    HW235448   2.208   1.492  10.242 -0.3729  3.1896 -0.1112
 7997SOL     OW35449   2.292   2.464   3.742  0.0974  0.0150  0.2165
 7997SOL    HW135450   2.286   2.422   3.656 -0.4504  0.0354  0.2433
 7997SOL    HW235451   2.388   2.458   3.745  0.1132 -0.5215 -1.8686
 7998SOL     OW35452   0.897   4.432   0.944 -0.5062 -0.4416  0.3603
 7998SOL    HW135453   0.806   4.455   0.929 -0.9653 -1.4048  1.7297
 7998SOL    HW235454   0.898   4.405   1.036 -1.6642  1.3733  0.8955
 7999SOL     OW35455   2.129   2.884   5.206 -0.4835  0.1365  0.0157
 7999SOL    HW135456   2.049   2.925   5.241 -1.0223 -1.8663  1.1702
 7999SOL    HW235457   2.201   2.936   5.242 -0.2416 -2.2065  2.9773
 8000SOL     OW35458   2.479   3.891   0.038  0.2749 -0.0310  0.1590
 8000SOL    HW135459   2.535   3.903  17.655  0.5087  1.9203  0.6221
 8000SOL    HW235460   2.468   3.796   0.040  0.2587 -0.0285  0.2132
 8001SOL     OW35461   1.001   4.590   9.397 -0.0720  0.1012 -0.4370
 8001SOL    HW135462   0.931   4.580   9.331 -1.5010 -1.9937  1.4244
 8001SOL    HW235463   1.058   4.655   9.355 -1.8729  2.9581  1.4887
 8002SOL     OW35464   3.895   3.798   4.360  0.0861  0.3358 -0.5490
 8002SOL    HW135465   3.885   3.893   4.350 -1.1457  0.3238  0.5249
 8002SOL    HW235466   3.941   3.784   4.277 -2.1519  2.3371 -2.1037
 8003SOL     OW35467   0.706   0.155   4.046  0.7157  0.0874  0.9636
 8003SOL    HW135468   0.661   0.070   4.044  0.5156  0.2120  0.0738
 8003SOL    HW235469   0.679   0.180   4.134  1.1145 -0.5160  1.2516
 8004SOL     OW35470   3.714   2.956   8.325  0.1446  0.1553 -0.0579
 8004SOL    HW135471   3.720   2.875   8.274 -2.5505  0.3070 -0.5817
 8004SOL    HW235472   3.636   2.948   8.380  0.3374 -0.6726  0.0969
 8005SOL     OW35473   3.788   4.559  14.673 -0.6251  0.1091  0.1916
 8005SOL    HW135474   3.850   4.593  14.738 -0.1337  0.5960 -0.5288
 8005SOL    HW235475   3.713   4.604  14.711 -1.6386 -1.1924 -0.2679
 8006SOL     OW35476   4.017   2.689   9.434 -0.0170 -0.2239 -0.1190
 8006SOL    HW135477   4.006   2.653   9.522 -0.5368  1.3714  0.4521
 8006SOL    HW235478   3.924   2.690   9.410 -0.1955  2.5565  0.6866
 8007SOL     OW35479   1.456   3.237   7.980 -0.2743  0.0266  0.0369
 8007SOL    HW135480   1.418   3.298   7.916 -0.1017 -0.2189 -0.3035
 8007SOL    HW235481   1.394   3.253   8.051  1.2869 -2.8087  1.9943
 8008SOL     OW35482   3.119   2.428  14.891 -0.3987  0.2211 -0.1273
 8008SOL    HW135483   3.045   2.453  14.835  0.4120  2.5674 -0.1652
 8008SOL    HW235484   3.195   2.444  14.836  0.7084  2.9127  2.2226
 8009SOL     OW35485   1.916   1.872   8.016 -0.2590  0.4886  0.6599
 8009SOL    HW135486   1.884   1.795   7.968  2.0445 -0.1879  0.2524
 8009SOL    HW235487   1.969   1.825   8.079 -0.9853  3.8276  3.7860
 8010SOL     OW35488   4.518   4.054   3.831  0.0141  0.2423  0.2260
 8010SOL    HW135489   4.534   4.077   3.739 -3.0840  0.0225 -0.3821
 8010SOL    HW235490   4.545   4.136   3.871  3.5111 -0.9552  0.3484
 8011SOL     OW35491   0.237   2.191   3.139  0.4752 -0.7131 -0.5858
 8011SOL    HW135492   0.306   2.126   3.124  1.1638  0.1909 -1.3247
 8011SOL    HW235493   0.263   2.247   3.066  0.1201 -0.6905 -0.6949
 8012SOL     OW35494   0.613   2.505   1.369  0.1829 -0.5132  0.0084
 8012SOL    HW135495   0.673   2.446   1.415 -1.3605 -1.0904  1.2704
 8012SOL    HW235496   0.631   2.475   1.280 -0.6428  0.8964 -0.6329
 8013SOL     OW35497   0.642   1.729  16.204  0.1516 -0.0767 -0.2876
 8013SOL    HW135498   0.732   1.722  16.173  0.3397 -1.0457  0.4568
 8013SOL    HW235499   0.619   1.636  16.193  0.9630 -0.1549 -1.3184
 8014SOL     OW35500   1.266   2.121  15.700  0.6777  0.1439  0.2983
 8014SOL    HW135501   1.263   2.216  15.686 -0.9741  0.0546  0.0353
 8014SOL    HW235502   1.310   2.096  15.618 -2.4244  0.6526 -1.5614
 8015SOL     OW35503   1.250   2.029  16.845  0.3603  0.3636  0.1018
 8015SOL    HW135504   1.309   1.971  16.797 -0.5535  0.6432 -1.3400
 8015SOL    HW235505   1.243   2.101  16.783  1.8266  0.2503 -0.1902
 8016SOL     OW35506   3.449   3.474   1.654  0.0945  0.3064  0.2717
 8016SOL    HW135507   3.466   3.512   1.567 -1.8590  2.6161  0.9349
 8016SOL    HW235508   3.355   3.473   1.671  0.2790  2.1058  1.3412
 8017SOL     OW35509   4.183   0.431   6.298 -0.1740  0.0294  0.0152
 8017SOL    HW135510   4.144   0.451   6.383  0.7862 -0.6302  0.6160
 8017SOL    HW235511   4.111   0.412   6.239 -0.4241  0.4647  0.1824
 8018SOL     OW35512   2.997   4.685   7.141  0.0017  0.4158 -0.8077
 8018SOL    HW135513   2.932   0.032   7.136 -0.0824  0.3103 -1.1655
 8018SOL    HW235514   3.077   0.014   7.139 -0.2660  0.8857  0.6773
 8019SOL     OW35515   2.733   4.446   4.959 -0.1165 -0.2325  0.1463
 8019SOL    HW135516   2.763   4.361   4.926  1.3238  0.4783 -0.3658
 8019SOL    HW235517   2.758   4.521   4.905  1.9971 -1.4724 -0.5928
 8020SOL     OW35518   2.239   0.959  12.290 -0.8914  0.2423  0.0676
 8020SOL    HW135519   2.233   0.883  12.232  1.1980 -0.5650  0.9355
 8020SOL    HW235520   2.273   0.915  12.367 -0.8274  0.0423 -0.0755
 8021SOL     OW35521   3.869   2.708   7.922 -0.3565  0.1558  0.2289
 8021SOL    HW135522   3.909   2.772   7.981  1.4684 -1.1132  0.3458
 8021SOL    HW235523   3.869   2.760   7.841 -2.0413 -2.5366 -1.4991
 8022SOL     OW35524   3.471   0.484  15.151 -0.4185 -0.6780 -0.3577
 8022SOL    HW135525   3.409   0.557  15.153  1.8182  1.2481 -1.6213
 8022SOL    HW235526   3.422   0.413  15.192  0.0318 -0.0522  1.2669
 8023SOL     OW35527   1.777   2.461   4.856  0.2302 -0.3567  1.1481
 8023SOL    HW135528   1.707   2.427   4.800  2.1076 -0.6466 -1.0600
 8023SOL    HW235529   1.772   2.408   4.935  1.3863 -0.7479  0.9525
 8024SOL     OW35530   1.733   2.862   6.114 -0.4689 -0.2515 -0.5093
 8024SOL    HW135531   1.825   2.860   6.087  0.3494  1.9403  2.1362
 8024SOL    HW235532   1.705   2.950   6.090 -0.1653 -0.2376 -0.8110
 8025SOL     OW35533   2.719   3.646   7.368  0.4709  0.1054 -0.2477
 8025SOL    HW135534   2.643   3.691   7.405 -0.9049 -1.7705 -0.7946
 8025SOL    HW235535   2.760   3.718   7.320 -0.8131  0.6612 -0.5113
 8026SOL     OW35536   4.078   0.874  11.820 -0.3530 -0.1162  0.0498
 8026SOL    HW135537   4.146   0.928  11.779  0.1437 -0.7899 -0.0219
 8026SOL    HW235538   4.031   0.928  11.883  0.0641 -0.6524  0.8148
 8027SOL     OW35539   4.208   2.994   9.033 -0.0348  0.4251 -0.5327
 8027SOL    HW135540   4.251   3.066   9.079  0.5750  1.1867 -2.3167
 8027SOL    HW235541   4.173   2.954   9.113 -3.9783  0.5149 -2.2399
 8028SOL     OW35542   1.924   2.805  13.800 -0.8248  0.1445 -0.5158
 8028SOL    HW135543   1.930   2.854  13.717  1.9212  1.2470  0.3305
 8028SOL    HW235544   1.902   2.716  13.773 -1.2271 -0.4117  1.6537
 8029SOL     OW35545   4.675   4.501  10.757  0.2284 -0.3890  0.7846
 8029SOL    HW135546   4.709   4.574  10.706  0.6414 -1.6852 -0.7650
 8029SOL    HW235547   4.665   4.542  10.843 -1.8617 -0.1143  0.4169
 8030SOL     OW35548   3.955   1.674   6.731  0.1666  0.4557 -0.0181
 8030SOL    HW135549   3.963   1.768   6.751  1.7034  0.3692 -0.2020
 8030SOL    HW235550   3.860   1.670   6.727  0.2731 -0.4002 -1.4840
 8031SOL     OW35551   1.713   1.406   5.962 -0.1910  0.5063 -0.3120
 8031SOL    HW135552   1.782   1.439   5.903 -0.8193  1.5154 -0.4945
 8031SOL    HW235553   1.731   1.314   5.978 -3.3475  0.5869  3.5028
 8032SOL     OW35554   1.601   0.177   3.011  0.1759 -0.3837  0.3390
 8032SOL    HW135555   1.552   0.136   3.082  0.5198 -0.9614  0.2425
 8032SOL    HW235556   1.657   0.100   2.997  1.0728  0.9018 -3.0164
 8033SOL     OW35557   0.911   0.609   6.227  0.4501  0.5105 -0.1105
 8033SOL    HW135558   0.987   0.667   6.232  2.1173 -1.8104  1.4235
 8033SOL    HW235559   0.891   0.608   6.320 -1.9655  0.6714 -0.6192
 8034SOL     OW35560   4.062   2.016   1.881  0.1841  0.5109 -0.3301
 8034SOL    HW135561   4.115   1.954   1.831  1.4954 -1.4001  3.4631
 8034SOL    HW235562   4.124   2.038   1.951  0.3940 -2.4391  0.4050
 8035SOL     OW35563   1.832   1.816   7.123 -0.0005  0.3702 -0.2816
 8035SOL    HW135564   1.815   1.901   7.164 -2.0046 -1.4759  2.7207
 8035SOL    HW235565   1.755   1.804   7.069 -0.0214 -0.3350 -0.0895
 8036SOL     OW35566   3.429   1.157  10.806  0.3657 -0.3667  0.1317
 8036SOL    HW135567   3.489   1.084  10.821 -0.2623 -1.6621 -3.8734
 8036SOL    HW235568   3.343   1.121  10.825 -0.0962  1.0475  0.7581
 8037SOL     OW35569   0.558   2.016  11.623 -0.4110  0.3314 -0.6347
 8037SOL    HW135570   0.529   2.070  11.550 -0.6320 -2.3451 -2.5377
 8037SOL    HW235571   0.640   1.981  11.587 -0.5132 -0.4475 -0.1104
 8038SOL     OW35572   3.234   1.785   1.693  0.1073  0.0820  0.3316
 8038SOL    HW135573   3.294   1.847   1.735  1.0843 -0.7311  0.1429
 8038SOL    HW235574   3.301   1.726   1.658  0.3603 -0.5756  1.9087
 8039SOL     OW35575   0.915   1.329  14.117  0.3849 -0.3912  0.0230
 8039SOL    HW135576   0.844   1.362  14.063 -0.7267 -1.2062  0.9845
 8039SOL    HW235577   0.908   1.379  14.199 -2.7773 -0.9596  0.1031
 8040SOL     OW35578   4.614   3.224  10.776  0.1957 -0.2057 -0.2245
 8040SOL    HW135579   4.672   3.277  10.830 -0.7208 -0.1106  0.6675
 8040SOL    HW235580   4.552   3.183  10.836  1.5910  0.1487  1.4373
 8041SOL     OW35581   3.761   3.592   6.834  0.0461  0.0934 -0.1947
 8041SOL    HW135582   3.784   3.584   6.927 -1.1928  0.2041  0.1135
 8041SOL    HW235583   3.782   3.503   6.804 -0.6458 -0.6502  1.5352
 8042SOL     OW35584   4.357   0.636   7.610  0.3510 -0.3813  0.5588
 8042SOL    HW135585   4.276   0.685   7.614  0.5000 -0.1237  0.4109
 8042SOL    HW235586   4.343   0.584   7.530 -4.0739  1.7586 -0.0505
 8043SOL     OW35587   0.215   2.246   2.418  0.1774  0.2963 -0.4056
 8043SOL    HW135588   0.185   2.156   2.407  0.6264  0.2033 -0.8851
 8043SOL    HW235589   0.219   2.259   2.513 -2.1040  1.1887 -0.4349
 8044SOL     OW35590   3.750   1.019   9.405  0.2520 -0.0640 -0.3409
 8044SOL    HW135591   3.792   1.006   9.490  1.8715 -3.0304 -1.6085
 8044SOL    HW235592   3.809   0.981   9.340  0.5110 -1.6838  0.8242
 8045SOL     OW35593   1.990   2.202   2.879  0.1732  0.5615 -0.3737
 8045SOL    HW135594   2.024   2.116   2.854 -0.8469  0.0680 -0.0617
 8045SOL    HW235595   2.039   2.261   2.822  0.7923  0.0146 -0.4044
 8046SOL     OW35596   2.502   0.927   8.038 -0.1961 -0.2013 -0.8777
 8046SOL    HW135597   2.562   0.890   8.104 -1.3464  2.2326  1.5403
 8046SOL    HW235598   2.549   1.010   8.027  1.8301 -1.2773 -0.2303
 8047SOL     OW35599   4.115   4.113   3.408 -0.0658 -0.6163 -0.2628
 8047SOL    HW135600   4.047   4.169   3.372  0.8208  0.7675  0.2107
 8047SOL    HW235601   4.087   4.082   3.494 -1.7743  2.7881  0.4043
 8048SOL     OW35602   1.438   0.324   4.880 -0.5125 -0.2672 -0.0832
 8048SOL    HW135603   1.400   0.322   4.967 -1.0007 -1.7016 -0.3152
 8048SOL    HW235604   1.366   0.353   4.823 -0.8667  2.4527  1.7611
 8049SOL     OW35605   1.605   0.848   6.924 -0.1054 -0.7089  0.0204
 8049SOL    HW135606   1.528   0.795   6.901 -1.2814  1.0185 -0.0598
 8049SOL    HW235607   1.635   0.806   7.005  0.5881 -1.3812 -0.5977
 8050SOL     OW35608   0.236   0.911  14.201 -0.0937  0.2947  0.1924
 8050SOL    HW135609   0.309   0.906  14.139 -0.9582 -0.0553 -0.7943
 8050SOL    HW235610   0.275   0.945  14.282 -0.8733  1.3821  0.1042
 8051SOL     OW35611   4.343   3.895   3.675  0.1636 -0.5885  0.1382
 8051SOL    HW135612   4.404   3.965   3.653 -0.9106  0.4618  0.4885
 8051SOL    HW235613   4.342   3.896   3.770 -2.0104  1.6287  0.0931
 8052SOL     OW35614   0.864   2.397   3.450 -0.0191  0.0751 -0.8029
 8052SOL    HW135615   0.812   2.372   3.526  1.1642  2.5126  0.8342
 8052SOL    HW235616   0.834   2.333   3.385  0.2349 -0.1886 -0.6598
 8053SOL     OW35617   0.906   2.506  12.798 -0.6939  0.5178  0.0461
 8053SOL    HW135618   0.909   2.449  12.721  0.8821 -0.3763  0.7646
 8053SOL    HW235619   0.978   2.564  12.772  0.8148 -2.1897 -1.7528
 8054SOL     OW35620   3.110   1.286   3.245 -0.7369  0.2067  0.1611
 8054SOL    HW135621   3.189   1.233   3.253 -1.4724 -1.0177 -0.6098
 8054SOL    HW235622   3.136   1.349   3.177  0.8787 -0.2275  0.3861
 8055SOL     OW35623   2.077   1.900   4.627  0.0213 -0.5128 -0.1506
 8055SOL    HW135624   2.020   1.892   4.703 -1.1834  0.6705 -0.9199
 8055SOL    HW235625   2.158   1.855   4.651  0.7726  1.1146  0.4033
 8056SOL     OW35626   4.629   3.037   5.489  0.1951  0.1517 -0.3381
 8056SOL    HW135627   4.583   3.027   5.573  0.3889  1.3351 -0.0823
 8056SOL    HW235628   4.716   3.051   5.526  0.2481 -1.7314  0.2573
 8057SOL     OW35629   2.161   2.567   6.438  0.6876 -0.0501  0.2332
 8057SOL    HW135630   2.206   2.643   6.475 -0.8675  1.5683 -1.2088
 8057SOL    HW235631   2.122   2.610   6.362  0.4202  1.6114  1.3068
 8058SOL     OW35632   2.406   3.169  12.885 -0.2756 -0.1062 -0.2510
 8058SOL    HW135633   2.357   3.146  12.806  1.1118 -3.5114 -0.1461
 8058SOL    HW235634   2.494   3.142  12.858  0.4554  3.2389 -1.2192
 8059SOL     OW35635   1.986   2.972   6.450 -0.2398  0.7575  0.2108
 8059SOL    HW135636   2.006   2.879   6.438 -0.8538  0.7382 -0.6085
 8059SOL    HW235637   1.906   2.954   6.499 -0.2354  1.2308  0.3928
 8060SOL     OW35638   2.676   1.719   1.719  0.1135 -0.3323 -0.1207
 8060SOL    HW135639   2.680   1.815   1.717 -2.1255 -0.2155  0.7007
 8060SOL    HW235640   2.692   1.700   1.812  0.6886  0.2696 -0.0923
 8061SOL     OW35641   4.304   3.368   6.155 -0.3040  0.5274 -0.1395
 8061SOL    HW135642   4.270   3.433   6.094 -1.2037 -1.6034 -1.8890
 8061SOL    HW235643   4.226   3.363   6.210  0.3647 -1.1515  0.6404
 8062SOL     OW35644   2.951   3.149   2.962 -0.1183  0.3262 -0.7009
 8062SOL    HW135645   2.990   3.131   2.876 -0.2302  2.2198 -1.1519
 8062SOL    HW235646   2.928   3.241   2.951 -0.3714  0.3513  0.0288
 8063SOL     OW35647   1.602   1.365   0.561  0.3488 -0.4982 -0.2499
 8063SOL    HW135648   1.592   1.270   0.561  0.2727 -0.4909  1.4109
 8063SOL    HW235649   1.515   1.402   0.579  1.3170  1.2732  0.7567
 8064SOL     OW35650   3.832   0.828   2.992  0.3237 -0.0339 -0.8460
 8064SOL    HW135651   3.899   0.793   2.932  0.2812  2.0066 -2.0819
 8064SOL    HW235652   3.782   0.878   2.927  1.8603  3.1185  0.4132
 8065SOL     OW35653   3.123   2.369   7.707  0.3308 -0.5617 -0.5720
 8065SOL    HW135654   3.078   2.285   7.718 -2.4988  0.7052 -2.5234
 8065SOL    HW235655   3.110   2.379   7.613 -2.2594  2.3639  0.0799
 8066SOL     OW35656   1.887   0.007   8.048 -0.5683 -0.2026 -0.3966
 8066SOL    HW135657   1.804   4.703   8.088 -0.2741  0.9701  1.0251
 8066SOL    HW235658   1.928   0.049   8.124  0.1026  2.2077 -2.1046
 8067SOL     OW35659   0.812   2.212  14.346  0.6612  0.7009  0.0072
 8067SOL    HW135660   0.882   2.200  14.410  0.6316  1.1015  0.1186
 8067SOL    HW235661   0.806   2.308  14.355  2.6847  0.7069  1.4971
 8068SOL     OW35662   3.585   2.850  14.372  0.1120 -0.0626 -0.0836
 8068SOL    HW135663   3.524   2.895  14.313  1.7455  1.0836 -0.9018
 8068SOL    HW235664   3.669   2.885  14.343  0.2398 -1.0529 -0.8908
 8069SOL     OW35665   2.506   2.133   5.050 -0.7212  0.0770 -0.0192
 8069SOL    HW135666   2.591   2.107   5.085 -1.4283 -0.7308  1.0849
 8069SOL    HW235667   2.526   2.211   4.999 -0.1738  0.5831  0.9734
 8070SOL     OW35668   3.356   2.071   6.492  0.5180  0.1929  0.5139
 8070SOL    HW135669   3.368   2.070   6.397 -0.0402 -1.6664  0.4613
 8070SOL    HW235670   3.261   2.081   6.499  0.5028  1.2681 -1.0695
 8071SOL     OW35671   2.423   4.683   3.851  0.2952  0.4728  0.0541
 8071SOL    HW135672   2.491   4.623   3.822  0.1673 -0.0422  0.8314
 8071SOL    HW235673   2.381   0.008   3.779 -0.0739 -0.4470 -0.3405
 8072SOL     OW35674   1.602   4.715   4.311 -0.1111 -0.1473 -0.2738
 8072SOL    HW135675   1.579   4.659   4.237 -1.5270 -1.4488  1.1665
 8072SOL    HW235676   1.573   0.080   4.284  2.3901 -0.1369 -2.9352
 8073SOL     OW35677   1.785   4.413   2.473  0.1465  0.2282 -0.1446
 8073SOL    HW135678   1.711   4.451   2.520  1.2180  1.1275  0.8343
 8073SOL    HW235679   1.765   4.432   2.382 -1.5157 -1.1051 -0.0534
 8074SOL     OW35680   1.122   1.890   4.946 -0.3388 -0.1615 -0.1892
 8074SOL    HW135681   1.186   1.907   5.015  1.2109  0.3916 -1.7582
 8074SOL    HW235682   1.040   1.887   4.995  1.4480  3.3911  2.9704
 8075SOL     OW35683   2.140   2.621   8.240  0.6960  0.2123 -0.2696
 8075SOL    HW135684   2.100   2.651   8.322 -1.6868  1.0277 -1.7595
 8075SOL    HW235685   2.156   2.529   8.262  1.8869  0.8984  1.7546
 8076SOL     OW35686   1.247   0.960   6.748 -0.1475 -0.2989  0.0028
 8076SOL    HW135687   1.269   0.911   6.828 -0.9744 -0.8569 -0.1009
 8076SOL    HW235688   1.303   0.920   6.681  2.0571 -0.7205  2.1155
 8077SOL     OW35689   0.473   3.202   3.170  0.1700 -0.2592 -0.7967
 8077SOL    HW135690   0.482   3.161   3.084  2.8951 -0.3666 -0.4621
 8077SOL    HW235691   0.378   3.211   3.183  0.3545 -1.1308  1.2167
 8078SOL     OW35692   0.953   4.403  15.224 -0.0029 -0.0888  0.2807
 8078SOL    HW135693   0.945   4.343  15.298  3.6908  0.9043  1.5058
 8078SOL    HW235694   0.959   4.480  15.281  0.3750 -0.8474  1.2667
 8079SOL     OW35695   0.014   3.128   9.212  0.2610  0.2443 -0.2138
 8079SOL    HW135696   4.648   3.098   9.232  1.3223 -2.7306  0.0713
 8079SOL    HW235697   4.722   3.163   9.124  1.4542 -0.3288 -0.6418
 8080SOL     OW35698   1.871   1.977  15.832  0.2188 -0.1006 -0.1733
 8080SOL    HW135699   1.781   2.004  15.813  0.8151  1.9670 -0.0244
 8080SOL    HW235700   1.882   1.993  15.925  2.5775  0.5290 -0.5705
 8081SOL     OW35701   2.253   2.131   7.475  0.0618 -0.1747  0.0538
 8081SOL    HW135702   2.172   2.137   7.526  0.9980 -1.8648  1.7168
 8081SOL    HW235703   2.215   2.145   7.388  1.5317 -1.8744 -0.8570
 8082SOL     OW35704   1.777   3.101  13.495  0.6039  0.0624  0.6526
 8082SOL    HW135705   1.716   3.083  13.423  0.9393  0.4426  0.2776
 8082SOL    HW235706   1.748   3.183  13.534 -1.6660 -0.2950 -0.2798
 8083SOL     OW35707   2.825   4.651  13.345  0.0411 -0.6247 -0.0189
 8083SOL    HW135708   2.831   4.666  13.439  1.7787  2.1130 -0.5529
 8083SOL    HW235709   2.840   0.016  13.310 -0.5479 -0.6294 -0.2798
 8084SOL     OW35710   2.291   0.481   2.714 -0.3855 -0.2374  0.2892
 8084SOL    HW135711   2.216   0.502   2.769  0.7789 -1.4292  2.3425
 8084SOL    HW235712   2.279   0.516   2.626  1.3749 -2.1471 -0.7169
 8085SOL     OW35713   4.010   2.759  15.631  0.0095 -0.4473  0.4069
 8085SOL    HW135714   3.929   2.709  15.615 -0.2841 -0.0299  0.5837
 8085SOL    HW235715   3.975   2.825  15.691  3.0374  1.1129  0.4321
 8086SOL     OW35716   3.552   1.644  17.076  0.5357  0.1190 -0.3317
 8086SOL    HW135717   3.506   1.562  17.092  2.5186 -0.7705  0.8191
 8086SOL    HW235718   3.596   1.655  17.161  0.6194 -0.8730 -0.2461
 8087SOL     OW35719   0.280   3.019  10.461  0.0046  0.0748  0.1430
 8087SOL    HW135720   0.355   2.969  10.494  1.4910 -0.5505 -4.2079
 8087SOL    HW235721   0.211   2.997  10.524 -1.4734  2.1201 -0.7840
 8088SOL     OW35722   2.067   0.611   2.898  0.0140 -0.1629  0.7784
 8088SOL    HW135723   2.036   0.651   2.980  0.5551  2.1073 -0.1277
 8088SOL    HW235724   2.084   0.691   2.849  1.4957 -0.1270  1.3526
 8089SOL     OW35725   3.752   1.933   3.102 -0.3478  0.1651  0.3123
 8089SOL    HW135726   3.814   1.915   3.031 -0.9184 -2.3540  0.4557
 8089SOL    HW235727   3.719   1.845   3.120  0.4203 -0.0332  0.7561
 8090SOL     OW35728   1.644   4.594   5.145 -0.3402 -0.3140 -0.6690
 8090SOL    HW135729   1.589   4.552   5.079  0.9196 -0.8636 -1.3640
 8090SOL    HW235730   1.575   4.628   5.203 -0.1019 -0.4502 -0.3090
 8091SOL     OW35731   3.270   2.996   7.692 -0.2655  0.4875 -0.1480
 8091SOL    HW135732   3.193   2.942   7.675 -0.3947 -0.0623  2.1912
 8091SOL    HW235733   3.274   3.044   7.610  1.0614  0.4224 -0.1250
 8092SOL     OW35734   4.697   4.554  16.012  0.3744  0.4764 -0.5861
 8092SOL    HW135735   4.628   4.612  16.046  0.4096 -0.0371  0.3479
 8092SOL    HW235736   4.663   4.541  15.924 -1.0329  1.2126 -0.1616
 8093SOL     OW35737   2.083   1.475  11.478 -0.2278  0.1789  0.4144
 8093SOL    HW135738   2.140   1.407  11.514 -0.3078  0.0106  0.2228
 8093SOL    HW235739   2.093   1.531  11.555 -0.0951 -0.3902  0.8178
 8094SOL     OW35740   0.953   3.060   9.455 -0.4282 -0.1672  0.0074
 8094SOL    HW135741   0.966   3.001   9.380 -2.8363  1.0697 -1.4038
 8094SOL    HW235742   1.012   3.023   9.521 -0.4753 -1.0012 -0.4155
 8095SOL     OW35743   3.248   1.238   3.560  0.3177 -0.0719 -0.4693
 8095SOL    HW135744   3.224   1.321   3.601 -0.0259 -1.4013  2.0404
 8095SOL    HW235745   3.166   1.211   3.518  0.0449 -0.9231  0.5998
 8096SOL     OW35746   1.234   2.035   7.110 -0.0805 -0.2930 -0.1150
 8096SOL    HW135747   1.244   2.108   7.048 -2.1657 -0.0272 -0.1360
 8096SOL    HW235748   1.145   2.008   7.088  0.4842 -1.8208 -0.5271
 8097SOL     OW35749   4.310   2.611   1.452 -0.3451  0.3398 -0.7633
 8097SOL    HW135750   4.291   2.632   1.543  1.4505 -1.6511  0.0678
 8097SOL    HW235751   4.293   2.695   1.408  0.1677  0.6536 -0.3592
 8098SOL     OW35752   1.473   3.076  11.408  0.0910  0.4790  0.1041
 8098SOL    HW135753   1.501   3.023  11.333 -1.5090  0.7464 -0.6674
 8098SOL    HW235754   1.451   3.004  11.466 -2.3233  0.5046 -0.8199
 8099SOL     OW35755   3.158   2.487   3.005 -0.3246 -0.2900 -0.4215
 8099SOL    HW135756   3.136   2.509   2.914  0.1829 -1.5776 -0.8517
 8099SOL    HW235757   3.070   2.501   3.038 -0.2029  0.7945 -0.5735
 8100SOL     OW35758   2.994   4.178   3.472 -0.1993 -0.5613  0.4327
 8100SOL    HW135759   3.063   4.116   3.449  1.8474  2.3008 -1.1403
 8100SOL    HW235760   2.929   4.150   3.407  1.1947  0.4769 -1.3793
 8101SOL     OW35761   1.716   2.382   5.103  0.2245  0.4302 -0.0448
 8101SOL    HW135762   1.788   2.394   5.165  0.1110 -1.2103  0.4078
 8101SOL    HW235763   1.681   2.470   5.110  1.1306  0.7911 -0.0079
 8102SOL     OW35764   2.604   2.981   1.499 -0.7789 -0.7431  0.1051
 8102SOL    HW135765   2.516   3.006   1.473 -0.0473  0.4480 -1.1915
 8102SOL    HW235766   2.610   2.892   1.463 -0.1055 -0.4717 -0.4535
 8103SOL     OW35767   4.055   1.902   6.406 -0.3835  0.1632 -0.0993
 8103SOL    HW135768   4.043   1.970   6.341  1.9718 -1.4824 -2.2543
 8103SOL    HW235769   4.019   1.826   6.359  1.8007 -0.8628 -0.1076
 8104SOL     OW35770   2.081   1.722   7.603 -0.1972  0.5886  0.0645
 8104SOL    HW135771   2.122   1.807   7.588  0.0127  0.3346 -0.8342
 8104SOL    HW235772   2.121   1.698   7.686  1.2203  0.3070 -0.6949
 8105SOL     OW35773   0.509   3.036   1.004 -0.0694  0.3388  0.8651
 8105SOL    HW135774   0.473   3.024   0.916  1.8603  0.5126  0.0570
 8105SOL    HW235775   0.483   2.953   1.044 -1.3763  0.1279 -0.4452
 8106SOL     OW35776   2.574   0.337   1.401 -0.2597  0.0683 -0.6505
 8106SOL    HW135777   2.546   0.331   1.309  1.9683 -0.2123 -1.3363
 8106SOL    HW235778   2.655   0.285   1.395 -0.9161 -1.0999  0.7653
 8107SOL     OW35779   1.155   1.993   1.377  0.2135  0.2208  0.4488
 8107SOL    HW135780   1.251   1.990   1.376  0.1965  1.5441 -3.2328
 8107SOL    HW235781   1.139   1.983   1.471 -0.3702 -1.5205  0.1576
 8108SOL     OW35782   3.686   0.317  16.457  0.1025  0.7245  0.3556
 8108SOL    HW135783   3.743   0.371  16.401  0.2007 -0.4229 -0.6360
 8108SOL    HW235784   3.716   0.360  16.537 -0.4282 -1.2375  1.5844
 8109SOL     OW35785   3.211   3.141   4.233 -0.0164  0.4115  0.6908
 8109SOL    HW135786   3.278   3.087   4.275  0.7470  0.8638  0.0731
 8109SOL    HW235787   3.249   3.140   4.145  1.1571  0.4582  1.1961
 8110SOL     OW35788   1.156   2.547  17.464  0.1349 -0.0510 -0.4868
 8110SOL    HW135789   1.081   2.512  17.511  1.7469 -0.8606  1.4857
 8110SOL    HW235790   1.144   2.642  17.463  2.4482  0.2727  1.9112
 8111SOL     OW35791   1.535   0.704   9.020  0.3739 -0.1787 -0.4180
 8111SOL    HW135792   1.495   0.732   9.102 -0.2744  1.3598 -1.2666
 8111SOL    HW235793   1.502   0.770   8.959  0.9774  0.4614 -0.0440
 8112SOL     OW35794   0.868   0.651  14.885  0.3831 -0.0003 -0.2485
 8112SOL    HW135795   0.788   0.657  14.938 -0.3728 -0.9475 -1.2842
 8112SOL    HW235796   0.927   0.696  14.946 -0.3277 -0.1180  0.5271
 8113SOL     OW35797   1.790   1.644  13.048  0.3410  0.0066  0.1011
 8113SOL    HW135798   1.744   1.657  13.131  0.0235  2.0281 -0.3835
 8113SOL    HW235799   1.863   1.706  13.055  0.4453 -0.0441 -0.5162
 8114SOL     OW35800   1.191   4.132   8.158  0.4607 -0.8061  0.0629
 8114SOL    HW135801   1.188   4.106   8.250 -0.1282  0.4468  0.3955
 8114SOL    HW235802   1.098   4.122   8.140  0.7137 -1.3105 -0.9744
 8115SOL     OW35803   1.777   3.641  15.827  0.2648 -0.2496  0.5246
 8115SOL    HW135804   1.803   3.701  15.757  0.6229  0.8185  1.5542
 8115SOL    HW235805   1.845   3.666  15.889  0.4575 -2.6371  1.2586
 8116SOL     OW35806   0.063   0.928  16.830  0.0331  0.8466 -0.2338
 8116SOL    HW135807   0.036   1.016  16.803  2.4121  2.5612  2.9953
 8116SOL    HW235808   0.110   0.882  16.761  1.6615  0.1335  1.3494
 8117SOL     OW35809   2.994   1.382   2.230  0.2199 -0.0134  0.6212
 8117SOL    HW135810   3.040   1.378   2.146 -0.7503 -1.2156  0.1436
 8117SOL    HW235811   2.943   1.301   2.227  0.0491  0.1632 -1.3526
 8118SOL     OW35812   3.027   3.935   2.977  0.4334  0.1176 -0.0938
 8118SOL    HW135813   3.052   3.891   3.058 -0.0580  1.2915  0.7029
 8118SOL    HW235814   2.933   3.953   2.981  0.4232  0.1017 -0.2541
 8119SOL     OW35815   3.713   0.155   3.953  0.0738 -0.1684  0.0211
 8119SOL    HW135816   3.691   0.133   3.862  0.1001  1.5675 -0.3944
 8119SOL    HW235817   3.674   0.242   3.947 -1.5001 -0.8583  0.3553
 8120SOL     OW35818   1.368   0.951   3.031  0.3731  0.7800  0.2183
 8120SOL    HW135819   1.303   0.933   3.099 -1.5904 -1.4725 -2.2285
 8120SOL    HW235820   1.434   1.005   3.073 -0.1646  0.1461  1.8937
 8121SOL     OW35821   1.230   0.949  11.493  0.2190 -0.0943 -0.1365
 8121SOL    HW135822   1.192   0.886  11.432 -2.4500  1.3936 -0.0318
 8121SOL    HW235823   1.324   0.946  11.477  0.2948 -2.0093  0.7288
 8122SOL     OW35824   4.002   1.418   4.896 -0.1328  0.3565  0.1104
 8122SOL    HW135825   3.965   1.427   4.984  2.3172 -1.0085  1.2778
 8122SOL    HW235826   4.066   1.349   4.909  0.3942  1.3874  3.0052
 8123SOL     OW35827   0.042   1.682  17.400  0.0750 -0.4446  0.0494
 8123SOL    HW135828   0.074   1.687  17.310 -0.3478  1.9712  0.0400
 8123SOL    HW235829   4.694   1.618  17.395 -0.0614 -0.1999 -1.3774
 8124SOL     OW35830   0.228   1.168   4.898  0.0176  0.5452 -0.3373
 8124SOL    HW135831   0.281   1.123   4.964  0.1490 -0.2019 -0.9486
 8124SOL    HW235832   0.222   1.099   4.832 -3.1686 -0.4279  0.9837
 8125SOL     OW35833   3.957   3.859   5.781  0.2236  0.0095 -0.4388
 8125SOL    HW135834   3.994   3.943   5.805  1.4568 -0.2268 -1.5239
 8125SOL    HW235835   3.937   3.820   5.866 -0.3670  0.7839 -0.2213
 8126SOL     OW35836   1.798   1.791  16.404 -0.0297 -0.6966 -0.1999
 8126SOL    HW135837   1.799   1.886  16.402  0.3552 -0.7454 -2.6286
 8126SOL    HW235838   1.815   1.762  16.494 -1.3645 -2.9786 -0.6901
 8127SOL     OW35839   2.948   1.767   7.244  0.2417 -0.2504  0.5292
 8127SOL    HW135840   2.915   1.828   7.309 -0.5242 -0.1132  0.0072
 8127SOL    HW235841   2.869   1.722   7.213  1.4213 -2.4321  0.6730
 8128SOL     OW35842   3.787   2.391  17.003 -0.1170 -0.5527  0.5400
 8128SOL    HW135843   3.848   2.353  16.941 -0.6084 -0.0372 -0.2521
 8128SOL    HW235844   3.852   2.415  17.070  2.0942  0.7083 -2.0554
 8129SOL     OW35845   0.130   2.678   1.969  0.0572 -0.1780 -0.0127
 8129SOL    HW135846   0.111   2.585   1.979 -0.5857 -0.2499 -2.0334
 8129SOL    HW235847   0.091   2.686   1.882 -1.7843  2.4706  1.0340
 8130SOL     OW35848   2.530   1.712  12.423  0.2690  0.0766  0.0480
 8130SOL    HW135849   2.443   1.673  12.415  0.7223 -1.1018  0.7797
 8130SOL    HW235850   2.564   1.658  12.495 -2.9451 -0.7567  0.9240
 8131SOL     OW35851   2.722   4.618   5.551  0.0238  0.5013  0.3022
 8131SOL    HW135852   2.674   4.539   5.574  0.1422  0.2973 -0.1389
 8131SOL    HW235853   2.739   4.609   5.457 -0.2976 -1.6241  0.4572
 8132SOL     OW35854   2.949   3.906   3.838  0.0628  0.5774 -0.8393
 8132SOL    HW135855   2.959   3.943   3.925  0.4548  0.7965 -0.9757
 8132SOL    HW235856   2.931   3.983   3.784  0.1873  0.5295 -0.9509
 8133SOL     OW35857   2.738   1.787   6.734  0.7352 -0.3716  0.6741
 8133SOL    HW135858   2.776   1.800   6.821  1.4907 -1.5650  0.5164
 8133SOL    HW235859   2.739   1.692   6.727 -2.4124 -0.6364  3.5113
 8134SOL     OW35860   2.371   4.023  12.799 -0.7744 -0.5153 -0.1463
 8134SOL    HW135861   2.381   4.030  12.704 -0.3933 -0.3821 -0.0968
 8134SOL    HW235862   2.449   4.069  12.829 -1.8420 -0.2074  2.1550
 8135SOL     OW35863   3.471   3.594   1.062  0.1389 -0.0090 -0.0831
 8135SOL    HW135864   3.549   3.626   1.108 -1.3719  3.6185 -0.0306
 8135SOL    HW235865   3.478   3.633   0.975 -0.7262 -0.6536 -0.4352
 8136SOL     OW35866   2.245   3.876  11.928  0.6418  0.1322 -0.0417
 8136SOL    HW135867   2.266   3.905  12.016  0.3191  1.6578 -0.4679
 8136SOL    HW235868   2.225   3.960  11.887  3.4055  0.9748  0.3901
 8137SOL     OW35869   4.458   2.467   5.269 -0.6602  0.0284 -0.4072
 8137SOL    HW135870   4.525   2.409   5.305 -0.0918 -0.9521 -3.0150
 8137SOL    HW235871   4.385   2.405   5.269 -0.1541 -0.5685 -0.2979
 8138SOL     OW35872   4.489   2.275  10.871  0.3838  0.1124 -0.3048
 8138SOL    HW135873   4.556   2.338  10.847  2.3221 -2.4426 -1.5313
 8138SOL    HW235874   4.428   2.305  10.803  0.3265 -0.8548 -0.6835
 8139SOL     OW35875   3.631   4.523   4.333  0.5587 -0.0295 -0.1641
 8139SOL    HW135876   3.538   4.542   4.320  0.5720  1.7644  2.2901
 8139SOL    HW235877   3.672   4.580   4.267 -0.0948 -2.3671 -2.5931
 8140SOL     OW35878   1.867   3.972   3.055 -0.0257  0.2008 -0.6896
 8140SOL    HW135879   1.913   3.890   3.073 -0.8403  0.2493  1.6893
 8140SOL    HW235880   1.879   3.987   2.962 -0.8087  0.1089 -0.8063
 8141SOL     OW35881   1.866   3.305   4.651 -0.2962  0.3909 -0.1680
 8141SOL    HW135882   1.931   3.239   4.673 -0.3840 -0.0638 -1.3137
 8141SOL    HW235883   1.810   3.268   4.583 -0.6045  2.8971 -1.2878
 8142SOL     OW35884   1.025   3.185  15.219  0.0665  0.1682 -0.6376
 8142SOL    HW135885   1.116   3.167  15.193  0.8989  0.8814  1.7222
 8142SOL    HW235886   1.000   3.246  15.150  1.2025  0.6344 -0.6347
 8143SOL     OW35887   2.309   2.007   5.158 -0.3806  0.8219 -0.8432
 8143SOL    HW135888   2.366   1.931   5.151 -0.1170  1.2603 -3.3860
 8143SOL    HW235889   2.378   2.066   5.130  0.5202  0.3184  0.3262
 8144SOL     OW35890   3.887   0.509   0.727  0.7137  0.0544 -0.0744
 8144SOL    HW135891   3.815   0.454   0.758 -0.4351  0.9005 -1.2411
 8144SOL    HW235892   3.912   0.468   0.643 -0.9517 -0.0733 -0.5026
 8145SOL     OW35893   0.338   0.660  10.898 -0.0978 -0.0861  0.7772
 8145SOL    HW135894   0.300   0.646  10.811  2.6130  0.1872 -0.4620
 8145SOL    HW235895   0.352   0.571  10.931  0.8026  0.5408  2.0844
 8146SOL     OW35896   0.087   2.258   0.862  0.5901 -0.0948 -0.1852
 8146SOL    HW135897   0.165   2.204   0.848  0.8053  0.3731 -0.8122
 8146SOL    HW235898   0.122   2.332   0.911 -1.9064  1.2009 -0.3494
 8147SOL     OW35899   0.546   1.208  10.324  0.7450  0.3086 -0.3117
 8147SOL    HW135900   0.475   1.267  10.299  0.1619 -0.6323 -0.9247
 8147SOL    HW235901   0.605   1.209  10.248 -0.5178 -0.6680 -1.3198
 8148SOL     OW35902   1.011   4.127   5.132  0.4508  0.6194  0.0227
 8148SOL    HW135903   0.990   4.035   5.148 -0.3383  0.9678  0.9265
 8148SOL    HW235904   1.089   4.126   5.076  1.1389  0.7667  0.9606
 8149SOL     OW35905   3.766   1.909  10.237 -0.6761 -0.4241  0.0033
 8149SOL    HW135906   3.824   1.843  10.275  1.9901  1.8736 -0.0451
 8149SOL    HW235907   3.823   1.981  10.207 -1.1097 -0.2983 -0.5074
 8150SOL     OW35908   1.607   1.673   0.245  0.4771 -0.5578  0.3319
 8150SOL    HW135909   1.579   1.760   0.273 -1.7335 -0.5874 -1.8488
 8150SOL    HW235910   1.529   1.637   0.204  0.4391 -0.7538  0.5693
 8151SOL     OW35911   0.666   3.424   2.794 -0.1491  0.2902  0.2146
 8151SOL    HW135912   0.659   3.502   2.740  1.6871  0.0650 -0.3374
 8151SOL    HW235913   0.632   3.456   2.878  0.5197  0.8112  0.2802
 8152SOL     OW35914   4.065   2.097  14.646 -0.1903 -0.5417 -0.5322
 8152SOL    HW135915   4.011   2.135  14.716 -1.0155  0.1767 -1.5475
 8152SOL    HW235916   4.118   2.041  14.701  0.3421  0.0598 -0.4412
 8153SOL     OW35917   0.235   3.511   2.435 -0.3668 -0.0287  1.0404
 8153SOL    HW135918   0.265   3.539   2.521  3.0646  0.9797 -0.4633
 8153SOL    HW235919   0.291   3.434   2.426 -0.5275  0.1448 -1.5263
 8154SOL     OW35920   2.790   0.945   7.555 -0.4785 -0.4715  0.2905
 8154SOL    HW135921   2.863   0.884   7.566 -0.5470 -0.2859  1.8494
 8154SOL    HW235922   2.732   0.911   7.623  0.6363 -2.3458  0.2830
 8155SOL     OW35923   0.571   1.530   6.993 -0.2973  0.3302 -0.0821
 8155SOL    HW135924   0.512   1.589   6.945  1.4087  0.9632 -1.3833
 8155SOL    HW235925   0.594   1.591   7.063 -0.4676 -0.3387  0.5568
 8156SOL     OW35926   4.640   4.079   5.967 -0.1076 -0.0261 -0.1790
 8156SOL    HW135927   4.639   4.058   6.061 -1.4684 -0.4979 -0.3020
 8156SOL    HW235928   4.565   4.138   5.966 -0.8977 -1.0391 -0.7773
 8157SOL     OW35929   3.804   1.458   3.527 -0.0343 -0.0234 -0.3677
 8157SOL    HW135930   3.720   1.496   3.500  0.1644  1.6340  1.2901
 8157SOL    HW235931   3.778   1.370   3.555 -2.4124  0.5121 -0.8590
 8158SOL     OW35932   2.415   1.090   3.749  0.0308 -0.5033  0.2246
 8158SOL    HW135933   2.414   1.060   3.658 -2.0496  0.2590 -0.0234
 8158SOL    HW235934   2.333   1.056   3.786 -0.5613  1.4005  0.6706
 8159SOL     OW35935   0.354   4.261  11.233 -0.8510  0.1369 -0.3075
 8159SOL    HW135936   0.405   4.204  11.175  0.7731  2.7447 -1.4128
 8159SOL    HW235937   0.381   4.350  11.212  0.4417 -0.1433  0.1337
 8160SOL     OW35938   4.531   1.365   6.917  0.5228 -0.1773  0.3457
 8160SOL    HW135939   4.550   1.345   6.825  0.8423 -0.7284  0.5300
 8160SOL    HW235940   4.603   1.423   6.938 -1.2286  1.4739  1.7125
 8161SOL     OW35941   2.354   3.026   7.802  0.0260 -0.2983  0.4497
 8161SOL    HW135942   2.288   3.021   7.733 -0.0408  1.2548  0.3905
 8161SOL    HW235943   2.353   2.938   7.838  0.9290  0.0613  1.3594
 8162SOL     OW35944   0.114   0.604   4.697  0.1584  0.0845 -0.3661
 8162SOL    HW135945   0.132   0.518   4.735  0.5142 -0.6295 -2.1504
 8162SOL    HW235946   0.204   0.636   4.699  0.2613 -0.1298 -1.4802
 8163SOL     OW35947   1.482   0.076  11.510  0.1262  0.9286  0.7481
 8163SOL    HW135948   1.428   0.129  11.452 -0.3679 -2.1575 -1.6157
 8163SOL    HW235949   1.566   0.079  11.463  0.0989 -1.8984  0.5305
 8164SOL     OW35950   1.519   3.973   2.253 -0.0990  0.2734  0.0616
 8164SOL    HW135951   1.519   3.906   2.185 -0.5492  0.9200 -0.5835
 8164SOL    HW235952   1.455   3.928   2.307 -0.2692  0.9787  0.4451
 8165SOL     OW35953   3.293   0.960   5.917  0.0379 -0.0605 -0.1575
 8165SOL    HW135954   3.207   0.997   5.894  0.7687  0.8528 -1.4168
 8165SOL    HW235955   3.262   0.870   5.909 -0.2321 -0.0792  1.1524
 8166SOL     OW35956   2.952   1.347   7.155  0.2778 -0.0048  0.4478
 8166SOL    HW135957   2.919   1.279   7.096  1.8850  0.0929 -0.5523
 8166SOL    HW235958   2.893   1.419   7.132  0.1491 -0.3541 -0.3071
 8167SOL     OW35959   2.764   0.482   5.513 -0.9325 -0.5817 -0.0581
 8167SOL    HW135960   2.856   0.505   5.528 -0.6445 -0.5597 -1.9288
 8167SOL    HW235961   2.731   0.564   5.476  2.3790  0.9831  0.4658
 8168SOL     OW35962   1.615   0.262   7.273 -0.3962 -0.1356 -0.6180
 8168SOL    HW135963   1.692   0.310   7.306  0.1270  0.5185 -2.8095
 8168SOL    HW235964   1.650   0.176   7.297  1.4278  0.9207  0.5612
 8169SOL     OW35965   0.472   1.460   9.023 -0.1690 -0.0607  0.3146
 8169SOL    HW135966   0.491   1.472   9.117  0.6794  1.7240 -0.0839
 8169SOL    HW235967   0.452   1.367   9.024  0.1730 -0.1307  1.2083
 8170SOL     OW35968   2.835   1.460   9.419 -0.3638 -0.1177 -0.2748
 8170SOL    HW135969   2.914   1.472   9.366  0.6413 -0.4709  1.1195
 8170SOL    HW235970   2.826   1.539   9.472  0.1559 -0.6745  0.6456
 8171SOL     OW35971   2.354   2.317   5.508 -0.1015 -0.0963  0.0902
 8171SOL    HW135972   2.432   2.349   5.554 -0.1998 -1.1398  0.9639
 8171SOL    HW235973   2.315   2.244   5.556 -1.1437  0.8689  0.7272
 8172SOL     OW35974   1.154   1.263   0.577  0.0335  0.4333  0.9931
 8172SOL    HW135975   1.070   1.270   0.624 -0.4414 -1.7468  0.4813
 8172SOL    HW235976   1.219   1.305   0.632  1.9947  1.3145 -2.0022
 8173SOL     OW35977   2.083   2.275   6.902 -0.0014 -0.0699 -0.1381
 8173SOL    HW135978   2.024   2.274   6.977  1.1444  2.0316  0.7913
 8173SOL    HW235979   2.062   2.193   6.857 -0.7569 -0.0421  0.1763
 8174SOL     OW35980   0.353   3.503   9.546 -0.1066  0.2820 -0.1657
 8174SOL    HW135981   0.309   3.451   9.479 -1.5970  0.6180  0.5431
 8174SOL    HW235982   0.395   3.434   9.597  1.6655  1.0020 -0.6323
 8175SOL     OW35983   3.930   0.285  15.694  0.4097 -0.0980 -0.8890
 8175SOL    HW135984   3.891   0.346  15.631  0.6815  1.8089  0.7935
 8175SOL    HW235985   3.910   0.208  15.642  0.9625  0.5477 -2.0620
 8176SOL     OW35986   4.634   1.311   5.286 -0.1049  0.3727  0.1954
 8176SOL    HW135987   4.560   1.261   5.321 -0.9593  1.1635 -0.4586
 8176SOL    HW235988   4.698   1.245   5.261  1.0194  1.3267  0.5155
 8177SOL     OW35989   4.323   1.427   5.096 -0.3020  0.0686  0.1588
 8177SOL    HW135990   4.363   1.429   5.009 -0.8682 -0.4019 -0.1120
 8177SOL    HW235991   4.302   1.334   5.103 -0.3251 -0.0226 -1.1343
 8178SOL     OW35992   3.663   1.400   7.597 -0.1365 -0.4252  0.6750
 8178SOL    HW135993   3.587   1.397   7.539  0.4441 -0.4132 -0.0923
 8178SOL    HW235994   3.643   1.477   7.651 -0.1315 -0.1664  0.3081
 8179SOL     OW35995   4.575   2.159  11.664  1.0589  0.5125  0.0251
 8179SOL    HW135996   4.601   2.133  11.576  0.1218  2.2057 -0.7395
 8179SOL    HW235997   4.599   2.078  11.710  0.3371  1.0422  1.3146
 8180SOL     OW35998   1.418   2.373  17.005 -0.0718 -0.4818 -0.1970
 8180SOL    HW135999   1.343   2.381  17.063 -0.7548 -1.0695 -1.0014
 8180SOL    HW236000   1.488   2.430  17.038  0.2622 -0.6906 -0.5365
 8181SOL     OW36001   3.537   4.100   9.793 -0.1313 -0.2656 -0.2344
 8181SOL    HW136002   3.529   4.109   9.698  2.4544  1.7955 -0.2364
 8181SOL    HW236003   3.626   4.128   9.815 -0.5336  0.5322  0.3803
 8182SOL     OW36004   0.430   3.092   1.348  0.2824  0.0270 -0.3100
 8182SOL    HW136005   0.524   3.104   1.362  0.3313  0.8178 -1.2700
 8182SOL    HW236006   0.424   3.112   1.254 -1.2747  0.1527 -0.1749
 8183SOL     OW36007   2.048   2.683   2.563  0.3149 -0.6303 -0.3232
 8183SOL    HW136008   1.976   2.722   2.514  1.2021  1.7611  0.2673
 8183SOL    HW236009   2.097   2.630   2.501  1.6003  1.5548 -1.1727
 8184SOL     OW36010   4.206   4.375  15.448  0.0087 -0.0080  0.6565
 8184SOL    HW136011   4.147   4.319  15.398 -0.9275  2.1413 -0.6185
 8184SOL    HW236012   4.145   4.444  15.473  0.0541  0.8935 -1.8136
 8185SOL     OW36013   3.567   3.644   8.381 -0.4010 -0.3794 -0.1599
 8185SOL    HW136014   3.485   3.617   8.341 -0.5469  0.3925 -0.3857
 8185SOL    HW236015   3.571   3.726   8.331 -2.4729  0.1552  0.5624
 8186SOL     OW36016   0.029   2.096   8.952  0.2283 -0.1057 -0.3998
 8186SOL    HW136017   0.050   2.144   8.871 -0.9480  1.5393  0.2920
 8186SOL    HW236018   0.037   2.007   8.915 -0.0068  0.3895 -1.6587
 8187SOL     OW36019   3.882   2.876   7.380  0.1423  0.4529  0.5279
 8187SOL    HW136020   3.934   2.946   7.341  1.3490 -0.9812 -0.4559
 8187SOL    HW236021   3.916   2.788   7.362  0.5382  0.8993 -0.8640
 8188SOL     OW36022   3.620   0.107   2.662 -0.8432  0.0763 -0.1536
 8188SOL    HW136023   3.715   0.115   2.663 -0.8349  0.1705 -1.3041
 8188SOL    HW236024   3.595   0.199   2.655 -0.9146  0.1570  1.1087
 8189SOL     OW36025   3.451   4.265   4.026  0.4488  0.2338 -0.0996
 8189SOL    HW136026   3.359   4.240   4.016  1.1911 -2.9630  1.2246
 8189SOL    HW236027   3.488   4.178   4.013 -2.9166 -0.8758 -2.2295
 8190SOL     OW36028   1.046   3.826   7.040  0.5126 -0.2138  0.0614
 8190SOL    HW136029   1.026   3.917   7.017 -0.5557 -0.5060 -0.1648
 8190SOL    HW236030   0.987   3.810   7.113  0.5930  2.9185  0.8302
 8191SOL     OW36031   2.480   0.126   1.968 -0.4333 -0.4548  0.6772
 8191SOL    HW136032   2.506   0.174   1.890 -2.6759 -0.4733 -0.0620
 8191SOL    HW236033   2.472   0.037   1.933 -1.5518 -0.6679  1.4761
 8192SOL     OW36034   2.207   2.395   2.721 -0.2739 -0.3691  0.3803
 8192SOL    HW136035   2.123   2.375   2.680 -1.0299 -0.1209  1.8224
 8192SOL    HW236036   2.249   2.459   2.664  0.7141 -0.3168  1.1721
 8193SOL     OW36037   3.274   4.282   3.481 -0.3334  0.7063  0.3317
 8193SOL    HW136038   3.208   4.212   3.486 -0.0161  0.4792  1.2779
 8193SOL    HW236039   3.316   4.270   3.566  1.6581  1.5113 -0.5437
 8194SOL     OW36040   4.710   3.068   9.638 -0.0708 -0.1069  0.5640
 8194SOL    HW136041   4.685   3.051   9.728  0.2413  0.2310  0.7170
 8194SOL    HW236042   0.079   3.039   9.636  0.5101  1.5546  2.6254
 8195SOL     OW36043   3.753   2.333   9.053 -0.0862  0.1169  0.2142
 8195SOL    HW136044   3.769   2.284   8.972  1.6769 -0.1862  0.7399
 8195SOL    HW236045   3.781   2.276   9.125  0.6124  1.0727  0.6944
 8196SOL     OW36046   4.103   2.878   3.497  0.7281 -0.2535  0.5444
 8196SOL    HW136047   4.053   2.885   3.578 -1.3606  1.3409 -0.8673
 8196SOL    HW236048   4.055   2.811   3.449 -1.0442  0.6289  1.0717
 8197SOL     OW36049   0.571   3.427  14.583  0.3238  0.1261 -0.1548
 8197SOL    HW136050   0.644   3.451  14.526  2.2822 -0.2253  2.1815
 8197SOL    HW236051   0.609   3.455  14.666 -2.3130  3.2446 -0.0153
 8198SOL     OW36052   2.952   0.659   5.629 -0.1551  0.2148  0.2515
 8198SOL    HW136053   2.879   0.711   5.662  0.1809 -0.3329  1.8475
 8198SOL    HW236054   2.994   0.657   5.715 -0.3623 -2.0788  0.3054
 8199SOL     OW36055   2.821   1.879  10.720  0.0267 -0.1104 -0.7087
 8199SOL    HW136056   2.796   1.969  10.700  1.9359  1.0746  2.1644
 8199SOL    HW236057   2.736   1.845  10.748  0.0504  1.6033  1.4098
 8200SOL     OW36058   1.871   1.708  12.370  0.1461  0.4332  0.3671
 8200SOL    HW136059   1.812   1.734  12.441 -1.6045  0.2461 -1.0086
 8200SOL    HW236060   1.828   1.626  12.346  2.7949 -1.5188  2.2000
 8201SOL     OW36061   2.667   2.573   4.763  0.6068 -0.5974 -0.1954
 8201SOL    HW136062   2.674   2.598   4.671 -0.5391  1.0599  0.1750
 8201SOL    HW236063   2.751   2.603   4.798  0.5004 -2.5380  1.7275
 8202SOL     OW36064   2.782   1.905   3.962 -0.0912  0.1783 -0.2442
 8202SOL    HW136065   2.741   1.903   3.875 -0.1543  1.6678 -0.2421
 8202SOL    HW236066   2.858   1.958   3.940 -2.0897  2.2527 -2.1611
 8203SOL     OW36067   3.822   3.083   1.144  0.0244 -0.1171 -0.3720
 8203SOL    HW136068   3.816   3.179   1.147  0.2076 -0.1861  1.9071
 8203SOL    HW236069   3.809   3.068   1.050 -0.0267  1.5607 -0.6302
 8204SOL     OW36070   1.381   2.666   7.980  0.1321 -0.1282  0.1422
 8204SOL    HW136071   1.307   2.727   7.968 -0.6020 -1.1796 -0.7456
 8204SOL    HW236072   1.388   2.633   7.890  1.5541  0.2018  0.1414
 8205SOL     OW36073   2.934   2.694   1.653  0.3027  0.0577 -0.4872
 8205SOL    HW136074   2.926   2.692   1.558  1.8110 -0.0847 -0.6139
 8205SOL    HW236075   2.860   2.739   1.695  0.1974 -2.0310  1.6011
 8206SOL     OW36076   2.302   0.914   4.409  0.1235  0.7335  0.1858
 8206SOL    HW136077   2.372   0.861   4.446  0.7493  0.2476 -1.6861
 8206SOL    HW236078   2.355   0.993   4.398 -1.5166  1.7468 -0.4929
 8207SOL     OW36079   3.028   2.757   1.957  0.7410  0.6216 -0.3301
 8207SOL    HW136080   2.935   2.745   1.976  0.5450  2.2380 -0.2694
 8207SOL    HW236081   3.029   2.796   1.870  0.2638 -1.8041 -1.4159
 8208SOL     OW36082   3.893   0.013  13.666 -0.0977 -0.1810  0.1670
 8208SOL    HW136083   3.867   4.704  13.580 -0.3122 -0.3706  0.2992
 8208SOL    HW236084   3.959   0.074  13.636 -0.4467  0.7837  1.3397
 8209SOL     OW36085   0.099   3.006   3.903  0.2215 -0.3361  0.0067
 8209SOL    HW136086   0.163   2.960   3.848 -0.2956  0.7060 -1.4723
 8209SOL    HW236087   0.157   3.009   3.978  1.4632  0.7275 -0.9910
 8210SOL     OW36088   1.552   2.887   3.426 -0.0942  0.5784 -0.5010
 8210SOL    HW136089   1.475   2.845   3.462  0.0114 -0.0587 -1.0151
 8210SOL    HW236090   1.521   2.942   3.354  2.4892 -1.0669 -2.8916
 8211SOL     OW36091   0.880   0.874   0.778 -0.4451  0.4275  0.2014
 8211SOL    HW136092   0.918   0.808   0.722  1.1121  1.0807  0.4875
 8211SOL    HW236093   0.866   0.941   0.711 -0.7050  0.1934  0.0213
 8212SOL     OW36094   0.751   0.329   8.656  0.0069 -0.0460  0.3021
 8212SOL    HW136095   0.822   0.387   8.627 -0.9761 -0.0288 -2.0443
 8212SOL    HW236096   0.766   0.249   8.607 -1.3901 -0.5401  0.6800
 8213SOL     OW36097   3.797   0.436   2.807 -0.4673  0.6028 -0.4853
 8213SOL    HW136098   3.796   0.360   2.748 -0.1584 -0.6611  1.1171
 8213SOL    HW236099   3.713   0.478   2.788  0.0736  2.6793  1.6860
 8214SOL     OW36100   3.417   1.039   2.790  0.0120  0.6296  0.2452
 8214SOL    HW136101   3.367   1.073   2.716  0.8209  0.0851 -0.5377
 8214SOL    HW236102   3.360   1.059   2.864 -1.6059 -0.2659 -0.7629
 8215SOL     OW36103   3.302   2.602  15.367 -0.2518 -0.0522 -0.2210
 8215SOL    HW136104   3.370   2.539  15.393 -0.1457  0.7492  1.4238
 8215SOL    HW236105   3.260   2.555  15.295 -0.0302 -2.2485  1.0716
 8216SOL     OW36106   2.025   2.994  13.582 -0.2934 -0.5408  0.4177
 8216SOL    HW136107   2.097   2.991  13.518  0.0802 -2.2098  0.9137
 8216SOL    HW236108   1.953   3.025  13.528  1.8893  2.8593 -0.5497
 8217SOL     OW36109   3.475   1.420   6.997  0.0548  0.1886  0.9141
 8217SOL    HW136110   3.437   1.508   7.002  0.1727  0.3096 -0.5094
 8217SOL    HW236111   3.437   1.376   7.073  0.1165 -0.1283  0.7589
 8218SOL     OW36112   3.887   0.693  14.173 -0.3158  0.0322  0.1901
 8218SOL    HW136113   3.893   0.788  14.169  0.0741 -0.0325 -0.6570
 8218SOL    HW236114   3.890   0.679  14.268  0.5160 -0.6517  0.0680
 8219SOL     OW36115   0.094   2.511   7.108  0.4168 -0.5274 -0.2033
 8219SOL    HW136116   0.060   2.504   7.197  1.0279  0.8849  0.1509
 8219SOL    HW236117   0.184   2.538   7.126  0.3463 -0.5961  0.2679
 8220SOL     OW36118   2.996   0.932   5.203  0.1581 -0.0731  0.0436
 8220SOL    HW136119   2.947   0.944   5.284 -0.5846 -2.3912 -0.0577
 8220SOL    HW236120   3.050   0.856   5.226  0.0544 -0.5049 -1.1309
 8221SOL     OW36121   4.613   4.372   4.147  0.4420 -0.3156 -0.0020
 8221SOL    HW136122   4.536   4.426   4.129 -0.5026 -1.0872  1.6812
 8221SOL    HW236123   4.573   4.299   4.194  1.1393 -1.2360 -0.8561
 8222SOL     OW36124   1.857   4.004   2.772 -0.1443 -0.4083  0.0035
 8222SOL    HW136125   1.909   4.072   2.729 -2.2430 -0.4354 -2.5869
 8222SOL    HW236126   1.874   3.933   2.709 -3.0744 -2.2823  1.3134
 8223SOL     OW36127   3.217   4.662   3.616  0.5002 -0.5137  0.3076
 8223SOL    HW136128   3.130   4.644   3.580 -0.2542  0.6665  1.5267
 8223SOL    HW236129   3.246   4.576   3.647  1.7143 -0.7496 -1.4456
 8224SOL     OW36130   1.730   1.708  12.633 -0.3720  0.1135  0.3607
 8224SOL    HW136131   1.759   1.623  12.665 -2.1556 -0.7500 -0.2935
 8224SOL    HW236132   1.801   1.769  12.655 -1.0353  1.1538 -0.3828
 8225SOL     OW36133   2.426   0.860   6.122  0.0577 -0.0441  0.0098
 8225SOL    HW136134   2.440   0.890   6.033 -0.7006  1.9238  0.5593
 8225SOL    HW236135   2.430   0.945   6.167 -1.5360 -0.1281  0.3007
 8226SOL     OW36136   1.327   4.684   4.867  0.2908  0.2107  0.6036
 8226SOL    HW136137   1.357   0.004   4.787 -1.9727 -1.9533 -1.4112
 8226SOL    HW236138   1.260   0.020   4.902 -0.0777 -0.5835  1.2305
 8227SOL     OW36139   2.810   3.791  16.476  0.5238 -0.3938  0.0391
 8227SOL    HW136140   2.818   3.874  16.429  1.6048 -1.1719 -1.1330
 8227SOL    HW236141   2.870   3.737  16.425  2.1485  1.0104  0.4735
 8228SOL     OW36142   2.458   1.314   2.943  0.0077  0.5037 -0.0701
 8228SOL    HW136143   2.481   1.224   2.920 -1.3083 -0.1256  1.1196
 8228SOL    HW236144   2.543   1.351   2.968 -0.2040  0.2546  0.9795
 8229SOL     OW36145   1.284   3.430  16.373 -0.1306 -0.2323 -0.3346
 8229SOL    HW136146   1.273   3.494  16.444 -0.6963  0.7367 -1.2879
 8229SOL    HW236147   1.333   3.357  16.410  1.4325  0.4264 -1.1399
 8230SOL     OW36148   1.006   0.316   6.482 -0.2199 -0.0867 -0.3879
 8230SOL    HW136149   1.020   0.229   6.520 -2.2172 -0.9352 -1.5837
 8230SOL    HW236150   1.075   0.301   6.418 -0.6606 -0.2585 -0.8228
 8231SOL     OW36151   0.549   0.357   7.790  0.5415  0.1162 -0.2246
 8231SOL    HW136152   0.622   0.307   7.825  0.1071 -1.3495 -1.3693
 8231SOL    HW236153   0.515   0.296   7.724 -2.1033 -0.0106  1.2442
 8232SOL     OW36154   3.465   1.626   2.990 -0.4582 -0.0752 -0.1119
 8232SOL    HW136155   3.489   1.577   2.912 -0.7555  0.0759 -0.2972
 8232SOL    HW236156   3.429   1.707   2.955  3.2797  0.7529 -1.9546
 8233SOL     OW36157   3.794   4.140  12.741  0.2487 -0.3283 -0.4805
 8233SOL    HW136158   3.831   4.228  12.751 -0.5036 -0.1305  0.5197
 8233SOL    HW236159   3.716   4.170  12.693 -0.2378  0.3940  0.7537
 8234SOL     OW36160   3.084   3.826  14.786  0.3193 -0.2912 -0.0114
 8234SOL    HW136161   3.059   3.894  14.848  3.0268  1.4990 -0.9055
 8234SOL    HW236162   3.154   3.866  14.735  1.7565 -1.1786  1.2480
 8235SOL     OW36163   0.102   4.577   9.252  0.3614  0.4459 -0.1777
 8235SOL    HW136164   0.055   4.558   9.333  1.0236  1.4539  0.4452
 8235SOL    HW236165   0.181   4.626   9.276 -0.2751  0.8697  1.0311
 8236SOL     OW36166   0.752   2.756   8.885 -0.6035  0.1295 -0.0387
 8236SOL    HW136167   0.795   2.703   8.951  0.8262  1.4636  0.1040
 8236SOL    HW236168   0.829   2.770   8.830 -1.1432 -0.5226 -0.9619
 8237SOL     OW36169   0.111   0.113   2.973  0.1100 -0.3488  0.1521
 8237SOL    HW136170   0.016   0.117   2.983  0.0285 -1.4857 -0.1943
 8237SOL    HW236171   0.132   0.029   3.014 -1.5190 -0.8380 -0.0519
 8238SOL     OW36172   3.554   0.412   4.004 -0.0025 -0.0446  0.1116
 8238SOL    HW136173   3.589   0.452   4.083 -3.5885  0.5613  1.3777
 8238SOL    HW236174   3.462   0.405   4.028 -0.1070 -1.0940 -0.5986
 8239SOL     OW36175   2.054   3.540  11.492  0.0248 -0.6114 -0.0946
 8239SOL    HW136176   1.996   3.483  11.441 -0.4002  0.2263 -0.5474
 8239SOL    HW236177   1.982   3.592  11.528  0.0377  0.0323 -0.9978
 8240SOL     OW36178   1.574   2.171   4.866 -0.2856 -0.0540  0.1978
 8240SOL    HW136179   1.660   2.196   4.830 -1.5509  3.0873 -0.5989
 8240SOL    HW236180   1.601   2.088   4.906 -1.5693 -0.8306 -0.5252
 8241SOL     OW36181   0.661   3.421   4.305  0.1969  0.1706  0.3321
 8241SOL    HW136182   0.703   3.503   4.277 -1.6835  0.5272 -1.4907
 8241SOL    HW236183   0.642   3.373   4.224  0.6463  3.3283 -1.6747
 8242SOL     OW36184   2.052   0.733   7.100 -0.4161  0.5371  0.1902
 8242SOL    HW136185   2.120   0.717   7.165  0.9598  2.2919 -0.8135
 8242SOL    HW236186   2.034   0.643   7.072 -2.0070  1.9000 -3.1861
 8243SOL     OW36187   0.862   4.357   1.757  0.4914  0.1952 -0.1247
 8243SOL    HW136188   0.917   4.374   1.681 -0.7836  2.1832 -0.6170
 8243SOL    HW236189   0.860   4.261   1.756  1.3210  0.1613  1.6024
 8244SOL     OW36190   3.322   1.034   6.889 -0.0909 -0.4888 -0.5470
 8244SOL    HW136191   3.259   1.077   6.831  0.3002  1.0079  0.1335
 8244SOL    HW236192   3.340   1.103   6.954 -1.8279  0.3063 -0.8943
 8245SOL     OW36193   1.980   3.088   2.262 -0.1490  0.0213 -0.7399
 8245SOL    HW136194   2.069   3.077   2.229  0.0697  0.1157 -0.1907
 8245SOL    HW236195   2.006   3.123   2.348  2.0804 -2.6020 -0.3710
 8246SOL     OW36196   4.118   3.014   6.342  0.0343 -0.3671  0.1391
 8246SOL    HW136197   4.042   3.003   6.286 -1.4921 -2.2912  2.5923
 8246SOL    HW236198   4.078   2.954   6.405  0.5303  3.4530  4.1263
 8247SOL     OW36199   3.059   3.364   0.540 -0.5687  0.4179  0.1075
 8247SOL    HW136200   3.095   3.343   0.626  1.3819  0.7925 -0.6176
 8247SOL    HW236201   3.139   3.389   0.495 -0.5614  0.5881  0.2152
 8248SOL     OW36202   1.705   1.106   3.590  0.0197 -0.0595 -0.2697
 8248SOL    HW136203   1.770   1.043   3.623  2.0221  3.5214  2.5572
 8248SOL    HW236204   1.646   1.120   3.664  0.6898 -1.9192  0.6248
 8249SOL     OW36205   4.503   1.920   5.338 -0.8302  0.0252  0.2551
 8249SOL    HW136206   4.574   1.859   5.355 -0.5689  0.0973 -0.5681
 8249SOL    HW236207   4.466   1.882   5.258 -0.0987 -1.2241  0.5208
 8250SOL     OW36208   1.658   3.048   8.596  0.4701 -0.6335  0.5988
 8250SOL    HW136209   1.724   3.106   8.559  1.3971 -0.1304  2.9934
 8250SOL    HW236210   1.651   2.988   8.522 -0.7022  0.0657  0.1402
 8251SOL     OW36211   0.846   1.712   1.961  0.2306  0.3238  0.4724
 8251SOL    HW136212   0.854   1.780   2.027  0.4399  1.6837 -0.9575
 8251SOL    HW236213   0.915   1.719   1.895 -1.9745  1.1031 -1.7394
 8252SOL     OW36214   0.361   2.472  10.495 -0.2122  0.3249 -0.3103
 8252SOL    HW136215   0.272   2.453  10.523 -0.4303  0.8085 -0.6678
 8252SOL    HW236216   0.400   2.397  10.451 -1.7106  0.5674 -2.0441
 8253SOL     OW36217   2.440   3.140   2.351  0.5713 -0.4898 -0.1388
 8253SOL    HW136218   2.456   3.224   2.309  0.5011 -0.3486  0.1163
 8253SOL    HW236219   2.440   3.155   2.445  1.1396  2.4670 -0.6179
 8254SOL     OW36220   3.379   2.325  12.911 -0.6707  0.2177  0.6621
 8254SOL    HW136221   3.456   2.287  12.954 -1.2808  0.8690  2.3347
 8254SOL    HW236222   3.370   2.263  12.838 -2.4348  0.8721  0.3269
 8255SOL     OW36223   4.616   0.812  14.460  0.4137 -0.2006 -0.2869
 8255SOL    HW136224   4.613   0.800  14.555  0.9899 -1.1552 -0.3891
 8255SOL    HW236225   4.590   0.904  14.448  1.7213  0.0948 -0.8816
 8256SOL     OW36226   2.293   3.179   8.099 -0.1384 -0.0539 -0.3406
 8256SOL    HW136227   2.228   3.248   8.112  0.4476  0.0275  2.1390
 8256SOL    HW236228   2.233   3.120   8.053  0.6738 -0.9753 -0.2209
 8257SOL     OW36229   4.556   0.033  14.358 -0.5259 -0.4104 -0.1739
 8257SOL    HW136230   4.570   0.124  14.382  1.1106 -0.4075 -1.1695
 8257SOL    HW236231   4.465   0.044  14.331 -0.4059  1.8776  0.3688
 8258SOL     OW36232   1.452   1.709   8.091  0.0767 -0.2275 -0.2733
 8258SOL    HW136233   1.419   1.620   8.077 -0.4918 -0.0119 -0.2903
 8258SOL    HW236234   1.369   1.755   8.084  1.2432  1.8127 -0.6426
 8259SOL     OW36235   1.189   0.657  13.477  0.2392  0.1587  0.2300
 8259SOL    HW136236   1.097   0.649  13.451  0.2234 -0.2597  0.4190
 8259SOL    HW236237   1.215   0.738  13.432 -1.2092  0.7978  0.5594
 8260SOL     OW36238   0.307   2.403   5.543 -0.1380 -0.7887 -0.1472
 8260SOL    HW136239   0.238   2.468   5.559  0.5054 -0.3822  0.9344
 8260SOL    HW236240   0.335   2.417   5.452 -1.3765  1.3757 -0.2093
 8261SOL     OW36241   2.195   3.556   7.109  0.5846  0.3703  0.2701
 8261SOL    HW136242   2.244   3.593   7.183  2.4911 -0.8742 -0.3597
 8261SOL    HW236243   2.112   3.552   7.156 -1.5743  1.2300 -3.4787
 8262SOL     OW36244   0.927   2.138  14.820 -0.0081  0.4482 -0.2044
 8262SOL    HW136245   0.887   2.118  14.905 -1.9947  1.4286 -0.9114
 8262SOL    HW236246   1.021   2.139  14.841  0.2351  0.6893 -1.3202
 8263SOL     OW36247   3.717   3.126   1.579 -0.1842  0.2612 -0.6126
 8263SOL    HW136248   3.807   3.133   1.545  0.4499 -0.5467  0.9139
 8263SOL    HW236249   3.667   3.151   1.501 -2.4497  0.4703  0.9325
 8264SOL     OW36250   3.882   2.880  15.824  0.7592  0.6892  0.4416
 8264SOL    HW136251   3.890   2.933  15.903 -1.6955  2.8315 -0.7676
 8264SOL    HW236252   3.791   2.899  15.798  0.8260  1.5791  0.8585
 8265SOL     OW36253   3.797   3.398  12.003 -0.2050 -0.2145 -0.0402
 8265SOL    HW136254   3.829   3.397  11.913 -0.8266 -1.0225 -0.2527
 8265SOL    HW236255   3.787   3.303  12.016  1.9741 -0.2978  0.9494
 8266SOL     OW36256   3.344   4.714   6.641 -0.5102 -0.1529 -0.6577
 8266SOL    HW136257   3.263   0.038   6.661  0.7091  0.8448  1.9146
 8266SOL    HW236258   3.368   0.014   6.551  2.7097 -2.0028 -0.2674
 8267SOL     OW36259   3.181   1.791   3.649 -0.1826  0.2819  0.7453
 8267SOL    HW136260   3.146   1.803   3.560  1.6293  0.8779  0.1193
 8267SOL    HW236261   3.227   1.873   3.661  0.5655  0.0723 -0.6656
 8268SOL     OW36262   3.285   2.135  12.722  0.3954  0.4109  0.2168
 8268SOL    HW136263   3.207   2.186  12.696  1.1989  2.3849  1.6533
 8268SOL    HW236264   3.302   2.090  12.640 -0.0871  0.1406  0.2640
 8269SOL     OW36265   4.481   1.081  15.924 -0.1056  0.1724 -0.6148
 8269SOL    HW136266   4.443   1.030  15.853  0.6547 -0.9249 -0.2229
 8269SOL    HW236267   4.547   1.134  15.879  2.4107 -1.5827  0.9759
 8270SOL     OW36268   3.909   1.526  13.922 -0.2996 -0.0053 -0.4033
 8270SOL    HW136269   3.954   1.461  13.867  2.2584  1.1078  0.3872
 8270SOL    HW236270   3.847   1.561  13.858 -2.0324  0.1181  1.3545
 8271SOL     OW36271   1.638   4.280   6.718 -0.3211 -0.1362 -0.5727
 8271SOL    HW136272   1.716   4.334   6.722 -0.8272  0.5203  0.4072
 8271SOL    HW236273   1.575   4.351   6.727  2.0638  2.0411 -1.2685
 8272SOL     OW36274   4.058   1.709   8.742  0.2275 -0.6364 -0.0183
 8272SOL    HW136275   4.000   1.688   8.815 -0.6777  0.5124 -0.4034
 8272SOL    HW236276   4.132   1.746   8.791 -0.5388 -2.5263  2.5703
 8273SOL     OW36277   1.206   2.925   3.092  0.3657 -0.2610  0.4969
 8273SOL    HW136278   1.240   2.939   3.180 -0.8505 -2.2147  1.2651
 8273SOL    HW236279   1.137   2.865   3.120  0.6924 -1.0122 -0.2986
 8274SOL     OW36280   4.175   0.999   0.384  0.2300  0.0998  0.1044
 8274SOL    HW136281   4.124   1.036   0.455  0.8898  0.9516  0.1335
 8274SOL    HW236282   4.130   0.917   0.362  1.4222 -0.1399 -1.5322
 8275SOL     OW36283   3.022   2.946  13.069 -0.1012  0.5712  0.1763
 8275SOL    HW136284   3.024   2.851  13.062  1.1157  0.5325  1.0738
 8275SOL    HW236285   3.024   2.963  12.974 -1.0305 -1.4777 -0.2090
 8276SOL     OW36286   2.079   3.194  16.651  0.1737 -0.0311 -0.3552
 8276SOL    HW136287   2.161   3.238  16.626 -0.6953  1.3289 -0.8540
 8276SOL    HW236288   2.030   3.263  16.696  3.0945  1.4361  0.5778
 8277SOL     OW36289   1.642   2.443  14.667  0.3497 -0.2768  0.1932
 8277SOL    HW136290   1.696   2.496  14.609 -2.4717  1.6698 -0.6292
 8277SOL    HW236291   1.692   2.361  14.669  1.1512  0.2287  1.5110
 8278SOL     OW36292   3.167   3.443   6.664 -0.0171 -0.0633 -0.1963
 8278SOL    HW136293   3.163   3.528   6.708 -1.2332 -0.5429  0.6152
 8278SOL    HW236294   3.214   3.471   6.586 -1.3904  0.6755 -0.7518
 8279SOL     OW36295   1.758   1.857   4.117 -0.4884  0.3609 -0.2007
 8279SOL    HW136296   1.813   1.930   4.143  0.5486  0.3522 -2.3686
 8279SOL    HW236297   1.737   1.881   4.027 -2.9594  1.4949  0.6727
 8280SOL     OW36298   0.285   2.444   0.425  0.0085  0.3049  0.1628
 8280SOL    HW136299   0.289   2.527   0.379 -0.3705 -1.0948 -2.3892
 8280SOL    HW236300   0.192   2.425   0.422  0.5197 -2.1359 -0.2359
 8281SOL     OW36301   4.492   0.159   4.912 -1.0014 -0.0814  0.0531
 8281SOL    HW136302   4.408   0.133   4.873  0.2484 -1.7599 -1.5746
 8281SOL    HW236303   4.545   0.082   4.894 -0.4976  0.3273 -0.2135
 8282SOL     OW36304   1.606   1.791   7.412  0.0573 -0.3369  0.5319
 8282SOL    HW136305   1.701   1.796   7.409  0.0061  1.1350  1.2999
 8282SOL    HW236306   1.580   1.841   7.334  1.8342 -1.3058 -0.6703
 8283SOL     OW36307   1.952   2.401   8.556 -0.1686 -0.7798 -0.1857
 8283SOL    HW136308   1.931   2.349   8.633  0.7502 -0.8413  0.0239
 8283SOL    HW236309   2.013   2.465   8.594 -1.6489  0.9249 -0.6454
 8284SOL     OW36310   4.649   4.152   2.038  0.3704 -0.0793  0.4464
 8284SOL    HW136311   4.712   4.221   2.018  0.1170  0.5471  1.7771
 8284SOL    HW236312   4.693   4.086   1.985 -1.9175 -1.3652  0.1582
 8285SOL     OW36313   2.897   3.585   9.044  0.3255 -0.2773 -0.0675
 8285SOL    HW136314   2.945   3.552   9.120  1.0081  2.2565  0.6193
 8285SOL    HW236315   2.809   3.562   9.073 -0.0512  1.1766 -0.0752
 8286SOL     OW36316   1.079   2.773   5.666  0.1841 -0.1198  0.1618
 8286SOL    HW136317   1.131   2.813   5.597 -0.2700  2.9109  1.6102
 8286SOL    HW236318   1.102   2.682   5.645 -0.4374 -0.6618  1.8188
 8287SOL     OW36319   2.108   1.720   1.620 -0.3699  0.6277  0.2029
 8287SOL    HW136320   2.090   1.805   1.580  2.0150 -0.5430 -3.3214
 8287SOL    HW236321   2.184   1.696   1.567 -2.7715 -0.7689 -2.6077
 8288SOL     OW36322   2.953   3.685   5.628 -0.1530 -0.1250  0.2986
 8288SOL    HW136323   2.878   3.746   5.629 -0.4838 -0.4925 -1.3354
 8288SOL    HW236324   2.952   3.646   5.715 -1.5181 -2.2359 -0.6598
 8289SOL     OW36325   3.128   3.210   2.711 -0.0460 -0.0669 -0.0625
 8289SOL    HW136326   3.211   3.219   2.757  0.1203  0.5074 -0.4711
 8289SOL    HW236327   3.107   3.303   2.698 -0.3979 -0.0509  0.6314
 8290SOL     OW36328   3.943   0.017   8.609 -0.3134 -0.4907 -0.0722
 8290SOL    HW136329   3.976   4.660   8.650  1.8108 -0.1731 -1.1648
 8290SOL    HW236330   3.945   0.072   8.687 -1.0758  0.3812 -0.6574
 8291SOL     OW36331   0.576   1.882   6.686  0.3682  0.1926  0.1927
 8291SOL    HW136332   0.663   1.847   6.705  0.1738 -0.8588 -0.7899
 8291SOL    HW236333   0.528   1.799   6.685  1.0976 -0.2403  1.4570
 8292SOL     OW36334   4.226   2.622   3.903 -0.3798  0.7593  0.2237
 8292SOL    HW136335   4.142   2.578   3.897 -0.8627  2.0933 -2.6800
 8292SOL    HW236336   4.205   2.700   3.851  0.8896  1.0697  0.1647
 8293SOL     OW36337   0.840   2.456   1.016 -0.6876  0.4083 -0.6716
 8293SOL    HW136338   0.914   2.420   0.968 -0.2298 -0.8945  1.0058
 8293SOL    HW236339   0.895   2.485   1.089 -0.6215  1.0641 -0.9852
 8294SOL     OW36340   4.465   1.242  14.082 -0.2015  0.6303 -0.5422
 8294SOL    HW136341   4.453   1.250  13.987 -2.4536  1.4334 -0.1868
 8294SOL    HW236342   4.551   1.285  14.083 -0.8388  1.8561  1.7130
 8295SOL     OW36343   3.891   1.951  13.039 -0.3520  0.2621 -0.4427
 8295SOL    HW136344   3.837   2.026  13.014 -0.6431  0.6248  1.2725
 8295SOL    HW236345   3.944   1.994  13.106 -1.3500 -0.0493  0.5378
 8296SOL     OW36346   4.041   2.531  10.203  0.3629 -0.0325  0.1007
 8296SOL    HW136347   4.074   2.614  10.170 -3.6819  0.8316 -1.7186
 8296SOL    HW236348   3.953   2.560  10.223  0.3389  0.8928 -1.3092
 8297SOL     OW36349   3.838   4.433  14.967 -0.5075  0.3031  0.1188
 8297SOL    HW136350   3.906   4.500  14.967 -1.8066  1.6117 -1.6150
 8297SOL    HW236351   3.863   4.383  14.889 -1.4518 -1.3116  0.8596
 8298SOL     OW36352   1.334   1.942  17.092  0.4893  0.8153  0.4848
 8298SOL    HW136353   1.368   2.010  17.150 -1.7693  3.0345 -0.8055
 8298SOL    HW236354   1.310   1.981  17.008  0.8845  1.0096  0.4621
 8299SOL     OW36355   3.724   2.710   5.479  0.4506  0.5783 -0.2031
 8299SOL    HW136356   3.644   2.724   5.529 -0.4260  0.2756 -1.5247
 8299SOL    HW236357   3.750   2.802   5.474 -0.7557  0.8901 -0.8738
 8300SOL     OW36358   0.600   3.147  16.510  0.4022  0.2676 -0.2672
 8300SOL    HW136359   0.559   3.209  16.451  2.6782  0.4994 -1.6293
 8300SOL    HW236360   0.544   3.143  16.587  0.5445  0.3499 -0.1602
 8301SOL     OW36361   3.674   2.316   2.165  0.2660 -0.0263 -0.4609
 8301SOL    HW136362   3.727   2.246   2.127  1.4806  1.0710 -0.7785
 8301SOL    HW236363   3.697   2.391   2.111  2.6570 -0.9670 -0.7246
 8302SOL     OW36364   0.757   2.236   2.456  0.1597 -0.8498 -0.2477
 8302SOL    HW136365   0.783   2.181   2.382 -2.3653  0.8601 -2.3841
 8302SOL    HW236366   0.666   2.222   2.482 -0.1521 -0.1158 -0.9460
 8303SOL     OW36367   2.428   2.154   4.073  0.6219 -0.2781 -0.1865
 8303SOL    HW136368   2.513   2.123   4.104  2.0258  1.8233 -1.9272
 8303SOL    HW236369   2.413   2.105   3.992 -0.7683  0.5241 -0.4123
 8304SOL     OW36370   1.447   3.743   5.433 -0.0288 -0.1503 -0.8603
 8304SOL    HW136371   1.465   3.833   5.404  0.7553  0.2412  0.8416
 8304SOL    HW236372   1.393   3.720   5.358  1.4765  0.1740 -2.0415
 8305SOL     OW36373   2.722   4.631  16.072  0.1289 -0.6176 -0.7018
 8305SOL    HW136374   2.737   4.554  16.017 -0.2339 -0.9727 -0.3021
 8305SOL    HW236375   2.638   4.612  16.114  0.7538  1.4036  1.4612
 8306SOL     OW36376   3.657   2.069  10.610 -1.1096  0.1819  0.0605
 8306SOL    HW136377   3.712   1.996  10.579 -0.4860  0.3111  0.8581
 8306SOL    HW236378   3.636   2.031  10.695 -0.2713 -2.6672 -0.9939
 8307SOL     OW36379   0.879   1.864   6.391  0.2011  0.2043  0.5218
 8307SOL    HW136380   0.838   1.779   6.409 -0.4902 -0.0329 -2.1547
 8307SOL    HW236381   0.904   1.890   6.479  0.1373  0.2717  0.5198
 8308SOL     OW36382   0.739   4.015  13.097 -0.1304  0.9718  0.1557
 8308SOL    HW136383   0.744   4.093  13.151  1.5544  0.7569  0.2968
 8308SOL    HW236384   0.645   4.019  13.079 -0.6540 -4.8533  1.6184
 8309SOL     OW36385   0.832   2.822   7.508 -1.0955  0.1722 -0.5148
 8309SOL    HW136386   0.868   2.779   7.586 -1.7233  0.6338  0.0369
 8309SOL    HW236387   0.761   2.874   7.546  0.0133  0.0142  1.7834
 8310SOL     OW36388   3.056   0.511  10.893 -0.3813 -0.2953  0.4529
 8310SOL    HW136389   3.030   0.451  10.962  1.4759 -0.5349  0.9527
 8310SOL    HW236390   2.974   0.533  10.849  0.3166  1.7815  0.1835
 8311SOL     OW36391   0.209   2.962   2.107  0.1372 -0.0481  0.3909
 8311SOL    HW136392   0.160   2.884   2.134  0.0568 -0.6467 -1.4929
 8311SOL    HW236393   0.279   2.960   2.172 -0.3359 -0.1045  0.8932
 8312SOL     OW36394   3.587   0.177  15.970  0.1553 -0.2679 -0.8974
 8312SOL    HW136395   3.493   0.174  15.988 -0.0501 -0.9567 -2.1258
 8312SOL    HW236396   3.609   0.261  15.928 -1.2965  0.5877  0.0439
 8313SOL     OW36397   1.810   3.010   6.692 -0.5951 -1.0050 -0.7336
 8313SOL    HW136398   1.782   3.093   6.653 -3.1505 -1.4671  0.1515
 8313SOL    HW236399   1.808   3.034   6.785 -0.5159 -1.2775 -0.6630
 8314SOL     OW36400   1.947   2.495   1.686 -0.6590  0.6309 -0.2122
 8314SOL    HW136401   2.002   2.572   1.696  1.5131 -1.1798  1.8480
 8314SOL    HW236402   1.997   2.433   1.739  0.5145  2.5449  0.9126
 8315SOL     OW36403   0.093   1.325  11.371 -0.4404 -0.4839  0.2796
 8315SOL    HW136404   0.147   1.345  11.294 -0.0558  2.4201  1.3022
 8315SOL    HW236405   0.005   1.356  11.351  0.0210 -0.3740 -1.6646
 8316SOL     OW36406   4.220   3.019   4.782  0.1118  0.2415 -0.8775
 8316SOL    HW136407   4.200   2.978   4.867  0.8965  0.9269 -0.3712
 8316SOL    HW236408   4.315   3.022   4.781  0.1415 -0.7346 -1.3807
 8317SOL     OW36409   2.067   0.198   3.095  0.1960 -0.3162 -0.5621
 8317SOL    HW136410   2.068   0.133   3.025 -0.2957 -0.1641 -0.7106
 8317SOL    HW236411   2.070   0.281   3.048 -2.4664  0.1334  0.0704
 8318SOL     OW36412   4.518   1.568   0.666  0.0615 -0.0085 -0.0700
 8318SOL    HW136413   4.443   1.620   0.636 -1.2836 -1.7835  0.2355
 8318SOL    HW236414   4.587   1.581   0.601  0.5105  2.0816  0.8306
 8319SOL     OW36415   0.518   0.425   3.744 -0.1629 -0.2430 -0.6230
 8319SOL    HW136416   0.487   0.424   3.834 -0.9646 -0.9446 -0.9068
 8319SOL    HW236417   0.597   0.474   3.768  1.8028 -3.5772 -0.2468
 8320SOL     OW36418   0.839   4.232   8.527  0.4315 -0.3032 -0.0650
 8320SOL    HW136419   0.788   4.302   8.486 -0.1115 -1.9265 -2.1870
 8320SOL    HW236420   0.920   4.276   8.550  0.1684  1.3945 -2.3820
 8321SOL     OW36421   0.327   0.089   5.411  0.0374  0.0609 -0.1704
 8321SOL    HW136422   0.263   0.020   5.428 -0.6454  0.5861 -0.5828
 8321SOL    HW236423   0.380   0.047   5.344 -2.3593 -1.4084 -1.1421
 8322SOL     OW36424   2.798   3.041   0.826 -0.1957 -0.2713 -0.3942
 8322SOL    HW136425   2.877   3.082   0.863 -0.1525 -1.8125  1.2436
 8322SOL    HW236426   2.731   3.102   0.855 -0.7762 -1.2098  0.2247
 8323SOL     OW36427   0.666   4.277  12.666 -0.1311 -0.2132  0.1953
 8323SOL    HW136428   0.580   4.318  12.656  0.2411  0.8424  1.4371
 8323SOL    HW236429   0.699   4.246  12.581 -2.5150  0.1077 -0.8510
 8324SOL     OW36430   3.723   0.109   7.774 -0.1087  0.1618 -0.2533
 8324SOL    HW136431   3.654   0.076   7.716  0.2644 -2.6089  0.9183
 8324SOL    HW236432   3.785   0.036   7.769 -0.7827 -0.4401  0.1511
 8325SOL     OW36433   3.210   1.493   3.638  0.4066 -0.0284 -0.4915
 8325SOL    HW136434   3.141   1.556   3.617 -0.8494 -1.4561 -0.6227
 8325SOL    HW236435   3.280   1.545   3.677  1.2463  1.1947 -3.5700
 8326SOL     OW36436   0.930   4.662   2.512  0.4551  0.6850 -0.2320
 8326SOL    HW136437   0.930   4.590   2.448 -2.1137 -0.1524  0.7130
 8326SOL    HW236438   1.017   4.650   2.549  0.1822  0.1137  0.2167
 8327SOL     OW36439   3.556   2.252  17.141 -0.2468 -0.5812  0.1108
 8327SOL    HW136440   3.489   2.248  17.072 -0.1680  1.1326 -0.0658
 8327SOL    HW236441   3.636   2.276  17.095  0.4871 -1.7587  0.8079
 8328SOL     OW36442   1.935   4.506   7.222 -0.2174 -0.5182  0.1763
 8328SOL    HW136443   1.963   4.415   7.234 -1.2824 -1.1062 -1.7157
 8328SOL    HW236444   2.019   4.532   7.185 -0.1063 -1.4217 -0.2168
 8329SOL     OW36445   0.461   4.468  13.423 -0.1268 -0.0895 -0.0995
 8329SOL    HW136446   0.540   4.500  13.379  0.3250 -3.5787 -1.8102
 8329SOL    HW236447   0.511   4.457  13.504  1.8674 -2.1034 -1.6036
 8330SOL     OW36448   3.653   0.898   2.770  0.3054  0.2250 -0.3679
 8330SOL    HW136449   3.676   0.879   2.679  1.2575 -1.1545  0.1701
 8330SOL    HW236450   3.577   0.957   2.770  0.1338  0.0153  0.7327
 8331SOL     OW36451   3.812   0.674  11.500  0.0053  0.3886 -0.3390
 8331SOL    HW136452   3.836   0.745  11.560 -1.1859  1.8568 -1.5998
 8331SOL    HW236453   3.900   0.649  11.472 -0.8730 -2.1430 -0.8463
 8332SOL     OW36454   3.568   3.030  12.556  0.0785  0.1649  0.0710
 8332SOL    HW136455   3.532   2.994  12.474  3.7859  0.6564 -1.7779
 8332SOL    HW236456   3.621   3.101  12.518  1.5374 -0.6829  0.5130
 8333SOL     OW36457   1.578   4.382   8.922  0.7538  0.2578  0.0408
 8333SOL    HW136458   1.621   4.307   8.880 -1.5316  0.2222 -2.1766
 8333SOL    HW236459   1.588   4.451   8.856  0.5877 -1.3319 -1.6478
 8334SOL     OW36460   0.405   4.034   1.818  0.2638 -0.5726 -0.0036
 8334SOL    HW136461   0.498   4.052   1.803  0.1044  0.3989  0.2107
 8334SOL    HW236462   0.397   3.943   1.788  0.2856 -0.7320  0.4785
 8335SOL     OW36463   1.395   3.227   6.560 -0.2857 -0.8918  0.1268
 8335SOL    HW136464   1.323   3.195   6.614  0.7600 -1.2171  1.3266
 8335SOL    HW236465   1.351   3.287   6.500  0.8078 -1.8889 -1.6810
 8336SOL     OW36466   0.702   2.135   1.245 -0.3573 -0.2318  0.1971
 8336SOL    HW136467   0.766   2.104   1.181 -0.9138 -0.3049 -0.3156
 8336SOL    HW236468   0.636   2.154   1.179  0.0043  1.4976  0.3413
 8337SOL     OW36469   0.429   3.872   4.944  0.2413 -0.6160  0.1945
 8337SOL    HW136470   0.464   3.794   4.901  1.1213 -0.5005  0.6921
 8337SOL    HW236471   0.469   3.947   4.900 -0.0730 -1.8298 -2.1192
 8338SOL     OW36472   1.340   1.221   8.941  0.0232 -0.2190 -0.1962
 8338SOL    HW136473   1.257   1.181   8.968  0.0004 -1.4968 -2.1842
 8338SOL    HW236474   1.377   1.261   9.020 -1.5345 -0.2447  0.5305
 8339SOL     OW36475   4.039   1.000  13.546 -0.0980 -0.3692 -0.1928
 8339SOL    HW136476   4.042   1.091  13.518  0.3196 -0.2138  0.3647
 8339SOL    HW236477   3.957   1.001  13.595  0.4198 -0.7339  0.6905
 8340SOL     OW36478   2.871   1.189   3.931  0.2034  0.0333 -0.2070
 8340SOL    HW136479   2.775   1.188   3.929  0.2346  0.8435 -2.0376
 8340SOL    HW236480   2.894   1.218   3.844 -1.5777 -1.1280 -1.0774
 8341SOL     OW36481   4.437   1.524   6.459  0.1785 -0.5228 -0.8141
 8341SOL    HW136482   4.360   1.547   6.511  0.4626  1.6619 -1.3603
 8341SOL    HW236483   4.505   1.570   6.509  0.7865 -0.0025 -2.1203
 8342SOL     OW36484   4.063   0.593   4.162 -0.1907 -0.7626 -0.0799
 8342SOL    HW136485   4.024   0.535   4.228  2.3328 -0.1207  1.9566
 8342SOL    HW236486   3.993   0.602   4.097 -0.3402 -1.4897 -0.0198
 8343SOL     OW36487   1.456   1.818   4.629 -0.4141  0.0135  0.0689
 8343SOL    HW136488   1.411   1.859   4.555  3.4111  0.4680 -1.9850
 8343SOL    HW236489   1.550   1.828   4.613 -0.6360 -0.0949 -1.3259
 8344SOL     OW36490   3.320   3.436   0.476  0.1961 -0.4997 -1.0687
 8344SOL    HW136491   3.358   3.488   0.547 -3.4185 -2.0019  1.9735
 8344SOL    HW236492   3.395   3.387   0.442  0.4141 -1.7319  1.1994
 8345SOL     OW36493   0.909   1.044   9.754  0.2044  0.4153 -0.2707
 8345SOL    HW136494   0.954   1.127   9.768  2.1291 -1.1313  2.6001
 8345SOL    HW236495   0.986   0.987   9.742 -0.8997 -1.7225  2.7643
 8346SOL     OW36496   4.539   3.117   6.331  0.3557 -0.2027 -0.3261
 8346SOL    HW136497   4.606   3.176   6.297  0.6673 -0.3293  0.0673
 8346SOL    HW236498   4.477   3.122   6.259  0.0206 -0.7071 -0.0697
 8347SOL     OW36499   0.844   4.150   6.598  0.1311  0.6748  0.4395
 8347SOL    HW136500   0.873   4.209   6.528  2.2967 -0.9733 -0.0636
 8347SOL    HW236501   0.874   4.193   6.678  1.9812 -2.3918  1.3938
 8348SOL     OW36502   0.543   0.033   3.422 -0.2681 -0.0136 -0.1659
 8348SOL    HW136503   0.486   4.715   3.487  0.3610  0.5482  0.7337
 8348SOL    HW236504   0.536   0.128   3.437  1.2497 -0.3660  2.6457
 8349SOL     OW36505   2.391   3.391   7.033  0.1623 -0.2982 -0.1675
 8349SOL    HW136506   2.428   3.479   7.030 -2.5593  0.8251 -1.0061
 8349SOL    HW236507   2.306   3.415   7.070  0.2114 -1.7612  0.8743
 8350SOL     OW36508   2.287   1.861   9.103 -0.1384  0.4097 -0.1503
 8350SOL    HW136509   2.282   1.768   9.083 -0.1711  0.0501  1.5396
 8350SOL    HW236510   2.359   1.868   9.165 -1.0402  1.2540  0.7977
 8351SOL     OW36511   0.039   3.215   7.855  0.2012 -0.0384  0.0275
 8351SOL    HW136512   0.133   3.234   7.848 -0.1102  2.0303  1.1980
 8351SOL    HW236513   0.034   3.156   7.930  0.7054  1.7264  1.4579
 8352SOL     OW36514   4.298   0.583  15.690  0.4148 -0.3099 -0.0331
 8352SOL    HW136515   4.293   0.643  15.765  0.0504 -0.3168 -0.0496
 8352SOL    HW236516   4.249   0.508  15.725  1.5980 -1.0167  0.1118
 8353SOL     OW36517   3.419   4.208   4.327 -0.2244  0.3335  0.1641
 8353SOL    HW136518   3.453   4.162   4.250 -2.5915 -1.4271  0.1735
 8353SOL    HW236519   3.330   4.224   4.295  0.5670  2.1890 -1.1279
 8354SOL     OW36520   3.721   3.427   7.344  0.2675 -0.0164 -0.4645
 8354SOL    HW136521   3.785   3.398   7.410  1.0690  0.7728 -0.8892
 8354SOL    HW236522   3.716   3.346   7.292  0.7622 -0.8922  0.8478
 8355SOL     OW36523   1.692   1.219  16.767 -0.1274  0.0385  0.2600
 8355SOL    HW136524   1.678   1.153  16.835 -1.7057 -0.2031 -0.2826
 8355SOL    HW236525   1.668   1.298  16.816 -0.0368  1.5118 -2.0467
 8356SOL     OW36526   0.068   1.264   8.449 -0.1419  0.0325  0.0754
 8356SOL    HW136527   0.067   1.169   8.448  3.4065  0.0162 -0.0986
 8356SOL    HW236528   0.105   1.281   8.363 -0.3755 -0.8073 -0.1847
 8357SOL     OW36529   4.064   2.434   1.359 -0.2592 -0.2332 -0.2158
 8357SOL    HW136530   3.996   2.475   1.412  0.5983 -1.3322  1.7315
 8357SOL    HW236531   4.122   2.508   1.342 -2.1121  1.3714  0.4185
 8358SOL     OW36532   1.720   2.193   2.897  0.1020  0.1111  0.2062
 8358SOL    HW136533   1.815   2.200   2.896 -0.0806  2.4226 -0.2027
 8358SOL    HW236534   1.704   2.224   2.808 -1.4391  0.4516  0.6021
 8359SOL     OW36535   0.477   3.081   6.764 -0.2271  0.7837 -0.3340
 8359SOL    HW136536   0.511   3.066   6.676 -1.0298  0.0060 -0.5116
 8359SOL    HW236537   0.474   3.177   6.769 -0.8688  0.8139 -1.2055
 8360SOL     OW36538   4.718   2.819  15.200  0.1425 -0.8779 -0.2680
 8360SOL    HW136539   4.623   2.832  15.211  0.7200  2.4737  0.6126
 8360SOL    HW236540   4.710   2.758  15.126  0.4352 -1.9518  0.5878
 8361SOL     OW36541   0.790   4.340   5.140  0.0954  0.1853  0.3160
 8361SOL    HW136542   0.808   4.372   5.052 -0.4935  0.7637  0.4000
 8361SOL    HW236543   0.783   4.245   5.131  0.9643  0.0641  0.9911
 8362SOL     OW36544   1.266   3.333   3.085  0.4097 -0.2069 -0.0715
 8362SOL    HW136545   1.321   3.390   3.139 -1.4113  0.7536  0.7609
 8362SOL    HW236546   1.183   3.337   3.133  1.5175  1.9488  1.6767
 8363SOL     OW36547   1.441   4.257   6.266 -0.0932  0.2240 -0.7817
 8363SOL    HW136548   1.497   4.326   6.230  1.9413 -1.7839 -1.4611
 8363SOL    HW236549   1.392   4.311   6.328  2.6450  0.4292  1.2336
 8364SOL     OW36550   3.231   2.439  15.140  0.0508  0.0714 -0.1210
 8364SOL    HW136551   3.189   2.423  15.056  0.4242  2.5530 -0.7898
 8364SOL    HW236552   3.324   2.441  15.116 -0.4284  1.1066 -1.8837
 8365SOL     OW36553   2.971   1.201   3.528  0.4578 -0.1347  0.0671
 8365SOL    HW136554   2.906   1.212   3.458 -0.0264 -0.4589  0.4636
 8365SOL    HW236555   2.926   1.131   3.575  2.4311 -1.8372 -0.5671
 8366SOL     OW36556   3.479   1.491   9.346  0.0465 -0.1688 -0.6754
 8366SOL    HW136557   3.476   1.573   9.396 -1.8459 -0.6797  0.0175
 8366SOL    HW236558   3.544   1.438   9.392  0.0921 -0.4870 -1.1044
 8367SOL     OW36559   4.353   1.587   9.824 -0.3172 -0.0152  0.2562
 8367SOL    HW136560   4.417   1.546   9.882 -0.2104 -0.9390 -0.5192
 8367SOL    HW236561   4.308   1.522   9.771  1.8596 -2.0827  0.9600
 8368SOL     OW36562   3.487   2.179   8.375  0.6383 -0.2890  0.0623
 8368SOL    HW136563   3.493   2.156   8.468 -0.2335  0.0801  0.2134
 8368SOL    HW236564   3.433   2.258   8.379  0.4361 -0.3829 -0.7646
 8369SOL     OW36565   2.886   1.516  16.965  0.2204  0.2698 -0.1147
 8369SOL    HW136566   2.804   1.516  17.014  0.4379 -0.0900  0.2505
 8369SOL    HW236567   2.866   1.577  16.894  0.9727  1.4107  0.6554
 8370SOL     OW36568   4.320   1.622   6.226 -0.1760  0.3080  0.3134
 8370SOL    HW136569   4.291   1.535   6.198  0.5060 -0.1097  0.9152
 8370SOL    HW236570   4.354   1.591   6.310 -1.1019  1.2168  1.0283
 8371SOL     OW36571   3.748   4.210  13.668 -0.4228  0.9398 -0.1340
 8371SOL    HW136572   3.780   4.120  13.677 -2.8255  0.1740  0.8278
 8371SOL    HW236573   3.726   4.210  13.575 -0.2783 -1.3203 -0.1787
 8372SOL     OW36574   1.978   0.280   7.815  0.5461 -0.4788  0.1536
 8372SOL    HW136575   1.953   0.256   7.905  1.3471  1.6782  0.9451
 8372SOL    HW236576   2.027   0.362   7.822  2.4756 -1.8187  2.2636
 8373SOL     OW36577   2.888   1.961   3.022  0.3834  0.0168  0.0113
 8373SOL    HW136578   2.795   1.954   3.043 -0.0805 -2.1709 -2.6555
 8373SOL    HW236579   2.910   2.049   3.050  2.5114 -0.2202 -0.9452
 8374SOL     OW36580   0.264   2.562   3.786 -0.0371 -0.2760 -0.1959
 8374SOL    HW136581   0.192   2.572   3.723 -0.6517  0.8979  0.6998
 8374SOL    HW236582   0.223   2.491   3.834 -0.5663  0.0185 -0.2104
 8375SOL     OW36583   0.206   2.771  12.745 -0.7400  0.4586 -0.0782
 8375SOL    HW136584   0.117   2.787  12.777 -1.3478 -1.8011 -0.5769
 8375SOL    HW236585   0.247   2.854  12.768 -1.9542  1.1355 -0.3826
 8376SOL     OW36586   3.602   3.696   1.516  1.3265 -0.6562 -0.0395
 8376SOL    HW136587   3.681   3.663   1.473  1.3944 -2.6075  1.5708
 8376SOL    HW236588   3.650   3.723   1.594 -0.8211  1.9241  0.3773
 8377SOL     OW36589   0.436   1.506   3.417  0.3476 -0.2798 -0.6775
 8377SOL    HW136590   0.360   1.454   3.390 -0.9675  0.3633  1.8426
 8377SOL    HW236591   0.470   1.455   3.491 -0.3652  0.4954  0.1789
 8378SOL     OW36592   0.022   3.771   5.893 -0.4532 -0.3395  0.4929
 8378SOL    HW136593   0.097   3.828   5.910 -0.8292 -0.5582  2.8628
 8378SOL    HW236594   4.685   3.787   5.966  1.1823  2.7161  1.1852
 8379SOL     OW36595   2.129   3.236  14.392 -0.4341 -0.7139 -0.0329
 8379SOL    HW136596   2.141   3.145  14.418 -2.1648 -1.2584 -1.0684
 8379SOL    HW236597   2.164   3.285  14.466 -1.3466  0.6826 -0.5283
 8380SOL     OW36598   1.000   0.666   8.392  1.3121  0.6482 -0.0588
 8380SOL    HW136599   1.071   0.669   8.327 -1.1213 -1.1068 -2.7622
 8380SOL    HW236600   0.947   0.735   8.353 -2.1074 -3.0286 -1.8371
 8381SOL     OW36601   3.703   2.144   6.272 -0.0193 -0.3545  0.9419
 8381SOL    HW136602   3.609   2.138   6.257 -0.0137 -0.3213  0.8924
 8381SOL    HW236603   3.729   2.154   6.180 -1.7106 -0.3633  0.4704
 8382SOL     OW36604   3.609   4.212   0.773 -0.5951  0.4260 -0.1265
 8382SOL    HW136605   3.688   4.225   0.720  0.0944  0.2517  0.8597
 8382SOL    HW236606   3.592   4.125   0.736  0.6103  0.0372  0.2130
 8383SOL     OW36607   1.959   0.880  13.047  0.4763 -0.1382 -0.0748
 8383SOL    HW136608   2.028   0.946  13.039 -1.4568  2.0651  1.4361
 8383SOL    HW236609   1.880   0.933  13.035  1.4197  0.8850 -1.7587
 8384SOL     OW36610   0.301   4.392   8.554 -0.4518 -0.4841  0.0322
 8384SOL    HW136611   0.352   4.324   8.511  4.1842  0.0371  4.6739
 8384SOL    HW236612   0.270   4.345   8.631 -3.3723  0.7736 -0.3863
 8385SOL     OW36613   2.925   0.936   8.396 -0.4069 -0.3073  0.1372
 8385SOL    HW136614   2.867   1.009   8.415  2.7607  2.0718  0.6280
 8385SOL    HW236615   2.970   0.914   8.478  2.3662 -0.4354 -1.4112
 8386SOL     OW36616   0.632   0.572   4.546 -0.5540  0.0008 -0.4820
 8386SOL    HW136617   0.701   0.556   4.611 -0.6561 -1.4199 -0.7274
 8386SOL    HW236618   0.682   0.631   4.489  0.3747  0.5618  0.8887
 8387SOL     OW36619   3.752   3.601   3.246  0.0227  0.4865 -0.1305
 8387SOL    HW136620   3.665   3.627   3.215  0.8624  2.7146 -0.6315
 8387SOL    HW236621   3.791   3.569   3.164  0.4419 -1.4107  0.8090
 8388SOL     OW36622   2.173   3.740   8.931  0.4296 -0.7026  0.3691
 8388SOL    HW136623   2.206   3.670   8.875 -1.0733  1.1228 -2.8326
 8388SOL    HW236624   2.214   3.739   9.018  2.1152  0.0386 -0.4068
 8389SOL     OW36625   1.608   3.362  12.614  0.0157 -0.6322 -0.5182
 8389SOL    HW136626   1.565   3.364  12.529 -0.6519  0.0524 -0.1541
 8389SOL    HW236627   1.630   3.268  12.619  1.0230 -0.3937 -0.4779
 8390SOL     OW36628   2.025   0.655   0.928  0.2376  0.0571  0.3698
 8390SOL    HW136629   2.016   0.745   0.959  1.2999  0.2286  0.1828
 8390SOL    HW236630   1.964   0.618   0.992  0.0388  0.6634  0.5312
 8391SOL     OW36631   4.432   1.179   5.684  0.0647 -0.1472  0.0638
 8391SOL    HW136632   4.501   1.211   5.742  0.5778 -1.4627  0.1958
 8391SOL    HW236633   4.362   1.217   5.735  1.4156  1.7260  0.5106
 8392SOL     OW36634   4.667   4.655   3.725  0.3216  0.4515  0.0122
 8392SOL    HW136635   4.657   0.016   3.680 -0.0974 -0.7158 -2.0647
 8392SOL    HW236636   4.715   4.599   3.664 -0.1547 -0.4783  0.4817
 8393SOL     OW36637   0.705   3.453   3.928  0.2206  0.5442  0.2751
 8393SOL    HW136638   0.680   3.366   3.897  2.3928 -0.8671  2.4777
 8393SOL    HW236639   0.719   3.496   3.844  0.5577 -2.2581 -1.1017
 8394SOL     OW36640   1.564   2.200   6.387  0.3033 -0.3958  0.0083
 8394SOL    HW136641   1.517   2.156   6.316 -0.3027 -1.7577  1.2413
 8394SOL    HW236642   1.496   2.199   6.455  0.4454  1.6747  0.1865
 8395SOL     OW36643   1.191   1.655   2.448  0.4181  0.0869  0.2686
 8395SOL    HW136644   1.281   1.685   2.435  0.9097 -1.1806  0.7986
 8395SOL    HW236645   1.173   1.652   2.354  0.6480 -1.9907  0.2972
 8396SOL     OW36646   0.220   3.650   3.561  0.1810 -0.1591 -0.4532
 8396SOL    HW136647   0.139   3.647   3.510 -0.6624 -1.6165  0.9526
 8396SOL    HW236648   0.281   3.649   3.487  1.3735 -0.2259  0.5298
 8397SOL     OW36649   3.915   1.416  17.011  0.2629  0.5556 -0.0090
 8397SOL    HW136650   3.963   1.334  17.021  0.4725  0.5220 -1.2738
 8397SOL    HW236651   3.824   1.387  17.018  0.5633 -0.3272  0.2203
 8398SOL     OW36652   3.752   2.184   5.560  0.3982 -0.3717 -0.0206
 8398SOL    HW136653   3.777   2.210   5.471  2.0229  3.2864  1.5198
 8398SOL    HW236654   3.726   2.094   5.537  2.7781 -0.6765 -1.5808
 8399SOL     OW36655   1.191   3.887  12.177  0.3672 -0.4658 -0.0570
 8399SOL    HW136656   1.161   3.914  12.090 -0.8770 -0.1804  0.4700
 8399SOL    HW236657   1.234   3.965  12.212  0.4123  0.1052 -1.3668
 8400SOL     OW36658   1.088   4.348   3.549 -0.1839 -0.0263 -0.3841
 8400SOL    HW136659   1.014   4.290   3.530  0.1731 -0.4880 -0.3450
 8400SOL    HW236660   1.160   4.287   3.538  0.8386  0.7477  2.0388
 8401SOL     OW36661   0.970   0.287   7.648  0.5096  0.4926  0.0088
 8401SOL    HW136662   0.902   0.280   7.714  1.3672  2.1230  1.0875
 8401SOL    HW236663   1.036   0.332   7.701 -1.0224  2.7412  0.0027
 8402SOL     OW36664   1.327   3.069   6.990  0.0291 -0.2378  0.0227
 8402SOL    HW136665   1.323   3.033   6.902 -0.6245 -2.8240  1.1258
 8402SOL    HW236666   1.260   3.136   6.973  0.0184 -0.2574 -0.0130
 8403SOL     OW36667   0.721   1.465  17.255 -0.0447  0.5708  0.2245
 8403SOL    HW136668   0.697   1.540  17.310  0.8732 -1.3944  3.3147
 8403SOL    HW236669   0.643   1.471  17.200 -0.5353 -2.7325  0.5173
 8404SOL     OW36670   0.835   3.414   6.724 -0.2425  0.1183  0.3640
 8404SOL    HW136671   0.871   3.384   6.641 -0.2240  4.0866 -1.0565
 8404SOL    HW236672   0.838   3.507   6.703 -0.7941 -0.4632 -2.2976
 8405SOL     OW36673   2.132   3.079  10.761  0.4583  0.2694  0.4606
 8405SOL    HW136674   2.051   3.083  10.812  1.5309  0.1811  2.1867
 8405SOL    HW236675   2.139   3.170  10.732  2.6972  0.2307  0.8493
 8406SOL     OW36676   2.374   3.097   6.598 -0.0980  0.5235  0.1977
 8406SOL    HW136677   2.456   3.087   6.647 -1.2090  0.9198  2.1431
 8406SOL    HW236678   2.316   3.130   6.667  0.4582  0.1295  0.8533
 8407SOL     OW36679   2.492   4.587   7.474  0.2058 -0.4455  0.0907
 8407SOL    HW136680   2.424   4.599   7.408  2.0299  0.5949 -1.6196
 8407SOL    HW236681   2.439   4.603   7.552  3.3553  0.9347  1.9310
 8408SOL     OW36682   4.062   3.997  10.134  0.4826  0.5873  0.4226
 8408SOL    HW136683   4.000   3.937  10.094  1.3930  0.7698 -1.2795
 8408SOL    HW236684   4.002   4.070  10.120 -1.0732 -0.0460  3.9744
 8409SOL     OW36685   2.087   1.959   8.767  0.2929 -0.3309  0.2094
 8409SOL    HW136686   2.070   1.895   8.698 -0.1596 -0.3200  0.3121
 8409SOL    HW236687   1.995   1.957   8.795 -0.3045  1.8607 -1.5836
 8410SOL     OW36688   1.938   1.568   5.558  0.0356  0.4201 -0.2707
 8410SOL    HW136689   2.033   1.561   5.548  0.3169  0.6234  2.4386
 8410SOL    HW236690   1.934   1.558   5.653 -1.2606  0.9758 -0.2700
 8411SOL     OW36691   1.419   3.680   3.886 -0.2812 -0.2099 -0.3377
 8411SOL    HW136692   1.404   3.627   3.808  0.9436 -0.6942 -0.2427
 8411SOL    HW236693   1.362   3.640   3.952 -0.4310 -0.5696 -0.6906
 8412SOL     OW36694   4.392   0.770   4.336  0.4638  0.3532  0.0781
 8412SOL    HW136695   4.343   0.817   4.268 -0.3349 -2.0418 -1.0161
 8412SOL    HW236696   4.416   0.688   4.292 -0.7965  0.7327 -1.3416
 8413SOL     OW36697   4.436   1.419  11.738  0.5285 -0.1687 -0.2157
 8413SOL    HW136698   4.515   1.398  11.788 -0.1778  0.3465  1.1312
 8413SOL    HW236699   4.464   1.478  11.668 -2.7557 -1.8242 -2.9369
 8414SOL     OW36700   3.389   4.259  12.422 -0.2610  0.1638  0.4339
 8414SOL    HW136701   3.338   4.219  12.492 -1.2017 -1.1947 -1.0543
 8414SOL    HW236702   3.360   4.198  12.354 -1.0685  1.6325 -0.5511
 8415SOL     OW36703   0.389   1.061   5.922  0.3108 -0.0860 -0.0764
 8415SOL    HW136704   0.381   1.152   5.893  0.0407 -0.1701 -0.2730
 8415SOL    HW236705   0.460   1.065   5.985 -0.7167 -2.2141  1.2169
 8416SOL     OW36706   1.290   0.442   8.254 -0.8686  0.1423  0.5799
 8416SOL    HW136707   1.333   0.367   8.213 -2.2988 -1.1773  1.4850
 8416SOL    HW236708   1.275   0.402   8.340  0.1090  0.3218  0.8338
 8417SOL     OW36709   0.815   1.277   7.524 -0.0790  0.0324 -0.1793
 8417SOL    HW136710   0.881   1.213   7.499 -0.3408 -0.5675  0.6568
 8417SOL    HW236711   0.874   1.352   7.534  1.3327 -1.1247  0.0481
 8418SOL     OW36712   1.239   4.453  11.390 -0.0772 -0.3036 -0.1429
 8418SOL    HW136713   1.176   4.466  11.461 -1.8227  0.5275 -1.8420
 8418SOL    HW236714   1.312   4.498  11.432  0.2339 -0.7622 -0.1961
 8419SOL     OW36715   1.203   4.235   4.919 -0.7363  0.1117  0.5968
 8419SOL    HW136716   1.178   4.315   4.967  2.1231 -0.4792  3.0754
 8419SOL    HW236717   1.236   4.249   4.830 -0.7289  1.8848  0.8658
 8420SOL     OW36718   4.043   4.654   2.599 -0.3292 -0.3200 -0.2325
 8420SOL    HW136719   3.988   4.607   2.536  0.8323 -0.5180 -1.1198
 8420SOL    HW236720   4.107   4.587   2.624  0.6958  0.4712 -0.7423
 8421SOL     OW36721   4.464   1.873   2.472  0.2924  0.6627 -0.6951
 8421SOL    HW136722   4.501   1.785   2.481 -1.0503  0.2409  0.5518
 8421SOL    HW236723   4.424   1.862   2.386  3.1382 -1.6118 -1.7335
 8422SOL     OW36724   3.652   1.508  13.458 -0.2375 -0.7741 -0.1839
 8422SOL    HW136725   3.744   1.485  13.462 -0.7615 -2.9101 -0.1652
 8422SOL    HW236726   3.644   1.574  13.389  2.0954 -0.8038 -0.4840
 8423SOL     OW36727   3.185   2.155   0.217 -0.2467  0.1886 -0.1263
 8423SOL    HW136728   3.187   2.189   0.128  3.3545 -1.3225 -0.6287
 8423SOL    HW236729   3.138   2.073   0.201 -0.1658 -0.3553  2.3696
 8424SOL     OW36730   3.555   3.746   3.971 -0.4676  0.1667 -0.1772
 8424SOL    HW136731   3.571   3.745   4.066  1.4869 -1.0419 -0.5193
 8424SOL    HW236732   3.592   3.659   3.953  0.0723 -0.1177  2.1815
 8425SOL     OW36733   3.761   0.318  11.414  0.1995  0.5111 -0.4351
 8425SOL    HW136734   3.794   0.338  11.327 -1.5812  1.7469 -0.8458
 8425SOL    HW236735   3.785   0.226  11.417 -2.2175 -0.1447 -1.2077
 8426SOL     OW36736   0.542   4.235  17.608  0.0319  0.2464  0.7626
 8426SOL    HW136737   0.611   4.185  17.565 -1.2232  0.4129 -1.4608
 8426SOL    HW236738   0.504   4.279  17.532  3.4478  0.6376 -0.7292
 8427SOL     OW36739   4.618   2.208   1.452 -0.6681  0.5778 -0.3025
 8427SOL    HW136740   4.681   2.280   1.441 -1.2979  1.0342 -0.9246
 8427SOL    HW236741   4.541   2.264   1.453 -0.2756  1.1271 -0.8827
 8428SOL     OW36742   2.461   3.440   8.033  0.1286 -0.4136  0.6730
 8428SOL    HW136743   2.533   3.405   7.980  0.0331  0.5590 -0.1017
 8428SOL    HW236744   2.417   3.358   8.057  1.2704 -1.3273 -0.3467
 8429SOL     OW36745   1.345   2.464   1.058 -0.7851 -0.1933 -0.2202
 8429SOL    HW136746   1.410   2.531   1.035 -0.8378  0.0643  0.3817
 8429SOL    HW236747   1.399   2.415   1.119  0.7464  0.8316 -0.7485
 8430SOL     OW36748   4.206   2.578   6.579 -0.0889 -0.2763  0.2452
 8430SOL    HW136749   4.144   2.550   6.511 -0.4585  3.8934 -1.0871
 8430SOL    HW236750   4.282   2.522   6.564 -0.6393 -0.8825 -0.2925
 8431SOL     OW36751   1.171   3.175   2.402 -0.3171  0.3876  0.2818
 8431SOL    HW136752   1.150   3.155   2.310  2.4588 -4.1837  0.6186
 8431SOL    HW236753   1.142   3.092   2.440 -0.4946  0.6251  0.6611
 8432SOL     OW36754   2.723   4.157   7.295  0.1161  0.4701 -0.4167
 8432SOL    HW136755   2.778   4.166   7.373  1.6071 -0.6182 -1.3646
 8432SOL    HW236756   2.693   4.244   7.269  1.1897  0.7699 -0.6279
 8433SOL     OW36757   4.635   4.435  16.780  0.3104  0.2214  0.1975
 8433SOL    HW136758   0.003   4.433  16.750  0.1307  1.2562 -0.4197
 8433SOL    HW236759   4.589   4.438  16.696 -0.8218  2.7531  0.9167
 8434SOL     OW36760   3.739   4.582   6.865 -0.3678 -0.4147  0.4573
 8434SOL    HW136761   3.794   4.656   6.890  0.6051 -1.1398  0.4530
 8434SOL    HW236762   3.715   4.601   6.774 -2.5835  2.0289  1.5319
 8435SOL     OW36763   3.384   2.882   5.323 -0.0126  0.0901  0.3155
 8435SOL    HW136764   3.410   2.864   5.414 -1.3802 -0.0616  0.6882
 8435SOL    HW236765   3.297   2.918   5.339  0.5512  4.1101 -6.1052
 8436SOL     OW36766   3.968   1.535   2.120 -0.0240  0.1438 -0.9471
 8436SOL    HW136767   3.968   1.580   2.035  1.4838  0.6144 -0.6974
 8436SOL    HW236768   3.912   1.461   2.099  0.5539  0.1234 -2.4170
 8437SOL     OW36769   3.045   0.459   4.128  0.0987 -0.2802 -0.3295
 8437SOL    HW136770   3.020   0.367   4.119 -0.1814 -0.0495 -1.9136
 8437SOL    HW236771   2.956   0.495   4.133  0.1372 -0.0648 -1.0861
 8438SOL     OW36772   4.011   0.631   5.832 -0.4757 -0.2274 -0.4510
 8438SOL    HW136773   4.101   0.606   5.811 -0.1907  0.8559 -0.5700
 8438SOL    HW236774   3.966   0.607   5.751 -0.5634  0.9808 -0.7671
 8439SOL     OW36775   0.424   3.234   2.350 -0.0268  0.3525 -0.1857
 8439SOL    HW136776   0.508   3.237   2.396 -0.1366 -1.0355  0.1081
 8439SOL    HW236777   0.438   3.287   2.272  2.0793  1.5699  0.9994
 8440SOL     OW36778   3.620   0.097   5.914  0.1706 -0.0775 -0.3423
 8440SOL    HW136779   3.545   0.147   5.947 -0.4715 -0.5699 -1.0497
 8440SOL    HW236780   3.576   0.030   5.862 -1.5740 -0.2350  1.3335
 8441SOL     OW36781   1.963   2.507   6.782 -0.1181  0.8403  0.3106
 8441SOL    HW136782   2.013   2.429   6.802  2.3494  2.3593  0.0940
 8441SOL    HW236783   2.031   2.557   6.735 -0.2976 -0.2947 -1.1658
 8442SOL     OW36784   3.947   0.376  11.667 -0.1232  0.3046 -0.1453
 8442SOL    HW136785   3.995   0.458  11.676 -0.6739  0.7314 -1.1180
 8442SOL    HW236786   3.906   0.389  11.581 -0.8903 -1.7973 -0.0897
 8443SOL     OW36787   2.925   3.844   1.375 -0.0144 -0.4182  0.2114
 8443SOL    HW136788   2.992   3.865   1.310  0.0041 -0.9561  0.0526
 8443SOL    HW236789   2.862   3.807   1.313 -1.2731  0.9576  0.6577
 8444SOL     OW36790   1.061   4.613   4.333  0.1028 -0.5002 -0.3069
 8444SOL    HW136791   1.087   4.622   4.424 -1.7573 -0.0761  0.1635
 8444SOL    HW236792   1.015   4.696   4.325 -0.3987 -0.7204  0.3436
 8445SOL     OW36793   1.809   0.480   2.847 -0.0446  0.0280 -0.1735
 8445SOL    HW136794   1.901   0.504   2.856 -0.4290  1.0539  1.0005
 8445SOL    HW236795   1.788   0.510   2.759 -2.0868 -0.3477  0.1683
 8446SOL     OW36796   1.949   0.688   7.920 -0.1341  0.1783  0.5476
 8446SOL    HW136797   1.989   0.606   7.948  0.0818  1.0079  2.6769
 8446SOL    HW236798   1.988   0.688   7.832  0.2393  0.2270  0.7131
 8447SOL     OW36799   4.051   3.730   5.080 -0.3818  0.4802  0.6001
 8447SOL    HW136800   4.071   3.637   5.067 -1.5900  0.7333 -3.2787
 8447SOL    HW236801   3.956   3.719   5.074  0.1503 -2.0430 -3.0336
 8448SOL     OW36802   2.085   3.681  12.109  0.2855 -0.3491 -0.2909
 8448SOL    HW136803   2.148   3.721  12.049 -0.9719  2.0664  0.0126
 8448SOL    HW236804   2.012   3.743  12.103  0.3464 -0.5342 -3.2741
 8449SOL     OW36805   3.167   0.237  10.755  0.0571  0.2987  0.3224
 8449SOL    HW136806   3.214   0.154  10.746 -1.2579 -0.2660 -1.6111
 8449SOL    HW236807   3.216   0.264  10.832  0.9537  0.7017 -0.3968
 8450SOL     OW36808   3.993   3.027   5.976 -0.2670  0.0572  0.6394
 8450SOL    HW136809   4.083   3.060   5.972 -0.5886  0.9756  1.0654
 8450SOL    HW236810   3.995   2.939   5.939 -0.0790  0.2547  0.1808
 8451SOL     OW36811   4.067   0.292  10.286 -0.4594  0.4717  0.6713
 8451SOL    HW136812   4.159   0.306  10.308  0.1871 -0.1558 -1.6363
 8451SOL    HW236813   4.055   0.204  10.321 -1.3178 -0.2587 -1.5073
 8452SOL     OW36814   3.616   4.538  15.416 -0.0685  0.4672  0.2572
 8452SOL    HW136815   3.651   4.449  15.415 -1.3755 -0.0040 -1.6782
 8452SOL    HW236816   3.627   4.559  15.324  0.1368 -2.0613 -0.3008
 8453SOL     OW36817   3.383   2.929   4.871 -0.4087 -0.6826  0.2173
 8453SOL    HW136818   3.341   2.990   4.932 -1.1370  0.8810 -1.8768
 8453SOL    HW236819   3.473   2.958   4.888 -0.4104 -1.4247  1.4973
 8454SOL     OW36820   3.737   1.384   8.716 -0.5613 -0.5024  0.1880
 8454SOL    HW136821   3.675   1.442   8.760  0.6865 -0.3968  1.7890
 8454SOL    HW236822   3.807   1.381   8.781 -1.4737  1.6058  1.2555
 8455SOL     OW36823   1.526   4.434   7.962 -0.0785  0.3556  0.1697
 8455SOL    HW136824   1.530   4.341   7.939  0.9819  0.3654  0.3095
 8455SOL    HW236825   1.448   4.449   7.909  1.0673  2.3786 -0.9366
 8456SOL     OW36826   0.327   2.606   2.953 -0.2185  0.1267  0.3780
 8456SOL    HW136827   0.245   2.558   2.938  0.0311 -0.8399  2.0729
 8456SOL    HW236828   0.309   2.637   3.042  4.0073  0.2248  1.1823
 8457SOL     OW36829   2.764   0.110  10.255  0.0093 -0.5210  0.6770
 8457SOL    HW136830   2.746   0.017  10.241 -0.1394 -0.7618  2.4044
 8457SOL    HW236831   2.678   0.149  10.238 -0.4066 -1.9479 -0.4746
 8458SOL     OW36832   3.179   0.441  17.214  1.0472  0.2429 -0.5010
 8458SOL    HW136833   3.086   0.423  17.226  0.3997  1.5152 -3.5136
 8458SOL    HW236834   3.195   0.491  17.294 -1.8737  2.9471 -1.6054
 8459SOL     OW36835   0.041   2.161   3.666  0.1257 -0.0178 -0.1792
 8459SOL    HW136836   0.010   2.232   3.610 -1.2984 -1.0182 -0.6671
 8459SOL    HW236837   0.111   2.136   3.605  0.8600 -0.2083  0.7461
 8460SOL     OW36838   3.975   2.567   6.385  0.5267  0.3336 -0.5939
 8460SOL    HW136839   3.903   2.617   6.424  0.5211 -0.9830  1.0898
 8460SOL    HW236840   3.933   2.482   6.374 -0.2524  0.5854  0.4389
 8461SOL     OW36841   1.536   3.203   0.892 -0.0917 -0.0733  0.4378
 8461SOL    HW136842   1.581   3.229   0.811  0.7621  0.1374  0.9786
 8461SOL    HW236843   1.599   3.218   0.962  2.4337  3.6249 -2.6030
 8462SOL     OW36844   2.867   0.866   2.734 -0.0928  0.2058  0.7398
 8462SOL    HW136845   2.961   0.877   2.748  0.2139 -1.3527 -0.0966
 8462SOL    HW236846   2.856   0.775   2.761  0.8516  0.4116  1.7975
 8463SOL     OW36847   1.326   4.131   1.323  0.1633  0.4308 -0.4093
 8463SOL    HW136848   1.377   4.067   1.273 -0.6286 -0.2323 -0.3689
 8463SOL    HW236849   1.393   4.194   1.349 -1.1848  1.9922 -0.6923
 8464SOL     OW36850   3.952   2.281   3.083  0.0692 -0.0617  0.1846
 8464SOL    HW136851   4.017   2.339   3.044  0.7738 -1.0097 -0.0249
 8464SOL    HW236852   3.982   2.193   3.061  0.1405  0.5671 -2.1493
 8465SOL     OW36853   3.379   1.192   7.139 -0.2359  0.7526 -0.0071
 8465SOL    HW136854   3.306   1.139   7.171 -0.2762  1.0608  0.4104
 8465SOL    HW236855   3.443   1.164   7.204 -0.6676  2.7999  1.3000
 8466SOL     OW36856   4.643   1.178   6.280  0.3816  0.2554 -0.0436
 8466SOL    HW136857   4.721   1.224   6.248  0.4984 -1.1471 -1.8028
 8466SOL    HW236858   4.658   1.178   6.374 -0.2017  0.5407  0.0490
 8467SOL     OW36859   4.034   1.808   9.966  0.6242  0.5979  0.3161
 8467SOL    HW136860   4.097   1.819   9.894  0.7873 -1.1001  0.2068
 8467SOL    HW236861   4.037   1.891  10.014  1.9419 -0.3641  1.8696
 8468SOL     OW36862   2.267   3.260   6.165 -0.7749 -0.0812  0.7502
 8468SOL    HW136863   2.213   3.338   6.166  0.2939  0.6718 -2.1253
 8468SOL    HW236864   2.333   3.272   6.234 -1.2511  0.8440  1.0389
 8469SOL     OW36865   4.072   2.906   9.242 -0.6814  0.3244  0.0395
 8469SOL    HW136866   4.059   2.999   9.261 -2.7660 -0.3218  1.8890
 8469SOL    HW236867   4.038   2.865   9.322  1.7461 -0.7911  0.4704
 8470SOL     OW36868   3.198   3.302  14.753  0.1076 -0.6871  0.3936
 8470SOL    HW136869   3.125   3.346  14.710 -0.0340 -1.2913  0.0195
 8470SOL    HW236870   3.223   3.373  14.811 -0.8536 -1.2976  1.5420
 8471SOL     OW36871   2.545   0.293   2.606 -0.4173 -0.3378  0.7848
 8471SOL    HW136872   2.569   0.232   2.536 -0.3687  2.2852 -1.4667
 8471SOL    HW236873   2.472   0.341   2.567  0.4699 -0.0488 -0.4809
 8472SOL     OW36874   1.486   1.713  17.040 -0.3381  0.0576 -0.1645
 8472SOL    HW136875   1.443   1.789  17.079 -0.9277 -0.9128  1.0745
 8472SOL    HW236876   1.403   1.670  17.018 -0.1906 -0.1184 -0.3891
 8473SOL     OW36877   4.450   0.130   7.190  0.2911 -0.3170 -0.2881
 8473SOL    HW136878   4.488   0.209   7.228 -0.5449  0.2432 -0.6205
 8473SOL    HW236879   4.362   0.138   7.228  0.2751  1.9659 -0.8341
 8474SOL     OW36880   2.191   3.937  14.867  0.1457 -0.1651  0.0586
 8474SOL    HW136881   2.134   4.012  14.882 -1.7511 -1.5028 -0.4058
 8474SOL    HW236882   2.187   3.888  14.950 -1.2824 -0.8883 -0.4316
 8475SOL     OW36883   0.987   3.891   6.653 -0.2489  0.1334 -0.3480
 8475SOL    HW136884   1.050   3.947   6.700  0.7942 -1.0851 -0.3080
 8475SOL    HW236885   0.932   3.957   6.611  0.4962  0.3748 -0.9324
 8476SOL     OW36886   2.704   4.398  15.924 -0.8347  0.0072  0.1571
 8476SOL    HW136887   2.715   4.389  15.830 -0.4666 -0.3252  0.2303
 8476SOL    HW236888   2.745   4.314  15.949  0.6716  0.1799 -1.7427
 8477SOL     OW36889   3.173   2.792  12.054  0.2366 -0.0024 -0.4826
 8477SOL    HW136890   3.266   2.800  12.075  0.1165 -1.2092  0.5321
 8477SOL    HW236891   3.137   2.778  12.142  1.4177  1.7350  0.2772
 8478SOL     OW36892   0.085   0.703  11.059 -0.1657  0.5870 -0.0712
 8478SOL    HW136893   0.165   0.652  11.060  0.2062  1.1922  0.9031
 8478SOL    HW236894   0.078   0.733  10.968  0.9124  2.0559  0.3426
 8479SOL     OW36895   4.191   1.500  11.068  0.2127  0.3036  0.0908
 8479SOL    HW136896   4.159   1.444  11.139 -0.5998 -0.8360 -1.1587
 8479SOL    HW236897   4.109   1.523  11.024 -0.8259 -0.8153  1.4405
 8480SOL     OW36898   0.549   1.086   0.833 -0.2461  0.3696 -0.0736
 8480SOL    HW136899   0.524   1.178   0.839  0.0161  0.4839 -0.8204
 8480SOL    HW236900   0.497   1.047   0.764  2.6279 -0.6145 -1.6835
 8481SOL     OW36901   4.063   4.702   5.631 -0.3023 -0.3317 -1.0187
 8481SOL    HW136902   3.970   4.680   5.633 -0.6892  1.4041  1.5755
 8481SOL    HW236903   4.062   4.717   5.537 -0.8256 -1.4064 -1.1829
 8482SOL     OW36904   0.442   0.039   8.030 -0.6496 -0.4020 -0.6027
 8482SOL    HW136905   0.384   0.027   7.955 -1.5926  2.1380 -0.2753
 8482SOL    HW236906   0.420   0.124   8.068  3.2919  1.2867 -2.0986
 8483SOL     OW36907   2.480   2.647  15.089 -1.3530  0.1087  0.2434
 8483SOL    HW136908   2.558   2.699  15.073  0.3666 -3.1365 -1.8941
 8483SOL    HW236909   2.420   2.718  15.112 -0.4246  0.9813 -0.0367
 8484SOL     OW36910   0.717   0.508   9.111 -0.0968  0.0774  0.1375
 8484SOL    HW136911   0.736   0.587   9.162  1.1613 -0.1304 -0.0001
 8484SOL    HW236912   0.623   0.499   9.129  0.5359 -1.3639  2.7358
 8485SOL     OW36913   2.355   4.257   8.128  0.1439 -0.7058  0.1635
 8485SOL    HW136914   2.322   4.170   8.149  1.7389 -1.5989 -1.0748
 8485SOL    HW236915   2.285   4.293   8.074  0.1949  1.1776  1.3523
 8486SOL     OW36916   1.938   2.530  10.737 -0.8853  0.1940  0.4072
 8486SOL    HW136917   1.999   2.558  10.669 -0.1915 -1.2687  0.4430
 8486SOL    HW236918   1.953   2.595  10.807  1.3035  0.1356 -0.0132
 8487SOL     OW36919   2.857   3.603  12.257 -0.1104  0.6893  0.2584
 8487SOL    HW136920   2.784   3.541  12.260  0.7958 -0.4059 -0.2807
 8487SOL    HW236921   2.843   3.655  12.336 -1.0487  2.9253 -1.3728
 8488SOL     OW36922   4.130   0.753   9.640  0.4132 -0.0718 -0.3241
 8488SOL    HW136923   4.224   0.771   9.639  0.1322  1.4169  0.5068
 8488SOL    HW236924   4.113   0.756   9.546  0.4979 -0.5396 -0.3508
 8489SOL     OW36925   2.707   4.036  13.758 -0.7388  0.0404 -0.0865
 8489SOL    HW136926   2.700   3.940  13.759  0.1163 -0.0380 -1.3517
 8489SOL    HW236927   2.757   4.043  13.840 -1.4457 -1.1641  0.4534
 8490SOL     OW36928   0.631   1.155   8.668 -0.3589 -0.1546 -0.7068
 8490SOL    HW136929   0.540   1.164   8.641 -0.2386 -1.9376 -1.7198
 8490SOL    HW236930   0.655   1.072   8.627  2.1009  0.0531  0.2971
 8491SOL     OW36931   1.024   1.268   6.238  0.0025  0.1454  0.3193
 8491SOL    HW136932   1.019   1.177   6.268 -0.2247 -0.1952 -0.7563
 8491SOL    HW236933   0.947   1.275   6.181 -0.0141 -0.0330  0.3201
 8492SOL     OW36934   3.987   1.890   7.267 -0.2929 -0.4676  0.5066
 8492SOL    HW136935   4.063   1.899   7.325 -0.7947  0.5549  1.0044
 8492SOL    HW236936   4.028   1.847   7.192  0.3569  1.0451 -0.0263
 8493SOL     OW36937   1.242   3.272   2.816  0.2736  0.6820 -0.1669
 8493SOL    HW136938   1.188   3.195   2.828 -0.3379  0.5513 -3.5633
 8493SOL    HW236939   1.239   3.314   2.902  0.0272  0.4474 -0.0652
 8494SOL     OW36940   2.568   3.971  17.503 -0.0011 -0.0238  0.3986
 8494SOL    HW136941   2.612   4.052  17.478 -0.5732 -0.6613 -2.6111
 8494SOL    HW236942   2.537   3.941  17.418  1.5162  0.8183 -0.4494
 8495SOL     OW36943   0.208   1.610   8.382 -0.6415  0.8381 -0.1519
 8495SOL    HW136944   0.177   1.527   8.344  0.4241 -0.9054  2.7804
 8495SOL    HW236945   0.130   1.637   8.429  0.6258  1.1112  1.7778
 8496SOL     OW36946   3.997   4.440   5.400 -0.4672 -0.3951 -0.2445
 8496SOL    HW136947   4.070   4.413   5.345 -0.5023  1.3322 -1.1317
 8496SOL    HW236948   4.015   4.533   5.411  2.2943 -0.7303 -1.9437
 8497SOL     OW36949   1.139   2.990  14.503  0.0169 -0.3069  0.3651
 8497SOL    HW136950   1.201   2.950  14.564  0.9196  2.0117  0.9555
 8497SOL    HW236951   1.077   2.917  14.500  0.0274 -0.2954 -0.0463
 8498SOL     OW36952   4.524   2.009  12.283  0.0758  0.0781  0.3627
 8498SOL    HW136953   4.613   2.041  12.273 -0.4228  1.2386 -0.4030
 8498SOL    HW236954   4.510   1.982  12.374 -0.6684  0.0350  0.2361
 8499SOL     OW36955   1.364   2.124  17.588 -0.2557  0.0456  0.0033
 8499SOL    HW136956   1.443   2.176  17.571  0.3062 -0.2385  1.8262
 8499SOL    HW236957   1.301   2.186  17.552 -1.1477  0.1421  1.7785
 8500SOL     OW36958   3.801   3.347   6.700 -0.1788  0.3603 -0.5544
 8500SOL    HW136959   3.832   3.306   6.619  1.5618  1.3504 -0.3981
 8500SOL    HW236960   3.711   3.371   6.677 -0.4852  1.7784  2.1612
 8501SOL     OW36961   3.068   4.247   6.476 -0.0794  0.0087 -0.8351
 8501SOL    HW136962   3.083   4.256   6.570 -1.2802  0.9677 -0.7336
 8501SOL    HW236963   3.114   4.173   6.437 -0.2308 -0.4823 -0.0751
 8502SOL     OW36964   2.363   0.126   4.508  0.5331  0.4449 -0.3155
 8502SOL    HW136965   2.345   0.169   4.592 -0.4899 -0.0483 -0.2788
 8502SOL    HW236966   2.318   0.178   4.442 -1.1645  1.5153  1.6768
 8503SOL     OW36967   1.696   2.505  13.331  0.7163 -0.3285  0.3490
 8503SOL    HW136968   1.730   2.435  13.277  2.8326  1.2896 -0.4121
 8503SOL    HW236969   1.606   2.510  13.297  1.9103 -0.4742 -2.7927
 8504SOL     OW36970   0.842   1.517   8.707 -0.4726 -0.5086  0.2501
 8504SOL    HW136971   0.814   1.427   8.691  1.1551 -1.2608  1.5983
 8504SOL    HW236972   0.757   1.546   8.739 -0.1492 -0.1685  0.8124
 8505SOL     OW36973   3.861   3.437   8.125  0.4634  0.6418  0.1730
 8505SOL    HW136974   3.797   3.471   8.063  1.5493  2.6834  0.1502
 8505SOL    HW236975   3.916   3.515   8.135 -0.2636  0.9724  1.7565
 8506SOL     OW36976   4.183   2.745   1.696  0.8016 -0.1653 -1.0703
 8506SOL    HW136977   4.178   2.728   1.790  0.2643 -2.6129 -1.5323
 8506SOL    HW236978   4.101   2.714   1.659 -0.2280 -0.3629  1.3763
 8507SOL     OW36979   1.426   1.622   6.832  0.3024 -0.1111  0.0150
 8507SOL    HW136980   1.410   1.528   6.837 -0.6344 -0.0182 -1.1445
 8507SOL    HW236981   1.343   1.656   6.865 -0.1114 -0.6947 -0.4369
 8508SOL     OW36982   3.500   3.925   4.893  0.1372  0.2678  0.2242
 8508SOL    HW136983   3.411   3.956   4.878 -0.4357 -0.3080  2.3067
 8508SOL    HW236984   3.535   3.996   4.947  0.8305  1.3518 -1.6865
 8509SOL     OW36985   1.760   4.425   9.354  0.2321 -0.4611  0.1361
 8509SOL    HW136986   1.704   4.443   9.430  0.0757 -1.0648  0.1664
 8509SOL    HW236987   1.726   4.340   9.326 -0.0645  0.2443 -1.6058
 8510SOL     OW36988   3.970   2.600   9.679 -0.1311  0.7122 -0.1547
 8510SOL    HW136989   3.920   2.519   9.676  1.4708 -0.2349 -1.1869
 8510SOL    HW236990   3.946   2.630   9.767 -0.8156 -1.1933  0.3059
 8511SOL     OW36991   0.033   3.910   5.261 -0.0162 -0.3741 -0.1359
 8511SOL    HW136992   0.042   3.829   5.211 -3.3880 -0.6475 -0.2896
 8511SOL    HW236993   4.672   3.893   5.304 -1.5836  1.4041 -2.4891
 8512SOL     OW36994   2.852   0.223   2.685 -0.3439 -0.2536  0.1641
 8512SOL    HW136995   2.811   0.170   2.753 -4.4830 -0.0710 -2.2203
 8512SOL    HW236996   2.845   0.170   2.605  3.4640 -0.9352  0.2783
 8513SOL     OW36997   2.374   0.017  14.684  0.1267 -0.0384 -0.1036
 8513SOL    HW136998   2.460   0.057  14.671 -0.6796  2.5480  2.5378
 8513SOL    HW236999   2.404   4.679  14.752 -2.2203 -1.8834 -0.7152
 8514SOL     OW37000   3.784   3.352   1.150  0.2608  0.4607 -0.4370
 8514SOL    HW137001   3.864   3.393   1.182 -0.0883  0.7299  0.0843
 8514SOL    HW237002   3.725   3.406   1.203  0.6360  1.7043 -1.2822
 8515SOL     OW37003   1.125   4.019   9.229 -0.6927 -0.0746  0.1298
 8515SOL    HW137004   1.054   3.990   9.173 -1.2136  1.9478 -0.2680
 8515SOL    HW237005   1.088   4.086   9.287 -0.7074 -0.5948  0.7289
 8516SOL     OW37006   4.346   2.125   7.803 -0.1216  0.2769 -0.4617
 8516SOL    HW137007   4.415   2.074   7.761 -2.3647 -1.3082 -2.2384
 8516SOL    HW237008   4.322   2.078   7.883 -0.3250  0.9463 -0.1308
 8517SOL     OW37009   0.496   2.973  16.176  0.6211  0.1585 -0.0856
 8517SOL    HW137010   0.558   2.909  16.211  0.4325 -0.1830 -0.3724
 8517SOL    HW237011   0.419   2.917  16.187  1.2084  0.0468  3.3832
 8518SOL     OW37012   2.825   3.075   7.322 -0.2224  0.4339  0.2406
 8518SOL    HW137013   2.758   3.011   7.347 -2.3850  1.8314 -1.9707
 8518SOL    HW237014   2.774   3.131   7.264  1.1828  1.0775 -0.3749
 8519SOL     OW37015   1.239   3.614   8.762 -0.2586 -0.4452  0.2958
 8519SOL    HW137016   1.328   3.623   8.730 -0.0789 -2.9251  0.1335
 8519SOL    HW237017   1.239   3.690   8.821 -0.1979 -4.2262  5.1732
 8520SOL     OW37018   3.919   1.670   8.034  0.2100  0.1181  0.7420
 8520SOL    HW137019   3.841   1.655   8.088  0.8808  0.2471  1.7553
 8520SOL    HW237020   3.903   1.600   7.971 -0.3848  1.4103 -0.5269
 8521SOL     OW37021   1.937   1.248  13.731  0.0154 -0.1316  0.1894
 8521SOL    HW137022   1.987   1.278  13.656 -2.1674 -0.9042 -1.5772
 8521SOL    HW237023   1.851   1.288  13.717  0.3637  0.9462  1.1630
 8522SOL     OW37024   2.491   0.259   1.661 -0.1875  0.4985  0.6573
 8522SOL    HW137025   2.500   0.274   1.566 -1.2604 -0.0496  0.4728
 8522SOL    HW237026   2.500   0.164   1.663  1.0623  0.6069  0.3658
 8523SOL     OW37027   1.531   1.560   4.930 -0.4701  0.0368  0.8761
 8523SOL    HW137028   1.613   1.509   4.935 -0.1481  0.5241  0.6179
 8523SOL    HW237029   1.478   1.502   4.984 -0.3389 -1.9739 -1.1078
 8524SOL     OW37030   2.756   1.789   8.289 -0.1703 -0.0749  0.1888
 8524SOL    HW137031   2.767   1.749   8.375 -0.4667 -2.1872 -0.7645
 8524SOL    HW237032   2.680   1.847   8.297  1.4120  1.6611  2.4775
 8525SOL     OW37033   4.366   1.651  10.698 -0.2819  0.0765  0.8037
 8525SOL    HW137034   4.340   1.569  10.741  0.1289 -0.0359  0.8427
 8525SOL    HW237035   4.315   1.719  10.741 -1.6039  0.6646 -1.7380
 8526SOL     OW37036   1.714   0.502   0.702  0.4822 -0.0095 -0.0364
 8526SOL    HW137037   1.715   0.538   0.791  1.6452  2.0443 -0.8815
 8526SOL    HW237038   1.768   0.567   0.657  0.8945 -1.1934 -1.2283
 8527SOL     OW37039   0.699   1.874   0.501 -0.1759 -0.2641  0.1286
 8527SOL    HW137040   0.748   1.954   0.478  0.5321 -0.5957  0.4682
 8527SOL    HW237041   0.707   1.876   0.597 -2.0199 -1.4758  0.3075
 8528SOL     OW37042   2.706   1.060   5.883  0.1428 -0.6410  0.3342
 8528SOL    HW137043   2.762   1.086   5.957 -2.7366 -0.6969  2.5634
 8528SOL    HW237044   2.741   1.116   5.815 -0.5411  1.3060  1.5860
 8529SOL     OW37045   3.556   1.409  11.920 -0.2891  0.7724  0.4452
 8529SOL    HW137046   3.478   1.352  11.916  0.6246 -0.5021  0.8179
 8529SOL    HW237047   3.547   1.461  11.999 -0.0304 -0.7042  1.4410
 8530SOL     OW37048   2.440   2.739   7.271 -0.7180  0.0752  0.2775
 8530SOL    HW137049   2.396   2.701   7.195 -1.1396 -0.1510  0.6312
 8530SOL    HW237050   2.392   2.701   7.345 -1.4578 -0.7837 -0.6656
 8531SOL     OW37051   4.555   0.268   9.200  0.2941  0.4538  0.8040
 8531SOL    HW137052   4.546   0.288   9.106  4.1816  0.8854  0.5520
 8531SOL    HW237053   4.552   0.360   9.227  0.4753  0.7399 -0.1193
 8532SOL     OW37054   1.600   3.157  11.105  0.2079  0.6911 -0.1417
 8532SOL    HW137055   1.593   3.079  11.160  1.3648  0.3425 -0.4944
 8532SOL    HW237056   1.685   3.152  11.062 -0.0187  0.1093 -0.5274
 8533SOL     OW37057   0.703   4.100   8.727 -0.4400  0.5522  0.1877
 8533SOL    HW137058   0.769   4.129   8.790  0.8023 -0.0300 -0.8375
 8533SOL    HW237059   0.749   4.131   8.649  1.0440  0.3492  0.9813
 8534SOL     OW37060   1.929   2.396  13.020 -0.2808 -0.0585  0.2148
 8534SOL    HW137061   1.952   2.315  12.975  1.3552 -0.2899  1.4589
 8534SOL    HW237062   1.940   2.370  13.111  1.5618  0.0589  0.0244
 8535SOL     OW37063   4.033   4.516  10.851 -0.4008  0.2119  0.4729
 8535SOL    HW137064   4.074   4.539  10.935 -0.7749 -0.0604  0.7279
 8535SOL    HW237065   4.088   4.445  10.817  0.3126  0.5884  0.8354
 8536SOL     OW37066   4.189   4.365   6.032 -0.4162  0.3424  0.2013
 8536SOL    HW137067   4.225   4.321   6.109  0.8962 -1.0527 -1.2208
 8536SOL    HW237068   4.196   4.460   6.045 -2.8302  0.4333  0.9458
 8537SOL     OW37069   2.958   3.722   2.109 -0.0611 -0.1735  0.4217
 8537SOL    HW137070   2.996   3.686   2.030  0.8021  1.7717 -0.0579
 8537SOL    HW237071   2.929   3.638   2.144 -2.0065  1.6933  3.2939
 8538SOL     OW37072   4.363   2.387  10.632  0.1639 -0.5109 -0.3136
 8538SOL    HW137073   4.358   2.474  10.671 -1.5926 -0.7218 -0.0741
 8538SOL    HW237074   4.318   2.400  10.548  0.0985  0.3733 -0.1486
 8539SOL     OW37075   3.328   2.190  11.512 -0.2350 -0.2153 -0.7685
 8539SOL    HW137076   3.273   2.125  11.557 -0.4475 -0.6788 -1.6977
 8539SOL    HW237077   3.252   2.223  11.465  0.3010 -0.2745 -1.6880
 8540SOL     OW37078   3.897   4.269   9.248 -0.2433  0.0474 -0.0786
 8540SOL    HW137079   3.814   4.272   9.201 -0.9568 -0.4526  1.1407
 8540SOL    HW237080   3.909   4.176   9.269  0.8473 -0.1881 -1.8116
 8541SOL     OW37081   1.886   0.110   6.976  0.0086  0.1803 -0.4991
 8541SOL    HW137082   1.943   0.057   6.921 -0.2050  0.0014 -0.5512
 8541SOL    HW237083   1.828   0.048   7.021 -0.0597 -0.1699 -1.0780
 8542SOL     OW37084   0.512   1.394  10.984 -0.2287 -0.8218 -0.1164
 8542SOL    HW137085   0.577   1.359  10.923  0.1096  1.5413 -1.0903
 8542SOL    HW237086   0.528   1.487  10.968  0.2781 -1.1609 -1.6024
 8543SOL     OW37087   3.628   1.768   1.868  0.2190  0.1004  0.1640
 8543SOL    HW137088   3.716   1.792   1.896 -0.1821  1.7057  0.0595
 8543SOL    HW237089   3.624   1.676   1.892 -1.7146 -0.0423 -0.7015
 8544SOL     OW37090   1.733   0.592   5.430  0.0176  0.2266  0.0907
 8544SOL    HW137091   1.803   0.549   5.381  0.9147  1.1473  0.5681
 8544SOL    HW237092   1.784   0.660   5.474 -0.2631 -0.8956  2.1690
 8545SOL     OW37093   0.478   4.491  16.337  0.1511 -0.1290  0.0217
 8545SOL    HW137094   0.472   4.452  16.250 -0.5088 -1.9506  0.8893
 8545SOL    HW237095   0.518   4.418  16.384  0.5310 -0.6944 -1.1769
 8546SOL     OW37096   0.181   3.310  15.775 -0.3149 -0.3591  0.2942
 8546SOL    HW137097   0.098   3.342  15.739  2.1785  0.6950 -4.5446
 8546SOL    HW237098   0.218   3.249  15.712 -0.7842 -1.8985  1.5015
 8547SOL     OW37099   1.372   2.912   3.911  0.0445  0.2581  0.5910
 8547SOL    HW137100   1.380   2.969   3.835 -2.0247  3.0181  2.4834
 8547SOL    HW237101   1.353   2.832   3.861  2.0417 -0.7980  1.4977
 8548SOL     OW37102   3.584   2.832   4.074  0.0812  0.3505 -1.1074
 8548SOL    HW137103   3.592   2.928   4.075 -0.7115  0.4082 -0.5179
 8548SOL    HW237104   3.533   2.828   4.155  1.3863  1.7025 -0.2127
 8549SOL     OW37105   4.579   3.871   5.623  0.6102 -0.0603  0.0834
 8549SOL    HW137106   4.625   3.811   5.681 -2.3009 -0.4764  1.9428
 8549SOL    HW237107   4.630   3.868   5.542  0.6694 -1.5218  0.1748
 8550SOL     OW37108   3.883   0.917  11.614 -0.1598 -0.3510 -0.4056
 8550SOL    HW137109   3.947   0.912  11.685 -1.3999  2.1850  0.8805
 8550SOL    HW237110   3.879   1.010  11.591 -1.1516 -0.6084 -1.2505
 8551SOL     OW37111   4.561   0.724   7.163 -0.1957  0.0039 -0.3083
 8551SOL    HW137112   4.549   0.719   7.258  1.0470  0.0327 -0.1553
 8551SOL    HW237113   4.651   0.755   7.157 -0.5180  0.3868 -3.0608
 8552SOL     OW37114   3.641   4.186   3.434 -0.0704 -0.0059  0.5606
 8552SOL    HW137115   3.666   4.097   3.457  0.6238 -0.0559 -0.4169
 8552SOL    HW237116   3.721   4.217   3.393 -0.9575  0.9847 -0.4403
 8553SOL     OW37117   1.261   4.328   6.699 -0.0812  0.2613 -0.1057
 8553SOL    HW137118   1.347   4.367   6.683 -0.4331  0.0841 -2.4800
 8553SOL    HW237119   1.232   4.321   6.608 -0.8275 -2.6520  0.3375
 8554SOL     OW37120   1.476   2.358  13.530 -0.0282  0.1046 -0.3165
 8554SOL    HW137121   1.440   2.328  13.613 -0.8164 -0.1933 -0.7648
 8554SOL    HW237122   1.418   2.427  13.496  1.6805  2.0060  0.5924
 8555SOL     OW37123   0.205   1.561   9.214 -0.1457  0.1338  0.2715
 8555SOL    HW137124   0.144   1.531   9.281 -1.5555  0.5669 -0.8213
 8555SOL    HW237125   0.281   1.509   9.243 -0.9022 -0.3552  1.3739
 8556SOL     OW37126   0.373   1.431   4.860 -0.6373 -0.5950 -0.1669
 8556SOL    HW137127   0.321   1.453   4.782 -0.5506  0.9728  0.2172
 8556SOL    HW237128   0.327   1.354   4.892 -0.1072 -0.5451  0.7252
 8557SOL     OW37129   2.742   1.736  16.309 -0.3485  0.0076 -0.0500
 8557SOL    HW137130   2.721   1.820  16.351 -0.1858  0.3287 -0.6253
 8557SOL    HW237131   2.740   1.674  16.382  1.1395 -1.2098 -1.0491
 8558SOL     OW37132   0.131   2.057  13.111  0.1360 -0.4302 -0.3496
 8558SOL    HW137133   0.218   2.093  13.090 -0.1456  0.8814  0.7336
 8558SOL    HW237134   0.075   2.125  13.074  2.2225  1.4615 -0.0500
 8559SOL     OW37135   3.081   1.333  10.827  0.4227 -0.1834  0.5895
 8559SOL    HW137136   2.987   1.325  10.846  0.1046 -0.5358 -1.0743
 8559SOL    HW237137   3.119   1.389  10.894 -0.6887  0.0331  1.0469
 8560SOL     OW37138   2.563   0.010  11.106 -0.0884  0.2632 -0.1335
 8560SOL    HW137139   2.603   0.085  11.151  0.2469  0.0130 -0.0120
 8560SOL    HW237140   2.605   0.013  11.020  0.7764  1.7550  0.3249
 8561SOL     OW37141   4.680   0.482   5.596  0.3036  0.1227  0.0397
 8561SOL    HW137142   4.604   0.453   5.646 -0.2809  0.5930 -0.5743
 8561SOL    HW237143   0.020   0.520   5.657  0.0794  2.5511 -1.2616
 8562SOL     OW37144   3.564   3.310   5.744  0.3395 -0.1371 -0.4733
 8562SOL    HW137145   3.646   3.330   5.788  0.9264 -2.2099 -0.6242
 8562SOL    HW237146   3.600   3.295   5.656  0.0473 -1.3390 -0.3997
 8563SOL     OW37147   0.779   4.465  15.506 -1.2763 -0.0482 -0.2461
 8563SOL    HW137148   0.831   4.532  15.551 -2.3419 -0.7477  2.0544
 8563SOL    HW237149   0.732   4.422  15.578 -1.0276 -1.6098 -1.0019
 8564SOL     OW37150   0.312   4.447   5.896 -0.0449 -0.4340 -0.3963
 8564SOL    HW137151   0.286   4.515   5.958 -0.4195 -0.7146 -0.2471
 8564SOL    HW237152   0.339   4.501   5.822 -2.6325 -0.0196 -1.0280
 8565SOL     OW37153   0.606   1.979  16.598 -0.0989 -0.0700 -0.2371
 8565SOL    HW137154   0.675   2.000  16.535 -0.2276 -0.1904 -0.4185
 8565SOL    HW237155   0.616   2.048  16.664  0.0958  0.6711 -1.0292
 8566SOL     OW37156   2.198   3.494  12.854  0.5403  0.0621  0.3540
 8566SOL    HW137157   2.234   3.581  12.868 -0.4269  0.6314 -0.7558
 8566SOL    HW237158   2.104   3.507  12.869  0.6495  0.1607  0.9450
 8567SOL     OW37159   1.590   3.453   7.191  0.0024 -0.4495  0.6870
 8567SOL    HW137160   1.600   3.484   7.282  1.6260  0.0820  0.3262
 8567SOL    HW237161   1.525   3.516   7.159  1.4034  1.1129  0.8795
 8568SOL     OW37162   0.137   2.192   2.702  0.6351 -0.1056  0.1865
 8568SOL    HW137163   0.060   2.146   2.734  0.2166 -2.1510 -3.7768
 8568SOL    HW237164   0.215   2.147   2.735  0.6881 -1.9872 -2.4907
 8569SOL     OW37165   3.608   2.792   7.324  0.4030  0.2453 -0.2005
 8569SOL    HW137166   3.678   2.815   7.385  0.3435 -0.3080  0.0760
 8569SOL    HW237167   3.663   2.766   7.250  0.9686 -3.4342  1.5072
 8570SOL     OW37168   1.999   3.629  17.192 -0.4397 -0.2048  0.4184
 8570SOL    HW137169   1.917   3.591  17.158 -0.2257 -0.4115  0.1326
 8570SOL    HW237170   1.967   3.716  17.215 -0.2679 -0.4653  1.6983
 8571SOL     OW37171   3.768   1.212   6.976  0.4999  0.0374 -0.5456
 8571SOL    HW137172   3.715   1.216   6.896 -2.1313 -2.1240  1.0890
 8571SOL    HW237173   3.814   1.295   6.972 -0.1713  0.4788  1.0658
 8572SOL     OW37174   2.413   1.147   9.120  0.4710 -0.1678  0.2536
 8572SOL    HW137175   2.407   1.159   9.025  1.5923 -0.2968  0.1769
 8572SOL    HW237176   2.337   1.091   9.136 -0.3416  0.7803 -0.2319
 8573SOL     OW37177   3.802   4.602   5.698 -0.3337  0.0070 -0.4198
 8573SOL    HW137178   3.796   4.575   5.789  0.6289  2.2054  0.2823
 8573SOL    HW237179   3.737   4.538   5.669 -0.3394 -0.2429  0.1431
 8574SOL     OW37180   2.524   3.078   0.988  0.1000  0.6250 -0.1762
 8574SOL    HW137181   2.508   3.036   0.903 -0.4674 -2.0532  1.2333
 8574SOL    HW237182   2.532   3.168   0.957 -0.3005  0.1814 -1.5742
 8575SOL     OW37183   0.849   1.173   5.805 -0.0353 -0.4138  0.1409
 8575SOL    HW137184   0.849   1.181   5.709  1.1873 -0.0723  0.1664
 8575SOL    HW237185   0.782   1.240   5.815 -1.1641 -1.5275 -0.0601
 8576SOL     OW37186   0.321   3.829   7.317  0.0502  0.3902 -0.2663
 8576SOL    HW137187   0.328   3.778   7.236 -3.4962  0.6945 -0.7598
 8576SOL    HW237188   0.298   3.914   7.280 -1.5535  0.6522  1.3467
 8577SOL     OW37189   1.591   3.690   4.618  0.0652 -0.0017  0.1024
 8577SOL    HW137190   1.664   3.637   4.650 -0.3395  0.2925  1.5096
 8577SOL    HW237191   1.516   3.636   4.640  1.1158 -1.1922  0.7273
 8578SOL     OW37192   2.761   2.496   1.810 -0.3202  0.2865  0.5017
 8578SOL    HW137193   2.738   2.571   1.756 -1.8870 -1.9589 -1.9795
 8578SOL    HW237194   2.711   2.431   1.759  0.6770  0.7286 -1.0413
 8579SOL     OW37195   3.946   3.161   3.380  0.0855  0.5795  0.3274
 8579SOL    HW137196   3.889   3.118   3.316  0.0073  1.9758 -0.5346
 8579SOL    HW237197   3.890   3.238   3.390  0.2498  0.8292 -0.7877
 8580SOL     OW37198   3.442   0.347   8.383 -0.1686 -0.0647 -0.1540
 8580SOL    HW137199   3.531   0.383   8.382 -0.5606  0.9773  2.1313
 8580SOL    HW237200   3.399   0.430   8.401  1.6648  0.6742  0.8129
 8581SOL     OW37201   4.530   1.203  10.713  0.0752  0.3848  0.9244
 8581SOL    HW137202   4.500   1.248  10.634 -1.9971 -0.2741  1.3529
 8581SOL    HW237203   4.623   1.227  10.721  0.4983 -0.7859 -0.5443
 8582SOL     OW37204   2.979   0.199   0.581 -0.4068  0.5330  0.1225
 8582SOL    HW137205   2.906   0.233   0.633  1.7168  2.1762  2.0316
 8582SOL    HW237206   2.942   0.153   0.505  0.5313  0.6605 -0.4144
 8583SOL     OW37207   4.238   2.888  11.247 -0.2186  0.4131  0.1999
 8583SOL    HW137208   4.324   2.897  11.287  0.3173  1.6614 -1.2467
 8583SOL    HW237209   4.213   2.804  11.286  0.1289  1.1168  1.9571
 8584SOL     OW37210   0.927   1.907   9.608 -0.3481  0.1264 -0.6033
 8584SOL    HW137211   1.015   1.885   9.637  0.7462  0.3011 -3.7768
 8584SOL    HW237212   0.957   1.959   9.534 -2.4121  2.8360  0.4822
 8585SOL     OW37213   0.697   3.167   5.269 -0.2083  0.2984 -0.1853
 8585SOL    HW137214   0.787   3.192   5.248  0.0165 -2.0032 -1.9850
 8585SOL    HW237215   0.682   3.216   5.350 -0.3001 -1.3003  0.7494
 8586SOL     OW37216   2.076   4.213   7.690  0.1079  0.1981  0.5295
 8586SOL    HW137217   1.982   4.196   7.694 -0.2323  1.8790 -0.4466
 8586SOL    HW237218   2.082   4.307   7.670  1.0072  0.4468  1.9192
 8587SOL     OW37219   4.246   1.190  14.499 -0.5073 -0.3635  0.2787
 8587SOL    HW137220   4.158   1.198  14.462  0.6716  2.1641 -1.9974
 8587SOL    HW237221   4.304   1.208  14.425 -1.7841 -1.6863 -1.0227
 8588SOL     OW37222   3.257   4.026  17.383  0.4869  0.3335 -0.7008
 8588SOL    HW137223   3.272   4.118  17.402 -0.4930  0.4030 -0.2368
 8588SOL    HW237224   3.329   4.012  17.321  2.4075  0.6134  1.5078
 8589SOL     OW37225   0.976   2.762  14.446 -0.3506 -0.3186  0.6229
 8589SOL    HW137226   1.002   2.688  14.501 -1.5566 -1.2095 -0.0118
 8589SOL    HW237227   0.895   2.788  14.490 -1.4924 -1.4181 -0.8466
 8590SOL     OW37228   1.157   0.917   1.990 -0.3881  0.3025  0.5231
 8590SOL    HW137229   1.166   0.825   1.965  2.0345  0.6827 -0.0101
 8590SOL    HW237230   1.066   0.920   2.020 -0.9544  2.1650 -1.3739
 8591SOL     OW37231   1.878   2.211   1.575 -0.2084  0.0088  0.0995
 8591SOL    HW137232   1.821   2.213   1.498  0.0140 -0.4951 -0.0729
 8591SOL    HW237233   1.845   2.284   1.628 -2.0154 -1.6845  1.3105
 8592SOL     OW37234   0.092   0.879  14.966 -0.4928 -0.1289 -0.6496
 8592SOL    HW137235   0.157   0.810  14.973  0.6463  1.0729  0.3971
 8592SOL    HW237236   0.148   0.950  14.935  0.6421 -0.4417  0.7135
 8593SOL     OW37237   0.836   3.939   9.548  0.0179  0.3396 -0.3587
 8593SOL    HW137238   0.748   3.902   9.536 -0.7811  1.8193  0.9329
 8593SOL    HW237239   0.850   4.005   9.481 -1.0484  3.2035  2.2300
 8594SOL     OW37240   1.184   3.761  10.943  0.1273  0.0428 -0.2963
 8594SOL    HW137241   1.209   3.745  10.852  1.9047 -1.6993  0.5112
 8594SOL    HW237242   1.229   3.690  10.988  0.5335 -0.8772 -2.1594
 8595SOL     OW37243   0.267   4.408  15.952 -0.3524 -0.0195 -0.6125
 8595SOL    HW137244   0.254   4.502  15.963 -0.7517 -0.1291 -0.1774
 8595SOL    HW237245   0.362   4.399  15.964 -0.1682  1.1968 -1.1781
 8596SOL     OW37246   3.016   0.293   9.848 -0.3959 -0.2097  0.3094
 8596SOL    HW137247   3.030   0.199   9.860 -1.5752  0.1566  4.7843
 8596SOL    HW237248   2.991   0.295   9.756 -1.1205 -0.2746  0.5102
 8597SOL     OW37249   0.038   3.017   8.683 -0.4888 -0.2034 -0.0577
 8597SOL    HW137250   0.110   3.024   8.747 -0.6822 -1.0009  0.2451
 8597SOL    HW237251   0.065   2.944   8.628  0.2080  0.8445 -1.1026
 8598SOL     OW37252   0.311   0.696   0.952 -0.1020 -0.6080  0.4811
 8598SOL    HW137253   0.322   0.685   1.046  0.0110 -1.1303  0.4033
 8598SOL    HW237254   0.296   0.791   0.948  4.2072  0.0417 -0.8905
 8599SOL     OW37255   1.692   3.511   2.334 -0.1205 -0.1053  0.4655
 8599SOL    HW137256   1.684   3.425   2.376  0.1691 -1.7499 -2.7958
 8599SOL    HW237257   1.695   3.480   2.244 -1.1329  0.7005  0.1531
 8600SOL     OW37258   0.875   2.313   7.040  0.2276 -0.4044 -0.5263
 8600SOL    HW137259   0.834   2.396   7.063 -1.9801 -1.5712 -0.2884
 8600SOL    HW237260   0.833   2.305   6.954  0.7932 -0.4280 -0.7976
 8601SOL     OW37261   3.034   2.531   2.742  0.4809 -0.1950  0.0661
 8601SOL    HW137262   2.954   2.550   2.693  0.4822 -1.0598 -0.2625
 8601SOL    HW237263   3.038   2.437   2.725  0.6263 -0.7470  3.1976
 8602SOL     OW37264   0.369   2.019   4.587  0.0748 -0.3799 -0.6089
 8602SOL    HW137265   0.396   1.927   4.593  0.6580 -0.1200  0.9558
 8602SOL    HW237266   0.366   2.035   4.493  1.0169 -1.7762 -0.8608
 8603SOL     OW37267   1.308   1.206   3.647  0.0344  0.2597 -0.1019
 8603SOL    HW137268   1.373   1.263   3.688  1.0945 -0.6232 -0.5481
 8603SOL    HW237269   1.324   1.231   3.556  0.0036  0.5505 -0.0259
 8604SOL     OW37270   4.490   1.389  16.423 -0.1827  0.2429  0.4396
 8604SOL    HW137271   4.546   1.331  16.373 -1.8311 -1.3110  0.3936
 8604SOL    HW237272   4.417   1.328  16.437 -2.9381  3.1251 -1.2839
 8605SOL     OW37273   1.664   4.571   3.029 -0.1282  0.1383 -0.0407
 8605SOL    HW137274   1.673   4.517   2.951 -0.2476 -1.0860  0.8004
 8605SOL    HW237275   1.579   4.605   3.000 -1.2280  0.2578  3.2992
 8606SOL     OW37276   1.696   3.824   1.920 -0.3223  0.5988 -0.2957
 8606SOL    HW137277   1.637   3.776   1.978  1.6787 -0.0585  1.1733
 8606SOL    HW237278   1.768   3.763   1.904 -0.7851  0.2288 -0.9335
 8607SOL     OW37279   3.526   3.638   0.782  0.2540  0.0215  0.7720
 8607SOL    HW137280   3.538   3.636   0.688  0.5581 -0.2983  0.8179
 8607SOL    HW237281   3.616   3.662   0.804  1.0342 -0.9322 -1.4206
 8608SOL     OW37282   0.414   3.262   4.752  0.4409 -0.8810 -0.8032
 8608SOL    HW137283   0.354   3.326   4.791  2.8870  0.3479  0.9827
 8608SOL    HW237284   0.405   3.189   4.814 -2.2309 -0.4320 -0.6445
 8609SOL     OW37285   2.031   2.011   1.501 -0.6506 -0.1728  0.2679
 8609SOL    HW137286   1.990   2.096   1.513  1.8060  1.1805 -0.8354
 8609SOL    HW237287   2.103   2.015   1.437 -1.1513 -3.0920 -0.4736
 8610SOL     OW37288   2.857   1.774   4.179  0.0539 -0.0412  0.3927
 8610SOL    HW137289   2.835   1.819   4.097  1.3461 -0.3168 -0.1084
 8610SOL    HW237290   2.784   1.797   4.236  2.2127  0.8895  2.7783
 8611SOL     OW37291   3.300   2.597   4.443  0.1843  0.1353  0.7910
 8611SOL    HW137292   3.270   2.518   4.487  0.4577  0.3624  1.3891
 8611SOL    HW237293   3.228   2.660   4.443 -0.1743 -0.2726  0.3687
 8612SOL     OW37294   2.020   1.770   8.581  0.1575 -0.2874  0.1862
 8612SOL    HW137295   1.946   1.779   8.521  1.5675  0.1072 -1.4649
 8612SOL    HW237296   2.049   1.680   8.566  0.9138 -0.0471  0.2087
 8613SOL     OW37297   1.293   4.714   8.171 -0.0755  0.1857 -0.0801
 8613SOL    HW137298   1.326   4.722   8.261  2.2347  2.5636 -1.1242
 8613SOL    HW237299   1.277   4.620   8.170  0.7990 -0.0037  2.0668
 8614SOL     OW37300   0.509   4.018  16.434 -0.1935  0.2564 -0.4843
 8614SOL    HW137301   0.541   3.928  16.432 -0.0301  0.3193 -0.7994
 8614SOL    HW237302   0.467   4.024  16.520  1.2837  1.4873  0.1646
 8615SOL     OW37303   1.398   3.741   1.846  0.0193 -0.1131 -0.2345
 8615SOL    HW137304   1.494   3.744   1.837  0.0055 -1.1995 -0.7606
 8615SOL    HW237305   1.379   3.817   1.791 -0.2978  0.3156  0.4719
 8616SOL     OW37306   2.618   0.451   7.548 -0.4920 -0.1074  0.4179
 8616SOL    HW137307   2.575   0.530   7.580 -1.9553 -0.8782  0.3597
 8616SOL    HW237308   2.689   0.444   7.611 -0.7568  1.5391  0.8992
 8617SOL     OW37309   0.181   3.333   8.124 -0.0783  0.1761  0.1631
 8617SOL    HW137310   0.122   3.292   8.187 -0.8115  0.2817 -0.4649
 8617SOL    HW237311   0.116   3.379   8.071  0.5700 -1.3528 -1.9369
 8618SOL     OW37312   2.838   4.419  14.688  0.2717 -0.1681  0.1071
 8618SOL    HW137313   2.894   4.343  14.701  0.9160  0.3937  0.6090
 8618SOL    HW237314   2.894   4.478  14.739  1.7631  0.6694 -2.4861
 8619SOL     OW37315   3.717   1.809  15.412 -0.4441  1.0497 -0.2077
 8619SOL    HW137316   3.743   1.760  15.334 -1.0505  0.3918  0.0020
 8619SOL    HW237317   3.656   1.745  15.449  0.5117  0.3499  0.1357
 8620SOL     OW37318   2.282   3.808  11.247 -0.0296  0.4129  0.2830
 8620SOL    HW137319   2.274   3.863  11.325 -1.3363  1.5887 -0.7013
 8620SOL    HW237320   2.372   3.825  11.217 -0.2941  3.2649  1.1090
 8621SOL     OW37321   0.907   3.173   8.437  0.0982 -0.1142  0.0437
 8621SOL    HW137322   1.000   3.163   8.457  0.3282 -1.9683 -1.9160
 8621SOL    HW237323   0.877   3.210   8.519  0.1864  3.0899 -1.3604
 8622SOL     OW37324   3.529   4.459  14.874  0.1893  0.4961 -0.1590
 8622SOL    HW137325   3.530   4.395  14.803 -2.2465 -0.2181  0.4297
 8622SOL    HW237326   3.623   4.472  14.885  0.5130 -1.0943 -1.0499
 8623SOL     OW37327   3.249   3.628   8.481  0.6170 -0.3576 -0.3310
 8623SOL    HW137328   3.242   3.553   8.422  0.0955 -0.2995 -0.3475
 8623SOL    HW237329   3.326   3.609   8.534  0.1631 -2.0104 -0.2522
 8624SOL     OW37330   4.186   0.284  16.117  0.0226  0.5499 -0.2264
 8624SOL    HW137331   4.184   0.314  16.026 -1.1366 -0.6120 -0.5849
 8624SOL    HW237332   4.251   0.346  16.151 -2.2405  2.2045  1.0770
 8625SOL     OW37333   3.363   2.746   3.806 -0.3765 -0.0862  0.4241
 8625SOL    HW137334   3.345   2.706   3.720  0.5998  0.7525 -0.1748
 8625SOL    HW237335   3.275   2.778   3.821 -0.5675  0.7227 -2.3393
 8626SOL     OW37336   4.011   4.403   6.805 -0.2455  0.1011 -0.2181
 8626SOL    HW137337   3.976   4.333   6.860 -1.4793 -0.0417 -1.1716
 8626SOL    HW237338   3.934   4.424   6.752  0.1516  0.0571 -0.8173
 8627SOL     OW37339   3.562   1.027   2.530  0.3267 -0.4189  0.0855
 8627SOL    HW137340   3.578   1.058   2.441 -0.7583 -1.4494 -0.4713
 8627SOL    HW237341   3.591   1.098   2.586 -1.7808 -1.2510  2.1978
 8628SOL     OW37342   0.304   3.930   8.821  0.6105 -0.3667 -0.1799
 8628SOL    HW137343   0.263   3.850   8.853 -0.5711  1.4864  2.8881
 8628SOL    HW237344   0.396   3.904   8.813  1.1546  1.5611 -0.1286
 8629SOL     OW37345   4.719   1.640  11.253  0.2434  0.0542  0.0714
 8629SOL    HW137346   4.715   1.552  11.217 -1.2420  0.0166  0.3265
 8629SOL    HW237347   0.020   1.697  11.180  0.3156 -1.4325 -1.0686
 8630SOL     OW37348   2.526   2.130  12.628 -0.1735  0.6404 -0.4411
 8630SOL    HW137349   2.471   2.092  12.696  0.6410  1.7006  0.8011
 8630SOL    HW237350   2.573   2.050  12.602  0.5160  1.0759 -0.5342
 8631SOL     OW37351   0.943   4.017   8.058 -0.8673  0.2516 -0.2842
 8631SOL    HW137352   0.867   4.019   8.117  0.4178 -1.4453  1.4427
 8631SOL    HW237353   0.905   4.073   7.991  1.4888  0.6930 -1.2623
 8632SOL     OW37354   3.818   4.179   3.730  0.3605  0.1463  0.1950
 8632SOL    HW137355   3.814   4.147   3.819 -1.5507  0.0847  0.0796
 8632SOL    HW237356   3.881   4.118   3.692  0.2831 -0.8263  1.6619
 8633SOL     OW37357   2.962   4.454  14.430 -0.0175 -0.9007  0.3266
 8633SOL    HW137358   2.915   4.455  14.514 -2.1364 -0.3885 -0.8603
 8633SOL    HW237359   2.922   4.375  14.395  0.6818 -0.4903 -1.3875
 8634SOL     OW37360   3.782   3.698   5.049 -0.3174  0.7612  0.3640
 8634SOL    HW137361   3.736   3.774   5.086 -0.1264  1.3761 -0.6713
 8634SOL    HW237362   3.728   3.624   5.079 -1.8235  1.3554 -0.8604
 8635SOL     OW37363   0.663   2.053  14.953  0.0286 -0.2542 -0.1857
 8635SOL    HW137364   0.591   2.082  15.011  0.9783  0.2221  0.7566
 8635SOL    HW237365   0.732   2.094  15.006  0.0865 -0.3195 -0.2115
 8636SOL     OW37366   1.111   1.725   7.964 -0.5232  0.3056 -0.0357
 8636SOL    HW137367   1.083   1.638   7.937 -0.1909 -0.6734  2.8085
 8636SOL    HW237368   1.088   1.779   7.889  1.2225  0.6068 -0.3524
 8637SOL     OW37369   3.462   0.618  13.693 -0.1245 -0.0633 -0.2247
 8637SOL    HW137370   3.386   0.618  13.636 -1.1157 -0.4506  1.0838
 8637SOL    HW237371   3.503   0.698  13.660 -0.1083 -0.2223 -0.5854
 8638SOL     OW37372   0.166   0.536   0.762  0.1029 -0.4672 -0.0490
 8638SOL    HW137373   0.224   0.586   0.820 -1.6360 -0.7941  1.9680
 8638SOL    HW237374   0.235   0.483   0.721  0.3582  0.2532 -0.5436
 8639SOL     OW37375   1.847   3.866   6.688  0.2544 -0.4015  0.6570
 8639SOL    HW137376   1.769   3.921   6.685  1.7364  1.6688 -0.3817
 8639SOL    HW237377   1.908   3.928   6.646 -0.2217 -0.5694 -0.2778
 8640SOL     OW37378   3.359   3.617   3.646  0.2761 -0.0788 -0.3217
 8640SOL    HW137379   3.270   3.595   3.619 -0.2622 -0.3967  1.7539
 8640SOL    HW237380   3.345   3.606   3.740  0.4944  1.0746 -0.1470
 8641SOL     OW37381   4.517   1.908   6.717 -0.3026 -0.0927 -0.1451
 8641SOL    HW137382   4.537   1.822   6.755 -1.2210 -0.4075 -0.3854
 8641SOL    HW237383   4.445   1.879   6.662 -0.2595 -1.5187  0.5579
 8642SOL     OW37384   0.055   2.519  12.446  0.0722 -0.3804 -0.2923
 8642SOL    HW137385   4.686   2.544  12.433 -0.1045 -0.5180  0.6898
 8642SOL    HW237386   0.049   2.426  12.426 -2.1087 -0.2246 -0.4063
 8643SOL     OW37387   0.921   2.479   6.285  0.6681  0.0836 -0.3801
 8643SOL    HW137388   0.929   2.415   6.215 -0.4155  0.8919 -1.2559
 8643SOL    HW237389   0.987   2.437   6.340  0.7632  1.2233  0.3817
 8644SOL     OW37390   1.398   4.565  17.491  0.0079  0.2225  0.9338
 8644SOL    HW137391   1.484   4.564  17.448 -0.4509  1.5694 -0.0284
 8644SOL    HW237392   1.401   4.479  17.532  1.1073  0.0536  0.4974
 8645SOL     OW37393   1.881   0.866   2.788 -0.5687 -0.4105 -0.6315
 8645SOL    HW137394   1.856   0.804   2.720 -2.4221 -0.1855 -0.1732
 8645SOL    HW237395   1.975   0.878   2.773 -0.4266  0.4220  0.9694
 8646SOL     OW37396   0.328   2.026  12.680 -0.5434  0.2789  0.5899
 8646SOL    HW137397   0.359   2.005  12.768 -0.2911  0.5673  0.5680
 8646SOL    HW237398   0.234   2.038  12.698 -0.7918 -1.3977  0.4319
 8647SOL     OW37399   4.513   0.858   8.169  0.5925 -0.1225 -0.0988
 8647SOL    HW137400   4.567   0.873   8.091 -1.1854 -0.3322 -1.3729
 8647SOL    HW237401   4.423   0.838   8.141  0.7388 -0.7757 -0.0982
 8648SOL     OW37402   4.328   1.955  15.474  0.3686 -0.1387 -0.1292
 8648SOL    HW137403   4.392   2.002  15.528  1.5478 -0.0894 -1.5442
 8648SOL    HW237404   4.316   2.020  15.404 -0.1758  1.0522  1.0616
 8649SOL     OW37405   0.477   4.075  13.269 -0.0923 -0.4971  0.3551
 8649SOL    HW137406   0.467   4.065  13.174  2.1029 -0.7528  0.1646
 8649SOL    HW237407   0.411   4.136  13.303 -1.4572 -2.0827  0.5567
 8650SOL     OW37408   3.978   4.337  14.047 -0.2890  0.2715 -0.1339
 8650SOL    HW137409   3.945   4.365  13.961  0.5834 -3.4706 -1.6745
 8650SOL    HW237410   4.049   4.400  14.054  0.1528 -0.1760 -0.6413
 8651SOL     OW37411   1.370   1.365   0.732 -0.0294 -0.5265  0.1738
 8651SOL    HW137412   1.380   1.459   0.721 -0.4287 -0.5725 -0.5697
 8651SOL    HW237413   1.430   1.352   0.805 -0.9915 -1.0092  0.8834
 8652SOL     OW37414   0.676   0.942   5.768  0.2245 -0.1034 -0.4352
 8652SOL    HW137415   0.761   0.905   5.790  0.0987  0.5565  1.1347
 8652SOL    HW237416   0.660   0.999   5.843  1.0496 -0.6572  0.1601
 8653SOL     OW37417   4.084   1.141  11.543 -0.6239  0.0300  0.5388
 8653SOL    HW137418   4.000   1.155  11.587 -0.4238  1.3346  0.4891
 8653SOL    HW237419   4.143   1.144  11.618  1.6898 -2.4021 -1.1906
 8654SOL     OW37420   1.934   2.990   3.408 -0.3750  0.2207 -0.3295
 8654SOL    HW137421   1.958   3.050   3.338  0.5318  0.3379  0.0851
 8654SOL    HW237422   1.886   2.918   3.365  1.2251 -0.8933 -0.2556
 8655SOL     OW37423   3.257   1.963   7.476  0.1597 -0.4152  0.3966
 8655SOL    HW137424   3.308   1.924   7.405  1.3628  0.5484  0.7345
 8655SOL    HW237425   3.304   2.043   7.498  0.3942 -0.6583  0.7716
 8656SOL     OW37426   0.076   1.173  16.070 -0.4312 -0.7017 -0.0009
 8656SOL    HW137427   0.060   1.199  15.980 -1.4485  1.9790  0.9431
 8656SOL    HW237428   0.167   1.148  16.054 -1.1140 -1.6202 -2.4424
 8657SOL     OW37429   2.749   2.735   3.073  0.2750 -0.3835  0.5679
 8657SOL    HW137430   2.692   2.732   2.996  0.5686  1.7040  0.2642
 8657SOL    HW237431   2.685   2.718   3.142  0.6465 -0.1750  0.9626
 8658SOL     OW37432   1.959   1.881   9.517  0.8561 -0.4624 -0.4997
 8658SOL    HW137433   1.878   1.861   9.565  1.2189  2.1847  1.2171
 8658SOL    HW237434   2.005   1.800   9.537  1.8571 -0.1327 -1.4215
 8659SOL     OW37435   1.354   1.820   5.944  0.4631  0.3502 -0.3801
 8659SOL    HW137436   1.402   1.737   5.948  1.8683  1.2356  1.0900
 8659SOL    HW237437   1.401   1.877   5.883  0.0202 -0.4720 -1.4860
 8660SOL     OW37438   3.200   2.369   9.993  0.6601  0.4127  0.4310
 8660SOL    HW137439   3.195   2.428  10.069 -0.4124 -1.0185  1.4926
 8660SOL    HW237440   3.274   2.314  10.019 -0.2248  0.3744  2.8989
 8661SOL     OW37441   1.769   3.475   6.001 -0.2181  0.0521  0.0007
 8661SOL    HW137442   1.863   3.467   5.982 -0.3753 -1.5246 -0.0525
 8661SOL    HW237443   1.735   3.545   5.944  0.8195 -1.1474 -2.0857
 8662SOL     OW37444   1.141   0.386  15.668 -0.2553  0.1122  0.0806
 8662SOL    HW137445   1.182   0.342  15.594 -1.5051 -4.4626  2.1556
 8662SOL    HW237446   1.055   0.345  15.664 -0.2496  0.4110 -2.9861
 8663SOL     OW37447   2.895   4.022   6.514  0.4172  0.2449  0.1952
 8663SOL    HW137448   2.983   4.016   6.550  2.0466 -0.0315 -3.8325
 8663SOL    HW237449   2.849   4.033   6.597 -1.0484 -1.1298 -0.4298
 8664SOL     OW37450   0.963   1.016   6.119  0.2928  0.0797  0.5065
 8664SOL    HW137451   0.949   1.040   6.028  1.0889 -1.9780 -0.1556
 8664SOL    HW237452   1.043   0.963   6.110  0.1499 -0.0478 -0.0098
 8665SOL     OW37453   3.988   3.015  15.504 -0.1757  0.0190  0.1928
 8665SOL    HW137454   3.994   2.926  15.470  1.5985 -0.1945  1.0477
 8665SOL    HW237455   4.073   3.028  15.547  0.5573  0.8592 -1.5205
 8666SOL     OW37456   3.727   0.573   0.236 -0.2912 -0.5552 -1.0766
 8666SOL    HW137457   3.661   0.506   0.219 -0.8779  0.0841 -1.3148
 8666SOL    HW237458   3.724   0.618   0.151 -0.1554 -1.2024 -1.4228
 8667SOL     OW37459   1.700   3.286  10.558  0.0178 -0.2821 -0.1693
 8667SOL    HW137460   1.752   3.210  10.583 -0.5007 -0.8377 -0.7806
 8667SOL    HW237461   1.744   3.351  10.613 -1.9440 -0.1822  1.2414
 8668SOL     OW37462   4.387   4.290   9.334  0.2190 -0.0510 -0.0966
 8668SOL    HW137463   4.298   4.322   9.319 -0.5635 -2.6770 -0.9772
 8668SOL    HW237464   4.435   4.327   9.259  2.3283 -1.3396  0.6027
 8669SOL     OW37465   4.590   2.306   6.504 -0.4668 -0.3617  0.1504
 8669SOL    HW137466   4.526   2.288   6.435 -1.6434  2.6985  0.4186
 8669SOL    HW237467   4.674   2.298   6.459 -0.2394  1.7168  0.1827
 8670SOL     OW37468   4.157   2.835  12.982 -0.0369  0.1754 -0.0643
 8670SOL    HW137469   4.093   2.897  13.016  0.6334 -0.8767  3.1254
 8670SOL    HW237470   4.166   2.767  13.049  0.4007  1.2473  0.9798
 8671SOL     OW37471   2.453   3.893   3.299 -0.1471 -0.1958 -0.2862
 8671SOL    HW137472   2.437   3.957   3.368 -2.7280 -0.2594 -0.8217
 8671SOL    HW237473   2.543   3.868   3.320 -0.2238 -0.1034  0.1572
 8672SOL     OW37474   2.164   1.147   7.906 -0.3827 -0.2571 -0.6590
 8672SOL    HW137475   2.129   1.108   7.986 -0.9612 -2.6939 -2.0787
 8672SOL    HW237476   2.198   1.230   7.940  2.2743 -1.9225  0.7444
 8673SOL     OW37477   1.860   2.603   7.523  0.1466 -0.3709  0.0844
 8673SOL    HW137478   1.910   2.556   7.590 -0.5457  0.6029  1.2909
 8673SOL    HW237479   1.823   2.668   7.583 -0.6959  1.4073 -2.3767
 8674SOL     OW37480   4.698   2.129   0.353 -0.4147  0.1726 -0.4476
 8674SOL    HW137481   0.058   2.122   0.305  0.1680  1.2172  0.4045
 8674SOL    HW237482   4.686   2.223   0.366 -1.8937 -0.3619  2.1427
 8675SOL     OW37483   4.032   3.075   5.572 -0.0081 -0.6117 -0.3433
 8675SOL    HW137484   4.110   3.047   5.620  0.6681 -0.1176 -1.1617
 8675SOL    HW237485   3.958   3.051   5.629 -0.7974  1.4002 -0.5267
 8676SOL     OW37486   4.073   0.645   3.770  1.0673 -0.5286 -0.1406
 8676SOL    HW137487   4.147   0.693   3.808  1.7374  0.3780 -2.6416
 8676SOL    HW237488   4.127   0.568   3.751  3.0121  1.0419 -0.9218
 8677SOL     OW37489   3.041   0.078   7.871 -0.5021 -0.5030  0.3050
 8677SOL    HW137490   3.094   0.124   7.936  2.0025  0.1652 -2.2817
 8677SOL    HW237491   3.049   0.133   7.794  0.0902 -2.3803 -0.9656
 8678SOL     OW37492   0.296   2.360  16.898  0.1947 -0.2859 -0.0742
 8678SOL    HW137493   0.298   2.429  16.831  2.4557  1.4191  1.7445
 8678SOL    HW237494   0.217   2.380  16.949 -0.5742 -1.1423 -0.9187
 8679SOL     OW37495   2.957   4.617   8.066  0.5113  0.2795  0.1298
 8679SOL    HW137496   2.966   4.694   8.009 -1.1977 -0.5287 -1.2259
 8679SOL    HW237497   2.898   4.561   8.016 -0.1436 -0.0358  1.2615
 8680SOL     OW37498   3.301   2.406   8.452 -0.1696  0.3715  0.5378
 8680SOL    HW137499   3.265   2.464   8.385 -0.6483 -0.1965  0.3074
 8680SOL    HW237500   3.270   2.440   8.536 -2.0836 -0.6491  0.2446
 8681SOL     OW37501   4.635   3.589   4.860 -0.1065  0.2033  0.1007
 8681SOL    HW137502   4.685   3.554   4.786 -0.5909 -0.5727  0.1422
 8681SOL    HW237503   4.570   3.521   4.877  1.0775 -0.4692  1.8602
 8682SOL     OW37504   0.078   0.757   8.532 -0.4149  0.1454 -0.5873
 8682SOL    HW137505   0.098   0.680   8.585 -2.8422 -0.0234  0.0647
 8682SOL    HW237506   0.039   0.723   8.452 -0.7896 -2.2893  0.6278
 8683SOL     OW37507   4.668   4.111   7.333 -0.4121 -0.2080 -0.1779
 8683SOL    HW137508   4.583   4.068   7.322  0.4886 -1.5022 -2.1878
 8683SOL    HW237509   4.654   4.178   7.400  0.9223 -0.9664  0.8634
 8684SOL     OW37510   1.100   1.366  12.790 -0.1836  0.7040  0.3974
 8684SOL    HW137511   1.164   1.364  12.719 -0.0041  0.7774  0.5593
 8684SOL    HW237512   1.154   1.405  12.858  2.5347 -1.9642 -0.2558
 8685SOL     OW37513   1.939   0.678   3.129  0.3543 -0.0857  0.2391
 8685SOL    HW137514   1.865   0.623   3.152 -0.5988  1.4031  0.7321
 8685SOL    HW237515   1.916   0.767   3.156 -0.5921  0.1591 -1.3657
 8686SOL     OW37516   1.700   2.475   3.183  0.2562  0.1316  0.0706
 8686SOL    HW137517   1.649   2.537   3.130  1.2745  1.1002  0.2082
 8686SOL    HW237518   1.789   2.503   3.161  0.3214  1.1566  1.6305
 8687SOL     OW37519   0.247   1.547   3.788  0.3331  0.1757  0.0346
 8687SOL    HW137520   0.180   1.505   3.842  1.4639  0.2514  1.5125
 8687SOL    HW237521   0.202   1.565   3.706 -0.4452 -1.7445  0.0422
 8688SOL     OW37522   0.552   3.695   2.681 -0.3611 -0.0361  0.1006
 8688SOL    HW137523   0.536   3.760   2.612  0.9934  1.4632  1.2255
 8688SOL    HW237524   0.467   3.657   2.704 -0.7142 -0.6516 -2.1384
 8689SOL     OW37525   2.590   2.439   3.724  0.4927 -0.4033  0.1152
 8689SOL    HW137526   2.610   2.518   3.775  0.2650 -0.3025  0.0482
 8689SOL    HW237527   2.568   2.381   3.796 -2.0162  0.1536 -0.2057
 8690SOL     OW37528   2.662   3.608   3.517 -0.2751 -0.1838 -0.8243
 8690SOL    HW137529   2.602   3.537   3.492 -0.9278 -0.0493  0.3594
 8690SOL    HW237530   2.613   3.634   3.595  0.8012 -0.6647 -0.0045
 8691SOL     OW37531   4.024   0.104  15.889 -0.5012  0.2390 -0.3079
 8691SOL    HW137532   3.988   0.167  15.826 -0.7068  0.3006 -0.1295
 8691SOL    HW237533   3.951   0.101  15.951 -0.6109 -0.5421 -0.4804
 8692SOL     OW37534   1.920   3.782   7.658 -0.0736  0.2889  0.2487
 8692SOL    HW137535   1.999   3.779   7.712 -2.3669 -2.2374  3.5583
 8692SOL    HW237536   1.910   3.876   7.644 -1.7805  0.1318  0.3417
 8693SOL     OW37537   1.929   1.565   5.258 -0.2324 -0.6605  0.3156
 8693SOL    HW137538   1.877   1.489   5.284 -1.7594  0.0219 -0.7950
 8693SOL    HW237539   1.933   1.616   5.339 -1.6285  0.1253 -0.1057
 8694SOL     OW37540   3.679   3.993  16.311  0.4643  0.0744  0.0053
 8694SOL    HW137541   3.736   4.069  16.325  3.4101 -1.7853 -1.7401
 8694SOL    HW237542   3.638   3.971  16.394 -1.6368  3.9078  0.0019
 8695SOL     OW37543   2.785   0.530   1.836  0.3464 -0.1730 -0.0406
 8695SOL    HW137544   2.770   0.508   1.744  0.7597 -1.7437  0.2601
 8695SOL    HW237545   2.694   0.521   1.864 -0.3161  0.4549 -2.0236
 8696SOL     OW37546   1.743   4.199  11.574 -0.3381 -0.4237  0.3189
 8696SOL    HW137547   1.820   4.153  11.606  1.1259 -0.6940 -3.6432
 8696SOL    HW237548   1.787   4.282  11.554  1.1889 -1.5030 -0.7737
 8697SOL     OW37549   2.974   1.485  11.168 -0.2898  0.0726  0.0561
 8697SOL    HW137550   2.937   1.400  11.193  1.4064 -0.1549  1.7860
 8697SOL    HW237551   3.031   1.503  11.243 -0.5034  0.1514  0.1987
 8698SOL     OW37552   4.135   3.849   7.433 -0.1405  0.2416 -0.6999
 8698SOL    HW137553   4.147   3.909   7.359 -0.0041  2.5639  1.1988
 8698SOL    HW237554   4.127   3.761   7.395 -1.0577 -0.0158  0.0875
 8699SOL     OW37555   1.346   3.139   5.867  0.4977 -0.1583  0.1338
 8699SOL    HW137556   1.317   3.048   5.862  1.2042 -0.2221 -2.8952
 8699SOL    HW237557   1.398   3.138   5.948 -0.1244 -3.2606  0.4684
 8700SOL     OW37558   3.736   2.208   8.591 -0.0484 -0.0033  0.2229
 8700SOL    HW137559   3.648   2.182   8.620  0.2550 -0.5677  0.6400
 8700SOL    HW237560   3.780   2.232   8.672 -2.2945  1.5280  0.9676
 8701SOL     OW37561   4.339   2.168   8.849  0.6775  0.3257 -0.1287
 8701SOL    HW137562   4.402   2.201   8.914  2.8823  0.5842 -2.3914
 8701SOL    HW237563   4.345   2.073   8.857 -0.0257  0.4767  2.2320
 8702SOL     OW37564   4.240   0.551  12.714 -0.2458  0.2983  0.2712
 8702SOL    HW137565   4.231   0.642  12.685 -0.0946  0.5224  0.9174
 8702SOL    HW237566   4.335   0.543  12.717 -0.2949 -0.9343 -1.5106
 8703SOL     OW37567   2.928   3.497   7.335  0.3667 -0.0571 -0.2150
 8703SOL    HW137568   2.843   3.541   7.342  1.5229  1.9680  0.9620
 8703SOL    HW237569   2.985   3.574   7.338  1.9282 -1.2374  0.2511
 8704SOL     OW37570   1.404   1.859   4.152  0.5186  0.1222  0.1108
 8704SOL    HW137571   1.318   1.893   4.127 -0.1527 -0.5149  1.5640
 8704SOL    HW237572   1.451   1.940   4.175 -1.8148  1.3322  0.5880
 8705SOL     OW37573   0.762   3.824   7.823 -0.4910  0.0622 -0.4062
 8705SOL    HW137574   0.684   3.838   7.876  0.1305 -0.4546  0.6569
 8705SOL    HW237575   0.756   3.884   7.749  0.8632  0.4461 -0.2107
 8706SOL     OW37576   4.401   4.538   7.114  0.4168  0.2565 -0.2834
 8706SOL    HW137577   4.322   4.585   7.087  0.0799  0.5099  1.1669
 8706SOL    HW237578   4.429   4.506   7.028  0.2645  1.9146 -0.9567
 8707SOL     OW37579   0.307   1.749   6.535 -0.0258 -0.0906  0.0480
 8707SOL    HW137580   0.236   1.696   6.571  0.6845 -2.0076 -1.4348
 8707SOL    HW237581   0.380   1.689   6.550 -1.7085 -2.0861  0.2410
 8708SOL     OW37582   4.396   4.626   8.601  0.4638  0.2250  0.8548
 8708SOL    HW137583   4.473   4.568   8.608 -0.8834 -1.8566 -1.6337
 8708SOL    HW237584   4.352   4.590   8.678  0.6349  0.4296  1.0488
 8709SOL     OW37585   3.186   3.327   7.019  0.4021  0.4235  0.4209
 8709SOL    HW137586   3.271   3.345   6.979  1.4590 -2.4482  1.4111
 8709SOL    HW237587   3.156   3.417   7.036 -0.4233  0.5134 -1.5332
 8710SOL     OW37588   3.641   3.265  11.331  0.1659 -0.3641 -0.2221
 8710SOL    HW137589   3.644   3.185  11.278  0.9226 -0.4539 -0.0404
 8710SOL    HW237590   3.547   3.270  11.350 -0.0091 -0.7207 -1.0017
 8711SOL     OW37591   4.699   4.418  17.579  0.4768  0.3143 -0.3479
 8711SOL    HW137592   4.670   4.448  17.666 -0.1407 -0.4401 -0.2911
 8711SOL    HW237593   4.622   4.375  17.544  0.9016 -0.5575 -0.2067
 8712SOL     OW37594   4.236   0.227   5.429  0.6825 -0.4127 -1.0188
 8712SOL    HW137595   4.287   0.278   5.367  0.4991  1.3883  0.3294
 8712SOL    HW237596   4.305   0.181   5.478  0.1878 -1.0403 -0.8995
 8713SOL     OW37597   2.020   0.965   8.046 -0.3600  0.0528 -0.1837
 8713SOL    HW137598   2.008   0.933   8.136  0.3072 -0.0552 -0.1365
 8713SOL    HW237599   1.994   0.899   7.983  0.5241 -1.7440  1.3305
 8714SOL     OW37600   2.735   4.053  10.516 -0.5335 -0.1591 -0.4416
 8714SOL    HW137601   2.760   4.023  10.428 -0.4146  2.1360 -1.1753
 8714SOL    HW237602   2.720   3.970  10.560  0.2471  0.4914  1.0530
 8715SOL     OW37603   1.855   4.137   1.574  0.3187 -0.2987 -0.0093
 8715SOL    HW137604   1.855   4.062   1.633 -0.5624 -0.8203 -0.6700
 8715SOL    HW237605   1.933   4.188   1.596  0.6779 -1.0901  0.5476
 8716SOL     OW37606   3.295   2.333   2.392  0.3269  0.2055  0.4447
 8716SOL    HW137607   3.382   2.370   2.375 -0.0774  0.3254 -1.3816
 8716SOL    HW237608   3.264   2.393   2.460  1.2013  1.1647  0.0050
 8717SOL     OW37609   1.644   3.877   1.580  0.9210 -0.4576  0.3976
 8717SOL    HW137610   1.707   3.869   1.508 -0.6586 -1.4992 -0.8494
 8717SOL    HW237611   1.675   3.812   1.644 -1.7220 -0.8453  1.2916
 8718SOL     OW37612   4.431   2.745  12.667 -0.4574  0.4996 -0.3861
 8718SOL    HW137613   4.425   2.781  12.756 -0.5431 -1.8651  0.5477
 8718SOL    HW237614   4.514   2.698  12.682  0.4222  1.9943 -0.5246
 8719SOL     OW37615   1.474   1.434   5.164  0.1386 -0.3241  0.4823
 8719SOL    HW137616   1.505   1.390   5.243  0.5344  1.8527  1.5408
 8719SOL    HW237617   1.412   1.371   5.127  0.2556  1.3766 -2.6329
 8720SOL     OW37618   2.003   4.055  10.296  0.2379 -0.0344  0.4794
 8720SOL    HW137619   1.922   4.067  10.246  1.4253  2.5802 -0.7965
 8720SOL    HW237620   2.061   4.110  10.244 -0.9773  1.8035  1.0626
 8721SOL     OW37621   2.432   3.448   0.385 -1.0614  0.3834  0.2932
 8721SOL    HW137622   2.470   3.505   0.452  0.5231 -0.4717  0.1245
 8721SOL    HW237623   2.355   3.413   0.431  0.1864 -1.8624  0.7023
 8722SOL     OW37624   4.098   2.041  15.566  0.1634 -0.0742 -0.0250
 8722SOL    HW137625   4.188   2.015  15.546  0.1762  0.7098 -0.9965
 8722SOL    HW237626   4.067   2.079  15.484  0.4412 -0.6239 -0.3788
 8723SOL     OW37627   2.304   2.541   4.947 -0.3213 -0.6538 -0.1244
 8723SOL    HW137628   2.247   2.479   4.903  0.4837  0.3205 -2.5864
 8723SOL    HW237629   2.261   2.558   5.031 -0.5161 -2.3573  0.1149
 8724SOL     OW37630   3.920   0.760   3.969  0.2071  0.6753  0.0808
 8724SOL    HW137631   3.834   0.719   3.969 -0.1035  1.3358 -1.4416
 8724SOL    HW237632   3.950   0.734   3.882  0.4090  0.4381  0.2225
 8725SOL     OW37633   0.157   2.960   7.117 -1.1664 -0.2924 -0.3679
 8725SOL    HW137634   0.111   2.877   7.126  0.1270 -0.9826 -0.0712
 8725SOL    HW237635   0.115   3.025   7.173  0.7951  1.2882 -0.7227
 8726SOL     OW37636   1.785   0.543   6.185  0.2173  0.2423  0.1771
 8726SOL    HW137637   1.829   0.626   6.203  0.2037 -0.0088  1.3957
 8726SOL    HW237638   1.708   0.565   6.133  0.3747 -0.1225 -0.2086
 8727SOL     OW37639   4.557   1.945   2.099 -0.4224  0.7270 -0.5614
 8727SOL    HW137640   4.476   1.928   2.147  0.3655 -2.5182 -0.3879
 8727SOL    HW237641   4.615   1.884   2.142 -1.6671 -1.0055 -1.3211
 8728SOL     OW37642   1.456   4.106  14.006 -0.1914 -0.1992 -0.0904
 8728SOL    HW137643   1.429   4.101  14.097  0.3327 -1.4017  0.0008
 8728SOL    HW237644   1.531   4.165  14.015 -1.3480  0.8184  2.8898
 8729SOL     OW37645   1.679   3.971   4.621 -0.0456  0.1290 -1.2847
 8729SOL    HW137646   1.751   3.960   4.559 -0.6084  0.8068 -2.0667
 8729SOL    HW237647   1.673   3.879   4.644 -1.3446  0.6589  0.4664
 8730SOL     OW37648   2.704   2.187  17.570  0.5848 -0.5590 -0.4213
 8730SOL    HW137649   2.676   2.097  17.587 -2.3568  0.3250 -0.6091
 8730SOL    HW237650   2.768   2.205  17.639 -0.7324 -1.3362  1.0163
 8731SOL     OW37651   3.857   0.875   7.693  0.4389 -0.3644 -0.9921
 8731SOL    HW137652   3.805   0.955   7.704  1.2459  0.0978 -0.5880
 8731SOL    HW237653   3.806   0.812   7.744  0.3445  0.8494  0.3932
 8732SOL     OW37654   0.415   3.884   3.679 -0.1812  0.0764  0.8847
 8732SOL    HW137655   0.345   3.820   3.668  0.2353 -0.2447  0.0502
 8732SOL    HW237656   0.411   3.944   3.604  3.5346 -0.1339  0.5119
 8733SOL     OW37657   1.589   2.170   8.478  0.2636 -0.2680  0.1434
 8733SOL    HW137658   1.494   2.159   8.484  0.4992 -2.3857 -0.2911
 8733SOL    HW237659   1.598   2.191   8.385  0.5916  2.1180  0.7066
 8734SOL     OW37660   0.057   1.841   5.241  0.1853 -0.2732  0.0517
 8734SOL    HW137661   0.071   1.750   5.212 -1.5073 -1.2974  2.4677
 8734SOL    HW237662   0.068   1.885   5.157 -0.2079 -1.7868 -0.7903
 8735SOL     OW37663   4.655   1.205   4.211  0.2256 -0.1641  0.5575
 8735SOL    HW137664   4.700   1.161   4.282  0.7165 -0.9887 -0.2668
 8735SOL    HW237665   4.609   1.137   4.162  0.4001  0.2355 -0.1751
 8736SOL     OW37666   3.334   3.493  10.530  0.4910 -0.1408 -0.3381
 8736SOL    HW137667   3.362   3.416  10.581 -0.8897  1.4815  2.8764
 8736SOL    HW237668   3.334   3.559  10.600 -3.9884 -0.3892 -0.1128
 8737SOL     OW37669   4.592   2.539   4.069 -0.0334  0.0136  0.8755
 8737SOL    HW137670   4.655   2.559   4.139 -0.8871 -0.3498  1.7388
 8737SOL    HW237671   4.530   2.611   4.073  0.1725  0.0885  2.8510
 8738SOL     OW37672   3.723   1.228   4.898 -0.7573 -0.0504 -0.8305
 8738SOL    HW137673   3.716   1.277   4.816 -0.4719  2.3520  0.5739
 8738SOL    HW237674   3.638   1.187   4.915 -0.5915 -1.2598 -2.8804
 8739SOL     OW37675   1.797   2.380  11.625  0.0908  0.5625 -0.3921
 8739SOL    HW137676   1.759   2.382  11.537 -0.9954  0.3000  0.0720
 8739SOL    HW237677   1.815   2.286  11.631  3.9472  1.4408  1.7357
 8740SOL     OW37678   0.412   1.424  11.968  0.2441  0.2083  0.5149
 8740SOL    HW137679   0.389   1.363  11.898 -0.3099  1.4610 -0.3958
 8740SOL    HW237680   0.436   1.357  12.031  0.6249 -0.5326 -0.4262
 8741SOL     OW37681   2.058   4.143   2.592 -0.2742 -0.1123 -0.2379
 8741SOL    HW137682   2.143   4.136   2.637  0.2935 -0.3721 -1.3463
 8741SOL    HW237683   2.079   4.119   2.501  2.0356  0.5898  0.0946
 8742SOL     OW37684   3.455   4.397  15.563 -0.2854  0.2015 -0.1804
 8742SOL    HW137685   3.539   4.357  15.584 -1.2741 -1.2289  1.0863
 8742SOL    HW237686   3.489   4.480  15.530  0.3538 -0.5481 -1.3965
 8743SOL     OW37687   4.022   3.090  10.988 -0.3470  0.4886 -0.6643
 8743SOL    HW137688   4.079   3.162  10.960 -0.0743 -0.0851 -1.5726
 8743SOL    HW237689   3.952   3.101  10.924 -1.6402  1.4999  0.9289
 8744SOL     OW37690   2.133   1.387   3.742  0.1455 -0.0751  0.2217
 8744SOL    HW137691   2.103   1.471   3.777 -2.0324 -1.1995  1.0395
 8744SOL    HW237692   2.069   1.328   3.781  2.0271 -1.2983  1.4266
 8745SOL     OW37693   1.017   0.363   5.270  0.3180 -0.2878 -0.1239
 8745SOL    HW137694   1.095   0.385   5.322 -0.9442  3.1871  0.2243
 8745SOL    HW237695   0.987   0.282   5.312 -0.4044 -0.1816 -0.4534
 8746SOL     OW37696   4.227   4.469  14.159  0.3266 -0.8564  0.4407
 8746SOL    HW137697   4.225   4.563  14.141 -0.4194 -0.5374  2.1285
 8746SOL    HW237698   4.306   4.447  14.109 -0.0003 -0.7569 -0.1158
 8747SOL     OW37699   4.650   0.607   2.216 -0.0638 -0.0808  0.0202
 8747SOL    HW137700   4.626   0.516   2.231  0.1168 -0.0787  0.3184
 8747SOL    HW237701   4.586   0.646   2.276 -0.2376  3.1567 -2.2292
 8748SOL     OW37702   4.655   3.986   4.427  0.6550 -0.1767 -0.4016
 8748SOL    HW137703   4.632   4.039   4.503 -0.8985 -2.1303  0.4844
 8748SOL    HW237704   0.026   3.980   4.443  0.6102 -2.9783 -1.1529
 8749SOL     OW37705   3.001   4.057   7.641 -0.2063  0.0880  0.3256
 8749SOL    HW137706   2.974   4.017   7.724  0.0636  0.2434  0.4883
 8749SOL    HW237707   2.916   4.068   7.597 -0.1869  1.6072  0.6702
 8750SOL     OW37708   1.194   1.352   8.705  0.0329  0.1361  0.1478
 8750SOL    HW137709   1.266   1.338   8.767  1.6313 -1.1595 -1.9718
 8750SOL    HW237710   1.125   1.304   8.750 -1.0293 -0.4302 -2.0496
 8751SOL     OW37711   0.354   2.140   6.170 -0.5521 -0.2117 -0.8032
 8751SOL    HW137712   0.350   2.128   6.075 -0.2728 -2.2887 -0.5557
 8751SOL    HW237713   0.321   2.054   6.196  0.9351 -0.3388  0.6368
 8752SOL     OW37714   2.610   2.552   5.097 -0.4392  0.3489  0.4360
 8752SOL    HW137715   2.542   2.500   5.054  1.1779  0.0391 -1.7813
 8752SOL    HW237716   2.636   2.618   5.034  1.2510 -1.5081 -0.8411
 8753SOL     OW37717   4.581   3.727  12.224  0.1587 -0.1454  0.1058
 8753SOL    HW137718   4.493   3.751  12.193  0.1109 -0.8001 -0.2668
 8753SOL    HW237719   4.559   3.661  12.290  2.4976  0.2530  1.2506
 8754SOL     OW37720   3.204   2.514   8.981 -0.2863 -0.5998 -0.0347
 8754SOL    HW137721   3.185   2.424   8.954  0.7106 -1.3635  1.7878
 8754SOL    HW237722   3.210   2.491   9.074 -3.2238 -0.2144  0.2458
 8755SOL     OW37723   4.448   0.147   2.495  0.8342 -0.4685 -0.4107
 8755SOL    HW137724   4.393   0.106   2.429  0.6290 -0.4578 -0.2474
 8755SOL    HW237725   4.410   0.122   2.580 -0.3801 -1.2632 -1.1972
 8756SOL     OW37726   1.709   0.273   6.368  0.3765 -0.0537  0.4220
 8756SOL    HW137727   1.712   0.196   6.312  0.6293 -0.4502  0.9885
 8756SOL    HW237728   1.731   0.348   6.312  1.6341  0.3184  1.4180
 8757SOL     OW37729   1.041   2.493   8.272 -0.0197  0.6625 -0.3594
 8757SOL    HW137730   1.042   2.398   8.283 -0.0234  0.4917 -1.7880
 8757SOL    HW237731   1.025   2.512   8.179  2.1263 -0.1763 -0.8987
 8758SOL     OW37732   3.492   4.424  12.835  0.1763  0.2563 -0.1147
 8758SOL    HW137733   3.417   4.484  12.841 -0.7897 -0.9521 -0.0650
 8758SOL    HW237734   3.560   4.482  12.801  0.1222 -0.2133 -0.9973
 8759SOL     OW37735   2.080   2.837   9.575 -0.2953 -0.1333 -0.4616
 8759SOL    HW137736   2.120   2.751   9.558  1.0866  0.5970 -0.9193
 8759SOL    HW237737   2.111   2.875   9.658  1.8092 -0.4778 -1.0901
 8760SOL     OW37738   1.827   2.999   4.861  0.3234  0.5031 -0.6112
 8760SOL    HW137739   1.765   3.016   4.790 -0.2454  0.1919 -0.1863
 8760SOL    HW237740   1.798   2.910   4.882  2.6895 -0.0851  0.1213
 8761SOL     OW37741   0.507   1.374   3.672 -0.5324 -0.0131  0.4347
 8761SOL    HW137742   0.457   1.451   3.700 -0.4678 -0.1177  0.8452
 8761SOL    HW237743   0.586   1.389   3.725  1.8727 -1.0446 -2.8800
 8762SOL     OW37744   0.540   4.242   4.536 -0.1750  0.1573  0.4140
 8762SOL    HW137745   0.475   4.310   4.519  0.4620  0.1914 -1.8197
 8762SOL    HW237746   0.617   4.296   4.550  0.1985 -0.4174  0.6016
 8763SOL     OW37747   2.731   2.590   5.900  0.2320  0.4729  0.2180
 8763SOL    HW137748   2.687   2.542   5.970  0.0054 -0.8434 -0.8363
 8763SOL    HW237749   2.816   2.618   5.936 -0.8039  1.0749  2.1948
 8764SOL     OW37750   1.032   3.775  15.274  0.0891 -0.2605  0.8611
 8764SOL    HW137751   0.980   3.782  15.194  0.6290 -0.6741  0.4739
 8764SOL    HW237752   0.978   3.714  15.323 -1.6146  0.4920 -0.0823
 8765SOL     OW37753   0.209   2.664   4.719 -0.2760 -0.4233  0.4179
 8765SOL    HW137754   0.260   2.713   4.655  1.0025 -1.3144  0.7580
 8765SOL    HW237755   0.190   2.585   4.670 -0.7718 -0.0936  0.0711
 8766SOL     OW37756   0.396   1.550   8.660 -0.0824  0.3218  0.3843
 8766SOL    HW137757   0.319   1.566   8.715 -1.1975 -1.1201 -0.7447
 8766SOL    HW237758   0.390   1.463   8.620 -4.1105  1.3070 -1.1501
 8767SOL     OW37759   3.718   1.853   9.898 -0.0810 -0.2796 -0.0240
 8767SOL    HW137760   3.730   1.885   9.988  2.1027 -1.7379  0.1992
 8767SOL    HW237761   3.705   1.759   9.907  1.5819 -0.5328 -0.3416
 8768SOL     OW37762   2.153   0.206   9.459 -0.3548  0.0774 -0.1355
 8768SOL    HW137763   2.082   0.241   9.406 -0.1598  0.5874 -0.0565
 8768SOL    HW237764   2.225   0.215   9.397  0.7687 -1.8852  0.8838
 8769SOL     OW37765   3.044   2.135  16.182 -0.6706  0.3475 -0.8165
 8769SOL    HW137766   3.132   2.157  16.149 -0.1893 -0.5038 -0.1043
 8769SOL    HW237767   3.053   2.092  16.267 -3.5635  1.6113  0.1326
 8770SOL     OW37768   4.244   3.905   6.447  0.2767  0.3492 -0.1363
 8770SOL    HW137769   4.280   3.900   6.535 -0.1688  1.1110  0.0912
 8770SOL    HW237770   4.302   3.974   6.415  0.3567 -0.0461 -0.8596
 8771SOL     OW37771   0.429   1.978   3.151 -0.3016  0.4590  0.1074
 8771SOL    HW137772   0.378   1.921   3.208 -2.4938  0.9148 -1.4131
 8771SOL    HW237773   0.446   1.912   3.084  1.1980  0.0229  0.9123
 8772SOL     OW37774   1.711   2.748   2.224 -0.7257 -0.2768  0.1761
 8772SOL    HW137775   1.735   2.693   2.150  0.7802 -0.2942  0.6689
 8772SOL    HW237776   1.663   2.815   2.175 -0.8122 -1.0229 -0.7525
 8773SOL     OW37777   1.792   1.744   8.434 -0.0731  0.7559  0.1043
 8773SOL    HW137778   1.725   1.778   8.492 -0.2355  2.4765 -1.0890
 8773SOL    HW237779   1.746   1.771   8.355 -0.8014 -1.2235 -0.1339
 8774SOL     OW37780   4.024   3.883   6.322 -0.0952  0.2476 -0.4033
 8774SOL    HW137781   4.101   3.891   6.377 -1.2798  0.7829  1.1717
 8774SOL    HW237782   3.986   3.962   6.361  0.3204 -1.1020  2.7268
 8775SOL     OW37783   3.676   4.140   5.920  0.1057  0.0344  0.5023
 8775SOL    HW137784   3.757   4.148   5.869  1.1448 -3.9153  1.5764
 8775SOL    HW237785   3.637   4.063   5.879 -0.4290 -0.1932  1.4567
 8776SOL     OW37786   0.726   1.903   4.880  0.1079 -0.4429  0.3028
 8776SOL    HW137787   0.691   1.827   4.927  1.8770 -0.7633  1.1029
 8776SOL    HW237788   0.727   1.867   4.791  0.5269  0.0472  0.1092
 8777SOL     OW37789   1.152   2.090   6.824 -0.2997 -0.0391  0.2410
 8777SOL    HW137790   1.090   2.040   6.876  1.5007  0.7336  3.1307
 8777SOL    HW237791   1.145   2.172   6.873  1.3016  0.5654 -0.5437
 8778SOL     OW37792   2.936   2.549   3.114  0.0345  0.4151  0.6782
 8778SOL    HW137793   2.873   2.621   3.112 -0.0394  0.2976 -1.8686
 8778SOL    HW237794   2.895   2.487   3.174 -1.5954 -0.1039 -0.9519
 8779SOL     OW37795   0.323   0.047   2.420  0.0221 -0.3049 -0.6139
 8779SOL    HW137796   0.351   4.687   2.381 -2.8172 -1.8661  0.6586
 8779SOL    HW237797   0.229   0.031   2.425 -0.4309  1.7009 -3.0735
 8780SOL     OW37798   0.472   2.104   9.605 -0.2370  0.5272  0.4969
 8780SOL    HW137799   0.518   2.059   9.534  1.3932  0.1117  1.8272
 8780SOL    HW237800   0.532   2.082   9.676  0.2935 -1.1318 -0.4564
 8781SOL     OW37801   3.237   2.338   1.647  0.2396 -0.2344 -0.5400
 8781SOL    HW137802   3.214   2.427   1.618  1.3648  0.1060 -0.3867
 8781SOL    HW237803   3.161   2.323   1.702  0.7984 -3.0632 -0.5658
 8782SOL     OW37804   1.172   2.571   0.787 -0.6740 -0.3405  0.2768
 8782SOL    HW137805   1.208   2.633   0.851  0.7031 -0.4086 -0.4230
 8782SOL    HW237806   1.140   2.631   0.721 -1.0745 -0.7687  0.0801
 8783SOL     OW37807   2.554   0.207   4.119  0.2904 -0.6914  0.3891
 8783SOL    HW137808   2.484   0.149   4.148 -0.8017 -0.9405 -2.7810
 8783SOL    HW237809   2.542   0.195   4.025  0.2249 -1.7747  0.5326
 8784SOL     OW37810   0.015   0.783   9.174 -0.2076  0.7921  0.3556
 8784SOL    HW137811   0.073   0.762   9.247  0.4625  0.4440 -0.2812
 8784SOL    HW237812   0.032   0.709   9.115 -4.6986  0.4197 -0.5168
 8785SOL     OW37813   4.628   3.356   3.998  0.4805 -0.5099 -0.8859
 8785SOL    HW137814   4.683   3.317   3.931  2.4520 -0.7798  0.8701
 8785SOL    HW237815   4.696   3.393   4.055 -2.1136 -0.3098  2.1072
 8786SOL     OW37816   4.482   1.861   1.686  0.6070 -0.3006  0.5579
 8786SOL    HW137817   4.517   1.892   1.603 -1.0937 -0.7947 -0.3449
 8786SOL    HW237818   4.541   1.785   1.689  2.2910  0.9738 -0.4758
 8787SOL     OW37819   1.494   0.294   3.799  0.3180  0.1655  0.0366
 8787SOL    HW137820   1.494   0.198   3.809 -0.8030  0.3059  1.3968
 8787SOL    HW237821   1.457   0.315   3.884  1.5941  1.8277  0.1880
 8788SOL     OW37822   0.616   3.900  10.480 -0.3550 -0.2976 -0.4324
 8788SOL    HW137823   0.592   3.808  10.489  0.7790 -0.4979  0.4846
 8788SOL    HW237824   0.685   3.899  10.413  0.0699  0.8452  0.0006
 8789SOL     OW37825   0.361   0.497  15.124  0.6744  0.6304 -0.0815
 8789SOL    HW137826   0.312   0.550  15.188  1.3808 -0.5544  1.4401
 8789SOL    HW237827   0.328   0.541  15.046  2.0546  0.9445 -0.4770
 8790SOL     OW37828   0.728   0.642  17.677  0.7352 -1.1195  0.0629
 8790SOL    HW137829   0.774   0.716  17.638 -0.1713  0.0940  1.3157
 8790SOL    HW237830   0.732   0.575  17.608  1.4107 -0.3214 -0.6661
 8791SOL     OW37831   4.321   0.607  13.288  0.0930 -0.3535  0.9994
 8791SOL    HW137832   4.280   0.693  13.293  1.9942  0.5589  0.8004
 8791SOL    HW237833   4.413   0.632  13.276  0.5410 -2.2869  0.3770
 8792SOL     OW37834   1.178   2.029   1.865 -0.3111 -0.8068 -0.1519
 8792SOL    HW137835   1.196   2.080   1.943 -0.7848 -1.6613  0.5164
 8792SOL    HW237836   1.229   1.951   1.886  1.3663  0.6277  0.9730
 8793SOL     OW37837   0.757   2.156   3.336 -0.0722  0.2945  0.4036
 8793SOL    HW137838   0.709   2.086   3.380  0.5731  1.1388  2.4225
 8793SOL    HW237839   0.701   2.169   3.259  1.5622  1.8360 -0.5073
 8794SOL     OW37840   4.057   3.653  12.195 -0.6416  0.1641  0.0235
 8794SOL    HW137841   4.031   3.614  12.111  2.0973 -2.1131  0.2326
 8794SOL    HW237842   4.143   3.612  12.193  0.6187  2.9503 -4.4676
 8795SOL     OW37843   2.003   0.066   1.297 -0.7341 -0.5715 -0.6222
 8795SOL    HW137844   1.997   0.103   1.209  0.3681 -1.4289 -1.0626
 8795SOL    HW237845   2.092   0.078   1.330 -0.5125 -0.6223 -1.1976
 8796SOL     OW37846   2.116   0.394   6.176 -0.4511 -0.0020  0.0951
 8796SOL    HW137847   2.054   0.357   6.113  0.4868 -0.2197 -0.7054
 8796SOL    HW237848   2.074   0.368   6.258 -0.2041 -1.5358 -0.2777
 8797SOL     OW37849   0.365   2.295  12.694 -0.1668 -0.0095 -0.5467
 8797SOL    HW137850   0.322   2.212  12.713 -0.7682  0.3279 -0.4213
 8797SOL    HW237851   0.284   2.345  12.694 -1.8403 -2.7044 -1.3063
 8798SOL     OW37852   1.708   3.167   8.978 -0.1903  0.0633 -0.2459
 8798SOL    HW137853   1.796   3.149   9.012  0.5705  2.1211 -1.1317
 8798SOL    HW237854   1.671   3.223   9.046 -2.9397 -1.5107 -0.4424
 8799SOL     OW37855   2.742   2.612   4.428  0.7396  0.0632  0.1835
 8799SOL    HW137856   2.782   2.529   4.401  0.6615 -0.1140  0.6048
 8799SOL    HW237857   2.662   2.604   4.377 -0.3977  0.4252  1.8888
 8800SOL     OW37858   0.184   1.593   7.485 -0.1200 -0.1103  0.3284
 8800SOL    HW137859   0.213   1.550   7.565 -1.5044 -4.3567 -1.4639
 8800SOL    HW237860   0.097   1.622   7.511 -0.2185 -2.0130  2.1174
 8801SOL     OW37861   0.612   2.396   5.423  0.5150  0.2408 -0.1437
 8801SOL    HW137862   0.675   2.467   5.417 -0.7570  1.4316  0.3921
 8801SOL    HW237863   0.534   2.428   5.377  0.3400 -1.1532 -0.8143
 8802SOL     OW37864   3.790   3.891  14.716  0.0765 -0.3778 -0.1126
 8802SOL    HW137865   3.732   3.951  14.669  0.7805  0.3861 -0.0026
 8802SOL    HW237866   3.818   3.841  14.639 -3.2573 -0.2609 -1.4023
 8803SOL     OW37867   2.326   2.259   4.347  0.5275 -0.1833  0.3788
 8803SOL    HW137868   2.260   2.197   4.376 -2.0474  2.3668 -0.0584
 8803SOL    HW237869   2.357   2.200   4.277 -0.4882  0.8749 -0.9717
 8804SOL     OW37870   0.342   2.203  11.664 -0.5689  0.5042 -0.0639
 8804SOL    HW137871   0.267   2.216  11.721 -1.2127 -0.7872 -0.6206
 8804SOL    HW237872   0.337   2.280  11.607  0.7646  0.1964 -0.6211
 8805SOL     OW37873   4.225   4.643  13.243 -0.1141  0.1021  0.1050
 8805SOL    HW137874   4.283   4.595  13.184  1.4397 -0.8385  2.4007
 8805SOL    HW237875   4.172   4.571  13.278 -0.3471 -0.2588 -0.9927
 8806SOL     OW37876   3.800   0.611   6.703 -0.0782 -0.3453 -0.6057
 8806SOL    HW137877   3.773   0.644   6.788  0.6190 -0.4991 -0.3255
 8806SOL    HW237878   3.827   0.521   6.725 -0.0394 -0.4832 -1.2246
 8807SOL     OW37879   2.891   1.938   2.757  0.1560 -0.0159  0.0831
 8807SOL    HW137880   2.842   1.857   2.746 -0.4306  0.4630 -0.8556
 8807SOL    HW237881   2.894   1.940   2.853 -2.6884 -1.6920  0.2202
 8808SOL     OW37882   2.273   1.514   2.316 -0.0048 -0.2054 -0.3859
 8808SOL    HW137883   2.244   1.592   2.268 -0.7868 -2.0855 -2.9721
 8808SOL    HW237884   2.363   1.529   2.345  0.3302 -0.6498 -1.1978
 8809SOL     OW37885   0.832   2.246  16.665  0.3774 -0.2224  0.2053
 8809SOL    HW137886   0.881   2.326  16.685  0.4675 -0.1715 -0.2203
 8809SOL    HW237887   0.850   2.235  16.571 -0.0981 -0.9142  0.1979
 8810SOL     OW37888   0.632   4.043   7.326 -0.1239 -0.2677 -0.1822
 8810SOL    HW137889   0.563   4.000   7.276 -1.7465  1.7569  0.3385
 8810SOL    HW237890   0.674   4.099   7.261  1.7918  0.0611  1.3341
 8811SOL     OW37891   1.928   2.407   7.332 -0.5191  0.2875  0.2300
 8811SOL    HW137892   1.872   2.343   7.376  1.4742 -0.2896  1.9182
 8811SOL    HW237893   1.906   2.479   7.391 -2.2949 -0.3549  0.3491
 8812SOL     OW37894   3.263   3.582  16.046 -0.1105 -0.4956 -0.2150
 8812SOL    HW137895   3.313   3.662  16.063 -1.6530  0.4547 -0.2373
 8812SOL    HW237896   3.224   3.576  16.133 -0.1502 -2.1109 -0.3358
 8813SOL     OW37897   1.434   2.852   8.686 -0.4970  0.0141 -0.0983
 8813SOL    HW137898   1.405   2.918   8.749  0.7066  0.4687 -0.0098
 8813SOL    HW237899   1.442   2.908   8.609 -1.0759  2.5592  1.6703
 8814SOL     OW37900   4.613   0.459   2.613 -0.0988  0.5873 -0.2218
 8814SOL    HW137901   4.680   0.451   2.682 -0.8717  1.2733  0.5948
 8814SOL    HW237902   4.669   0.447   2.536 -0.2980  1.6351 -0.5204
 8815SOL     OW37903   0.902   0.584  10.077  0.1197  0.2572  0.0727
 8815SOL    HW137904   0.894   0.489  10.068  2.2745  0.1178 -0.2723
 8815SOL    HW237905   0.816   0.615  10.107 -0.1959  0.0193 -0.5874
 8816SOL     OW37906   4.662   2.850   5.265  0.2808  0.0040 -0.2461
 8816SOL    HW137907   4.670   2.896   5.349  1.3209  2.0732 -1.4721
 8816SOL    HW237908   4.583   2.800   5.285  0.6761 -1.3189 -1.9562
 8817SOL     OW37909   4.434   4.095  12.669  0.1324 -0.4143 -0.4956
 8817SOL    HW137910   4.342   4.100  12.694  0.5230 -0.6951  1.0436
 8817SOL    HW237911   4.468   4.092  12.759 -1.1512  0.9649  0.0281
 8818SOL     OW37912   4.241   0.502   6.785 -0.1094 -0.6252 -0.2908
 8818SOL    HW137913   4.327   0.531   6.816 -1.0751  0.5372  1.3085
 8818SOL    HW237914   4.188   0.498   6.864  1.2463 -2.6670  0.5423
 8819SOL     OW37915   1.302   1.134   4.467  0.2738  0.1977 -0.1053
 8819SOL    HW137916   1.331   1.094   4.384  1.0319 -3.1978  1.7701
 8819SOL    HW237917   1.348   1.217   4.459  0.0521  0.1455 -1.8243
 8820SOL     OW37918   4.051   0.470   2.892  0.0726 -0.0560 -0.1532
 8820SOL    HW137919   3.956   0.477   2.899  0.1843  1.9969 -0.5752
 8820SOL    HW237920   4.077   0.558   2.917  0.8614 -0.7525  1.4544
 8821SOL     OW37921   3.489   1.194   1.909 -0.0531 -0.1055 -0.1696
 8821SOL    HW137922   3.466   1.106   1.937  1.3139 -1.7944 -4.2429
 8821SOL    HW237923   3.585   1.191   1.904 -0.0130  1.6459 -0.6180
 8822SOL     OW37924   4.222   2.098   3.914  0.1037 -0.3098 -0.7157
 8822SOL    HW137925   4.168   2.176   3.924 -0.2329 -0.4933 -1.0861
 8822SOL    HW237926   4.173   2.028   3.956 -0.5191 -0.6403 -1.9734
 8823SOL     OW37927   4.060   0.762   0.466 -0.3050  0.5964  0.2847
 8823SOL    HW137928   4.038   0.737   0.555 -0.3635 -1.3344 -0.2914
 8823SOL    HW237929   4.050   0.674   0.431  0.2422 -0.3515  2.5179
 8824SOL     OW37930   1.127   3.913  16.314 -0.0396  0.1684  0.3963
 8824SOL    HW137931   1.165   3.990  16.271 -1.0242  0.1803 -0.4473
 8824SOL    HW237932   1.035   3.936  16.326  0.5741  2.1989  1.2626
 8825SOL     OW37933   2.694   4.619   7.033 -0.2319  0.2288  0.3707
 8825SOL    HW137934   2.637   4.694   7.052  0.3901  0.6538  0.5394
 8825SOL    HW237935   2.737   4.657   6.956  1.9978 -1.8769  0.5631
 8826SOL     OW37936   4.031   1.521  12.616  0.3787  0.2195  0.1215
 8826SOL    HW137937   4.103   1.476  12.660  0.3035  0.1188  0.1414
 8826SOL    HW237938   4.051   1.518  12.522 -0.3359 -2.2074  0.0357
 8827SOL     OW37939   0.147   1.107   7.768  0.8235  0.0826 -0.0124
 8827SOL    HW137940   0.226   1.090   7.820  1.6948  1.7802 -0.7814
 8827SOL    HW237941   0.084   1.137   7.834 -0.2924 -0.3457 -0.8787
 8828SOL     OW37942   2.627   0.955  10.112 -0.1832 -0.5074 -0.0116
 8828SOL    HW137943   2.541   0.984  10.143 -0.3028 -0.9634  0.0748
 8828SOL    HW237944   2.681   1.021  10.156 -1.2224 -0.6890  1.5331
 8829SOL     OW37945   4.067   4.386   4.433  0.7143 -0.8339 -0.4497
 8829SOL    HW137946   4.143   4.366   4.486  0.0959 -3.6437 -0.6367
 8829SOL    HW237947   3.996   4.342   4.480 -0.3157  1.0013 -0.2459
 8830SOL     OW37948   1.471   3.920   4.264 -0.3606 -0.1271 -0.3342
 8830SOL    HW137949   1.478   3.929   4.169 -1.6763  1.0520 -0.3139
 8830SOL    HW237950   1.535   3.852   4.284  0.3736  0.4344 -0.7799
 8831SOL     OW37951   2.262   1.993   3.678  0.1417  0.0094  0.3744
 8831SOL    HW137952   2.212   1.918   3.646 -0.7640  1.2338 -1.0427
 8831SOL    HW237953   2.297   2.035   3.600  0.7905 -1.1396  0.0533
 8832SOL     OW37954   0.681   3.317   8.615  0.4960 -0.3672  0.5423
 8832SOL    HW137955   0.666   3.382   8.684 -2.3654 -0.3073 -0.1145
 8832SOL    HW237956   0.717   3.250   8.673  0.4392  0.2635  1.3079
 8833SOL     OW37957   2.949   3.813   6.352 -0.4434  0.4228 -0.1777
 8833SOL    HW137958   2.913   3.755   6.420  2.4566 -1.0307  0.0942
 8833SOL    HW237959   2.938   3.896   6.397  1.3961  0.1339  0.7964
 8834SOL     OW37960   3.219   2.545  10.195 -0.4981  0.4933  0.2424
 8834SOL    HW137961   3.306   2.552  10.157 -1.8854  0.4063 -2.9769
 8834SOL    HW237962   3.246   2.485  10.264 -1.0881 -2.7407 -2.2870
 8835SOL     OW37963   4.258   4.222  10.546  0.4940  0.2241  0.2539
 8835SOL    HW137964   4.290   4.300  10.501 -0.0512  0.1409 -0.2764
 8835SOL    HW237965   4.171   4.205  10.509  1.5971 -1.3397 -1.6208
 8836SOL     OW37966   0.242   0.838  16.650 -0.0467 -0.9930  0.2241
 8836SOL    HW137967   0.212   0.783  16.577 -0.1065  1.2443 -1.4198
 8836SOL    HW237968   0.321   0.879  16.615 -0.1218  0.4127  1.7226
 8837SOL     OW37969   1.582   1.166   3.853  0.0896  0.4528  0.1164
 8837SOL    HW137970   1.536   1.240   3.813 -0.9552  0.3464  1.0934
 8837SOL    HW237971   1.542   1.157   3.940  1.3810  1.1671  0.7807
 8838SOL     OW37972   0.093   3.337  10.924 -0.6169 -0.3743  0.1916
 8838SOL    HW137973   0.160   3.325  10.990  0.7643  1.2140 -0.9306
 8838SOL    HW237974   0.050   3.416  10.957  0.9804  1.5959 -2.4236
 8839SOL     OW37975   2.024   0.715  11.031 -0.2780 -1.0391  0.2409
 8839SOL    HW137976   2.093   0.681  11.089  0.6635 -1.2198 -0.9860
 8839SOL    HW237977   2.058   0.803  11.015  1.7469 -1.8232  0.2760
 8840SOL     OW37978   4.551   1.316   2.415 -0.0156  0.1635 -0.1427
 8840SOL    HW137979   4.499   1.263   2.475 -0.2430  0.7546  0.1939
 8840SOL    HW237980   4.500   1.323   2.335  0.3318  0.0780 -0.3697
 8841SOL     OW37981   3.744   2.150  12.119 -0.6315 -0.1278  0.5030
 8841SOL    HW137982   3.725   2.242  12.104  1.1781  0.3546  1.1396
 8841SOL    HW237983   3.746   2.150  12.215  0.0074 -2.2998  0.4953
 8842SOL     OW37984   4.159   3.138   0.820  0.2406 -0.2734 -0.0519
 8842SOL    HW137985   4.180   3.230   0.804 -2.0983  0.4974  1.2766
 8842SOL    HW237986   4.074   3.150   0.862  1.0377 -1.4202  1.9322
 8843SOL     OW37987   0.089   4.430  11.168  0.0054  0.0550 -0.1907
 8843SOL    HW137988   0.085   4.474  11.253  1.2316  0.9992 -0.6304
 8843SOL    HW237989   0.005   4.384  11.166 -1.0315  1.8516  1.2685
 8844SOL     OW37990   2.239   1.286   8.273  0.2415  0.2502 -0.6690
 8844SOL    HW137991   2.240   1.196   8.306  2.6295  0.6973  0.4573
 8844SOL    HW237992   2.322   1.315   8.308 -1.5730  1.2666  2.7452
 8845SOL     OW37993   1.985   0.339   9.295  0.4580  0.1643 -0.0063
 8845SOL    HW137994   1.923   0.266   9.305  1.0373 -0.2332  0.7310
 8845SOL    HW237995   1.924   0.411   9.309 -0.0950 -0.3380  0.1628
 8846SOL     OW37996   2.008   3.115   4.432  0.5178  0.1687 -0.1018
 8846SOL    HW137997   2.070   3.073   4.492 -0.2671 -1.5481 -0.5162
 8846SOL    HW237998   1.936   3.054   4.447  0.3820  0.4394  0.3551
 8847SOL     OW37999   3.564   1.848   4.616  0.2533  0.5008  0.0760
 8847SOL    HW138000   3.579   1.942   4.624 -1.1393  0.5223  2.3319
 8847SOL    HW238001   3.530   1.833   4.704  1.9538 -0.3469  0.5892
 8848SOL     OW38002   2.314   1.245   5.327  0.2688 -0.4310  0.5199
 8848SOL    HW138003   2.231   1.210   5.358 -0.0615 -0.7636 -0.7334
 8848SOL    HW238004   2.283   1.296   5.251  1.0414 -0.0398  0.4661
 8849SOL     OW38005   4.073   1.907   4.008 -0.5270  0.2389  0.5087
 8849SOL    HW138006   4.045   1.934   4.096  0.0692 -1.7236  1.2974
 8849SOL    HW238007   4.062   1.812   4.019  1.4748 -0.1286 -0.7811
 8850SOL     OW38008   0.779   1.303   4.252 -0.6859  0.0598 -0.0705
 8850SOL    HW138009   0.715   1.343   4.193 -0.1198 -2.0422 -2.1596
 8850SOL    HW238010   0.821   1.246   4.187  0.0511  0.7639 -0.2072
 8851SOL     OW38011   4.057   2.087   3.429  0.1529 -0.0116 -0.1653
 8851SOL    HW138012   4.077   2.125   3.515  2.1026  0.6712 -0.9356
 8851SOL    HW238013   4.103   2.152   3.377 -0.7118 -0.5860 -1.6427
 8852SOL     OW38014   4.700   2.324   3.208 -0.4671 -0.2621 -0.1561
 8852SOL    HW138015   0.026   2.260   3.157 -2.0978 -0.8283 -1.0099
 8852SOL    HW238016   4.610   2.329   3.177 -1.0102  0.9540  1.5675
 8853SOL     OW38017   3.625   2.158   3.011  0.6159 -0.2027  0.0733
 8853SOL    HW138018   3.640   2.134   2.919 -0.0469  0.6176 -0.2542
 8853SOL    HW238019   3.671   2.088   3.057  1.5042 -0.7519 -1.6270
 8854SOL     OW38020   4.412   0.134   4.021  0.1070  0.0371  0.1626
 8854SOL    HW138021   4.457   0.050   4.028  0.9109  0.6262  2.0619
 8854SOL    HW238022   4.467   0.184   4.080  2.0811 -1.3892 -0.4851
 8855SOL     OW38023   3.233   2.307   6.000  0.1378 -0.2144  0.2757
 8855SOL    HW138024   3.173   2.253   6.052  1.8033  0.0252  2.4465
 8855SOL    HW238025   3.208   2.289   5.909 -0.1469  1.1083  0.0902
 8856SOL     OW38026   3.466   2.166   7.805 -0.1876 -0.5084  0.1316
 8856SOL    HW138027   3.482   2.161   7.711 -2.1469 -4.7356  0.0390
 8856SOL    HW238028   3.419   2.084   7.820  0.6234 -0.9078  0.5121
 8857SOL     OW38029   4.248   0.845   8.389 -0.0201  0.2054 -0.1542
 8857SOL    HW138030   4.243   0.881   8.301  0.0650  1.8381  0.5195
 8857SOL    HW238031   4.199   0.904   8.446  0.1542  1.4770 -1.3277
 8858SOL     OW38032   3.050   1.422   2.678 -0.2852 -0.0531  0.5300
 8858SOL    HW138033   3.104   1.500   2.668  0.7724 -1.0397 -1.3479
 8858SOL    HW238034   3.028   1.405   2.586  1.5731 -0.0096  0.0875
 8859SOL     OW38035   1.974   3.956  15.980 -1.0208  0.4313  0.4487
 8859SOL    HW138036   1.912   3.995  16.040  0.4551 -0.3008  2.4465
 8859SOL    HW238037   1.955   3.862  15.989  0.7211  0.2248  1.9327
 8860SOL     OW38038   4.420   1.681   9.364  0.1131 -0.0947  0.1882
 8860SOL    HW138039   4.348   1.625   9.393  2.0465 -2.2833  0.7938
 8860SOL    HW238040   4.433   1.741   9.437 -0.3261 -0.4558  0.5643
 8861SOL     OW38041   2.819   2.361   0.202  0.0771  0.6099  0.2794
 8861SOL    HW138042   2.890   2.304   0.174 -0.8210 -0.0045 -0.7737
 8861SOL    HW238043   2.763   2.305   0.256  2.0887  0.2145  1.9172
 8862SOL     OW38044   3.405   2.442   5.152  0.1050 -0.1493 -0.3807
 8862SOL    HW138045   3.447   2.419   5.235  0.9157  1.5489 -0.3203
 8862SOL    HW238046   3.449   2.526   5.151 -1.4555  0.6730 -0.4444
 8863SOL     OW38047   0.455   1.945  15.887  0.2859 -0.0274 -0.4511
 8863SOL    HW138048   0.424   1.910  15.803 -1.2317  3.2376 -1.2431
 8863SOL    HW238049   0.402   2.021  15.910 -1.0539  0.0581 -3.9139
 8864SOL     OW38050   2.014   1.815   5.703 -0.4457  0.8264  0.6210
 8864SOL    HW138051   1.923   1.801   5.679 -0.3167 -0.4035  0.8438
 8864SOL    HW238052   2.035   1.896   5.656  1.6921 -0.1207 -0.0661
 8865SOL     OW38053   4.117   3.176  11.888 -0.1712 -0.2512 -0.0141
 8865SOL    HW138054   4.154   3.113  11.949 -0.5484 -0.8233 -0.3804
 8865SOL    HW238055   4.024   3.182  11.911 -0.3874  1.8989 -1.4307
 8866SOL     OW38056   3.552   1.775  14.698  0.5991  0.2256  0.1845
 8866SOL    HW138057   3.484   1.708  14.700  0.1296  0.7563  1.8367
 8866SOL    HW238058   3.533   1.811  14.784 -1.9746 -2.3457  0.6746
 8867SOL     OW38059   3.656   3.970  13.964  0.0553 -0.1484  0.4476
 8867SOL    HW138060   3.648   3.899  14.028 -1.7443 -0.6301 -0.2937
 8867SOL    HW238061   3.747   3.953  13.942 -0.1433  0.8925 -1.1264
 8868SOL     OW38062   2.459   0.696   7.647 -0.2356 -0.3560  0.3029
 8868SOL    HW138063   2.539   0.743   7.669 -0.4098  0.4795 -0.8046
 8868SOL    HW238064   2.435   0.662   7.733 -0.7093 -2.2346 -0.5790
 8869SOL     OW38065   0.283   1.509   5.452  0.4850 -0.2298 -0.1393
 8869SOL    HW138066   0.304   1.491   5.361  0.9906  3.2652 -0.7071
 8869SOL    HW238067   0.286   1.605   5.450  2.7602 -0.2620  1.5933
 8870SOL     OW38068   4.541   2.899   3.499  0.0700  0.0156  1.1284
 8870SOL    HW138069   4.459   2.916   3.546 -0.3549 -2.6260  1.3299
 8870SOL    HW238070   4.606   2.894   3.568  0.7140  2.7569  0.7455
 8871SOL     OW38071   0.279   3.075   7.952 -0.0249 -0.7326  0.1127
 8871SOL    HW138072   0.292   3.069   8.047  3.5626 -0.6084 -0.3984
 8871SOL    HW238073   0.186   3.054   7.944 -0.0259 -0.7812  0.2462
 8872SOL     OW38074   0.783   1.110   4.656  0.4514  0.0768  0.2428
 8872SOL    HW138075   0.870   1.145   4.636  1.0842 -0.2114  2.4938
 8872SOL    HW238076   0.733   1.142   4.581 -0.1145 -0.3706  0.4355
 8873SOL     OW38077   0.278   2.564  16.701  0.0605  0.0849  0.1597
 8873SOL    HW138078   0.305   2.653  16.681  1.3431 -0.4759 -0.5816
 8873SOL    HW238079   0.272   2.534  16.610  2.7123  2.9402 -0.9307
 8874SOL     OW38080   1.177   0.990   0.638 -0.5450 -0.2111  0.2015
 8874SOL    HW138081   1.182   1.079   0.602 -1.2940 -0.0562  0.4865
 8874SOL    HW238082   1.171   0.934   0.561  0.1046 -1.4198  1.0309
 8875SOL     OW38083   3.810   4.255   6.551  0.6776 -0.1076 -0.4764
 8875SOL    HW138084   3.820   4.348   6.531  2.1283 -0.0554  0.4077
 8875SOL    HW238085   3.722   4.233   6.522  0.8065  0.1451 -1.0503
 8876SOL     OW38086   2.243   4.424   6.564  0.1827  0.0361  0.4272
 8876SOL    HW138087   2.307   4.411   6.494 -1.2013 -0.1399 -0.8129
 8876SOL    HW238088   2.205   4.336   6.573 -2.4622  1.0871 -0.2817
 8877SOL     OW38089   1.458   3.091  10.623  0.1371  0.0619 -0.4269
 8877SOL    HW138090   1.481   3.022  10.686 -1.5097  2.0335  2.3312
 8877SOL    HW238091   1.535   3.145  10.640  1.2259 -0.9157 -2.2700
 8878SOL     OW38092   4.358   0.663  10.040 -0.3505  0.2252  0.0442
 8878SOL    HW138093   4.372   0.584   9.988 -0.4505 -0.8589  1.6689
 8878SOL    HW238094   4.264   0.676  10.027 -0.1189  1.9964  0.0893
 8879SOL     OW38095   3.915   0.351   3.791  0.2366 -0.1759 -0.1309
 8879SOL    HW138096   3.896   0.258   3.780 -0.7878  0.0784 -0.4518
 8879SOL    HW238097   3.870   0.377   3.711 -1.1208  0.2634  0.7753
 8880SOL     OW38098   0.664   0.500   7.219 -0.0163 -0.0064  0.5314
 8880SOL    HW138099   0.703   0.419   7.250 -1.9666 -1.8271 -1.7294
 8880SOL    HW238100   0.669   0.555   7.298 -0.3085 -0.1579  0.6559
 8881SOL     OW38101   4.271   2.850   1.325 -0.4787 -0.1836  0.6853
 8881SOL    HW138102   4.321   2.905   1.385  1.8865  0.9646 -2.3131
 8881SOL    HW238103   4.224   2.916   1.274 -0.1120  0.3692  1.0608
 8882SOL     OW38104   3.671   0.393  14.992 -0.1435 -0.3753 -0.2676
 8882SOL    HW138105   3.712   0.473  14.960  0.6585  0.5347  3.1043
 8882SOL    HW238106   3.604   0.424  15.053  2.0771 -1.3162  2.6320
 8883SOL     OW38107   1.776   3.636  17.022 -0.0522  0.4782  0.2136
 8883SOL    HW138108   1.692   3.629  17.067 -1.0641 -0.1002 -1.7559
 8883SOL    HW238109   1.765   3.569  16.954 -0.3968 -0.8062  1.5343
 8884SOL     OW38110   3.327   4.552   2.171  0.2074 -0.3830  0.0521
 8884SOL    HW138111   3.322   4.643   2.144  0.3701  0.4840  2.8689
 8884SOL    HW238112   3.262   4.516   2.111  1.2713  0.0028 -1.3389
 8885SOL     OW38113   2.454   2.451   8.329  0.8825 -0.7949  0.7064
 8885SOL    HW138114   2.458   2.540   8.296  1.2253 -0.7637  0.8305
 8885SOL    HW238115   2.398   2.465   8.406 -0.1429 -2.3332  0.2502
 8886SOL     OW38116   0.689   1.961   9.758 -0.1901  0.1382  0.2775
 8886SOL    HW138117   0.733   2.042   9.787 -1.7490  0.7402  0.9485
 8886SOL    HW238118   0.764   1.937   9.704  1.0836  2.0719  1.1734
 8887SOL     OW38119   1.621   2.621   8.705 -0.3572  0.4629 -0.0223
 8887SOL    HW138120   1.576   2.700   8.674  2.1216  0.9512 -2.3698
 8887SOL    HW238121   1.611   2.561   8.631  1.4540  1.3343 -0.9551
 8888SOL     OW38122   3.210   4.361   7.085  0.1496 -0.7955 -0.1294
 8888SOL    HW138123   3.241   4.347   7.174  1.4249  0.3235 -0.3979
 8888SOL    HW238124   3.119   4.381   7.107  0.2659 -0.1198 -0.2717
 8889SOL     OW38125   1.375   2.064  11.519  0.5129  0.4091 -0.0685
 8889SOL    HW138126   1.317   2.112  11.459 -0.3985 -0.0259  0.4610
 8889SOL    HW238127   1.409   2.139  11.566 -1.0462  0.5343  0.8687
 8890SOL     OW38128   1.718   4.356   1.676  0.4390 -0.1553  0.5020
 8890SOL    HW138129   1.635   4.337   1.720 -0.9812  3.1375 -0.7599
 8890SOL    HW238130   1.740   4.266   1.652 -0.6913 -0.2039 -0.3503
 8891SOL     OW38131   0.537   1.052   0.342 -0.2743  0.1168  0.6528
 8891SOL    HW138132   0.507   1.097   0.263 -0.0120 -2.3403 -0.8204
 8891SOL    HW238133   0.602   1.115   0.374  0.9726 -0.7230 -0.2342
 8892SOL     OW38134   2.642   3.445   4.916 -0.2737 -0.4935  0.4124
 8892SOL    HW138135   2.627   3.537   4.936  0.1023 -0.4318  0.4056
 8892SOL    HW238136   2.578   3.434   4.845  1.2779 -0.6213 -0.9672
 8893SOL     OW38137   1.790   3.101   6.944  0.5534 -0.6499 -0.4304
 8893SOL    HW138138   1.704   3.123   6.909 -0.0105 -0.5785  0.9752
 8893SOL    HW238139   1.820   3.178   6.993 -1.0555 -0.3817  0.1389
 8894SOL     OW38140   4.647   3.759  16.834 -0.0642 -0.2787  0.1229
 8894SOL    HW138141   4.563   3.770  16.789 -0.9913 -2.5225  1.2454
 8894SOL    HW238142   4.710   3.779  16.766 -0.9499 -1.3959 -1.0270
 8895SOL     OW38143   0.598   0.477   5.790 -0.0117  0.0829  0.4090
 8895SOL    HW138144   0.550   0.558   5.805  0.1803  0.1092  0.9049
 8895SOL    HW238145   0.684   0.511   5.814  0.3195  1.9609 -3.4626
 8896SOL     OW38146   0.705   3.995   8.199  0.3897  0.1437 -0.2000
 8896SOL    HW138147   0.630   4.050   8.176  0.2087  0.0712  0.2222
 8896SOL    HW238148   0.659   3.912   8.211 -1.2896  1.2377  0.8866
 8897SOL     OW38149   0.252   1.491  11.569 -0.3510  0.0144  0.3415
 8897SOL    HW138150   0.225   1.461  11.483 -1.1624  1.5677  0.0400
 8897SOL    HW238151   0.317   1.425  11.592 -2.1360 -1.5052  0.9853
 8898SOL     OW38152   4.053   1.788   3.201  0.3720 -0.3034  0.1130
 8898SOL    HW138153   4.080   1.872   3.164 -0.5191 -0.2503 -0.3954
 8898SOL    HW238154   4.053   1.801   3.296  1.6215  1.9820 -0.1948
 8899SOL     OW38155   4.162   0.538  12.429  0.1879  0.4682 -0.3971
 8899SOL    HW138156   4.166   0.511  12.521 -0.5666 -0.5500 -0.6640
 8899SOL    HW238157   4.243   0.589  12.434  0.0245  0.9838 -2.7525
 8900SOL     OW38158   4.539   4.157  11.920  0.4726  0.0968  0.1038
 8900SOL    HW138159   4.579   4.217  11.983  0.2725 -0.9568  1.2309
 8900SOL    HW238160   4.473   4.217  11.885  0.3088 -0.6091 -0.7942
 8901SOL     OW38161   2.416   2.572   5.311  0.2620 -0.7061 -0.3402
 8901SOL    HW138162   2.472   2.650   5.310 -0.2205 -0.3597 -1.5777
 8901SOL    HW238163   2.479   2.501   5.320  1.1658  0.2060  0.5288
 8902SOL     OW38164   2.660   0.924   7.055  0.1032  0.1197  0.0965
 8902SOL    HW138165   2.696   0.915   7.143 -1.8909 -0.8067  0.8322
 8902SOL    HW238166   2.631   1.013   7.072 -1.7091 -0.7416  1.6205
 8903SOL     OW38167   3.410   0.314   4.325 -0.5854 -0.0996  0.0106
 8903SOL    HW138168   3.346   0.262   4.277 -1.8904  2.1456 -0.6799
 8903SOL    HW238169   3.354   0.389   4.343  0.7001  0.2823  2.3998
 8904SOL     OW38170   1.247   2.283   8.174 -0.1403 -0.2747  0.4444
 8904SOL    HW138171   1.258   2.375   8.152 -1.3742  0.0200  1.0731
 8904SOL    HW238172   1.299   2.296   8.253  0.5348 -0.2894  0.0010
 8905SOL     OW38173   2.409   4.637  16.126  0.4006 -0.3121 -0.1935
 8905SOL    HW138174   2.405   4.718  16.076 -0.6606 -0.7075 -0.7448
 8905SOL    HW238175   2.372   4.663  16.210 -0.9620 -0.5673 -0.7146
 8906SOL     OW38176   2.237   2.867  10.428  0.6887  0.3912 -0.6970
 8906SOL    HW138177   2.226   2.793  10.369  2.4502 -0.5573  0.1652
 8906SOL    HW238178   2.259   2.825  10.511  0.3828 -1.2869 -1.4771
 8907SOL     OW38179   3.658   2.691   6.024 -0.6639  0.4211  0.0616
 8907SOL    HW138180   3.574   2.714   5.984 -1.0457 -0.0689  0.5851
 8907SOL    HW238181   3.693   2.627   5.962 -3.5427 -1.1036 -0.0260
 8908SOL     OW38182   1.734   0.669  16.665 -0.1374 -0.0440 -0.4776
 8908SOL    HW138183   1.736   0.756  16.704  0.9019 -0.0289 -0.5720
 8908SOL    HW238184   1.814   0.675  16.614 -1.0434  2.9521 -1.5354
 8909SOL     OW38185   2.434   1.705  10.334 -0.2229  0.1434  0.0334
 8909SOL    HW138186   2.523   1.731  10.358 -1.5520  3.3826  1.4744
 8909SOL    HW238187   2.419   1.767  10.262 -0.7235  0.3245  0.2917
 8910SOL     OW38188   2.173   1.374   4.771 -0.2981 -0.4561  0.5945
 8910SOL    HW138189   2.118   1.322   4.713 -0.6146  1.9064 -1.2452
 8910SOL    HW238190   2.113   1.440   4.804 -0.4655 -1.1229  1.6276
 8911SOL     OW38191   0.278   3.995   3.080 -0.0430 -0.8003  0.0840
 8911SOL    HW138192   0.227   4.073   3.103 -0.2644 -0.7243 -0.6677
 8911SOL    HW238193   0.358   4.041   3.052 -0.8185 -0.1192 -0.9799
 8912SOL     OW38194   3.818   2.724   6.647 -0.7986 -0.0191  0.5475
 8912SOL    HW138195   3.733   2.683   6.632 -0.7459  0.4444 -1.0248
 8912SOL    HW238196   3.787   2.813   6.663 -1.8096 -0.4703  1.0699
 8913SOL     OW38197   3.691   2.021   9.563 -0.5686  0.3762 -0.4186
 8913SOL    HW138198   3.629   1.957   9.529  1.7636 -0.9737 -2.0673
 8913SOL    HW238199   3.633   2.098   9.557 -0.4002  0.6394  1.4268
 8914SOL     OW38200   2.985   4.610   1.469  0.6324  0.3172  0.6813
 8914SOL    HW138201   3.058   4.673   1.472  0.2174  0.8323 -0.2706
 8914SOL    HW238202   2.993   4.569   1.556  0.3379 -0.8250  0.1651
 8915SOL     OW38203   2.862   3.469   5.465 -0.2933  0.4522 -0.0071
 8915SOL    HW138204   2.883   3.533   5.534 -0.1577  1.9991 -1.4965
 8915SOL    HW238205   2.895   3.389   5.506  0.4732  1.2479  0.9361
 8916SOL     OW38206   2.335   2.684   7.048 -0.2049 -0.5618  0.7742
 8916SOL    HW138207   2.350   2.736   6.969 -0.4668  0.8166  1.6143
 8916SOL    HW238208   2.318   2.602   7.003 -1.6525 -0.3151  0.8544
 8917SOL     OW38209   1.603   3.694   4.347 -0.1477  0.1042 -0.3424
 8917SOL    HW138210   1.594   3.600   4.339 -3.9292  0.4242  0.2245
 8917SOL    HW238211   1.611   3.712   4.441  3.1561  1.7960 -0.9281
 8918SOL     OW38212   1.570   2.874  13.543  0.5427 -0.0546 -0.6406
 8918SOL    HW138213   1.619   2.792  13.552  1.7782  0.7164 -0.2812
 8918SOL    HW238214   1.633   2.945  13.531  2.7352 -1.3547  3.2052
 8919SOL     OW38215   3.109   3.471   2.729  0.2676  0.1195 -1.0146
 8919SOL    HW138216   3.116   3.473   2.633 -2.7700  1.7018 -1.1928
 8919SOL    HW238217   3.166   3.537   2.768  0.9464  2.0461 -5.3147
 8920SOL     OW38218   2.037   3.376   5.848  0.6493 -0.0470 -0.2077
 8920SOL    HW138219   1.991   3.427   5.782  1.8039 -0.0079 -0.9875
 8920SOL    HW238220   2.108   3.435   5.872 -0.2694  1.4029 -1.0854
 8921SOL     OW38221   3.790   2.531   2.004 -0.0285 -0.0867  0.1290
 8921SOL    HW138222   3.745   2.583   1.937  1.2789  1.1856  0.2375
 8921SOL    HW238223   3.875   2.511   1.964  1.1045  0.1829  2.4312
 8922SOL     OW38224   0.872   1.787   5.664 -0.2256 -0.1338 -0.0385
 8922SOL    HW138225   0.828   1.869   5.686  3.5088  1.7413  0.4829
 8922SOL    HW238226   0.806   1.757   5.601 -0.8754  0.2714  0.4625
 8923SOL     OW38227   2.207   4.250  15.994 -0.0864 -0.3742 -0.6127
 8923SOL    HW138228   2.269   4.315  15.960  2.4621 -2.8929 -0.8111
 8923SOL    HW238229   2.163   4.306  16.058 -0.6925 -1.6752  0.1051
 8924SOL     OW38230   1.225   4.686  13.214 -0.2785 -0.5432 -0.7357
 8924SOL    HW138231   1.155   0.009  13.260  0.0015 -0.0449 -0.8119
 8924SOL    HW238232   1.303   0.015  13.232 -1.2023  1.2145 -1.7807
 8925SOL     OW38233   3.099   0.772  15.353  0.9348  0.1286 -0.1324
 8925SOL    HW138234   3.114   0.846  15.294  0.5925 -0.9417 -1.5847
 8925SOL    HW238235   3.116   0.806  15.441 -0.9837  1.4374 -0.2642
 8926SOL     OW38236   1.917   1.238   7.998 -0.0233 -0.2539  0.3031
 8926SOL    HW138237   1.877   1.276   7.920 -1.2394 -1.3741  0.3811
 8926SOL    HW238238   1.930   1.144   7.982 -1.1564 -0.4387  0.4364
 8927SOL     OW38239   2.171   2.987   1.270  0.0223  0.2326  0.5980
 8927SOL    HW138240   2.087   2.955   1.302  0.4980 -2.1825 -0.5387
 8927SOL    HW238241   2.152   3.029   1.186  0.1592  1.4700  1.1840
 8928SOL     OW38242   2.226   4.041   8.226 -0.1461  0.6330 -0.4537
 8928SOL    HW138243   2.233   3.971   8.291 -0.0743 -0.9622 -2.1672
 8928SOL    HW238244   2.131   4.033   8.212 -0.1600  0.3342 -0.1966
 8929SOL     OW38245   3.386   0.205   2.946  0.2469  0.2100  0.0656
 8929SOL    HW138246   3.361   0.138   2.883 -0.8366 -0.7617  1.5137
 8929SOL    HW238247   3.318   0.270   2.926  0.0852 -0.1676 -0.5840
 8930SOL     OW38248   1.875   1.474  10.653  0.1787 -0.4072  0.5057
 8930SOL    HW138249   1.893   1.568  10.652 -2.6752  0.1355  0.8631
 8930SOL    HW238250   1.959   1.432  10.672 -0.1013 -1.4223 -0.5204
 8931SOL     OW38251   3.118   3.249   9.365 -0.0818 -0.1504 -0.8136
 8931SOL    HW138252   3.196   3.297   9.337  0.1391 -1.0155 -1.7021
 8931SOL    HW238253   3.083   3.237   9.276  0.9396  1.2335 -1.4041
 8932SOL     OW38254   2.378   1.386   2.025  0.2708  0.5278 -0.3827
 8932SOL    HW138255   2.358   1.480   2.023 -0.9300  0.2470 -1.9261
 8932SOL    HW238256   2.430   1.381   1.945  1.8487 -0.7088  0.7330
 8933SOL     OW38257   1.172   3.047   9.884  0.0867  0.2814 -0.6937
 8933SOL    HW138258   1.246   3.100   9.855 -0.4176  0.2486 -2.0633
 8933SOL    HW238259   1.189   3.045   9.978 -1.7804 -0.5603 -0.3726
 8934SOL     OW38260   4.703   0.783   4.255 -0.2031 -0.0376  0.1093
 8934SOL    HW138261   0.049   0.758   4.194 -0.8141  1.5230 -1.2356
 8934SOL    HW238262   4.653   0.701   4.249  2.0358 -1.3943  0.0512
 8935SOL     OW38263   3.111   4.571  13.291  0.0479 -0.0280 -0.1972
 8935SOL    HW138264   3.157   4.589  13.373 -1.3370  0.5474  0.4480
 8935SOL    HW238265   3.160   4.605  13.216  1.6803  2.3336  1.9364
 8936SOL     OW38266   2.309   4.355  10.378  1.0023 -0.1475  0.3368
 8936SOL    HW138267   2.350   4.277  10.339 -1.5881 -1.8686  1.0647
 8936SOL    HW238268   2.275   4.399  10.300  0.2877 -0.6235  0.3781
 8937SOL     OW38269   3.086   0.379   7.160  0.1266  0.0476 -0.3282
 8937SOL    HW138270   3.067   0.438   7.086 -3.0631  0.2177  0.6524
 8937SOL    HW238271   3.158   0.433   7.193 -2.0819  2.1847  0.9597
 8938SOL     OW38272   1.781   2.914   1.891 -0.1834  0.2503  1.1902
 8938SOL    HW138273   1.709   2.908   1.828 -0.9685 -0.2961  2.1556
 8938SOL    HW238274   1.753   2.962   1.968 -1.5633 -0.0190  0.8534
 8939SOL     OW38275   0.607   3.969   3.841  0.6952  0.1398  0.3564
 8939SOL    HW138276   0.551   3.922   3.779 -0.1665  0.5318  0.8370
 8939SOL    HW238277   0.615   4.058   3.806  0.7182  0.4437  1.1386
 8940SOL     OW38278   1.694   4.164   9.547  0.1320 -0.5789 -0.1277
 8940SOL    HW138279   1.648   4.088   9.582  0.4139 -0.8900 -0.4349
 8940SOL    HW238280   1.678   4.154   9.453 -0.1005 -0.6494 -0.0814
 8941SOL     OW38281   4.472   2.302   1.983  0.0453  0.4349  0.0281
 8941SOL    HW138282   4.542   2.238   1.974  0.1822  0.3402  1.7954
 8941SOL    HW238283   4.447   2.313   1.891 -0.0016 -2.5328 -0.3079
 8942SOL     OW38284   4.609   0.152   6.966  0.2186 -0.3351  0.3152
 8942SOL    HW138285   4.626   0.246   6.976 -1.1587 -0.3090  2.4392
 8942SOL    HW238286   4.551   0.128   7.039 -0.4629 -0.1379 -0.1720
 8943SOL     OW38287   1.236   3.526   4.698 -0.0751  0.5067 -0.4483
 8943SOL    HW138288   1.314   3.472   4.682  0.5950  0.2720  3.7463
 8943SOL    HW238289   1.190   3.517   4.614 -0.6378  0.3906 -0.1240
 8944SOL     OW38290   3.230   1.032  14.586 -0.3691 -0.1263  0.5500
 8944SOL    HW138291   3.179   1.109  14.560 -0.3978 -0.7446 -1.1893
 8944SOL    HW238292   3.231   0.991  14.500 -0.4303 -0.3095  0.6368
 8945SOL     OW38293   0.998   1.521   7.799 -0.6827  0.6045  0.3228
 8945SOL    HW138294   0.968   1.526   7.709 -2.2650  0.1372  0.8303
 8945SOL    HW238295   0.937   1.462   7.843 -0.9534 -0.8865 -2.0880
 8946SOL     OW38296   1.394   3.006   7.734  0.6812  0.5943  0.0194
 8946SOL    HW138297   1.419   3.094   7.705  0.9107  1.0292  1.5446
 8946SOL    HW238298   1.393   3.018   7.829  0.8663 -0.9780  0.2223
 8947SOL     OW38299   4.623   4.236  11.258 -0.0909 -0.2813 -0.0803
 8947SOL    HW138300   4.556   4.171  11.278 -0.6723  1.0874  2.4554
 8947SOL    HW238301   4.703   4.195  11.289 -0.2776 -1.0471 -0.6218
 8948SOL     OW38302   4.584   3.747   4.304 -1.1825 -0.7080 -0.0721
 8948SOL    HW138303   4.672   3.710   4.310 -0.5003  0.4996 -2.7437
 8948SOL    HW238304   4.587   3.817   4.369 -1.7464 -1.2774  0.5660
 8949SOL     OW38305   0.509   1.063   7.204 -0.3832  0.5887  0.1138
 8949SOL    HW138306   0.426   1.040   7.246  0.2907 -2.9470 -0.4164
 8949SOL    HW238307   0.502   1.029   7.115 -0.2786  0.6849  0.0688
 8950SOL     OW38308   0.851   1.752  16.004 -0.1182 -0.0352  0.1775
 8950SOL    HW138309   0.917   1.776  15.939 -0.2056  0.2384  0.1882
 8950SOL    HW238310   0.899   1.694  16.063 -0.1633  0.7603  0.9919
 8951SOL     OW38311   2.921   1.237  14.919 -0.3347 -0.9631  0.8674
 8951SOL    HW138312   2.935   1.331  14.924  0.3401 -1.0677  1.0035
 8951SOL    HW238313   3.012   1.216  14.899  0.3360  3.3957 -0.6995
 8952SOL     OW38314   0.789   3.079   0.954  0.0183  0.3023  0.4485
 8952SOL    HW138315   0.840   2.998   0.955  0.9587  0.8800 -0.3140
 8952SOL    HW238316   0.707   3.051   0.995 -0.9024  2.3812  0.0728
 8953SOL     OW38317   0.464   2.785   6.860 -0.7219 -0.1869  0.5838
 8953SOL    HW138318   0.454   2.880   6.853  1.0933 -0.0744 -0.4217
 8953SOL    HW238319   0.517   2.767   6.783  1.3669  1.7030  1.5617
 8954SOL     OW38320   4.498   0.941   2.170 -0.1927 -0.2012 -0.0407
 8954SOL    HW138321   4.591   0.962   2.167 -0.4839  0.8229 -1.4898
 8954SOL    HW238322   4.508   0.872   2.236 -1.4634 -0.1435  0.2161
 8955SOL     OW38323   0.965   2.921   8.858 -0.1522 -0.0719  0.4961
 8955SOL    HW138324   1.054   2.959   8.858  0.3621 -1.2873  0.1126
 8955SOL    HW238325   0.971   2.870   8.939 -0.4175  1.4679  1.4954
 8956SOL     OW38326   3.956   1.961   6.951  0.7391  0.2685 -0.1757
 8956SOL    HW138327   3.995   2.042   6.919  1.8614 -0.3922 -0.5136
 8956SOL    HW238328   3.914   1.944   6.866 -0.9546  0.4303  0.6326
 8957SOL     OW38329   0.518   2.457   7.360 -0.0821  0.3006  0.0351
 8957SOL    HW138330   0.523   2.552   7.365 -3.2122  0.5258 -1.6606
 8957SOL    HW238331   0.423   2.453   7.367 -0.0780 -1.3695 -0.8624
 8958SOL     OW38332   2.889   1.949   6.968  0.5634  0.2655  0.1357
 8958SOL    HW138333   2.838   1.888   7.020  0.6478  0.2559  0.2073
 8958SOL    HW238334   2.974   1.958   7.011  0.9697 -2.6036 -0.0458
 8959SOL     OW38335   1.181   4.085   7.234 -0.0086 -0.3693  0.1768
 8959SOL    HW138336   1.099   4.070   7.281  0.2780 -2.1911  0.0800
 8959SOL    HW238337   1.152   4.048   7.150  0.0697  2.3972 -1.0781
 8960SOL     OW38338   4.548   0.249   4.239 -0.7112 -0.0976 -0.1406
 8960SOL    HW138339   4.639   0.277   4.228 -0.9636  1.0343  0.6196
 8960SOL    HW238340   4.547   0.240   4.335 -1.3060 -1.1060 -0.2464
 8961SOL     OW38341   3.265   4.414   7.368  0.4659 -0.3192 -0.2469
 8961SOL    HW138342   3.184   4.461   7.348  1.6045  1.5702 -0.4328
 8961SOL    HW238343   3.252   4.407   7.463  0.9568 -0.9498 -0.2298
 8962SOL     OW38344   1.966   0.374  14.937  0.4488 -0.0258 -0.0985
 8962SOL    HW138345   1.942   0.299  14.883 -1.2290 -1.0084  2.0204
 8962SOL    HW238346   1.884   0.377  14.986 -0.8051 -1.6614 -2.0928
 8963SOL     OW38347   3.847   2.536  11.128  0.2236 -0.2652  0.6023
 8963SOL    HW138348   3.886   2.453  11.155 -1.1224 -0.7704  1.0396
 8963SOL    HW238349   3.852   2.576  11.215  1.4361 -2.0764  1.3466
 8964SOL     OW38350   4.324   0.755   6.376 -0.3028  0.1708 -0.5935
 8964SOL    HW138351   4.248   0.793   6.332 -1.2421 -1.0880 -0.0291
 8964SOL    HW238352   4.280   0.722   6.454  0.5606 -2.0765 -1.0772
 8965SOL     OW38353   3.454   0.900  16.355 -0.7557  0.3512  0.3262
 8965SOL    HW138354   3.510   0.904  16.277 -0.6845 -0.0357  0.3559
 8965SOL    HW238355   3.369   0.918  16.314 -0.7093 -0.8766 -0.3076
 8966SOL     OW38356   1.352   3.686   4.895 -0.6214 -0.4503  0.4038
 8966SOL    HW138357   1.362   3.766   4.844 -0.6610  0.9686  2.6135
 8966SOL    HW238358   1.314   3.630   4.827  2.3587 -1.1226 -0.6909
 8967SOL     OW38359   3.375   3.933   4.595 -0.0262 -0.1393  0.1333
 8967SOL    HW138360   3.401   4.024   4.605 -1.9843  0.1875  2.2250
 8967SOL    HW238361   3.423   3.897   4.520  0.0091 -0.6324  0.3870
 8968SOL     OW38362   0.223   0.305   6.690 -0.3238  0.1763  0.4621
 8968SOL    HW138363   0.223   0.380   6.749  0.0980  0.5266  0.0125
 8968SOL    HW238364   0.229   0.228   6.747 -0.3318 -0.4114 -0.3296
 8969SOL     OW38365   1.578   2.085  13.084 -0.5589  0.4954 -0.0905
 8969SOL    HW138366   1.669   2.112  13.075  0.0832 -0.7160  2.8534
 8969SOL    HW238367   1.538   2.170  13.066 -1.3903 -0.0382 -0.7488
 8970SOL     OW38368   0.991   3.611  16.413 -0.3383 -0.6792  0.3818
 8970SOL    HW138369   0.961   3.657  16.335 -1.8612 -2.7371 -0.2525
 8970SOL    HW238370   1.082   3.587  16.398  0.2819  1.2489  0.9441
 8971SOL     OW38371   4.482   0.420   8.143 -0.3299 -0.0948  0.5561
 8971SOL    HW138372   4.522   0.341   8.108  1.1335  0.9497 -0.1212
 8971SOL    HW238373   4.416   0.440   8.077  1.3745 -1.3069 -1.5151
 8972SOL     OW38374   0.764   1.171   5.028  0.6305  0.5313 -0.2734
 8972SOL    HW138375   0.702   1.107   5.063  2.2660 -0.8548  0.0884
 8972SOL    HW238376   0.715   1.215   4.959 -0.9726 -2.0692 -0.8165
 8973SOL     OW38377   1.007   0.997   8.120 -0.6317  0.7307 -0.2234
 8973SOL    HW138378   1.089   1.047   8.117  1.0948 -2.1700 -1.2100
 8973SOL    HW238379   0.995   0.943   8.042 -0.6276 -1.0975  1.0308
 8974SOL     OW38380   3.306   0.102  13.766 -0.4057  0.1969  0.3007
 8974SOL    HW138381   3.289   0.056  13.684  1.5437 -0.3790  0.2239
 8974SOL    HW238382   3.399   0.085  13.782 -1.0931 -0.7523  3.3276
 8975SOL     OW38383   1.912   3.956   7.168  0.2340 -0.0509  0.4236
 8975SOL    HW138384   1.877   3.910   7.244  2.0279 -1.6117  0.3168
 8975SOL    HW238385   1.877   3.905   7.095 -1.7770  3.5734 -1.1201
 8976SOL     OW38386   4.074   2.825  11.041  0.0420  0.4950 -0.5018
 8976SOL    HW138387   4.060   2.920  11.047 -0.9627  0.3898 -1.1114
 8976SOL    HW238388   4.158   2.811  11.084 -0.6119 -0.6223  0.4089
 8977SOL     OW38389   4.161   2.645  11.371 -0.6092 -0.0263 -0.4227
 8977SOL    HW138390   4.166   2.620  11.463  0.8103  1.9399  0.0296
 8977SOL    HW238391   4.071   2.625  11.347 -1.5713  0.9597  2.4290
 8978SOL     OW38392   0.979   2.330   1.990  0.2031  0.6110  0.0141
 8978SOL    HW138393   0.976   2.385   2.068 -1.0954 -1.1290  1.1793
 8978SOL    HW238394   1.060   2.285   2.014 -0.4891  0.2851  1.7877
 8979SOL     OW38395   2.478   2.581   0.362  0.2589 -0.2047 -0.4456
 8979SOL    HW138396   2.416   2.525   0.315 -2.7233  1.0802  1.9651
 8979SOL    HW238397   2.454   2.565   0.453  2.2332  1.5575  0.3748
 8980SOL     OW38398   4.008   0.583   5.378  0.2076 -0.1374  0.3857
 8980SOL    HW138399   3.954   0.654   5.343  3.1594  0.5598 -2.7514
 8980SOL    HW238400   3.939   0.545   5.433  0.9655 -0.4868  1.0892
 8981SOL     OW38401   4.589   3.774   6.120  0.1132 -0.0070  0.4275
 8981SOL    HW138402   4.495   3.778   6.102  0.2976  0.2407 -0.5013
 8981SOL    HW238403   4.607   3.687   6.157  0.3218 -0.9384 -1.8394
 8982SOL     OW38404   2.342   1.107   7.250  0.1452 -0.0414  0.3771
 8982SOL    HW138405   2.263   1.104   7.305 -0.5007  0.3886 -0.5288
 8982SOL    HW238406   2.366   1.014   7.246 -0.0054 -0.1177  1.1358
 8983SOL     OW38407   0.180   4.253   3.107  0.0448  0.1620  0.0987
 8983SOL    HW138408   0.258   4.302   3.081  0.3765 -1.1908 -1.4894
 8983SOL    HW238409   0.165   4.297   3.190 -2.1214  1.0865 -0.7965
 8984SOL     OW38410   1.952   1.404   5.048  0.0366 -0.2243 -0.1383
 8984SOL    HW138411   1.930   1.472   5.112 -1.7509  0.1405 -1.1451
 8984SOL    HW238412   1.949   1.458   4.969  1.5562  0.6722  0.4122
 8985SOL     OW38413   4.102   1.376   4.385 -0.5590 -0.4742  0.8041
 8985SOL    HW138414   4.100   1.389   4.480 -0.5171  1.5988  0.5163
 8985SOL    HW238415   4.009   1.362   4.366 -0.1075 -3.2369  0.5385
 8986SOL     OW38416   2.848   1.827  11.071  0.6922  0.0783  0.0168
 8986SOL    HW138417   2.851   1.805  11.164 -1.6905  0.9715  0.3326
 8986SOL    HW238418   2.910   1.900  11.071  2.5410 -1.5126  0.0862
 8987SOL     OW38419   3.617   4.213   5.566  0.0321 -0.4925  0.1666
 8987SOL    HW138420   3.569   4.157   5.505  0.8908 -0.8701 -0.1597
 8987SOL    HW238421   3.674   4.262   5.508 -1.4430  0.3620 -0.5652
 8988SOL     OW38422   1.897   3.833   4.537  0.7545 -0.0090 -0.3460
 8988SOL    HW138423   1.954   3.843   4.460 -0.7938  2.2951 -1.1906
 8988SOL    HW238424   1.964   3.790   4.589  1.2531 -0.6643 -1.5215
 8989SOL     OW38425   4.477   1.855  11.042 -0.0796  0.2541  0.4730
 8989SOL    HW138426   4.451   1.891  10.957  2.6557 -0.9868 -0.9032
 8989SOL    HW238427   4.534   1.927  11.068  1.2053 -0.8024  0.6194
 8990SOL     OW38428   0.099   3.452   6.778 -0.2404  0.5575  0.7276
 8990SOL    HW138429   0.086   3.517   6.710 -2.1806 -1.8700 -1.2135
 8990SOL    HW238430   0.017   3.457   6.827 -0.5432 -0.8839  0.3699
 8991SOL     OW38431   1.038   0.074   4.063  0.0452 -0.1235  0.0307
 8991SOL    HW138432   1.114   0.023   4.036  1.2546  2.2375 -1.0466
 8991SOL    HW238433   0.991   0.064   3.980  0.4273 -1.3126 -0.0419
 8992SOL     OW38434   2.170   1.417   2.542 -0.3464  0.4802 -0.2226
 8992SOL    HW138435   2.206   1.443   2.457  0.5108  0.0729  0.0198
 8992SOL    HW238436   2.229   1.462   2.602  1.8670 -0.7994 -1.4124
 8993SOL     OW38437   2.430   0.799   3.116  0.3845 -0.2225  0.2476
 8993SOL    HW138438   2.406   0.708   3.098  0.6604 -0.3629  0.5723
 8993SOL    HW238439   2.521   0.806   3.086  0.6620  0.8257  1.3533
 8994SOL     OW38440   0.936   2.384   4.725 -0.3520 -0.7169  0.7984
 8994SOL    HW138441   0.953   2.305   4.777  1.8487 -0.3436  0.6669
 8994SOL    HW238442   0.851   2.362   4.686  0.5730  0.2386 -1.7599
 8995SOL     OW38443   0.812   1.227   8.413 -0.1744 -0.4334  0.3631
 8995SOL    HW138444   0.871   1.230   8.488 -0.4845 -0.7858  0.6213
 8995SOL    HW238445   0.731   1.196   8.453 -0.3727  1.9284  1.7669
 8996SOL     OW38446   1.304   2.559  13.471  0.0684  0.1402 -0.0445
 8996SOL    HW138447   1.210   2.575  13.459  0.4890  2.4857 -0.3549
 8996SOL    HW238448   1.352   2.607  13.403 -0.2559 -0.8127 -0.9439
 8997SOL     OW38449   1.892   4.522   5.081 -0.1813  0.1953  0.2660
 8997SOL    HW138450   1.944   4.560   5.152  0.2574 -0.2950  0.2091
 8997SOL    HW238451   1.804   4.557   5.098 -1.0469 -2.0766  0.5034
 8998SOL     OW38452   0.331   0.394  13.045  0.3664 -1.0839 -1.0647
 8998SOL    HW138453   0.362   0.303  13.048 -0.1434 -1.1444  2.8546
 8998SOL    HW238454   0.325   0.405  12.950 -0.7626  0.3703 -0.8236
 8999SOL     OW38455   0.611   2.462   8.288  1.1406  0.1969 -0.8171
 8999SOL    HW138456   0.670   2.444   8.361 -1.4495  3.1076  2.0251
 8999SOL    HW238457   0.554   2.386   8.280 -2.4840  2.4997  2.7627
 9000SOL     OW38458   1.997   2.191   7.533 -0.2072  0.0068  0.1276
 9000SOL    HW138459   2.011   2.271   7.583  0.5788  1.3376 -2.2743
 9000SOL    HW238460   1.969   2.136   7.607  0.7292  1.7583  1.7836
 9001SOL     OW38461   0.148   3.998   4.581  0.4068 -0.3264  0.0998
 9001SOL    HW138462   0.243   4.008   4.568  0.1310  1.4681 -0.6185
 9001SOL    HW238463   0.136   4.065   4.649  2.3968 -0.4271  0.5448
 9002SOL     OW38464   3.725   1.911  13.955 -0.1122  0.1348  0.1572
 9002SOL    HW138465   3.761   1.988  13.999 -2.5946 -0.3650  3.0312
 9002SOL    HW238466   3.732   1.847  14.025  0.0528 -0.4609 -0.4072
 9003SOL     OW38467   1.707   3.481  16.745  0.1698 -0.3972 -0.5286
 9003SOL    HW138468   1.615   3.503  16.763  0.4252  0.8842 -0.7582
 9003SOL    HW238469   1.706   3.414  16.677 -0.2140 -0.0782 -0.8389
 9004SOL     OW38470   3.738   4.479   3.662 -0.4399  0.0805 -0.2664
 9004SOL    HW138471   3.703   4.492   3.750  1.0578  0.6276  0.2475
 9004SOL    HW238472   3.756   4.385   3.663 -1.7388 -0.1524  1.2111
 9005SOL     OW38473   4.053   0.168   5.138 -0.0448  0.1428  0.0505
 9005SOL    HW138474   4.016   0.116   5.067  0.9554 -1.4886  0.7275
 9005SOL    HW238475   4.138   0.195   5.104  1.0452 -1.8665  1.1725
 9006SOL     OW38476   0.003   0.935   2.464  0.2902  0.3165  0.0540
 9006SOL    HW138477   0.092   0.919   2.497 -0.2253 -3.3930 -0.4512
 9006SOL    HW238478   0.009   0.926   2.369  0.6042 -0.5851  0.1631
 9007SOL     OW38479   4.400   1.679  14.825 -0.1517  0.2150  0.0096
 9007SOL    HW138480   4.489   1.667  14.858 -0.0385  1.0186  0.0007
 9007SOL    HW238481   4.414   1.717  14.738  0.5363 -1.2969 -0.5370
 9008SOL     OW38482   0.013   0.086   5.498 -0.0165 -0.4678  0.0024
 9008SOL    HW138483   0.035   0.086   5.591  0.4479 -0.3541 -0.1051
 9008SOL    HW238484   0.019   4.715   5.479  1.6827 -0.0652 -1.4712
 9009SOL     OW38485   0.290   1.314   3.314  0.6378  0.3129  0.5624
 9009SOL    HW138486   0.301   1.226   3.349 -0.6788 -0.5467 -1.1789
 9009SOL    HW238487   0.202   1.308   3.276 -0.0864 -2.5064  2.7257
 9010SOL     OW38488   2.653   0.002   5.215  0.0230 -0.1942 -0.4339
 9010SOL    HW138489   2.579   0.008   5.274  1.5184 -4.7436  1.8702
 9010SOL    HW238490   2.604   0.005   5.133 -1.3603 -2.9423  0.2985
 9011SOL     OW38491   2.070   4.130  10.845  0.0018  0.1369 -0.7719
 9011SOL    HW138492   2.069   4.036  10.825 -0.5178  0.1315 -0.7395
 9011SOL    HW238493   2.102   4.161  10.761 -1.1603 -0.5842 -1.4884
 9012SOL     OW38494   4.224   1.583   9.068  0.0275 -0.4203  0.3609
 9012SOL    HW138495   4.142   1.556   9.109 -1.4733  3.1788 -0.2613
 9012SOL    HW238496   4.247   1.670   9.102  0.7556 -0.2000 -0.6849
 9013SOL     OW38497   2.515   4.666   9.375  0.2218 -0.8010 -0.1906
 9013SOL    HW138498   2.582   4.708   9.428  1.7289 -1.9555 -1.1740
 9013SOL    HW238499   2.470   4.602   9.431 -0.6560  0.4511  0.5288
 9014SOL     OW38500   1.594   4.465   4.734  0.1235  0.2244 -0.4666
 9014SOL    HW138501   1.640   4.539   4.695  0.4992 -0.5644 -1.5141
 9014SOL    HW238502   1.648   4.392   4.704  1.1878 -0.7767  3.9312
 9015SOL     OW38503   1.482   0.840  13.320 -0.2989  0.1486 -0.1010
 9015SOL    HW138504   1.395   0.863  13.354 -0.6096 -0.2359 -0.6346
 9015SOL    HW238505   1.493   0.914  13.260 -1.2775 -0.5408 -1.1328
 9016SOL     OW38506   4.062   2.239   3.667 -0.1084  0.0325 -0.7224
 9016SOL    HW138507   3.995   2.192   3.716  0.9214 -0.8115 -0.1350
 9016SOL    HW238508   4.007   2.302   3.619 -0.2312 -1.9219 -3.1677
 9017SOL     OW38509   4.058   1.053   4.484 -0.1726  0.1440 -0.4212
 9017SOL    HW138510   4.131   1.058   4.423 -0.5719  0.7575 -0.8449
 9017SOL    HW238511   4.006   0.982   4.448 -3.7022  2.2924  0.4233
 9018SOL     OW38512   3.818   2.093   3.687  0.1260 -0.2475 -0.9370
 9018SOL    HW138513   3.787   2.020   3.739 -0.4183  0.2541 -0.5525
 9018SOL    HW238514   3.805   2.066   3.596 -3.3009 -0.1151 -0.4882
 9019SOL     OW38515   0.668   3.671   4.865 -0.6183 -0.3661  0.1486
 9019SOL    HW138516   0.742   3.664   4.804  0.3155 -3.6765  1.6290
 9019SOL    HW238517   0.703   3.609   4.930 -2.3773  0.0300  1.4939
 9020SOL     OW38518   1.927   4.178   8.039  0.3934 -0.3358 -0.3195
 9020SOL    HW138519   1.848   4.135   8.007  0.1693 -0.0518 -0.1464
 9020SOL    HW238520   1.908   4.264   8.003 -0.3946 -0.5388 -0.3997
 9021SOL     OW38521   3.527   4.175   3.089  0.0832  0.0915  0.6023
 9021SOL    HW138522   3.540   4.270   3.087  1.0279 -0.0307  0.8179
 9021SOL    HW238523   3.610   4.156   3.045 -2.3529 -1.9592 -3.0765
 9022SOL     OW38524   2.495   1.224   7.818 -0.1255 -0.0194  0.3557
 9022SOL    HW138525   2.497   1.161   7.746  1.1351 -0.8417  1.1172
 9022SOL    HW238526   2.403   1.249   7.824  0.7482  2.8942  1.6800
 9023SOL     OW38527   2.320   1.199   9.646 -0.4540 -0.0474  0.2631
 9023SOL    HW138528   2.318   1.103   9.651  0.3939 -0.1350 -1.0062
 9023SOL    HW238529   2.229   1.207   9.617  0.0930  0.1686 -1.3844
 9024SOL     OW38530   1.118   4.458   0.556  0.5837 -0.0095 -0.0432
 9024SOL    HW138531   1.091   4.404   0.630 -0.3912 -1.3296 -1.3574
 9024SOL    HW238532   1.188   4.402   0.523 -1.0660 -1.1322 -1.6719
 9025SOL     OW38533   4.653   2.906   7.566  0.4764  0.2858  0.1266
 9025SOL    HW138534   4.608   2.822   7.553  1.6739  0.1111 -2.9475
 9025SOL    HW238535   4.604   2.947   7.637 -0.4865  1.0255 -0.9796
 9026SOL     OW38536   0.233   1.411   7.973  0.5899 -0.4229  0.0678
 9026SOL    HW138537   0.231   1.504   7.995 -1.4859 -0.2927 -0.7132
 9026SOL    HW238538   0.255   1.413   7.879 -1.6632 -1.6691 -0.4965
 9027SOL     OW38539   4.700   1.376   0.804  0.0690  0.1189  0.4087
 9027SOL    HW138540   4.630   1.400   0.864 -1.2656  2.2597 -2.0106
 9027SOL    HW238541   4.658   1.422   0.732 -1.6129 -3.3169 -0.8075
 9028SOL     OW38542   0.282   4.410  10.755 -0.1799 -0.5194  0.0172
 9028SOL    HW138543   0.333   4.480  10.796 -0.8643  0.3817 -0.6729
 9028SOL    HW238544   0.192   4.443  10.750  0.4945  1.6071  2.0469
 9029SOL     OW38545   1.589   2.762   4.024 -0.1795  0.0847 -0.1307
 9029SOL    HW138546   1.655   2.788   3.960 -0.1533 -0.8290 -0.4729
 9029SOL    HW238547   1.515   2.818   3.999 -0.5506  0.4338  1.7458
 9030SOL     OW38548   0.745   1.895   4.002  0.3263 -0.0620 -0.2549
 9030SOL    HW138549   0.666   1.948   3.997 -0.0053 -0.5747 -0.3671
 9030SOL    HW238550   0.749   1.846   3.920  0.1301  1.0472 -0.9271
 9031SOL     OW38551   3.710   0.573  12.166 -0.2464  0.7334  0.1246
 9031SOL    HW138552   3.691   0.493  12.117  0.5153  0.1455  0.7815
 9031SOL    HW238553   3.799   0.594  12.135 -0.5791  2.0026  0.0190
 9032SOL     OW38554   2.200   3.980   1.869  0.4147  0.2005  0.6104
 9032SOL    HW138555   2.159   4.061   1.900  0.8451  0.2959  0.9349
 9032SOL    HW238556   2.283   4.016   1.838  0.2632  1.1998  1.3726
 9033SOL     OW38557   2.534   2.978   9.242  0.5288 -0.2671  0.0386
 9033SOL    HW138558   2.544   2.982   9.147  0.4180 -5.0864 -0.1832
 9033SOL    HW238559   2.627   2.987   9.264  0.5053  0.0088  0.0313
 9034SOL     OW38560   1.597   0.508   4.344 -0.1159  0.3226  0.1039
 9034SOL    HW138561   1.553   0.485   4.426 -1.1033  0.7634 -0.2982
 9034SOL    HW238562   1.690   0.497   4.364  0.0483  3.0566  0.7603
 9035SOL     OW38563   3.073   4.219   0.713 -0.2782 -0.3223 -0.6027
 9035SOL    HW138564   3.159   4.206   0.672  0.7861  0.0447  1.5373
 9035SOL    HW238565   3.092   4.283   0.782  0.0014 -0.9095 -0.1385
 9036SOL     OW38566   4.051   1.513   9.946  0.0491 -0.2798  0.6574
 9036SOL    HW138567   4.048   1.608   9.956  0.7995 -0.1880  0.0243
 9036SOL    HW238568   4.125   1.488  10.002  0.4224  1.6108  0.9873
 9037SOL     OW38569   1.419   0.339   1.416 -0.5481  0.3547  0.0421
 9037SOL    HW138570   1.377   0.423   1.398  1.4350  1.0108 -1.5718
 9037SOL    HW238571   1.344   0.280   1.410 -0.8874  0.6363  1.6778
 9038SOL     OW38572   4.659   1.029   9.290 -0.4064  0.0495 -0.3012
 9038SOL    HW138573   4.655   0.951   9.235  2.3898  0.8284 -1.6022
 9038SOL    HW238574   4.651   1.100   9.227  1.8944 -0.3563 -1.0610
 9039SOL     OW38575   1.744   0.768  13.380  0.1479 -0.1340  0.2600
 9039SOL    HW138576   1.746   0.830  13.453  1.1672 -0.8216  0.8110
 9039SOL    HW238577   1.648   0.771  13.374  0.1448 -0.0206  0.3647
 9040SOL     OW38578   0.063   2.456   4.569  0.5832  0.1997  0.0976
 9040SOL    HW138579   0.016   2.397   4.628  0.6856 -0.6404 -0.6571
 9040SOL    HW238580   4.709   2.477   4.516  1.3944  0.3370 -1.0527
 9041SOL     OW38581   2.639   2.732  16.419 -0.0423 -0.2158 -0.2060
 9041SOL    HW138582   2.629   2.637  16.410 -0.5994  0.1328 -3.1361
 9041SOL    HW238583   2.606   2.738  16.509 -0.0333 -0.7631 -0.1636
 9042SOL     OW38584   1.303   4.494   8.636 -0.3528  0.2461 -0.2010
 9042SOL    HW138585   1.257   4.433   8.693  0.4973 -1.7969 -1.6949
 9042SOL    HW238586   1.366   4.520   8.703 -0.2167  0.6270 -0.4794
 9043SOL     OW38587   0.794   1.659   4.681  0.0722 -0.3942  0.2532
 9043SOL    HW138588   0.773   1.566   4.679 -0.9807 -0.1516  0.2010
 9043SOL    HW238589   0.853   1.647   4.756 -0.5748 -0.8674  0.6834
 9044SOL     OW38590   0.373   2.493   3.418 -0.1491  0.2470  0.7232
 9044SOL    HW138591   0.448   2.550   3.403  0.5840 -0.8353  0.3225
 9044SOL    HW238592   0.421   2.411   3.410  0.6031  0.7734 -0.0879
 9045SOL     OW38593   0.698   4.492   7.541  0.1244  0.4014  0.2243
 9045SOL    HW138594   0.740   4.407   7.551 -0.6722  0.4372  3.9944
 9045SOL    HW238595   0.700   4.522   7.632  1.5058  0.2941  0.2301
 9046SOL     OW38596   2.729   0.955  11.858 -0.2113  0.1644  0.4467
 9046SOL    HW138597   2.703   0.911  11.939 -0.0860  2.3047  1.6576
 9046SOL    HW238598   2.652   0.940  11.802 -1.2027 -0.3775  1.9708
 9047SOL     OW38599   0.579   0.228   5.454 -1.0587  0.3299  0.2576
 9047SOL    HW138600   0.496   0.181   5.442 -0.7920 -0.7902  2.6593
 9047SOL    HW238601   0.601   0.264   5.369  0.5597  0.9171  0.9273
 9048SOL     OW38602   1.567   0.687   2.998 -0.3961 -0.3864  0.0763
 9048SOL    HW138603   1.569   0.780   2.977 -0.0927 -0.6282 -0.9363
 9048SOL    HW238604   1.658   0.664   2.981  0.0524  0.9558  0.6698
 9049SOL     OW38605   1.989   1.227   7.638  0.0532  0.6688 -0.3948
 9049SOL    HW138606   1.907   1.249   7.682  1.1512  1.3234  1.3346
 9049SOL    HW238607   2.021   1.155   7.692  1.5772  1.2022 -0.5965
 9050SOL     OW38608   1.243   1.786   8.404  0.2379  0.2854 -0.2384
 9050SOL    HW138609   1.197   1.828   8.331  1.5182 -1.7024 -2.2223
 9050SOL    HW238610   1.166   1.767   8.457 -0.0923  0.2636 -0.7274
 9051SOL     OW38611   3.285   4.676  17.259 -0.4590 -0.4294  0.4754
 9051SOL    HW138612   3.328   0.028  17.217 -0.9884 -0.4009 -0.0256
 9051SOL    HW238613   3.199   4.711  17.285 -0.5047 -0.6585  0.6244
 9052SOL     OW38614   0.600   1.009   1.943  0.9139  0.6350 -0.1141
 9052SOL    HW138615   0.595   1.036   1.852  2.3274 -2.2296 -1.0340
 9052SOL    HW238616   0.585   1.090   1.992 -0.9428  0.8060 -0.9552
 9053SOL     OW38617   2.973   0.455  10.477  0.1341  0.5480 -0.4030
 9053SOL    HW138618   2.966   0.549  10.494  1.6892  0.4572  0.6681
 9053SOL    HW238619   2.884   0.436  10.447  1.2898 -1.0499 -2.8182
 9054SOL     OW38620   0.385   1.030   3.095  0.0015  0.7053  0.2236
 9054SOL    HW138621   0.309   0.993   3.139  1.8306 -0.7193  2.2294
 9054SOL    HW238622   0.468   1.004   3.136 -1.1699 -0.3898  1.9151
 9055SOL     OW38623   0.785   0.048   8.567 -0.4002 -0.1482 -0.2494
 9055SOL    HW138624   0.867   0.019   8.607  0.0419  1.2313 -0.1457
 9055SOL    HW238625   0.721   0.002   8.620  0.2783 -0.1431  0.5749
 9056SOL     OW38626   3.046   1.108   6.715 -0.1723  0.5350 -0.0312
 9056SOL    HW138627   3.050   1.078   6.624 -0.2795 -1.2263  0.5471
 9056SOL    HW238628   3.005   1.194   6.702  0.7382  0.6676 -2.0630
 9057SOL     OW38629   1.809   3.413   6.644  0.3474 -0.2244 -0.5591
 9057SOL    HW138630   1.779   3.345   6.583  3.5645 -0.0549 -2.3254
 9057SOL    HW238631   1.725   3.441   6.682  1.0696 -1.5534  1.9873
 9058SOL     OW38632   2.106   2.695   4.048  0.7724  0.3070 -0.0415
 9058SOL    HW138633   2.079   2.638   4.121  3.7543 -1.0922 -0.0592
 9058SOL    HW238634   2.025   2.691   3.996  0.9485 -0.3819 -0.2679
 9059SOL     OW38635   3.434   2.054   2.699 -0.1318  0.1161  0.2881
 9059SOL    HW138636   3.432   2.011   2.613 -0.8281  2.6476 -0.9700
 9059SOL    HW238637   3.526   2.076   2.715  0.0985 -0.4547 -0.2207
 9060SOL     OW38638   1.486   1.605   0.758 -0.0004 -0.2784 -0.3237
 9060SOL    HW138639   1.503   1.613   0.852 -0.6679  1.6995 -0.3774
 9060SOL    HW238640   1.571   1.582   0.720  0.0449 -0.8444  0.1151
 9061SOL     OW38641   3.443   2.203   7.530 -0.2000  0.2656 -0.3239
 9061SOL    HW138642   3.408   2.282   7.571 -2.2279  0.1107 -1.7679
 9061SOL    HW238643   3.465   2.242   7.446 -2.3089 -1.4233 -1.6607
 9062SOL     OW38644   3.618   4.238  12.960 -0.7276  0.4791 -0.4043
 9062SOL    HW138645   3.687   4.215  12.898  1.5604 -0.8988  2.6144
 9062SOL    HW238646   3.569   4.309  12.919  0.4870  0.4932 -1.8476
 9063SOL     OW38647   1.610   4.192   3.383  0.1853 -0.1757 -0.4259
 9063SOL    HW138648   1.632   4.282   3.408  0.3093  0.3352 -2.3728
 9063SOL    HW238649   1.627   4.190   3.288 -0.4696  0.7643 -0.5580
 9064SOL     OW38650   3.380   3.691  10.729  0.8096 -0.1639  0.5211
 9064SOL    HW138651   3.386   3.780  10.695 -0.8307  1.1537  3.6631
 9064SOL    HW238652   3.421   3.699  10.815  1.6075 -1.3157  0.2451
 9065SOL     OW38653   1.526   1.618   2.231 -0.3621  0.0856  0.1991
 9065SOL    HW138654   1.554   1.528   2.213 -1.0858 -0.1030  0.0085
 9065SOL    HW238655   1.594   1.644   2.293 -0.9387  0.0715  0.8376
 9066SOL     OW38656   2.651   0.269   6.397 -0.1302  0.1698  0.0284
 9066SOL    HW138657   2.710   0.203   6.361 -1.6268 -1.3730  0.4126
 9066SOL    HW238658   2.651   0.320   6.315 -1.9245 -0.9880 -0.6858
 9067SOL     OW38659   3.710   2.147  16.426 -0.6140  0.1604  0.0148
 9067SOL    HW138660   3.745   2.148  16.515 -0.1203 -2.5643 -0.1270
 9067SOL    HW238661   3.734   2.228  16.383  1.5175 -0.7209 -0.4745
 9068SOL     OW38662   2.042   0.834  16.854 -0.5379 -0.2661 -0.0062
 9068SOL    HW138663   2.130   0.810  16.825  0.4181  0.1806  2.5755
 9068SOL    HW238664   2.056   0.811  16.945 -0.2204 -0.3437 -0.0751
 9069SOL     OW38665   0.445   4.407  12.983 -0.2361 -0.6062  0.1473
 9069SOL    HW138666   0.395   4.348  13.039 -0.4343  1.4893  2.1480
 9069SOL    HW238667   0.423   4.386  12.892 -1.5314 -0.7491  0.4910
 9070SOL     OW38668   1.089   0.720   2.268  0.7650 -0.4352  0.4006
 9070SOL    HW138669   1.154   0.660   2.305  1.7671 -0.2518 -1.0513
 9070SOL    HW238670   1.121   0.803   2.302 -1.0886 -0.1289  1.3905
 9071SOL     OW38671   2.228   0.261   4.327  0.2435 -0.5302  0.1995
 9071SOL    HW138672   2.220   0.245   4.233 -1.6575  0.4400  0.2088
 9071SOL    HW238673   2.141   0.302   4.330  0.2262 -0.4921 -0.9008
 9072SOL     OW38674   3.254   1.441   3.080 -0.2452 -0.3281 -0.2238
 9072SOL    HW138675   3.325   1.489   3.038 -0.4284  0.5249  0.4435
 9072SOL    HW238676   3.309   1.371   3.117 -0.7258 -0.5821  0.0212
 9073SOL     OW38677   2.636   3.903  16.666  0.4318  0.2019  0.8138
 9073SOL    HW138678   2.667   3.828  16.615 -0.6095  1.2548 -1.3655
 9073SOL    HW238679   2.710   3.942  16.713  1.2349  1.1089 -1.1790
 9074SOL     OW38680   0.341   0.350   5.109  0.1575 -0.1119  0.3382
 9074SOL    HW138681   0.297   0.273   5.074  0.1005  1.4058 -2.8796
 9074SOL    HW238682   0.334   0.332   5.203  0.0716 -0.1219  0.3306
 9075SOL     OW38683   2.798   4.464   9.445 -0.5349 -0.1101  0.0822
 9075SOL    HW138684   2.809   4.373   9.470 -1.9252 -0.2695  0.1331
 9075SOL    HW238685   2.706   4.468   9.471 -0.8213  0.5174 -1.0215
 9076SOL     OW38686   3.488   1.099   7.383  0.2892 -0.5723  0.5831
 9076SOL    HW138687   3.534   1.096   7.466  0.7150  0.7308  0.3952
 9076SOL    HW238688   3.518   1.023   7.332  2.1327  0.4813  0.1064
 9077SOL     OW38689   0.274   0.595   5.004  0.1675  0.6557  0.4176
 9077SOL    HW138690   0.276   0.513   5.054  3.8654 -1.4284 -3.1123
 9077SOL    HW238691   0.180   0.610   5.007  0.5067  2.5991  1.2915
 9078SOL     OW38692   1.583   0.028   9.360  0.7277 -0.3802 -0.1203
 9078SOL    HW138693   1.584   4.681   9.295 -1.9372 -1.8663  1.4193
 9078SOL    HW238694   1.534   4.703   9.427 -0.9097  2.2638  0.5915
 9079SOL     OW38695   0.482   4.454   8.878 -0.0253 -0.1912 -0.7675
 9079SOL    HW138696   0.539   4.454   8.801  1.5724  0.7071  0.4321
 9079SOL    HW238697   0.463   4.361   8.891 -1.0421  0.0034 -0.8424
 9080SOL     OW38698   4.471   1.388   4.851  0.2683 -0.4544 -0.3422
 9080SOL    HW138699   4.464   1.331   4.774  1.3175 -1.4332  0.2965
 9080SOL    HW238700   4.551   1.355   4.891 -1.0918 -3.8557 -0.4115
 9081SOL     OW38701   1.122   4.219   2.575  0.0547  0.6210 -0.1177
 9081SOL    HW138702   1.193   4.160   2.550 -0.2324  0.0662  0.3817
 9081SOL    HW238703   1.104   4.259   2.490 -0.1416  1.2959  0.2447
 9082SOL     OW38704   2.187   3.027   7.566 -0.2316  0.6334  0.2089
 9082SOL    HW138705   2.138   2.968   7.510 -0.8055  0.0288  1.3431
 9082SOL    HW238706   2.258   3.050   7.506 -0.3513 -1.1857 -0.6188
 9083SOL     OW38707   3.993   4.442   5.066  0.3822 -0.2673  0.2231
 9083SOL    HW138708   4.025   4.409   4.982  0.9760 -0.5226  0.5478
 9083SOL    HW238709   4.079   4.438   5.108 -0.0778 -0.2924  1.1814
 9084SOL     OW38710   2.286   2.850   0.419  0.2199  0.0230  0.4760
 9084SOL    HW138711   2.269   2.833   0.327  2.0382 -0.8970  0.3239
 9084SOL    HW238712   2.277   2.945   0.417 -3.1409 -0.3216 -0.6074
 9085SOL     OW38713   0.534   1.474   2.369  0.1742  0.2678 -0.2550
 9085SOL    HW138714   0.576   1.392   2.395 -0.3199 -0.2066 -0.9373
 9085SOL    HW238715   0.607   1.514   2.323 -1.1875  0.9936 -1.8087
 9086SOL     OW38716   0.096   0.674   9.806  0.5653 -0.5702  0.2123
 9086SOL    HW138717   0.074   0.742   9.869  0.5306 -0.0247 -0.3824
 9086SOL    HW238718   0.014   0.671   9.756  1.8371  0.0893 -1.9509
 9087SOL     OW38719   1.629   1.480   7.169 -0.3553  0.0705  0.1035
 9087SOL    HW138720   1.665   1.401   7.128  1.0858  0.2088  1.0885
 9087SOL    HW238721   1.674   1.544   7.115 -2.4035 -0.5194 -2.2904
 9088SOL     OW38722   3.977   2.224   6.857  0.1459 -0.3179 -0.3406
 9088SOL    HW138723   4.042   2.291   6.879 -1.8621  1.0792  1.2578
 9088SOL    HW238724   4.011   2.210   6.768 -0.0994 -2.2319 -0.1427
 9089SOL     OW38725   2.134   2.837  16.183  0.2687  0.5430  0.2571
 9089SOL    HW138726   2.218   2.838  16.228  0.7820  1.6548 -0.7463
 9089SOL    HW238727   2.077   2.886  16.242  0.1994 -0.1157  0.7453
 9090SOL     OW38728   1.670   1.145   6.891 -0.1495  0.1073  0.3294
 9090SOL    HW138729   1.665   1.050   6.889 -1.5049  0.1674  1.3465
 9090SOL    HW238730   1.655   1.164   6.983 -0.6264  0.7341  0.1194
 9091SOL     OW38731   2.177   4.659   3.337 -0.5104  0.0884 -0.2845
 9091SOL    HW138732   2.118   4.626   3.269  0.5471 -0.4205 -0.9380
 9091SOL    HW238733   2.181   4.578   3.388  0.7590 -0.5446 -1.4074
 9092SOL     OW38734   0.356   3.630  11.860  0.6943 -0.4323  0.0539
 9092SOL    HW138735   0.386   3.650  11.948  2.6897  0.5971 -0.8796
 9092SOL    HW238736   0.274   3.589  11.890  0.0330  0.6689 -0.2614
 9093SOL     OW38737   3.045   0.074   5.501 -0.0789 -0.9555  0.4035
 9093SOL    HW138738   2.978   0.109   5.442  1.8656 -1.4376 -2.0891
 9093SOL    HW238739   3.083   0.009   5.441  0.5898 -0.5429  0.3759
 9094SOL     OW38740   1.095   0.066  10.719 -0.3327  0.1570  0.0918
 9094SOL    HW138741   1.062   0.007  10.786  0.2677 -0.1653  0.1024
 9094SOL    HW238742   1.052   0.022  10.645  0.8121  1.4360 -1.3430
 9095SOL     OW38743   2.232   0.922   4.688  0.5640 -0.4540  0.3942
 9095SOL    HW138744   2.285   0.993   4.726  0.4338 -0.2186  0.1377
 9095SOL    HW238745   2.270   0.912   4.600  0.2532 -2.6521  0.5155
 9096SOL     OW38746   0.662   4.193   6.862 -0.0305 -0.1533 -0.0622
 9096SOL    HW138747   0.742   4.240   6.838  0.4235 -0.5616  0.6318
 9096SOL    HW238748   0.602   4.223   6.795  1.2669  1.0528 -0.6652
 9097SOL     OW38749   3.613   4.363   6.960 -0.0099  0.2655 -0.6395
 9097SOL    HW138750   3.650   4.445   6.928  2.3414  0.3945  2.3961
 9097SOL    HW238751   3.698   4.319   6.959 -0.6399 -0.9269 -2.0752
 9098SOL     OW38752   4.180   2.782   2.182  0.1068 -0.0270  0.4175
 9098SOL    HW138753   4.163   2.863   2.231  0.7637  0.3423  0.0293
 9098SOL    HW238754   4.090   2.752   2.176  0.2618 -0.5328  0.6120
 9099SOL     OW38755   4.376   2.733   2.625 -0.3671  0.4961 -0.2304
 9099SOL    HW138756   4.365   2.673   2.551 -3.0409 -1.6341  1.9093
 9099SOL    HW238757   4.390   2.815   2.577 -0.3681  0.7705  0.2330
 9100SOL     OW38758   3.893   1.925   5.714 -0.4635  0.1104  0.2263
 9100SOL    HW138759   3.929   1.997   5.662 -1.2490  1.3602  1.3932
 9100SOL    HW238760   3.925   1.857   5.656  0.0844 -1.8508  2.8318
 9101SOL     OW38761   2.208   1.280   2.192 -0.5534  0.4569  0.1329
 9101SOL    HW138762   2.259   1.300   2.113 -1.2582 -2.1223 -0.9733
 9101SOL    HW238763   2.214   1.363   2.240 -0.9736  0.3841  0.3056
 9102SOL     OW38764   2.014   3.028   7.777 -0.7660  0.2176  0.1846
 9102SOL    HW138765   2.062   3.022   7.695 -0.1655 -0.1527  0.5598
 9102SOL    HW238766   1.930   3.065   7.749 -0.5534 -0.1041 -0.8509
 9103SOL     OW38767   4.097   4.693   4.654 -0.2866 -0.2680  0.2387
 9103SOL    HW138768   4.023   4.642   4.687 -2.0597  1.7357 -0.6302
 9103SOL    HW238769   4.057   0.033   4.593  2.5989 -0.9879 -2.3710
 9104SOL     OW38770   0.932   1.501   2.360  0.3833  0.2612 -0.1094
 9104SOL    HW138771   0.951   1.463   2.446 -1.4598  0.2100  0.2784
 9104SOL    HW238772   0.963   1.590   2.374  1.4719 -0.0931 -0.2478
 9105SOL     OW38773   2.848   4.218   4.865 -0.0823 -0.0584  0.5506
 9105SOL    HW138774   2.818   4.152   4.802  0.6793 -2.4440  2.6655
 9105SOL    HW238775   2.934   4.234   4.828 -1.0776 -0.7461 -2.0512
 9106SOL     OW38776   2.869   2.799   1.150 -0.4107 -0.6577 -0.3170
 9106SOL    HW138777   2.810   2.789   1.075 -1.2714 -1.0477  0.4180
 9106SOL    HW238778   2.883   2.894   1.157 -1.7314 -0.7397  2.9492
 9107SOL     OW38779   0.323   4.671   9.384 -0.3474 -0.3008 -0.1465
 9107SOL    HW138780   0.393   0.006   9.354 -2.1909  1.2304 -1.4990
 9107SOL    HW238781   0.280   4.720   9.454 -0.0264  0.0498 -0.1948
 9108SOL     OW38782   1.945   1.051  16.711  0.4050  0.1948 -0.0147
 9108SOL    HW138783   2.004   1.126  16.714  0.5577  0.1323 -1.4154
 9108SOL    HW238784   1.992   0.975  16.746 -1.4318 -0.1693  1.6106
 9109SOL     OW38785   1.054   3.606   9.449  0.4813 -0.1351 -0.0057
 9109SOL    HW138786   1.096   3.522   9.471  1.5088  0.4979  0.4175
 9109SOL    HW238787   1.036   3.576   9.360  1.7256 -0.1270 -0.2696
 9110SOL     OW38788   3.011   0.681  11.103  0.1687 -0.1555 -0.2528
 9110SOL    HW138789   2.946   0.610  11.104  0.3446 -0.3229 -0.5392
 9110SOL    HW238790   3.046   0.669  11.014  2.2238 -2.3778  0.8524
 9111SOL     OW38791   0.493   0.592   5.322 -0.4380 -0.5494  0.0687
 9111SOL    HW138792   0.548   0.669   5.304 -1.6417 -0.2074 -2.1333
 9111SOL    HW238793   0.437   0.643   5.380 -2.2297 -0.5957 -1.6458
 9112SOL     OW38794   2.281   2.392  16.927  0.9042  0.1631 -0.1601
 9112SOL    HW138795   2.304   2.485  16.931  0.1593  0.2319  2.7180
 9112SOL    HW238796   2.310   2.377  16.837 -0.6483 -1.9109 -0.3102
 9113SOL     OW38797   1.479   0.020   3.796 -0.1479  0.5383  0.1754
 9113SOL    HW138798   1.396   4.700   3.777  0.0910 -0.3028  1.0068
 9113SOL    HW238799   1.523   0.036   3.713  1.2696  0.8452  0.9771
 9114SOL     OW38800   2.694   0.550   2.618 -0.0752 -0.4257  0.4299
 9114SOL    HW138801   2.751   0.524   2.546  1.5939  1.5413  1.0175
 9114SOL    HW238802   2.663   0.462   2.641  0.9499 -0.2348  2.5775
 9115SOL     OW38803   2.099   0.973  10.952 -0.0048 -0.3671  0.1842
 9115SOL    HW138804   2.014   0.970  10.909  0.4195  0.8964 -0.7412
 9115SOL    HW238805   2.146   0.987  10.870  0.0601  1.9002  0.6060
 9116SOL     OW38806   0.425   2.070   2.231  0.2744 -0.6978 -0.6580
 9116SOL    HW138807   0.353   2.019   2.267 -0.3908 -0.2051 -1.2920
 9116SOL    HW238808   0.374   2.132   2.179  1.4708  1.7603  1.0820
 9117SOL     OW38809   1.641   0.389   8.673 -0.6253  0.1042  0.3196
 9117SOL    HW138810   1.727   0.429   8.658  0.0471 -1.7041 -0.5836
 9117SOL    HW238811   1.625   0.414   8.764 -2.8458 -2.7734  0.6915
 9118SOL     OW38812   3.333   4.226   5.559  0.2141  0.1214  0.3539
 9118SOL    HW138813   3.263   4.178   5.513  1.6999  0.2638 -2.0484
 9118SOL    HW238814   3.388   4.156   5.594 -0.6824 -0.9839 -0.4146
 9119SOL     OW38815   0.331   1.622   2.247 -0.0840 -0.5784 -0.4309
 9119SOL    HW138816   0.391   1.548   2.254  2.1385  1.2980  0.3677
 9119SOL    HW238817   0.386   1.665   2.181 -0.4502 -0.5088 -0.6897
 9120SOL     OW38818   4.491   2.399   4.501 -0.3086  0.2970  0.0362
 9120SOL    HW138819   4.467   2.482   4.459  0.3322  0.1036 -0.7081
 9120SOL    HW238820   4.473   2.411   4.594 -0.0008 -0.3999  0.1815
 9121SOL     OW38821   2.825   1.465   7.901 -0.3285 -0.6418  0.3894
 9121SOL    HW138822   2.896   1.412   7.939 -1.6884 -1.3969  1.9130
 9121SOL    HW238823   2.798   1.521   7.974 -2.1321 -1.6708  0.5303
 9122SOL     OW38824   4.705   1.674   8.915 -0.9804  0.4454  0.4031
 9122SOL    HW138825   0.068   1.641   8.939 -0.9427  0.1924 -0.0879
 9122SOL    HW238826   4.654   1.680   8.996 -0.0828  0.3991  0.9634
 9123SOL     OW38827   1.392   1.395   4.407 -0.7011 -0.4136 -0.2408
 9123SOL    HW138828   1.439   1.439   4.478 -2.9778  0.6686  0.5904
 9123SOL    HW238829   1.309   1.440   4.424 -1.2247 -0.1681 -3.5586
 9124SOL     OW38830   2.996   1.530   1.750  0.3791 -0.5753 -0.0346
 9124SOL    HW138831   3.013   1.608   1.698  1.3678 -2.5358 -2.6851
 9124SOL    HW238832   2.957   1.466   1.691  1.5021 -0.7948 -0.5418
 9125SOL     OW38833   2.599   4.566   8.335 -0.4952  0.1186 -0.2467
 9125SOL    HW138834   2.640   4.600   8.414 -0.5833  1.5087 -0.7947
 9125SOL    HW238835   2.516   4.535   8.371 -0.9250  2.3710  0.7375
 9126SOL     OW38836   1.079   2.331   2.780 -0.5439  0.4442 -0.4286
 9126SOL    HW138837   1.128   2.276   2.719  0.1793 -0.3980  0.9024
 9126SOL    HW238838   1.039   2.394   2.721 -1.2189  1.2962  0.9425
 9127SOL     OW38839   0.563   3.967   9.450 -0.1831 -0.1946  0.2481
 9127SOL    HW138840   0.520   3.890   9.414 -0.0367 -0.6781  1.0897
 9127SOL    HW238841   0.539   3.959   9.543  1.3301  1.0655  0.7541
 9128SOL     OW38842   4.547   3.059   7.783 -0.5221 -0.5244  0.1973
 9128SOL    HW138843   4.488   3.125   7.746  0.7730  1.3134  1.4298
 9128SOL    HW238844   4.623   3.111   7.806 -0.1699 -0.9664  0.0372
 9129SOL     OW38845   4.584   1.960   0.643 -0.0709  0.1096  0.2193
 9129SOL    HW138846   4.647   1.898   0.679 -0.2565 -0.0825  0.2155
 9129SOL    HW238847   4.565   2.026   0.710 -3.7348  0.6759 -1.3490
 9130SOL     OW38848   0.404   2.548   6.491 -0.0652  0.6892 -0.0002
 9130SOL    HW138849   0.342   2.558   6.563  0.5030  1.7493  0.3559
 9130SOL    HW238850   0.456   2.628   6.496  1.1766 -0.0939 -0.4498
 9131SOL     OW38851   2.128   2.346   8.330 -0.0947  0.3958 -0.2446
 9131SOL    HW138852   2.037   2.338   8.360  0.8093  1.2438  2.7261
 9131SOL    HW238853   2.173   2.343   8.414 -3.8646  1.9397  1.8578
 9132SOL     OW38854   2.867   0.606  15.403 -0.2991  0.3274  0.5269
 9132SOL    HW138855   2.956   0.641  15.400 -0.1887  0.1306  1.4114
 9132SOL    HW238856   2.856   0.611  15.308  3.6671 -2.8873 -0.0641
 9133SOL     OW38857   4.240   0.879  10.603 -0.7766  0.3326  0.4458
 9133SOL    HW138858   4.313   0.939  10.621  0.5393 -0.5532 -1.9755
 9133SOL    HW238859   4.195   0.860  10.685 -0.2930 -0.1474  0.5977
 9134SOL     OW38860   2.837   3.985  10.245  0.4704 -0.1547  0.0596
 9134SOL    HW138861   2.858   3.949  10.159  1.6898 -1.6076  0.9499
 9134SOL    HW238862   2.742   3.988  10.240  0.4991  0.6938  0.0012
 9135SOL     OW38863   3.788   3.128  15.644  0.5114 -0.5126  0.6917
 9135SOL    HW138864   3.763   3.049  15.692 -1.4000 -1.0347 -1.0957
 9135SOL    HW238865   3.860   3.096  15.590 -1.8148 -0.3548 -2.5257
 9136SOL     OW38866   1.279   3.509  16.110 -0.1858 -0.5265 -0.5550
 9136SOL    HW138867   1.371   3.494  16.133 -0.2031 -0.3597 -0.3718
 9136SOL    HW238868   1.241   3.506  16.198  0.6697 -0.4068 -0.1820
 9137SOL     OW38869   1.152   3.568   8.268 -0.9406  0.0827 -0.3210
 9137SOL    HW138870   1.106   3.649   8.247 -0.6251  0.2381 -0.4136
 9137SOL    HW238871   1.097   3.495   8.241 -0.0241 -1.6734  2.5592
 9138SOL     OW38872   1.089   0.501   3.362 -0.8003 -0.0766 -0.0151
 9138SOL    HW138873   1.123   0.466   3.445 -0.1215 -0.6043 -0.5128
 9138SOL    HW238874   1.168   0.499   3.308  0.1999 -0.3026  1.4483
 9139SOL     OW38875   0.676   0.966   7.469 -0.0508 -0.6109  0.6451
 9139SOL    HW138876   0.736   0.981   7.396 -0.0191 -0.3434  0.7258
 9139SOL    HW238877   0.618   1.042   7.468  0.8345  0.0376 -0.6122
 9140SOL     OW38878   3.935   1.039   4.065 -0.2165 -0.0245 -0.4217
 9140SOL    HW138879   3.859   1.052   4.121 -0.7286  0.7286 -1.3023
 9140SOL    HW238880   3.923   0.951   4.029  3.2777 -0.1613 -1.2808
 9141SOL     OW38881   1.307   4.650   7.673  0.0700 -0.4329  0.2558
 9141SOL    HW138882   1.296   4.572   7.728 -1.6070 -1.0468 -0.9359
 9141SOL    HW238883   1.263   4.630   7.590  0.9162  2.2936 -0.8254
 9142SOL     OW38884   2.467   0.056   6.105 -0.0168  0.6769  0.1004
 9142SOL    HW138885   2.484   4.716   6.034  1.1893 -0.0829  1.0605
 9142SOL    HW238886   2.459   0.140   6.061  1.5698  0.9961  0.4225
 9143SOL     OW38887   2.163   2.707   3.728  0.9162  0.4421  0.3028
 9143SOL    HW138888   2.170   2.703   3.633 -1.3875  0.1277  0.1552
 9143SOL    HW238889   2.209   2.625   3.748  0.0149 -0.2295 -0.4091
 9144SOL     OW38890   0.553   4.629   3.180  0.0051 -0.4149 -0.5162
 9144SOL    HW138891   0.558   4.659   3.270  0.5296  0.6845 -0.9185
 9144SOL    HW238892   0.647   4.628   3.163 -0.0393 -1.1365 -0.7151
 9145SOL     OW38893   1.176   2.878   8.245 -0.3546  0.3540  0.7190
 9145SOL    HW138894   1.083   2.865   8.262 -0.7470  3.2566  0.8866
 9145SOL    HW238895   1.214   2.795   8.272  2.4591  0.8106 -1.8079
 9146SOL     OW38896   3.676   0.602  11.845 -0.6970  0.0210  0.3595
 9146SOL    HW138897   3.637   0.554  11.772  0.0269  0.4561 -0.3148
 9146SOL    HW238898   3.656   0.687  11.806  1.1374 -0.5798 -1.8800
 9147SOL     OW38899   2.806   1.162  13.784 -0.0174  0.2586  0.0949
 9147SOL    HW138900   2.832   1.111  13.861  1.9709  0.7839 -0.2439
 9147SOL    HW238901   2.723   1.118  13.764 -0.9961  1.2940  1.9604
 9148SOL     OW38902   3.039   0.825   8.604 -0.6201 -0.4220 -0.2042
 9148SOL    HW138903   3.099   0.772   8.656  0.0437 -0.2690 -0.8045
 9148SOL    HW238904   2.954   0.785   8.623 -0.0161 -1.3518  0.4970
 9149SOL     OW38905   0.458   2.855  10.639 -0.0755  0.6838 -0.2725
 9149SOL    HW138906   0.527   2.790  10.656  0.4235  1.2962  0.0158
 9149SOL    HW238907   0.503   2.934  10.667 -2.4416  2.9461 -2.9041
 9150SOL     OW38908   0.953   1.633   3.797 -0.2876  0.0807  0.4208
 9150SOL    HW138909   1.029   1.664   3.846  1.0061  1.9341 -2.8092
 9150SOL    HW238910   0.930   1.712   3.749 -1.5020 -1.7332 -1.9772
 9151SOL     OW38911   4.366   1.475   5.355  0.1516 -0.0342  0.0050
 9151SOL    HW138912   4.371   1.385   5.386  1.1313 -0.0281 -0.1471
 9151SOL    HW238913   4.340   1.470   5.263  0.0652  0.3415  0.0075
 9152SOL     OW38914   4.648   0.464  15.490  0.3057  0.0120 -0.0249
 9152SOL    HW138915   4.634   0.554  15.460  2.8795  0.1682 -0.7878
 9152SOL    HW238916   4.683   0.422  15.411  0.7599 -0.4751  0.4334
 9153SOL     OW38917   1.134   1.127   5.846 -0.5955 -0.0743  0.8611
 9153SOL    HW138918   1.159   1.175   5.924  0.0187 -0.0291  0.6350
 9153SOL    HW238919   1.045   1.161   5.844 -0.6181 -0.0104  3.1982
 9154SOL     OW38920   3.968   2.162   7.301 -0.1009  0.1770  0.4289
 9154SOL    HW138921   3.976   2.069   7.284  0.9194  0.2653  0.4412
 9154SOL    HW238922   4.061   2.183   7.294 -0.2715  1.2823  1.4150
 9155SOL     OW38923   3.114   3.600   3.552  0.4950  0.1510  0.5915
 9155SOL    HW138924   3.051   3.672   3.555 -0.5331 -0.7070 -0.5392
 9155SOL    HW238925   3.097   3.569   3.463  1.5879 -3.5908  1.7197
 9156SOL     OW38926   0.806   0.230   8.132  0.3805 -0.2753 -0.2451
 9156SOL    HW138927   0.765   0.171   8.195 -0.2350  0.8092  0.3916
 9156SOL    HW238928   0.899   0.208   8.124  0.6677  0.5873  0.5996
 9157SOL     OW38929   2.961   3.639   0.486 -0.0848  0.2751 -0.3821
 9157SOL    HW138930   2.989   3.642   0.395  2.9797 -0.9141  0.5480
 9157SOL    HW238931   2.973   3.544   0.491 -0.7564  0.0957 -2.1261
 9158SOL     OW38932   1.003   4.624   7.037 -0.0104  0.2722 -0.0051
 9158SOL    HW138933   0.988   4.594   7.127 -3.9365  0.6973 -0.5516
 9158SOL    HW238934   0.950   4.703   7.040 -0.5828 -0.0407 -2.3974
 9159SOL     OW38935   2.700   0.682   2.942  0.5570 -0.3479 -0.2013
 9159SOL    HW138936   2.656   0.659   2.860  0.5400 -0.8240 -0.0595
 9159SOL    HW238937   2.688   0.602   2.994 -1.3006 -0.8038 -1.3288
 9160SOL     OW38938   1.194   3.004  10.576  0.7885  0.3505 -0.1046
 9160SOL    HW138939   1.226   2.993  10.487 -1.2123 -1.1275 -0.6233
 9160SOL    HW238940   1.264   3.063  10.604  0.5676  0.0294  1.1242
 9161SOL     OW38941   2.421   4.579   1.895  0.0192  0.7766  0.0677
 9161SOL    HW138942   2.339   4.552   1.853  1.0489 -1.2970 -0.5622
 9161SOL    HW238943   2.484   4.539   1.836 -0.5257  0.1218 -0.0752
 9162SOL     OW38944   1.250   4.260   5.518  0.0596  0.2013 -0.2683
 9162SOL    HW138945   1.206   4.236   5.437  0.1942  0.2360 -0.3523
 9162SOL    HW238946   1.195   4.338   5.528  1.0786  1.0181 -0.9887
 9163SOL     OW38947   4.217   2.946  10.845 -0.0852  0.2877  0.0990
 9163SOL    HW138948   4.194   2.858  10.873  3.4109 -1.0776 -1.3306
 9163SOL    HW238949   4.133   2.991  10.858 -1.4739 -3.0206  2.4518
 9164SOL     OW38950   0.563   0.713   7.444 -0.4279 -0.3483 -0.6539
 9164SOL    HW138951   0.583   0.681   7.532 -0.3707  1.2213 -0.0887
 9164SOL    HW238952   0.598   0.802   7.446 -0.7718 -0.2058 -0.9059
 9165SOL     OW38953   1.569   3.533  10.469 -0.1962  0.3598  0.6039
 9165SOL    HW138954   1.634   3.601  10.485  3.1616 -2.4578 -1.3321
 9165SOL    HW238955   1.626   3.458  10.454  0.0050  1.1389 -2.5413
 9166SOL     OW38956   2.775   3.562   1.391  0.0150  0.0945 -0.2128
 9166SOL    HW138957   2.710   3.535   1.456 -0.5162  1.9691  0.0412
 9166SOL    HW238958   2.850   3.568   1.450  1.0800 -0.6668 -1.4788
 9167SOL     OW38959   4.120   4.530   2.279  0.2739  0.1039 -1.1632
 9167SOL    HW138960   4.030   4.542   2.308  0.5304  0.0921 -0.3744
 9167SOL    HW238961   4.102   4.478   2.201 -1.3148  0.4179 -1.0017
 9168SOL     OW38962   0.017   3.003   2.546 -0.2647  0.0524 -0.5909
 9168SOL    HW138963   0.015   2.909   2.565 -1.2236  0.7590  2.6560
 9168SOL    HW238964   0.101   3.046   2.557 -0.1923  0.0073 -0.9558
 9169SOL     OW38965   0.153   2.287   6.388 -0.1624 -0.0814 -0.1763
 9169SOL    HW138966   0.117   2.226   6.323  0.3349  1.0305 -1.4895
 9169SOL    HW238967   0.240   2.252   6.407  0.1799  1.3640  0.8803
 9170SOL     OW38968   4.289   0.776   9.117 -0.1796  0.5306 -0.6904
 9170SOL    HW138969   4.207   0.727   9.106  0.1694 -0.0799 -0.5612
 9170SOL    HW238970   4.352   0.735   9.058  0.2385  1.5169 -0.9290
 9171SOL     OW38971   3.664   0.408   6.207  0.0690  0.6571  0.0859
 9171SOL    HW138972   3.611   0.435   6.283  1.2591  0.6439  0.9181
 9171SOL    HW238973   3.735   0.472   6.208  0.7838 -0.1730  1.9345
 9172SOL     OW38974   0.196   4.484   1.742 -0.1083  0.1596  0.4260
 9172SOL    HW138975   0.221   4.450   1.656 -0.7795  2.0808 -0.5248
 9172SOL    HW238976   0.137   4.557   1.723 -1.1484 -0.6835  0.3856
 9173SOL     OW38977   3.142   3.967  10.021  0.6828 -0.0656 -0.0910
 9173SOL    HW138978   3.234   3.945  10.007  0.5895 -1.4256  1.3418
 9173SOL    HW238979   3.133   4.026   9.946  0.2797  0.1188  0.1026
 9174SOL     OW38980   0.275   3.039   7.549  0.0736 -0.2434 -0.4355
 9174SOL    HW138981   0.299   3.117   7.600 -1.4701 -0.7618  1.1148
 9174SOL    HW238982   0.273   2.975   7.620  1.1747  0.1701 -0.0338
 9175SOL     OW38983   0.213   1.875  12.170  0.2256  0.4605 -0.4874
 9175SOL    HW138984   0.253   1.885  12.256 -0.7380 -2.5248  0.3139
 9175SOL    HW238985   0.293   1.862  12.117  1.0375  0.1194  0.8209
 9176SOL     OW38986   4.598   4.489   6.275 -0.3958 -0.1923  0.3064
 9176SOL    HW138987   4.654   4.442   6.213 -0.4141 -0.5639  0.5720
 9176SOL    HW238988   4.600   4.576   6.235  1.3888 -0.5759 -0.4332
 9177SOL     OW38989   0.002   4.585   9.495  0.0881 -0.8196  0.0235
 9177SOL    HW138990   0.043   4.569   9.580 -0.2407  1.7459  0.6884
 9177SOL    HW238991   4.715   4.681   9.497  3.3548 -0.5332  2.6954
 9178SOL     OW38992   2.506   2.543  10.790  0.5601  0.0881  0.4998
 9178SOL    HW138993   2.500   2.506  10.878 -0.4446  3.4027  1.8514
 9178SOL    HW238994   2.413   2.563  10.774  0.3298 -1.5410 -0.1584
 9179SOL     OW38995   3.976   1.786   5.502 -0.2782  1.0140 -0.2413
 9179SOL    HW138996   4.050   1.730   5.478 -0.5994  0.3228  0.3728
 9179SOL    HW238997   3.932   1.791   5.417  1.5646 -0.8170 -1.3020
 9180SOL     OW38998   4.239   3.557   8.825  0.5874 -0.2934  0.2555
 9180SOL    HW138999   4.246   3.462   8.830 -2.6438 -0.4680  1.0061
 9180SOL    HW239000   4.314   3.584   8.772  1.1427 -1.9783  0.1751
 9181SOL     OW39001   2.186   4.693  10.264  0.2410  0.0239  0.1664
 9181SOL    HW139002   2.094   4.717  10.262  0.1897  0.0228  1.9782
 9181SOL    HW239003   2.220   4.683  10.175  1.1889  0.4688  0.4681
 9182SOL     OW39004   4.374   3.416   8.572  0.5329  0.4249  0.0422
 9182SOL    HW139005   4.313   3.348   8.600 -0.9460  1.1939 -1.3038
 9182SOL    HW239006   4.346   3.444   8.485 -1.0626  2.0663  1.0789
 9183SOL     OW39007   1.999   2.563  13.951  0.6162  0.3051 -0.2158
 9183SOL    HW139008   2.036   2.634  13.899  0.9462  0.9469  0.8795
 9183SOL    HW239009   2.057   2.493  13.921 -1.1714 -1.5901  0.7882
 9184SOL     OW39010   4.502   0.580  12.687  0.3745 -0.0833  0.4465
 9184SOL    HW139011   4.496   0.659  12.741  0.5428 -0.5798  1.2032
 9184SOL    HW239012   4.556   0.523  12.741  2.0397  0.2961 -0.8316
 9185SOL     OW39013   4.461   2.052   8.244  0.6538 -0.6517 -0.2402
 9185SOL    HW139014   4.419   2.117   8.300 -0.1338  1.0896 -2.8904
 9185SOL    HW239015   4.488   1.995   8.317 -0.8895 -0.5722  0.4200
 9186SOL     OW39016   0.742   3.170   5.979 -1.2176  0.2254 -0.1706
 9186SOL    HW139017   0.700   3.101   5.927  0.0426 -0.0597 -0.8168
 9186SOL    HW239018   0.776   3.226   5.909  0.0036 -0.7210 -0.3450
 9187SOL     OW39019   1.048   3.060  15.895  0.0373 -0.3868 -0.2944
 9187SOL    HW139020   1.119   3.090  15.837  1.2193 -1.8918  0.3672
 9187SOL    HW239021   1.074   3.098  15.979  0.6108 -1.0432 -0.1657
 9188SOL     OW39022   0.075   0.316   8.980  0.7831 -0.3368  0.2921
 9188SOL    HW139023   0.079   0.221   8.993 -0.4715 -0.2889  1.0367
 9188SOL    HW239024   4.707   0.340   8.965  0.5242 -2.2075 -1.1056
 9189SOL     OW39025   2.939   3.187   4.989 -0.1411 -0.0223 -0.1940
 9189SOL    HW139026   2.925   3.209   5.081 -2.1074  0.5976 -0.6568
 9189SOL    HW239027   2.955   3.273   4.951 -1.8534  0.2015 -0.3682
 9190SOL     OW39028   1.795   1.217   7.162  0.4324  0.1078  0.1910
 9190SOL    HW139029   1.810   1.127   7.193  0.1443 -0.2978 -0.8312
 9190SOL    HW239030   1.873   1.260   7.195  0.6735  2.6150 -3.7010
 9191SOL     OW39031   1.889   1.203   6.228  0.2394 -0.0725 -0.3706
 9191SOL    HW139032   1.889   1.281   6.284 -0.0649 -0.4068  0.0852
 9191SOL    HW239033   1.897   1.134   6.294  0.1323  0.2533 -0.0151
 9192SOL     OW39034   2.653   2.950   2.081  0.3223  0.0108 -0.1657
 9192SOL    HW139035   2.570   2.953   2.033  0.1578  0.9212  0.1833
 9192SOL    HW239036   2.700   2.869   2.061  0.4737 -0.0440  0.4115
 9193SOL     OW39037   0.930   1.877   1.250 -0.5670 -0.6860 -0.2163
 9193SOL    HW139038   0.923   1.939   1.177 -0.3269  0.3864  0.6676
 9193SOL    HW239039   1.003   1.924   1.291 -1.9808  0.8608  0.5535
 9194SOL     OW39040   1.205   3.085  10.148 -0.2253 -0.3114 -0.5672
 9194SOL    HW139041   1.283   3.087  10.203 -1.0791 -0.7141  0.6732
 9194SOL    HW239042   1.146   3.108  10.220 -2.8753  1.2506 -3.2365
 9195SOL     OW39043   0.560   1.263   9.847 -0.1359  0.0326  0.3531
 9195SOL    HW139044   0.506   1.249   9.770 -1.4978  2.2064  0.9017
 9195SOL    HW239045   0.532   1.187   9.898  2.6104 -0.2026  1.5305
 9196SOL     OW39046   0.287   3.998   8.070  0.0696  0.0911  0.2305
 9196SOL    HW139047   0.262   4.056   8.142  1.3301  0.7623  0.1216
 9196SOL    HW239048   0.246   4.039   7.993  0.8260  1.6440  0.6619
 9197SOL     OW39049   3.502   0.316   7.512  0.0987 -0.3378 -0.5451
 9197SOL    HW139050   3.593   0.334   7.486 -0.4392  0.1919 -2.0658
 9197SOL    HW239051   3.487   0.394   7.564 -0.0137  0.1654 -1.3256
 9198SOL     OW39052   3.257   1.265   0.024 -0.6513  0.0675  0.1871
 9198SOL    HW139053   3.295   1.218  17.643 -0.8142  0.2235  0.0041
 9198SOL    HW239054   3.217   1.341  17.675  0.9108  0.5784 -0.3616
 9199SOL     OW39055   0.962   4.569  16.431  0.1370  0.3537 -0.3631
 9199SOL    HW139056   0.935   4.588  16.521 -1.1011 -0.4492 -0.5642
 9199SOL    HW239057   0.925   4.652  16.401 -0.9383  0.5098  1.4327
 9200SOL     OW39058   0.321   1.886   2.433  0.3709  0.1892 -0.3421
 9200SOL    HW139059   0.299   1.805   2.388  1.4300  0.9324 -2.1971
 9200SOL    HW239060   0.386   1.848   2.492 -0.5563 -2.0697 -0.7612
 9201SOL     OW39061   1.149   4.181  17.441  0.1516  0.0625 -0.1642
 9201SOL    HW139062   1.112   4.266  17.466  0.1642  0.3537 -1.1662
 9201SOL    HW239063   1.217   4.165  17.507 -2.4808 -1.1185  2.2719
 9202SOL     OW39064   1.238   1.109  16.691 -0.5016 -0.7184  0.5144
 9202SOL    HW139065   1.306   1.057  16.734 -0.1283 -0.7756 -0.1439
 9202SOL    HW239066   1.199   1.160  16.762  0.5527  0.6635  0.1010
 9203SOL     OW39067   1.418   4.352   0.723  0.5066 -0.3372  0.6021
 9203SOL    HW139068   1.347   4.298   0.690 -1.6410  2.1338  1.1770
 9203SOL    HW239069   1.378   4.438   0.736  2.6811  0.4755  1.9953
 9204SOL     OW39070   3.296   3.813   9.714 -0.3839  0.3680 -0.2983
 9204SOL    HW139071   3.227   3.752   9.742 -0.3244 -0.7428 -2.5775
 9204SOL    HW239072   3.254   3.899   9.714  1.8682  1.4555  2.1462
 9205SOL     OW39073   4.115   2.682   5.695 -0.1430 -0.3815  0.7595
 9205SOL    HW139074   4.063   2.752   5.735 -0.9167 -0.1484 -0.6431
 9205SOL    HW239075   4.063   2.657   5.618  1.2392 -0.0880 -0.2517
 9206SOL     OW39076   3.179   1.914   4.124 -0.2867  0.0774 -0.3931
 9206SOL    HW139077   3.266   1.930   4.161 -0.2184  1.7489 -1.2826
 9206SOL    HW239078   3.129   1.899   4.204  1.0516 -0.3449  0.3620
 9207SOL     OW39079   2.068   4.386   6.226 -0.3260  0.0101  0.4406
 9207SOL    HW139080   2.027   4.303   6.253 -1.0185 -0.2261 -1.3761
 9207SOL    HW239081   2.141   4.356   6.172  1.0902  1.0583  1.7789
 9208SOL     OW39082   0.311   3.464  13.426 -0.2669  0.2545 -0.0883
 9208SOL    HW139083   0.327   3.551  13.464 -1.0404 -0.0158  0.8671
 9208SOL    HW239084   0.385   3.438  13.371 -0.9360  0.0224 -0.8747
 9209SOL     OW39085   0.155   4.072   3.892  0.5405  0.4996  0.1970
 9209SOL    HW139086   0.092   4.142   3.873 -0.3429 -0.1033  0.8890
 9209SOL    HW239087   0.171   4.081   3.986  0.4564 -1.7754  0.4273
 9210SOL     OW39088   1.560   1.350   2.139 -0.4264  0.0472  0.4801
 9210SOL    HW139089   1.511   1.310   2.067  0.3229  0.6675 -0.3740
 9210SOL    HW239090   1.642   1.301   2.146  0.6330  1.9020  1.1950
 9211SOL     OW39091   2.594   0.078  10.596 -0.1464  0.3942 -0.2601
 9211SOL    HW139092   2.515   0.071  10.542  1.5592 -0.4074 -2.6645
 9211SOL    HW239093   2.560   0.054  10.682 -0.3559  1.2788 -0.1049
 9212SOL     OW39094   2.765   4.355   2.579  0.3203 -0.1783 -0.2582
 9212SOL    HW139095   2.821   4.347   2.656  0.3667 -1.2107 -0.4029
 9212SOL    HW239096   2.680   4.345   2.623  1.0975 -0.8365  1.0904
 9213SOL     OW39097   2.842   3.001  11.803 -0.2160 -0.3657  0.0222
 9213SOL    HW139098   2.849   3.025  11.895  1.8939 -1.1999  0.0586
 9213SOL    HW239099   2.762   3.051  11.783 -1.4280 -1.6387  1.6803
 9214SOL     OW39100   2.496   2.916   4.160 -0.1215 -0.3450 -0.0714
 9214SOL    HW139101   2.485   2.999   4.208 -0.6625  0.3767 -1.4648
 9214SOL    HW239102   2.531   2.948   4.077  0.1229 -1.1157 -0.2588
 9215SOL     OW39103   3.476   3.027   5.680  0.0464 -0.8271 -0.2015
 9215SOL    HW139104   3.395   3.054   5.637  0.1114 -1.5615 -0.7909
 9215SOL    HW239105   3.496   3.108   5.726 -1.1409  1.1664 -3.1738
 9216SOL     OW39106   4.203   2.757   4.617 -0.5216 -0.6080 -0.4281
 9216SOL    HW139107   4.238   2.830   4.670 -3.6831 -1.4922  2.8736
 9216SOL    HW239108   4.185   2.804   4.536  0.1367 -0.3379 -0.4159
 9217SOL     OW39109   2.354   3.529   4.257  0.4209 -0.6900  0.2766
 9217SOL    HW139110   2.343   3.514   4.351 -2.7389  1.1556  0.2005
 9217SOL    HW239111   2.449   3.522   4.248  0.6170 -0.5307  2.3683
 9218SOL     OW39112   4.361   3.385   3.660  0.7396  0.3509  0.3518
 9218SOL    HW139113   4.281   3.410   3.705 -1.3679 -4.3885 -0.8087
 9218SOL    HW239114   4.326   3.355   3.576  1.4976 -0.2745  0.2592
 9219SOL     OW39115   4.307   2.412   3.753  0.0884  0.1055  0.4338
 9219SOL    HW139116   4.287   2.499   3.788  1.2964  0.3962  0.4330
 9219SOL    HW239117   4.223   2.373   3.732  1.2698 -3.1318  1.7592
 9220SOL     OW39118   2.030   2.434   3.868  0.2451 -0.0279  0.9623
 9220SOL    HW139119   2.028   2.428   3.772  0.9676 -1.6056  1.0408
 9220SOL    HW239120   2.123   2.455   3.875 -0.2186  1.9089  1.0565
 9221SOL     OW39121   1.884   4.674   1.857 -0.2252  0.1272 -0.4441
 9221SOL    HW139122   1.927   4.640   1.778 -1.2763 -0.5897 -0.7105
 9221SOL    HW239123   1.800   4.706   1.823  0.3373  1.8728 -0.1891
 9222SOL     OW39124   2.404   4.483  14.438  0.7908  0.3925 -0.2886
 9222SOL    HW139125   2.413   4.476  14.533  3.0864 -2.1527 -0.6981
 9222SOL    HW239126   2.324   4.536  14.428  1.1038  0.5513 -1.9635
 9223SOL     OW39127   2.869   1.428   3.334 -0.1121  0.4722  0.4998
 9223SOL    HW139128   2.825   1.343   3.346  1.3770 -0.4488 -0.6329
 9223SOL    HW239129   2.957   1.396   3.315 -0.3143  0.7209 -0.8608
 9224SOL     OW39130   1.119   3.325   4.917  0.1606 -0.5103  0.0105
 9224SOL    HW139131   1.093   3.403   4.966  1.5000  0.8699 -1.4358
 9224SOL    HW239132   1.079   3.345   4.832  0.9815 -0.3593 -0.3502
 9225SOL     OW39133   2.891   2.992  13.904  0.4012 -0.0190 -0.0883
 9225SOL    HW139134   2.869   3.048  13.979 -1.7612 -0.6976 -0.2406
 9225SOL    HW239135   2.901   3.057  13.835  2.8435 -1.5102 -1.1267
 9226SOL     OW39136   3.170   2.931  11.413  0.1223  0.3559  0.1590
 9226SOL    HW139137   3.134   2.972  11.335  0.6080  2.7186  1.1785
 9226SOL    HW239138   3.258   2.968  11.420 -0.1725  1.2934 -1.1598
 9227SOL     OW39139   2.364   2.113   9.351 -0.0177 -0.3110 -0.0336
 9227SOL    HW139140   2.416   2.177   9.399 -0.5316 -0.7458  1.1103
 9227SOL    HW239141   2.291   2.106   9.414  0.6660 -0.2971  0.7565
 9228SOL     OW39142   0.706   1.788  15.523  0.4337 -0.6628  0.2495
 9228SOL    HW139143   0.743   1.841  15.452 -2.6650 -1.7671 -2.1641
 9228SOL    HW239144   0.672   1.862  15.574  1.0345  0.3824 -0.8678
 9229SOL     OW39145   1.329   0.502   8.826  0.4670 -0.1050  0.2025
 9229SOL    HW139146   1.396   0.476   8.890  0.5813 -0.6777 -0.1492
 9229SOL    HW239147   1.261   0.519   8.892  0.4120 -1.0615  0.3998
 9230SOL     OW39148   0.132   3.111   2.976 -0.1130  0.6455  0.4567
 9230SOL    HW139149   0.206   3.078   2.924  0.3801  0.1944  1.4480
 9230SOL    HW239150   0.063   3.128   2.912  0.3003  0.3595 -0.0622
 9231SOL     OW39151   2.816   4.078   6.779 -0.5025 -0.3508  0.2334
 9231SOL    HW139152   2.785   4.122   6.858  0.1449  1.5640 -0.5577
 9231SOL    HW239153   2.907   4.107   6.785 -0.7302  0.5158 -0.3456
 9232SOL     OW39154   2.493   3.893   5.099 -0.0717  0.5253  0.2960
 9232SOL    HW139155   2.507   3.943   5.179  0.0670  1.0533 -0.0580
 9232SOL    HW239156   2.398   3.902   5.089 -0.3137 -2.6362 -0.3496
 9233SOL     OW39157   1.331   4.690   1.973  0.0094 -0.1947 -0.0453
 9233SOL    HW139158   1.416   4.705   1.933  0.1675  2.5687  1.3106
 9233SOL    HW239159   1.302   4.605   1.940 -0.2016 -0.7728  1.6268
 9234SOL     OW39160   0.575   2.422   7.891  0.4150 -0.0527  0.0949
 9234SOL    HW139161   0.497   2.458   7.931 -1.3968 -1.4928 -2.1054
 9234SOL    HW239162   0.587   2.497   7.832  0.1491  0.0555  0.1814
 9235SOL     OW39163   0.185   3.961   3.330 -0.3318  0.1127 -0.7300
 9235SOL    HW139164   0.112   3.900   3.321 -0.4971  0.0279  1.0986
 9235SOL    HW239165   0.226   3.955   3.244  0.8875  1.4840 -0.2411
 9236SOL     OW39166   3.680   3.357  17.089 -0.4866  0.3615 -0.5042
 9236SOL    HW139167   3.675   3.298  17.164 -0.4640  2.1864  0.9353
 9236SOL    HW239168   3.696   3.441  17.133  1.6984  0.2226 -1.0560
 9237SOL     OW39169   4.230   2.855   7.438  0.2849  0.0319  0.1717
 9237SOL    HW139170   4.287   2.801   7.493 -0.2002 -1.9671 -1.3061
 9237SOL    HW239171   4.173   2.786   7.403 -0.3142 -1.0350  3.2731
 9238SOL     OW39172   3.526   2.687   7.748  0.2496  0.2722 -0.4231
 9238SOL    HW139173   3.568   2.634   7.680  2.6147  0.9922  0.4622
 9238SOL    HW239174   3.435   2.674   7.722  0.5988 -0.7463 -1.1390
 9239SOL     OW39175   0.562   4.030  15.938 -0.0757  0.1958  0.8288
 9239SOL    HW139176   0.494   3.971  15.906 -0.2276  0.8629 -0.0625
 9239SOL    HW239177   0.525   4.072  16.015 -0.4056 -0.1439  0.8578
 9240SOL     OW39178   3.391   2.401  17.435 -0.4324  0.4458  0.7231
 9240SOL    HW139179   3.322   2.467  17.441 -0.6750  0.1552  1.0688
 9240SOL    HW239180   3.418   2.409  17.343  0.7402 -0.2234  1.0089
 9241SOL     OW39181   3.885   2.145   2.553  0.7661  0.2523  0.1747
 9241SOL    HW139182   3.970   2.115   2.585 -0.5568 -1.8304  1.7682
 9241SOL    HW239183   3.872   2.074   2.490 -1.3909  1.0104 -0.2300
 9242SOL     OW39184   0.901   3.117   9.901 -0.5984  0.1435  0.7336
 9242SOL    HW139185   0.995   3.128   9.920 -0.4153 -1.3568  0.6554
 9242SOL    HW239186   0.856   3.162   9.972  0.5313  1.7657  0.4471
 9243SOL     OW39187   2.644   0.845   7.773  0.9753  0.0793  0.2097
 9243SOL    HW139188   2.731   0.839   7.811  0.8722  1.2842  0.6378
 9243SOL    HW239189   2.604   0.911   7.830 -2.6857 -1.0009 -1.0927
 9244SOL     OW39190   0.319   1.016  16.335  0.4685  0.1095  0.0185
 9244SOL    HW139191   0.314   1.111  16.350 -0.1190  0.0880 -0.0437
 9244SOL    HW239192   0.384   0.992  16.400  0.5886  0.0529 -0.1243
 9245SOL     OW39193   0.625   4.625   4.368 -0.3379 -0.1175 -0.5288
 9245SOL    HW139194   0.631   4.719   4.352  2.4989 -0.1706  0.2353
 9245SOL    HW239195   0.655   4.593   4.283 -2.0270 -0.1142 -1.1220
 9246SOL     OW39196   2.599   3.168   1.253 -0.0663 -0.2769  0.1069
 9246SOL    HW139197   2.609   3.096   1.315 -3.0664  0.4501  1.4172
 9246SOL    HW239198   2.580   3.117   1.174  1.2814  2.1461 -1.7838
 9247SOL     OW39199   2.738   0.007   1.157 -0.0450 -0.0653  0.4007
 9247SOL    HW139200   2.742   4.663   1.089  0.3529  1.1518 -0.7797
 9247SOL    HW239201   2.793   0.076   1.120 -0.2838 -0.8839 -1.4745
 9248SOL     OW39202   1.040   1.232   1.978 -0.1115  0.4587  0.3203
 9248SOL    HW139203   0.997   1.213   2.062 -2.3377  0.3069 -0.8481
 9248SOL    HW239204   0.999   1.313   1.950  0.1100  0.1964 -0.7706
 9249SOL     OW39205   0.056   2.164   9.396 -0.0624 -0.3631 -0.0221
 9249SOL    HW139206   0.118   2.152   9.468  1.0164 -0.6124 -1.0072
 9249SOL    HW239207   0.119   2.191   9.329  1.2894  0.1604  1.4674
 9250SOL     OW39208   4.579   4.665   7.407  0.6279  0.0376  0.2083
 9250SOL    HW139209   4.506   4.693   7.352  0.9606 -0.2497 -0.3830
 9250SOL    HW239210   4.563   4.571   7.408  0.4885  0.0481 -3.7229
 9251SOL     OW39211   2.999   4.488   7.304 -0.2351 -0.5753  0.3999
 9251SOL    HW139212   2.989   4.555   7.236  1.7233 -0.8092 -0.1103
 9251SOL    HW239213   2.942   4.517   7.375 -1.4187 -0.4348 -0.6217
 9252SOL     OW39214   0.969   0.300   0.410  0.3052 -0.0747 -0.2053
 9252SOL    HW139215   0.881   0.336   0.426 -0.8212 -2.8870 -0.1271
 9252SOL    HW239216   0.954   0.250   0.330 -0.6052  2.4097 -1.5888
 9253SOL     OW39217   0.835   1.543  12.995 -0.5318  0.3987  0.3357
 9253SOL    HW139218   0.821   1.551  12.901 -1.0964 -0.5265  0.3383
 9253SOL    HW239219   0.793   1.622  13.027 -1.2618 -0.7461  2.2026
 9254SOL     OW39220   3.030   4.203   3.757  0.2900 -0.3484 -0.3413
 9254SOL    HW139221   3.030   4.211   3.662  2.1261  2.1674 -0.1256
 9254SOL    HW239222   2.979   4.282   3.778  1.0519  0.5153 -1.6964
 9255SOL     OW39223   3.469   2.146   2.102 -0.4493 -0.6799  0.3039
 9255SOL    HW139224   3.520   2.206   2.156 -4.0409  1.3262  1.4422
 9255SOL    HW239225   3.487   2.174   2.012 -1.3235 -2.6127 -0.4850
 9256SOL     OW39226   2.388   0.301   6.874  0.5733  0.3094  0.4351
 9256SOL    HW139227   2.324   0.333   6.938  0.9082 -1.3113  1.5922
 9256SOL    HW239228   2.374   0.361   6.801  0.6341  1.3968  1.3133
 9257SOL     OW39229   3.138   3.004   8.016  0.2325  0.1952  0.2932
 9257SOL    HW139230   3.210   3.017   7.955 -2.7128  0.4457 -3.1451
 9257SOL    HW239231   3.172   3.054   8.090  0.9662  0.1110  0.0151
 9258SOL     OW39232   3.487   0.709   9.458 -0.0509 -0.3859  0.1296
 9258SOL    HW139233   3.482   0.622   9.497 -0.2945  0.0613  1.1178
 9258SOL    HW239234   3.457   0.687   9.370 -0.9400 -0.6152  0.4855
 9259SOL     OW39235   1.754   0.582   1.732  0.0892  0.1738  0.6042
 9259SOL    HW139236   1.750   0.516   1.801 -2.8801 -0.0768  0.1984
 9259SOL    HW239237   1.749   0.538   1.647  0.4234  0.4275  0.4529
 9260SOL     OW39238   2.406   4.140  15.654  0.1786  0.5648 -0.1449
 9260SOL    HW139239   2.347   4.067  15.671 -0.4062  1.0687 -0.0246
 9260SOL    HW239240   2.429   4.133  15.561  1.5182 -0.6199  0.2714
 9261SOL     OW39241   4.631   1.199  16.288 -0.2238 -0.1742 -0.2640
 9261SOL    HW139242   4.684   1.199  16.209 -0.4872  0.1256 -0.4409
 9261SOL    HW239243   4.675   1.125  16.331  0.7772  0.9902  0.7451
 9262SOL     OW39244   0.473   4.422   9.524 -0.0749 -0.0539 -0.0697
 9262SOL    HW139245   0.465   4.351   9.460  1.9282 -1.2583  1.0153
 9262SOL    HW239246   0.426   4.498   9.491 -0.5460  0.0896  0.9455
 9263SOL     OW39247   4.685   3.734   3.714  0.5354 -0.9721  0.4590
 9263SOL    HW139248   0.037   3.787   3.688 -1.5334  0.6105 -2.2118
 9263SOL    HW239249   4.690   3.651   3.668 -3.6437 -1.7721  1.4124
 9264SOL     OW39250   1.993   2.840  10.558  0.5185  0.3922 -0.1084
 9264SOL    HW139251   2.059   2.893  10.513 -0.0171  0.7145 -0.5081
 9264SOL    HW239252   2.030   2.753  10.537 -2.6566 -0.6857 -1.1797
 9265SOL     OW39253   2.652   2.532  16.768 -0.1925  0.1916 -0.0686
 9265SOL    HW139254   2.599   2.527  16.848  0.6176  0.8968  0.5157
 9265SOL    HW239255   2.682   2.443  16.754  1.0690  0.8861 -1.7601
 9266SOL     OW39256   3.532   2.918   6.227  0.3521  0.5236  0.3005
 9266SOL    HW139257   3.584   2.976   6.284 -0.2412  3.1494 -1.8552
 9266SOL    HW239258   3.599   2.869   6.180 -1.7603 -0.5530 -1.5560
 9267SOL     OW39259   3.227   3.033  12.457 -0.0806  1.1534 -0.0869
 9267SOL    HW139260   3.314   3.008  12.426 -0.6802  0.7669 -1.4832
 9267SOL    HW239261   3.173   2.964  12.417 -1.1603  2.1270 -0.2914
 9268SOL     OW39262   0.490   4.576  16.995 -0.1158 -0.0648 -0.5811
 9268SOL    HW139263   0.439   4.629  16.934 -1.4124  1.5048  1.8736
 9268SOL    HW239264   0.576   4.562  16.955  0.5825  0.2919  0.7916
 9269SOL     OW39265   0.755   1.024   0.578  0.3190 -0.0572 -0.5347
 9269SOL    HW139266   0.754   0.987   0.490  0.3560 -0.0392 -0.5424
 9269SOL    HW239267   0.661   1.029   0.597  0.1233 -2.8522 -0.8254
 9270SOL     OW39268   2.067   4.526  16.089 -0.3040 -0.8365  0.4084
 9270SOL    HW139269   2.070   4.552  16.181 -0.0327 -0.6463  0.3456
 9270SOL    HW239270   1.989   4.471  16.084 -0.1380 -1.0361 -0.0188
 9271SOL     OW39271   1.163   1.153   3.379  0.6405  0.3311  1.0176
 9271SOL    HW139272   1.094   1.220   3.370  1.4806  1.1305  0.5046
 9271SOL    HW239273   1.244   1.204   3.384  0.9918 -0.4391  3.3605
 9272SOL     OW39274   1.169   4.032   8.410  0.1497  0.3924 -0.2358
 9272SOL    HW139275   1.116   4.085   8.469  0.7681  2.0031 -1.1406
 9272SOL    HW239276   1.139   3.944   8.434  1.1160  0.0276 -0.3244
 9273SOL     OW39277   4.099   2.094   2.700  0.0590 -0.5379 -0.4186
 9273SOL    HW139278   4.086   1.999   2.705  1.0178 -0.5426  1.6996
 9273SOL    HW239279   4.187   2.097   2.661  0.4582 -0.0812  0.5212
 9274SOL     OW39280   1.107   4.094   3.197  0.0626  0.4378 -0.1231
 9274SOL    HW139281   1.084   4.010   3.235 -1.2019  1.8040  2.1612
 9274SOL    HW239282   1.027   4.103   3.146  0.4088  1.2530 -0.5174
 9275SOL     OW39283   2.407   2.832   4.504 -0.5257  0.0350  0.1023
 9275SOL    HW139284   2.451   2.912   4.534  1.9019 -0.7973 -1.2126
 9275SOL    HW239285   2.395   2.793   4.591 -2.2882 -0.3125 -0.2993
 9276SOL     OW39286   2.500   2.259   1.292 -0.2886 -0.3068  0.0775
 9276SOL    HW139287   2.520   2.222   1.378  1.0045  1.1224  0.3900
 9276SOL    HW239288   2.574   2.226   1.241  0.0251  1.0504 -0.3576
 9277SOL     OW39289   4.137   4.687   8.142 -0.1327  0.3853  0.1783
 9277SOL    HW139290   4.146   4.664   8.235 -0.0322  1.2483  0.3900
 9277SOL    HW239291   4.047   4.661   8.127 -1.0690  3.9550 -0.3611
 9278SOL     OW39292   4.509   1.491   7.866 -0.8005 -0.0570  0.2208
 9278SOL    HW139293   4.471   1.430   7.803 -1.8002  1.0013 -0.1927
 9278SOL    HW239294   4.572   1.535   7.809 -0.4081 -1.5011 -0.4546
 9279SOL     OW39295   4.098   2.696  13.371  0.2437 -0.1731 -0.4046
 9279SOL    HW139296   4.109   2.787  13.398  0.4957 -0.5996  0.9364
 9279SOL    HW239297   4.169   2.678  13.309  0.9789 -0.1992  0.4605
 9280SOL     OW39298   3.542   3.246  16.108 -0.0181 -0.2625  0.4152
 9280SOL    HW139299   3.563   3.190  16.183  1.2235 -0.7094 -0.2629
 9280SOL    HW239300   3.624   3.237  16.059  0.8240 -0.2246  1.8060
 9281SOL     OW39301   0.365   1.193   8.604 -1.0225  0.6577  0.8115
 9281SOL    HW139302   0.306   1.118   8.593  0.6647 -0.8450  2.1058
 9281SOL    HW239303   0.308   1.260   8.640 -1.4165  0.8314 -0.1215
 9282SOL     OW39304   4.465   3.330   2.861  0.4264 -0.0547  0.3648
 9282SOL    HW139305   4.487   3.407   2.915 -0.2268  1.2790 -1.2988
 9282SOL    HW239306   4.449   3.273   2.936  0.5511  0.7809  1.0342
 9283SOL     OW39307   4.338   1.675  14.245  0.3345 -0.2063  0.5442
 9283SOL    HW139308   4.422   1.661  14.202  1.2249 -0.4482  2.3652
 9283SOL    HW239309   4.297   1.595  14.213  3.9707 -1.4289 -1.0874
 9284SOL     OW39310   3.646   1.682   3.188 -0.3523  0.1760  0.6109
 9284SOL    HW139311   3.567   1.671   3.134 -0.0863  1.1361  0.0108
 9284SOL    HW239312   3.708   1.613   3.167  0.9433  1.0730  1.5583
 9285SOL     OW39313   1.123   0.133   3.648  0.8926 -0.1461 -0.2718
 9285SOL    HW139314   1.180   0.203   3.618  0.7053 -0.6654 -1.8807
 9285SOL    HW239315   1.057   0.184   3.696  0.8090 -0.4413 -0.0740
 9286SOL     OW39316   2.301   1.444   6.064  0.2113 -0.1353 -0.0613
 9286SOL    HW139317   2.273   1.374   6.006  2.1416 -0.3473 -0.7370
 9286SOL    HW239318   2.239   1.442   6.138 -0.9415  1.1794 -0.9738
 9287SOL     OW39319   2.674   1.959   6.113 -0.1879  0.1044  0.0091
 9287SOL    HW139320   2.619   2.030   6.147  1.2046  0.0786  2.3215
 9287SOL    HW239321   2.696   1.995   6.027 -1.0230  1.5561  0.3924
 9288SOL     OW39322   4.666   2.534   5.926  0.7547  0.4790 -0.1323
 9288SOL    HW139323   4.629   2.622   5.934  2.4639  1.1122  0.7920
 9288SOL    HW239324   4.651   2.513   5.834  0.2956  3.3664 -0.7316
 9289SOL     OW39325   3.590   1.617  10.823 -0.0779  0.1085  0.3511
 9289SOL    HW139326   3.508   1.568  10.823 -0.2684  0.4354  1.0854
 9289SOL    HW239327   3.637   1.551  10.873 -2.0016 -2.1221 -0.7959
 9290SOL     OW39328   0.725   1.641   6.477  0.1254  0.3281  0.2179
 9290SOL    HW139329   0.754   1.563   6.431 -2.2790 -0.9874  0.9461
 9290SOL    HW239330   0.643   1.606   6.512 -0.5324 -0.4315 -2.1436
 9291SOL     OW39331   3.124   2.508   5.029  0.0777 -0.1021 -0.0350
 9291SOL    HW139332   3.180   2.544   4.960  1.4045  0.7961  1.4966
 9291SOL    HW239333   3.182   2.437   5.056  0.2615 -0.6205 -1.7635
 9292SOL     OW39334   4.268   2.301   5.189  0.0176  0.2899  0.4035
 9292SOL    HW139335   4.191   2.246   5.203 -0.3241  0.6023 -0.2323
 9292SOL    HW239336   4.307   2.251   5.118 -0.2963  0.5817  0.0206
 9293SOL     OW39337   1.712   0.457  11.443 -0.0182  0.5891  0.0072
 9293SOL    HW139338   1.677   0.415  11.365 -1.7526  0.5607  0.7881
 9293SOL    HW239339   1.781   0.513  11.408  0.7461 -0.5581 -0.3223
 9294SOL     OW39340   0.926   2.771   6.820  0.4910 -0.2547  0.0003
 9294SOL    HW139341   0.922   2.865   6.807 -3.7311 -0.2458  1.3573
 9294SOL    HW239342   0.948   2.779   6.913  1.4413 -0.7616 -0.1698
 9295SOL     OW39343   4.593   2.522   8.517 -0.0323 -0.6735  0.8402
 9295SOL    HW139344   4.543   2.461   8.571  2.3999 -0.6475  3.1247
 9295SOL    HW239345   4.549   2.496   8.436  1.0075  1.1568 -0.3151
 9296SOL     OW39346   4.512   3.408   5.796 -0.3394 -0.2672 -0.0186
 9296SOL    HW139347   4.599   3.435   5.826  0.7097 -2.1631 -1.2826
 9296SOL    HW239348   4.501   3.334   5.856  0.4857 -1.2954 -1.1244
 9297SOL     OW39349   0.351   0.721   7.898  0.3413  0.2946  0.0793
 9297SOL    HW139350   0.351   0.633   7.935 -1.0291  1.1291  2.0368
 9297SOL    HW239351   0.307   0.704   7.814 -0.8039 -0.1225  0.7713
 9298SOL     OW39352   3.943   3.871  13.964  0.4143  0.4814  0.2434
 9298SOL    HW139353   4.011   3.805  13.954  0.4070  0.6511 -0.9238
 9298SOL    HW239354   3.985   3.946  14.006 -0.1641  1.6437 -1.2773
 9299SOL     OW39355   0.673   0.093   5.021 -0.3238 -0.5476 -0.4862
 9299SOL    HW139356   0.657   0.171   4.967  1.1080  0.8246  1.0789
 9299SOL    HW239357   0.741   0.120   5.083 -1.1541  0.3023  0.0556
 9300SOL     OW39358   2.261   3.537   5.342 -0.5708 -0.3048 -0.4348
 9300SOL    HW139359   2.218   3.552   5.257 -0.1559 -1.6749 -0.8928
 9300SOL    HW239360   2.182   3.521   5.394 -1.0018 -0.1575 -1.0339
 9301SOL     OW39361   0.972   1.380   6.572  0.1085 -0.1410 -0.5743
 9301SOL    HW139362   1.045   1.340   6.618  0.0843 -1.8788 -2.0300
 9301SOL    HW239363   0.892   1.329   6.584 -0.6034  0.5607 -2.2492
 9302SOL     OW39364   4.411   4.225   8.749  0.0030  0.1290 -0.2365
 9302SOL    HW139365   4.458   4.157   8.797  0.5446  1.9468  1.8198
 9302SOL    HW239366   4.323   4.199   8.775 -0.5010  2.9696  0.9358
 9303SOL     OW39367   4.008   0.977  13.138  0.3074 -0.0762 -0.2807
 9303SOL    HW139368   3.918   0.962  13.166 -0.5039  1.2483 -2.1395
 9303SOL    HW239369   4.054   0.898  13.165  0.0343 -0.7231 -1.6774
 9304SOL     OW39370   0.160   3.073   5.663 -0.8072  0.4640  0.6950
 9304SOL    HW139371   0.174   2.987   5.703  2.9403  0.7240 -0.0777
 9304SOL    HW239372   0.253   3.094   5.664 -0.8812  0.7920  0.6179
 9305SOL     OW39373   2.447   4.437   6.774  0.4954 -0.0753  0.4459
 9305SOL    HW139374   2.389   4.464   6.703  1.2336  0.7834  0.1722
 9305SOL    HW239375   2.400   4.488   6.841 -0.6208 -1.6691  0.8844
 9306SOL     OW39376   3.089   2.086   7.736  0.3501  0.1702  0.5260
 9306SOL    HW139377   3.030   2.013   7.718  0.9138 -0.1328 -0.0565
 9306SOL    HW239378   3.173   2.044   7.753  0.1248 -0.3986  0.2157
 9307SOL     OW39379   1.457   0.103  13.254  0.0640  0.2770  0.3361
 9307SOL    HW139380   1.402   0.181  13.261 -1.5858 -0.7811 -0.7864
 9307SOL    HW239381   1.533   0.142  13.211  1.2944 -0.5171  1.8111
 9308SOL     OW39382   1.931   3.348   9.276  0.0712  0.3440  0.3981
 9308SOL    HW139383   1.906   3.332   9.185  0.1074  0.4323  0.3736
 9308SOL    HW239384   1.841   3.354   9.310 -0.8302 -1.1929 -1.7124
 9309SOL     OW39385   1.186   4.218  15.349 -0.0828 -0.1560  0.1643
 9309SOL    HW139386   1.140   4.263  15.420  0.9029  0.1246  0.6206
 9309SOL    HW239387   1.169   4.126  15.369  1.0580 -0.6132 -0.9824
 9310SOL     OW39388   3.775   1.697   4.504 -0.0946 -0.3264  0.1862
 9310SOL    HW139389   3.812   1.636   4.568  0.5929 -0.7934 -0.6491
 9310SOL    HW239390   3.709   1.746   4.553  0.7948 -1.4520  2.4976
 9311SOL     OW39391   2.029   0.942   1.016  0.1918  0.2524  0.7892
 9311SOL    HW139392   1.998   1.009   0.955  3.2955  1.4753  0.5340
 9311SOL    HW239393   1.946   0.925   1.060 -0.3036 -0.3221 -0.3561
 9312SOL     OW39394   0.115   2.571   3.325  0.0906 -0.2533  0.0945
 9312SOL    HW139395   0.193   2.536   3.369 -0.0517 -0.8127 -0.0971
 9312SOL    HW239396   0.077   2.496   3.278  1.7981 -1.5128  0.7352
 9313SOL     OW39397   0.900   3.197   5.675 -0.2444 -0.1024  0.1134
 9313SOL    HW139398   0.921   3.252   5.750  1.0348  0.9550 -1.0208
 9313SOL    HW239399   0.984   3.164   5.644 -0.7380 -2.2312  1.0638
 9314SOL     OW39400   0.275   0.948   0.911 -0.0786 -0.1783 -0.7051
 9314SOL    HW139401   0.323   0.966   0.830  0.0712 -0.1976 -0.6204
 9314SOL    HW239402   0.188   0.984   0.892 -0.1581  0.7631  1.3606
 9315SOL     OW39403   2.620   1.114   2.488 -0.2761 -0.7666  0.1246
 9315SOL    HW139404   2.612   1.106   2.583 -0.9871 -0.6204  0.0814
 9315SOL    HW239405   2.577   1.199   2.471 -1.0144 -1.0338  0.6577
 9316SOL     OW39406   4.110   3.563   4.327  0.4810  0.6616 -0.1364
 9316SOL    HW139407   4.039   3.578   4.390 -0.2218  1.6551 -1.1768
 9316SOL    HW239408   4.077   3.484   4.286  0.6703  0.5746 -0.1228
 9317SOL     OW39409   1.504   3.284   8.387  0.1455 -0.2185 -0.5643
 9317SOL    HW139410   1.562   3.259   8.315 -1.1035  2.3017 -2.4221
 9317SOL    HW239411   1.484   3.376   8.373 -0.1306 -0.2288 -0.2500
 9318SOL     OW39412   0.428   4.625   0.695 -0.4347 -0.0757  0.3615
 9318SOL    HW139413   0.395   4.628   0.785 -0.6015 -0.8564  0.3275
 9318SOL    HW239414   0.398   4.707   0.656 -2.0211  0.7608  3.3605
 9319SOL     OW39415   4.542   4.427  15.206  0.3022 -0.6324 -0.3864
 9319SOL    HW139416   4.585   4.366  15.266  0.4494  0.7565  0.9184
 9319SOL    HW239417   4.612   4.479  15.166  1.6156 -1.2368  1.1209
 9320SOL     OW39418   1.021   4.009   2.778  0.4182  0.0559  0.2661
 9320SOL    HW139419   1.065   4.023   2.695 -0.5778 -0.6938 -0.3928
 9320SOL    HW239420   1.091   3.963   2.825  0.9391 -0.1922 -0.7625
 9321SOL     OW39421   1.200   1.736  13.393 -0.3023 -0.1388  0.2410
 9321SOL    HW139422   1.195   1.640  13.395  1.0558 -0.2175 -0.8142
 9321SOL    HW239423   1.208   1.751  13.488  2.2215 -0.8963  0.1553
 9322SOL     OW39424   4.128   4.512  17.681  0.6520 -0.1150  0.1104
 9322SOL    HW139425   4.056   4.484  17.625 -1.5612  1.1902  2.3331
 9322SOL    HW239426   4.090   4.592   0.025 -0.0021 -0.4134  0.0847
 9323SOL     OW39427   1.819   4.694   3.293  0.6559  0.2990  0.2243
 9323SOL    HW139428   1.756   4.709   3.222  1.1343 -2.9166 -0.8769
 9323SOL    HW239429   1.850   0.062   3.301  0.9454  0.4178 -2.1552
 9324SOL     OW39430   1.525   0.109   5.600 -0.2159  0.6614 -0.2689
 9324SOL    HW139431   1.446   0.159   5.621  0.1091  1.5705 -1.2204
 9324SOL    HW239432   1.586   0.176   5.569 -0.0203  1.0071  0.8626
 9325SOL     OW39433   1.870   1.803   2.437 -0.2615  0.2264 -0.0008
 9325SOL    HW139434   1.887   1.780   2.345  1.9521  0.0310  0.4717
 9325SOL    HW239435   1.780   1.771   2.447 -0.0794 -0.3414 -0.2257
 9326SOL     OW39436   2.639   2.411   2.887 -0.6363  0.3192 -0.5155
 9326SOL    HW139437   2.733   2.418   2.870 -0.5027  1.0032  0.5084
 9326SOL    HW239438   2.590   2.378   2.812 -2.8467  1.0639  0.6314
 9327SOL     OW39439   0.494   4.178   8.876  0.4514 -0.5388  0.2928
 9327SOL    HW139440   0.562   4.144   8.817  1.3665 -0.9407  1.5813
 9327SOL    HW239441   0.518   4.144   8.962  0.7078  0.6832  0.6943
 9328SOL     OW39442   3.395   1.687   4.418 -0.0395 -0.2450  0.4569
 9328SOL    HW139443   3.436   1.602   4.436  1.3470  0.7253  1.9053
 9328SOL    HW239444   3.426   1.751   4.483  3.0650 -0.2593 -1.0075
 9329SOL     OW39445   3.865   2.195   4.503 -0.8990 -0.0250  0.1248
 9329SOL    HW139446   3.809   2.268   4.477 -2.6614 -1.6801 -0.7628
 9329SOL    HW239447   3.953   2.222   4.478 -0.9003 -0.9171 -0.8495
 9330SOL     OW39448   2.056   1.797   4.292 -0.0030 -0.3500 -0.2770
 9330SOL    HW139449   1.998   1.747   4.349  2.2982 -2.4077  0.2234
 9330SOL    HW239450   1.988   1.851   4.251  0.7143  0.7628  0.0012
 9331SOL     OW39451   2.664   1.900   1.995 -0.1804 -0.1566 -0.3889
 9331SOL    HW139452   2.618   1.833   2.046 -2.7463  2.1592  0.3397
 9331SOL    HW239453   2.752   1.887   2.029  0.9280  1.0518 -2.8543
 9332SOL     OW39454   4.263   1.712  10.141 -0.0843 -0.4621  0.1488
 9332SOL    HW139455   4.173   1.740  10.125 -0.3154 -0.2133  1.8694
 9332SOL    HW239456   4.307   1.794  10.121  1.7837 -1.4359  0.1657
 9333SOL     OW39457   0.805   3.709   2.780 -0.2547  0.2409  0.6051
 9333SOL    HW139458   0.862   3.749   2.714 -3.8316  2.5055 -1.1043
 9333SOL    HW239459   0.715   3.724   2.750  0.2763  0.7464 -0.7295
 9334SOL     OW39460   1.148   0.562   4.308 -0.0030 -0.4357 -0.0564
 9334SOL    HW139461   1.077   0.573   4.371  0.5160 -4.2467  1.1737
 9334SOL    HW239462   1.134   0.484   4.253  1.2693  0.5674 -1.8030
 9335SOL     OW39463   1.308   3.107   7.299  1.0074 -0.1165  0.4273
 9335SOL    HW139464   1.280   3.143   7.214  2.6842  0.3844  0.0869
 9335SOL    HW239465   1.239   3.095   7.364  0.3585 -1.7914 -0.5739
 9336SOL     OW39466   3.342   3.168   2.128 -0.1773 -0.0335 -0.5613
 9336SOL    HW139467   3.284   3.135   2.196  0.5388  2.8396  1.4439
 9336SOL    HW239468   3.402   3.222   2.179  0.4759 -0.5020 -0.8320
 9337SOL     OW39469   0.943   0.571   7.131  0.0506 -0.5484  0.6680
 9337SOL    HW139470   0.942   0.482   7.095  0.7792 -0.0849 -0.5155
 9337SOL    HW239471   0.867   0.558   7.188 -0.1139  3.3132  1.3250
 9338SOL     OW39472   1.962   4.004   4.988 -0.0095  0.3102 -0.1292
 9338SOL    HW139473   1.870   4.022   4.972  0.3383  2.6945  0.6491
 9338SOL    HW239474   1.961   3.908   4.979  1.1430  0.2006  0.8174
 9339SOL     OW39475   3.713   4.646   8.487  0.3922  0.5844 -0.5782
 9339SOL    HW139476   3.727   4.554   8.464 -2.7718 -0.1261  0.2915
 9339SOL    HW239477   3.791   4.676   8.535  0.4783 -1.3433  0.4943
 9340SOL     OW39478   0.667   2.274   3.634 -0.2487 -0.6801  0.2476
 9340SOL    HW139479   0.600   2.254   3.569 -0.4021 -0.6280  0.3892
 9340SOL    HW239480   0.629   2.349   3.679  0.6037 -1.1008  1.6550
 9341SOL     OW39481   4.513   0.309   8.932  0.0004 -0.0522  0.3043
 9341SOL    HW139482   4.494   0.371   8.861 -1.0321 -0.6474  0.0716
 9341SOL    HW239483   4.475   0.225   8.907  3.2977 -1.4319 -0.1013
 9342SOL     OW39484   0.468   3.732   4.291 -0.1159  0.3775 -0.4445
 9342SOL    HW139485   0.541   3.772   4.339  0.8913  1.3292 -2.7889
 9342SOL    HW239486   0.486   3.771   4.205  1.5108 -0.1916 -0.3511
 9343SOL     OW39487   0.334   0.973  14.438 -0.2186  0.0226 -0.1002
 9343SOL    HW139488   0.265   1.039  14.442 -0.5167 -0.3144  0.3324
 9343SOL    HW239489   0.410   1.010  14.481  0.2023 -0.0376 -0.7892
 9344SOL     OW39490   1.213   1.946   9.161 -0.1277  0.2485  0.0714
 9344SOL    HW139491   1.210   1.899   9.244 -1.4825 -0.0543 -0.1411
 9344SOL    HW239492   1.296   1.921   9.119 -0.0884 -0.5092  0.5943
 9345SOL     OW39493   1.532   2.399  15.780 -0.0752  0.4313  0.6278
 9345SOL    HW139494   1.620   2.376  15.749 -0.3855  1.2497 -0.8780
 9345SOL    HW239495   1.524   2.486  15.741 -1.3594 -0.6495 -1.4730
 9346SOL     OW39496   2.755   0.702   4.557  1.0302 -0.4385  0.1111
 9346SOL    HW139497   2.763   0.607   4.563 -1.9691 -0.6779  0.3072
 9346SOL    HW239498   2.776   0.725   4.647  2.6201 -0.5195 -0.2510
 9347SOL     OW39499   2.869   0.319  10.765 -0.0510  0.0124  0.0313
 9347SOL    HW139500   2.835   0.380  10.830 -2.8780 -0.5482 -0.9356
 9347SOL    HW239501   2.802   0.250  10.767  1.6865 -1.7552 -2.2829
 9348SOL     OW39502   1.510   4.240   2.209  0.6155 -0.0315  0.6403
 9348SOL    HW139503   1.446   4.266   2.143  1.6605 -0.2642 -0.4593
 9348SOL    HW239504   1.495   4.145   2.217 -0.3822  0.0672 -0.0026
 9349SOL     OW39505   3.933   4.053   5.284  0.0715 -0.4655 -0.8703
 9349SOL    HW139506   3.921   4.079   5.375 -0.7525  0.2084 -1.1721
 9349SOL    HW239507   4.017   4.093   5.261  0.6020 -1.3159 -0.4030
 9350SOL     OW39508   1.795   3.847   5.212  0.4268 -0.5054  0.5447
 9350SOL    HW139509   1.713   3.835   5.164 -0.6778  0.8317  2.0614
 9350SOL    HW239510   1.795   3.943   5.219 -0.4322 -0.6378  2.5815
 9351SOL     OW39511   0.276   1.257   2.975 -0.3164 -0.1763  0.9318
 9351SOL    HW139512   0.282   1.239   3.069 -0.2690  0.2710  1.0137
 9351SOL    HW239513   0.311   1.171   2.952 -2.3744 -0.5535 -0.7069
 9352SOL     OW39514   4.508   4.087   2.659 -0.4752  0.5998 -0.4620
 9352SOL    HW139515   4.511   4.150   2.731  0.9627 -0.9507  0.8437
 9352SOL    HW239516   4.598   4.078   2.629 -0.1442  0.1353  0.6920
 9353SOL     OW39517   3.144   4.381   7.621 -0.4773 -0.1018  0.1246
 9353SOL    HW139518   3.127   4.365   7.714  2.2516  2.7985  1.1472
 9353SOL    HW239519   3.152   4.290   7.594  2.7462  0.1217  0.3440
 9354SOL     OW39520   2.783   4.436  12.400  0.2119  0.5348  0.2278
 9354SOL    HW139521   2.805   4.422  12.308  1.6952 -0.6587  0.7523
 9354SOL    HW239522   2.808   4.356  12.446 -0.4286  0.2110  0.0124
 9355SOL     OW39523   0.225   0.973   5.255 -0.1347  0.0378  0.5312
 9355SOL    HW139524   0.271   0.914   5.195 -1.5678 -0.1112 -0.4225
 9355SOL    HW239525   0.177   0.907   5.305  1.4941 -1.2146  0.4685
 9356SOL     OW39526   0.173   0.347   3.078 -0.0731 -0.1958  0.4556
 9356SOL    HW139527   0.162   0.259   3.041 -0.1223 -0.0431  0.1164
 9356SOL    HW239528   0.172   0.329   3.172  1.6563  1.3910  0.7855
 9357SOL     OW39529   1.925   0.364   1.979  0.5487  0.4556 -0.1432
 9357SOL    HW139530   1.834   0.394   1.978 -0.3390 -2.1899  0.8140
 9357SOL    HW239531   1.972   0.430   1.928 -0.7660  2.1574  0.8455
 9358SOL     OW39532   0.530   1.266  14.653  0.4465  0.2157  0.2738
 9358SOL    HW139533   0.541   1.347  14.702 -4.5518  0.7440  0.4947
 9358SOL    HW239534   0.466   1.293  14.588  1.3654  1.3314 -0.1758
 9359SOL     OW39535   0.871   4.312  10.896 -0.4089  0.0639 -0.1697
 9359SOL    HW139536   0.961   4.343  10.904 -1.0131  1.7538 -0.0151
 9359SOL    HW239537   0.834   4.338  10.812  0.1481  1.8708  0.1308
 9360SOL     OW39538   4.298   0.048   2.738  0.2797 -0.1323 -0.4552
 9360SOL    HW139539   4.221   0.058   2.684  0.6062  0.5856 -0.7822
 9360SOL    HW239540   4.308   0.138   2.769  3.6676 -0.7341  0.2136
 9361SOL     OW39541   1.329   3.723  10.687  0.3241  0.1838 -0.3381
 9361SOL    HW139542   1.414   3.721  10.731 -0.2488 -3.1757  0.6491
 9361SOL    HW239543   1.317   3.628  10.682  2.4462 -0.0144 -1.3875
 9362SOL     OW39544   3.350   0.647   9.146  0.2184  0.1417 -0.1811
 9362SOL    HW139545   3.340   0.652   9.051  2.8237  2.8962 -0.2989
 9362SOL    HW239546   3.393   0.563   9.163 -0.9319 -0.8189 -2.0761
 9363SOL     OW39547   1.817   2.144   8.093 -0.2807 -0.1205  0.3893
 9363SOL    HW139548   1.855   2.056   8.089  0.8153  0.3661  0.0541
 9363SOL    HW239549   1.783   2.149   8.004  1.0866  0.4428 -0.0895
 9364SOL     OW39550   2.878   3.755   7.070 -0.0722 -0.1420  0.4076
 9364SOL    HW139551   2.843   3.770   6.982  0.2261  0.7002  0.4337
 9364SOL    HW239552   2.906   3.843   7.097 -0.9537 -0.0951  1.1979
 9365SOL     OW39553   1.177   4.446   4.177 -0.1747 -0.1641 -0.0471
 9365SOL    HW139554   1.122   4.454   4.099 -0.3422 -1.4086 -0.0580
 9365SOL    HW239555   1.128   4.499   4.239 -1.4540 -0.8875 -0.4540
 9366SOL     OW39556   3.563   3.207  17.308  0.0189  0.3068 -0.5346
 9366SOL    HW139557   3.544   3.273  17.375 -2.5109  0.2607 -1.1995
 9366SOL    HW239558   3.643   3.170  17.346  1.1189  2.6010 -0.6472
 9367SOL     OW39559   3.690   4.050  15.298  0.2006  0.0671 -0.7368
 9367SOL    HW139560   3.743   3.995  15.355  0.3803  0.6414 -0.3452
 9367SOL    HW239561   3.755   4.070  15.231  0.9744 -0.4213 -0.1239
 9368SOL     OW39562   4.383   0.459  16.150 -0.1026 -0.6763 -0.3013
 9368SOL    HW139563   4.458   0.447  16.091  0.1741  1.9023 -0.4463
 9368SOL    HW239564   4.427   0.455  16.235  1.0935 -1.9425 -0.9847
 9369SOL     OW39565   0.675   3.152   4.354  0.0125  0.0326 -0.0689
 9369SOL    HW139566   0.646   3.155   4.262  0.2141 -0.7927 -0.1637
 9369SOL    HW239567   0.689   3.245   4.369  0.5231  0.0079 -0.3807
 9370SOL     OW39568   3.991   3.170  12.708  0.5677 -0.2198  0.0998
 9370SOL    HW139569   3.917   3.135  12.757  0.4737 -0.8202 -0.4689
 9370SOL    HW239570   4.017   3.082  12.679  0.0342  0.0830 -1.2515
 9371SOL     OW39571   4.250   1.636   2.177 -0.2014  0.4399  0.0011
 9371SOL    HW139572   4.279   1.626   2.086 -1.8943 -1.6697 -0.2887
 9371SOL    HW239573   4.188   1.564   2.186  0.4854 -0.2192 -0.5629
 9372SOL     OW39574   3.789   4.203   9.654 -0.4130 -0.3652  0.1422
 9372SOL    HW139575   3.759   4.136   9.593  1.0300 -1.3354  0.5048
 9372SOL    HW239576   3.773   4.281   9.601 -0.8557  1.1816  2.5307
 9373SOL     OW39577   0.591   1.100   3.726 -0.4762  0.1100 -0.3318
 9373SOL    HW139578   0.559   1.125   3.813  3.7782 -2.2364  1.8651
 9373SOL    HW239579   0.563   1.179   3.680 -1.1151 -0.1711 -0.4229
 9374SOL     OW39580   3.969   2.698  16.267  0.3464  0.2258 -0.7594
 9374SOL    HW139581   4.008   2.746  16.194  1.7932 -2.7609 -1.9674
 9374SOL    HW239582   3.951   2.770  16.328  0.5583 -0.8860  0.6327
 9375SOL     OW39583   0.449   3.284  16.733 -0.2725 -0.0016  0.1963
 9375SOL    HW139584   0.484   3.232  16.805  0.1574 -1.1820 -0.8729
 9375SOL    HW239585   0.362   3.305  16.768 -1.5248 -2.2049 -1.6248
 9376SOL     OW39586   1.231   0.602   8.555 -0.0598 -0.0346 -0.0507
 9376SOL    HW139587   1.226   0.551   8.636  1.2568 -0.5238 -0.2740
 9376SOL    HW239588   1.163   0.558   8.503 -0.7532  0.5589  0.3585
 9377SOL     OW39589   3.483   4.209   4.714 -0.6398 -0.1341 -0.6195
 9377SOL    HW139590   3.437   4.292   4.702 -0.1410  0.5387  2.0505
 9377SOL    HW239591   3.551   4.228   4.778 -1.8985  1.1359  0.3648
 9378SOL     OW39592   3.875   0.645   3.180 -0.4390 -0.1924  0.4203
 9378SOL    HW139593   3.863   0.708   3.110  0.9887  0.6410  0.9283
 9378SOL    HW239594   3.969   0.630   3.172 -0.4249  0.4902 -0.7118
 9379SOL     OW39595   2.410   1.196  13.063  0.2976  0.0109  0.2267
 9379SOL    HW139596   2.417   1.283  13.023  0.9930 -0.1870 -0.0826
 9379SOL    HW239597   2.501   1.171  13.081 -0.3324 -2.0669  0.5371
 9380SOL     OW39598   2.985   3.927  16.141  0.0930  0.1629  0.0885
 9380SOL    HW139599   3.060   3.982  16.120  0.8073 -0.7328  0.3091
 9380SOL    HW239600   2.988   3.881  16.058  2.6259  1.3101 -0.4665
 9381SOL     OW39601   2.322   1.596   9.007  0.0642 -0.2145 -0.2260
 9381SOL    HW139602   2.318   1.525   9.071 -1.6207 -1.2908 -1.4964
 9381SOL    HW239603   2.238   1.590   8.961  0.2293 -0.0254 -0.5566
 9382SOL     OW39604   2.236   2.656   0.981 -0.0908 -0.3469  0.0929
 9382SOL    HW139605   2.243   2.746   0.951  0.0115 -0.1924  0.5833
 9382SOL    HW239606   2.306   2.620   0.926  2.4942 -0.0663  3.2315
 9383SOL     OW39607   3.245   3.451  15.260  0.3499 -0.0436 -0.1610
 9383SOL    HW139608   3.191   3.529  15.276  2.4533  0.9444  2.0783
 9383SOL    HW239609   3.329   3.493  15.242  2.0119 -2.8466  1.0739
 9384SOL     OW39610   1.427   2.127   9.408  0.7221  0.5142  0.1103
 9384SOL    HW139611   1.446   2.044   9.364 -0.6066  0.6422 -0.7079
 9384SOL    HW239612   1.438   2.106   9.501 -2.0121  1.1381  0.5840
 9385SOL     OW39613   0.906   2.276   7.743  0.2346 -0.1242  0.1572
 9385SOL    HW139614   0.888   2.353   7.689 -2.8684 -0.8427  0.2063
 9385SOL    HW239615   0.950   2.222   7.677 -0.6660 -2.0265  1.1093
 9386SOL     OW39616   2.399   1.426  16.800  0.1273  0.7345 -0.4649
 9386SOL    HW139617   2.398   1.406  16.706  0.5960 -0.4835 -0.2183
 9386SOL    HW239618   2.321   1.373  16.818  1.1437 -1.1921 -1.7004
 9387SOL     OW39619   0.609   4.696   8.820  0.3046  0.0727  0.4494
 9387SOL    HW139620   0.558   4.655   8.890  0.8977 -0.3368  0.6354
 9387SOL    HW239621   0.692   4.703   8.867  0.0134  1.2733  0.7898
 9388SOL     OW39622   0.205   3.048   6.685  0.0471  0.0029  0.1603
 9388SOL    HW139623   0.297   3.031   6.703 -0.0912  3.3698  4.1198
 9388SOL    HW239624   0.193   2.989   6.611 -0.2938 -0.2486  0.4141
 9389SOL     OW39625   0.748   1.367   6.340 -0.2471  0.4382  0.3081
 9389SOL    HW139626   0.761   1.358   6.245 -0.1486  1.0970  0.2594
 9389SOL    HW239627   0.828   1.328   6.376 -1.0218  0.0850  1.6641
 9390SOL     OW39628   2.685   0.344   2.253 -0.2395  0.2767  0.4293
 9390SOL    HW139629   2.660   0.252   2.263  2.6799 -0.4769  0.6610
 9390SOL    HW239630   2.622   0.375   2.188 -0.2874  1.0080  0.8211
 9391SOL     OW39631   4.558   0.802   2.671  0.1118 -0.6456 -0.5857
 9391SOL    HW139632   4.614   0.726   2.683  1.5967  0.4447 -0.6645
 9391SOL    HW239633   4.613   0.863   2.622 -0.3743 -1.6656 -2.3961
 9392SOL     OW39634   3.566   0.096   4.393 -0.0736  0.0809  0.2665
 9392SOL    HW139635   3.513   0.169   4.362 -1.9961 -0.9763  1.0822
 9392SOL    HW239636   3.608   0.080   4.308  2.4166  0.2611  1.4426
 9393SOL     OW39637   0.010   1.211   9.543 -0.0953  0.2366  0.9074
 9393SOL    HW139638   0.013   1.116   9.547 -1.0783  0.1791  0.2981
 9393SOL    HW239639   4.701   1.228   9.632 -3.2445  0.9629 -0.3599
 9394SOL     OW39640   0.594   2.983   7.592 -0.1482  0.4122 -0.9137
 9394SOL    HW139641   0.553   2.969   7.678 -0.7812  0.7077 -1.1666
 9394SOL    HW239642   0.524   3.023   7.540 -0.4900 -1.5644 -1.9897
 9395SOL     OW39643   0.436   4.466   5.491 -0.1450  0.6720  0.3331
 9395SOL    HW139644   0.445   4.470   5.396  0.8062 -4.8849  0.2125
 9395SOL    HW239645   0.481   4.389   5.526 -2.5093 -0.6839  0.3862
 9396SOL     OW39646   4.517   3.172  16.881 -0.7761  0.0308  0.0640
 9396SOL    HW139647   4.459   3.217  16.943 -0.4122  0.4250  0.1120
 9396SOL    HW239648   4.458   3.099  16.860 -0.0773 -0.7849  0.9693
 9397SOL     OW39649   1.963   0.821   4.726 -0.0073 -0.3014 -0.1547
 9397SOL    HW139650   1.963   0.730   4.757 -0.3012 -0.4042 -0.4587
 9397SOL    HW239651   2.056   0.840   4.740 -0.1094  0.0923  0.0005
 9398SOL     OW39652   0.373   1.426  10.168 -0.9416  0.0442  0.2285
 9398SOL    HW139653   0.439   1.495  10.161 -1.4012  0.5344  0.7272
 9398SOL    HW239654   0.345   1.431  10.259 -0.5006  1.7205  0.2636
 9399SOL     OW39655   2.715   0.926   6.686 -0.3645  0.6522  0.5314
 9399SOL    HW139656   2.781   0.859   6.701  0.9457  1.3190 -2.2244
 9399SOL    HW239657   2.625   0.893   6.683 -0.6694  1.7257 -1.9093
 9400SOL     OW39658   1.523   3.821   7.347 -0.0028  0.1759  0.2703
 9400SOL    HW139659   1.495   3.911   7.334 -1.5165 -0.4092 -0.4807
 9400SOL    HW239660   1.453   3.795   7.407 -1.1138  0.5951 -0.8414
 9401SOL     OW39661   3.604   3.539   6.288 -0.0845  0.2743 -0.0208
 9401SOL    HW139662   3.631   3.529   6.197 -1.3368  0.1521 -0.3818
 9401SOL    HW239663   3.599   3.631   6.311  0.0503 -0.0333  1.2490
 9402SOL     OW39664   1.387   2.632   2.151 -0.2677  0.3867 -0.2669
 9402SOL    HW139665   1.354   2.577   2.081  0.4846 -0.5669  0.1332
 9402SOL    HW239666   1.448   2.685   2.099  1.5477 -0.9398  0.5296
 9403SOL     OW39667   0.268   0.911   0.168 -0.1744 -0.4552 -0.0581
 9403SOL    HW139668   0.267   0.933   0.261 -1.7769 -1.0101  0.0451
 9403SOL    HW239669   0.262   0.998   0.129  0.8354  0.1781  1.1761
 9404SOL     OW39670   4.562   3.032   3.270  0.3539 -0.3519 -0.3969
 9404SOL    HW139671   4.608   2.954   3.237 -0.8356 -0.6460 -1.3717
 9404SOL    HW239672   4.537   2.990   3.353 -2.4492  0.3644 -0.9002
 9405SOL     OW39673   2.296   0.046  11.561 -0.1879 -0.2795  0.3403
 9405SOL    HW139674   2.341   0.016  11.482 -1.9490  0.3842 -0.9270
 9405SOL    HW239675   2.336   0.132  11.551  1.1370 -0.8635  0.6478
 9406SOL     OW39676   1.289   4.426  10.036 -0.2601 -0.2380 -0.4232
 9406SOL    HW139677   1.297   4.456   9.946 -2.3372  0.4908 -0.3737
 9406SOL    HW239678   1.218   4.481  10.070 -1.1231 -1.7986  0.3236
 9407SOL     OW39679   4.276   1.064   4.318  0.0121  0.0775 -0.0836
 9407SOL    HW139680   4.254   1.136   4.260  0.3651 -1.3131 -1.9483
 9407SOL    HW239681   4.371   1.072   4.314 -0.0244  0.9991  0.9048
 9408SOL     OW39682   0.895   3.535   6.317  0.3889  0.1238 -0.0081
 9408SOL    HW139683   0.960   3.585   6.268 -1.4691  0.5410 -2.0257
 9408SOL    HW239684   0.840   3.606   6.350 -0.0770  1.8512 -4.5446
 9409SOL     OW39685   4.654   1.688   6.489 -0.5169 -0.3057 -0.7539
 9409SOL    HW139686   4.647   1.631   6.413 -0.1500  1.1463 -1.8677
 9409SOL    HW239687   4.646   1.773   6.445 -0.9250  0.1429  0.1733
 9410SOL     OW39688   1.060   0.842  17.656 -0.3546  0.5593 -0.1478
 9410SOL    HW139689   0.978   0.863  17.613 -0.4985 -1.2111 -0.7161
 9410SOL    HW239690   1.099   0.780  17.595  0.4136  0.4360  0.4578
 9411SOL     OW39691   1.627   3.245   2.487  0.2793 -0.1148  0.3605
 9411SOL    HW139692   1.538   3.221   2.514  0.2264 -0.9042 -0.4932
 9411SOL    HW239693   1.628   3.242   2.391  1.6716  1.6562  0.3351
 9412SOL     OW39694   0.381   4.414   7.813 -0.9498  0.4960  0.0209
 9412SOL    HW139695   0.447   4.463   7.763  0.9323 -1.7242  0.3156
 9412SOL    HW239696   0.399   4.444   7.902  0.2885 -1.0129  0.2823
 9413SOL     OW39697   0.800   2.903   8.564  0.0876  0.0039  0.4569
 9413SOL    HW139698   0.804   2.979   8.622  2.0424  1.6392 -1.7949
 9413SOL    HW239699   0.838   2.840   8.625  1.5388  2.7257  2.3517
 9414SOL     OW39700   2.925   2.114   1.895 -0.5197  0.6120  0.3437
 9414SOL    HW139701   3.014   2.084   1.914 -1.4228 -1.6457  0.9676
 9414SOL    HW239702   2.950   2.206   1.881  1.8657 -0.5498 -3.1351
 9415SOL     OW39703   1.459   2.105   6.147 -0.1856 -0.5579 -0.2551
 9415SOL    HW139704   1.371   2.067   6.155 -0.9060  1.3960  1.1048
 9415SOL    HW239705   1.508   2.046   6.090  1.0733  0.9370 -0.6912
 9416SOL     OW39706   0.332   2.462  11.534 -0.3566 -0.1089  0.3746
 9416SOL    HW139707   0.241   2.456  11.503 -0.3933  1.1897  0.2486
 9416SOL    HW239708   0.321   2.539  11.589  0.1691  1.5472 -1.8714
 9417SOL     OW39709   4.389   0.699  12.466 -0.3592  0.5711  0.5055
 9417SOL    HW139710   4.423   0.631  12.524  2.0882 -0.7181 -2.4677
 9417SOL    HW239711   4.410   0.781  12.510 -1.2825 -0.1291  2.2517
 9418SOL     OW39712   4.591   4.060   8.934  0.2780  0.3420 -0.0519
 9418SOL    HW139713   4.631   4.027   9.015 -0.5388 -1.3412 -0.3287
 9418SOL    HW239714   4.578   3.975   8.892  1.1911 -0.3322  1.0244
 9419SOL     OW39715   3.640   2.915  15.733 -0.2866  0.4541  0.0416
 9419SOL    HW139716   3.585   2.871  15.668 -0.6645 -0.5852  1.0676
 9419SOL    HW239717   3.586   2.909  15.812 -0.7812 -1.9158 -0.4658
 9420SOL     OW39718   0.604   0.715   1.345 -0.1925  0.1845  0.1058
 9420SOL    HW139719   0.628   0.640   1.400  1.2606 -0.5281 -1.4719
 9420SOL    HW239720   0.628   0.795   1.391 -1.1795  0.4358  0.1640
 9421SOL     OW39721   0.246   1.029   7.293 -0.2946 -0.0151 -0.0143
 9421SOL    HW139722   0.230   0.994   7.381  0.0139  0.5104  0.2528
 9421SOL    HW239723   0.175   1.094   7.297 -0.1341  0.3049 -2.4761
 9422SOL     OW39724   3.882   3.359  12.260  0.2015  0.4089  0.0413
 9422SOL    HW139725   3.962   3.330  12.215  0.0551  0.9478 -0.5812
 9422SOL    HW239726   3.850   3.390  12.175 -2.7287 -4.0142 -0.4444
 9423SOL     OW39727   2.364   1.881   0.202 -0.0987  0.2863 -0.0160
 9423SOL    HW139728   2.423   1.947   0.165  0.3408  0.0174  0.1997
 9423SOL    HW239729   2.304   1.867   0.129  1.6543 -3.1392 -0.7751
 9424SOL     OW39730   0.828   4.287   4.012 -0.2472 -0.2262  0.1706
 9424SOL    HW139731   0.839   4.288   3.916  1.8104 -0.4747  0.4052
 9424SOL    HW239732   0.826   4.194   4.035  0.9258 -0.2458  0.1548
 9425SOL     OW39733   3.148   4.290   4.270  0.5477 -0.2957 -0.3530
 9425SOL    HW139734   3.122   4.217   4.213 -0.8626  0.6569 -0.9279
 9425SOL    HW239735   3.086   4.276   4.341  2.5799 -1.8729  1.1187
 9426SOL     OW39736   0.726   0.790   4.382 -0.0275  0.1599  0.4167
 9426SOL    HW139737   0.740   0.779   4.288  1.4445  0.8306  0.5708
 9426SOL    HW239738   0.815   0.820   4.399 -0.1524 -1.1475  3.4217
 9427SOL     OW39739   3.965   3.409   9.167  0.3279  0.4504  0.1813
 9427SOL    HW139740   4.018   3.483   9.195 -0.8815  1.8874 -1.3166
 9427SOL    HW239741   3.902   3.377   9.231 -0.1277 -0.9820 -0.9699
 9428SOL     OW39742   4.404   1.899  12.058  0.1883  0.6065  0.5183
 9428SOL    HW139743   4.393   1.960  11.985 -0.0752 -0.2391 -0.1445
 9428SOL    HW239744   4.457   1.951  12.119  0.7360  0.9522 -0.2504
 9429SOL     OW39745   1.741   1.310   2.447  0.4982  0.2757  0.1579
 9429SOL    HW139746   1.759   1.218   2.433  2.3696  0.6765 -0.0813
 9429SOL    HW239747   1.743   1.332   2.541 -0.8784 -0.0104  0.2575
 9430SOL     OW39748   4.243   3.812   3.015  0.3266  0.2751  0.9120
 9430SOL    HW139749   4.172   3.831   3.076  1.0032  0.5495  1.6234
 9430SOL    HW239750   4.213   3.852   2.933  0.3622 -1.0449  0.2668
 9431SOL     OW39751   1.779   1.960   6.841  0.5212  0.1833  0.3937
 9431SOL    HW139752   1.714   1.932   6.777  1.4946  2.7232 -1.6984
 9431SOL    HW239753   1.725   2.032   6.874 -1.0864 -0.2289 -1.3854
 9432SOL     OW39754   4.697   3.213   8.285 -0.1869  0.2600  0.3329
 9432SOL    HW139755   4.677   3.171   8.369 -2.9881  1.8489  0.4441
 9432SOL    HW239756   4.642   3.291   8.285  0.0374  0.4108  1.2371
 9433SOL     OW39757   3.730   3.420   8.368 -0.3700 -0.9550 -0.1400
 9433SOL    HW139758   3.695   3.508   8.375  1.4096 -0.3126  0.8400
 9433SOL    HW239759   3.773   3.414   8.283 -1.3127  0.4452 -0.7135
 9434SOL     OW39760   3.983   3.853   7.743 -0.9772 -0.2197 -0.0249
 9434SOL    HW139761   3.920   3.903   7.691 -2.7547 -1.0881  1.2979
 9434SOL    HW239762   4.063   3.847   7.691 -0.3199 -0.1617  0.9816
 9435SOL     OW39763   3.867   1.672  14.551  0.1304 -0.0894 -0.3012
 9435SOL    HW139764   3.883   1.603  14.615 -0.9902 -1.2075 -1.2198
 9435SOL    HW239765   3.838   1.624  14.473 -1.2354  1.5617 -0.8146
 9436SOL     OW39766   3.632   3.120  12.831  0.2991 -0.6269 -0.9408
 9436SOL    HW139767   3.601   3.080  12.750 -2.1892 -0.2609 -0.1527
 9436SOL    HW239768   3.715   3.071  12.838  1.2483  1.4539  2.5298
 9437SOL     OW39769   4.570   1.730   7.289 -0.0234  0.6965  0.6169
 9437SOL    HW139770   4.558   1.787   7.365  1.7876  0.9283  0.7342
 9437SOL    HW239771   4.569   1.645   7.334  0.0458 -0.2953 -1.2265
 9438SOL     OW39772   1.611   3.058   9.344 -0.4230 -0.4030 -0.8576
 9438SOL    HW139773   1.683   2.997   9.360 -0.7739 -0.6579 -0.2660
 9438SOL    HW239774   1.545   3.016   9.399  0.1771 -1.7896 -1.1766
 9439SOL     OW39775   2.255   0.072   1.389  0.3868 -0.0712  0.9274
 9439SOL    HW139776   2.267   0.074   1.484 -0.2145  1.1597  0.9867
 9439SOL    HW239777   2.278   0.155   1.346  1.5835 -0.5724  0.6077
 9440SOL     OW39778   0.815   1.819   8.933 -0.1677 -0.2531 -0.1627
 9440SOL    HW139779   0.843   1.879   8.864 -0.8574 -1.2132 -1.2787
 9440SOL    HW239780   0.783   1.740   8.888  0.3563 -1.2306  1.1645
 9441SOL     OW39781   4.562   3.109   7.078 -0.7313 -0.3792 -0.6542
 9441SOL    HW139782   4.555   3.112   6.982 -2.8777 -0.7121 -0.5020
 9441SOL    HW239783   4.594   3.020   7.093 -2.3027 -0.8599 -0.0828
 9442SOL     OW39784   3.282   0.525   0.407  0.3187  0.3415  0.6248
 9442SOL    HW139785   3.362   0.535   0.356 -1.0403  3.3389 -0.9635
 9442SOL    HW239786   3.222   0.571   0.347 -1.5230 -0.8373  1.5509
 9443SOL     OW39787   4.586   0.812  10.518  0.4626  0.4246 -0.8264
 9443SOL    HW139788   4.557   0.901  10.498 -2.1871 -0.1025  0.6641
 9443SOL    HW239789   4.561   0.773  10.435  1.1801 -0.9422 -0.3966
 9444SOL     OW39790   3.298   1.033  15.607  0.6006  0.0067  0.1386
 9444SOL    HW139791   3.230   0.966  15.600  0.5154 -0.0079  1.1148
 9444SOL    HW239792   3.364   0.997  15.666 -0.3890 -1.8357  0.0894
 9445SOL     OW39793   0.811   1.012  11.666  0.8112  0.3057 -0.5690
 9445SOL    HW139794   0.814   0.922  11.634  0.7224  1.0360 -2.6379
 9445SOL    HW239795   0.809   1.075  11.594 -2.8887  0.5071 -0.2869
 9446SOL     OW39796   1.433   4.165   8.012  0.1004  0.6033 -0.4903
 9446SOL    HW139797   1.425   4.080   7.968 -3.4909  0.8200 -0.2738
 9446SOL    HW239798   1.364   4.152   8.076  0.9098  1.4000  0.5510
 9447SOL     OW39799   0.450   1.904   4.026 -0.3354 -0.2136 -0.1309
 9447SOL    HW139800   0.429   1.973   4.089  1.1805 -0.5102  0.6805
 9447SOL    HW239801   0.364   1.904   3.983 -0.2347 -1.5058 -0.3309
 9448SOL     OW39802   4.338   1.925   0.201  0.5281  0.5610  0.2544
 9448SOL    HW139803   4.345   1.942   0.295 -2.8877 -2.0624  0.9461
 9448SOL    HW239804   4.244   1.934   0.189  0.3111 -2.9817 -0.6254
 9449SOL     OW39805   3.529   0.028   7.554 -0.2906  0.0552 -0.1039
 9449SOL    HW139806   3.441   4.714   7.562  1.2757 -3.3732  1.5008
 9449SOL    HW239807   3.515   0.122   7.566  2.3874  0.4160  0.2274
 9450SOL     OW39808   0.913   3.127   4.477  0.0912 -0.3622 -0.3574
 9450SOL    HW139809   0.985   3.086   4.429 -0.7194 -1.0232 -1.0010
 9450SOL    HW239810   0.846   3.152   4.413  1.1658  0.7565 -1.0497
 9451SOL     OW39811   3.678   3.303  15.480 -0.1993  0.0750 -0.1745
 9451SOL    HW139812   3.595   3.324  15.523 -0.2974  0.1264 -0.3926
 9451SOL    HW239813   3.706   3.226  15.529  0.4506  0.5947  0.2791
 9452SOL     OW39814   2.377   0.791   8.364 -0.2486  0.4714  0.2734
 9452SOL    HW139815   2.459   0.797   8.316  0.5079  0.7924  1.6101
 9452SOL    HW239816   2.382   0.702   8.399  0.1387  1.1383  1.8911
 9453SOL     OW39817   3.102   1.435   8.919  0.1379  0.3302  0.3551
 9453SOL    HW139818   3.025   1.484   8.949 -1.9952 -2.2172 -0.9265
 9453SOL    HW239819   3.097   1.360   8.979 -0.6581  0.5321  0.5442
 9454SOL     OW39820   0.913   2.741   7.265 -0.4655 -0.4363 -0.0855
 9454SOL    HW139821   0.878   2.656   7.237 -1.7585  0.5322 -1.4092
 9454SOL    HW239822   0.865   2.762   7.345  1.0262  1.1375  0.3933
 9455SOL     OW39823   3.032   2.872  15.511 -0.1137 -0.0247 -0.1917
 9455SOL    HW139824   3.075   2.839  15.433  1.0538  0.7743  0.1107
 9455SOL    HW239825   3.062   2.963  15.508 -0.1656  0.0663  2.0071
 9456SOL     OW39826   0.497   2.676   0.276  0.0567 -0.2781 -0.1440
 9456SOL    HW139827   0.402   2.667   0.288  0.1470 -0.8279  0.1572
 9456SOL    HW239828   0.517   2.769   0.279  2.3626 -0.8436  2.2680
 9457SOL     OW39829   2.233   4.404   7.917 -0.2803 -0.3570  0.4798
 9457SOL    HW139830   2.320   4.436   7.893 -1.3452  0.7623 -1.9140
 9457SOL    HW239831   2.178   4.402   7.838  1.2185  1.2518 -0.6066
 9458SOL     OW39832   2.171   1.871   6.700 -0.4578  0.2571 -0.5266
 9458SOL    HW139833   2.107   1.828   6.757  0.4261 -1.1223 -0.5960
 9458SOL    HW239834   2.122   1.954   6.696  0.1039  0.5434 -1.4359
 9459SOL     OW39835   0.185   0.018   0.905  0.2328  0.3013  0.2450
 9459SOL    HW139836   0.148   0.005   0.992  0.1530  1.5503  0.4078
 9459SOL    HW239837   0.199   4.649   0.885  0.2237 -0.1133  2.1103
 9460SOL     OW39838   2.474   3.371   2.208 -0.6552  0.1437  0.1560
 9460SOL    HW139839   2.500   3.368   2.116  0.3024  0.3572  0.4187
 9460SOL    HW239840   2.385   3.405   2.204 -0.7888 -0.3611 -1.1299
 9461SOL     OW39841   0.450   1.082   2.324 -0.0331 -0.0735  0.7054
 9461SOL    HW139842   0.447   0.999   2.276  0.7100 -0.5865  1.5436
 9461SOL    HW239843   0.497   1.142   2.267 -0.3253  1.4133  2.0462
 9462SOL     OW39844   3.305   1.210  13.327  0.2840  0.1696 -0.0685
 9462SOL    HW139845   3.211   1.198  13.311  0.4538 -0.1572 -0.8436
 9462SOL    HW239846   3.331   1.274  13.261  1.5284 -1.0470 -0.7552
 9463SOL     OW39847   1.101   0.182   6.882  0.0525 -0.1030  0.0434
 9463SOL    HW139848   1.120   0.191   6.789 -1.0173  0.7908 -0.0932
 9463SOL    HW239849   1.023   0.127   6.875  1.5469 -2.1142 -0.8820
 9464SOL     OW39850   2.302   3.965   6.151 -0.0674  0.6768  0.0279
 9464SOL    HW139851   2.333   3.892   6.204 -2.6371  0.0502  0.6960
 9464SOL    HW239852   2.357   4.040   6.173 -0.1505  0.3438  1.3803
 9465SOL     OW39853   0.297   0.302   3.965  0.0589 -0.3252 -0.2999
 9465SOL    HW139854   0.228   0.365   3.945  1.1465  0.7155 -0.8342
 9465SOL    HW239855   0.372   0.358   3.986  0.7371 -1.1336 -0.5866
 9466SOL     OW39856   2.067   0.743   6.366 -0.6265 -0.0641 -0.3534
 9466SOL    HW139857   2.068   0.830   6.325  0.8818  0.5965  1.0670
 9466SOL    HW239858   2.108   0.697   6.293 -0.6271 -1.0946  0.3052
 9467SOL     OW39859   1.149   2.742   9.856  0.3649  0.2675 -0.0826
 9467SOL    HW139860   1.060   2.774   9.841  0.4703  1.3010  1.4350
 9467SOL    HW239861   1.194   2.825   9.873 -0.5938  1.0666 -1.4277
 9468SOL     OW39862   2.023   1.807   6.180 -0.0660  0.3984  0.1058
 9468SOL    HW139863   1.988   1.795   6.268 -1.8520  3.1073 -0.2627
 9468SOL    HW239864   2.044   1.900   6.181  0.5908  0.2643 -0.9490
 9469SOL     OW39865   2.044   0.295   4.932 -0.1185  0.2005  0.2563
 9469SOL    HW139866   2.033   0.276   5.025  1.1782 -0.1666  0.3380
 9469SOL    HW239867   1.954   0.302   4.900  0.0527 -0.9953 -0.5137
 9470SOL     OW39868   1.258   1.683   2.193  0.3057 -0.3455 -0.3863
 9470SOL    HW139869   1.351   1.671   2.212  0.2446  0.3034  0.3186
 9470SOL    HW239870   1.246   1.633   2.113 -0.6027 -0.8693  0.0755
 9471SOL     OW39871   0.851   0.365   8.938  0.8925  0.2074  0.4417
 9471SOL    HW139872   0.824   0.378   8.847 -0.8957 -0.1079  0.9099
 9471SOL    HW239873   0.789   0.422   8.984  0.4400  0.6235 -0.6898
 9472SOL     OW39874   1.856   1.328   9.902 -0.2734  0.0237  1.0082
 9472SOL    HW139875   1.803   1.344   9.980 -0.2517  2.7086  0.4443
 9472SOL    HW239876   1.823   1.405   9.855  0.1192  0.1579  0.9554
 9473SOL     OW39877   0.418   4.394   6.438 -0.3166 -0.6121 -0.2388
 9473SOL    HW139878   0.377   4.336   6.373  0.9849 -0.4979 -1.1741
 9473SOL    HW239879   0.439   4.473   6.388 -0.1837 -0.7563 -0.4156
 9474SOL     OW39880   0.190   4.117   7.842  0.0695  0.8059  0.6179
 9474SOL    HW139881   0.197   4.157   7.755  0.9324  0.4483  0.5242
 9474SOL    HW239882   0.098   4.093   7.833  0.3203  0.8194 -2.0666
 9475SOL     OW39883   4.267   3.728   2.400 -0.0699  0.1980  0.2679
 9475SOL    HW139884   4.325   3.804   2.396 -0.3146  0.3255 -0.7706
 9475SOL    HW239885   4.194   3.770   2.355  0.3983 -2.1051 -2.6291
 9476SOL     OW39886   1.888   3.769   3.395  0.2151  0.2868 -0.2157
 9476SOL    HW139887   1.862   3.679   3.374  0.5443  0.0923  0.1952
 9476SOL    HW239888   1.916   3.799   3.309  0.4418 -1.8448 -0.8779
 9477SOL     OW39889   4.700   3.028   0.321 -0.3799  0.0973  0.5561
 9477SOL    HW139890   0.039   3.055   0.389  0.5500  1.1237 -0.6925
 9477SOL    HW239891   4.694   3.110   0.273  0.8322 -0.6701 -0.9281
 9478SOL     OW39892   1.761   2.014  12.033  0.1752 -0.3511 -0.0776
 9478SOL    HW139893   1.736   1.993  11.943  0.2515  2.6103 -0.7615
 9478SOL    HW239894   1.787   2.105  12.027 -1.3994  0.1318  0.2461
 9479SOL     OW39895   1.104   0.547   4.622 -0.8678 -0.1558 -0.4998
 9479SOL    HW139896   1.128   0.499   4.701  0.7977  0.6286 -0.5262
 9479SOL    HW239897   1.098   0.466   4.572  1.4307 -0.1465 -0.8120
 9480SOL     OW39898   0.894   3.086   3.327 -0.0771  0.6361 -0.2749
 9480SOL    HW139899   0.801   3.080   3.306  0.0168  0.3125 -0.5896
 9480SOL    HW239900   0.933   3.119   3.247 -0.9852 -0.4841 -1.1846
 9481SOL     OW39901   0.463   0.467   4.281 -0.2998 -0.4172 -0.2291
 9481SOL    HW139902   0.485   0.530   4.351  0.1687  1.0002 -1.6400
 9481SOL    HW239903   0.398   0.411   4.321 -1.8004  0.7635 -1.0146
 9482SOL     OW39904   2.461   1.360  14.443  0.0837 -0.7265 -0.5482
 9482SOL    HW139905   2.397   1.326  14.381 -1.0701  0.7228 -0.1503
 9482SOL    HW239906   2.465   1.289  14.508  0.4132  1.5478  1.9123
 9483SOL     OW39907   3.363   4.473  10.844 -0.0045  0.0658  0.1979
 9483SOL    HW139908   3.269   4.486  10.841 -0.0548 -0.0866  1.0824
 9483SOL    HW239909   3.382   4.556  10.888 -1.7911  0.1650  0.7514
 9484SOL     OW39910   2.593   3.467  12.438  0.0268  0.2545 -0.2209
 9484SOL    HW139911   2.583   3.401  12.507 -3.3838 -0.2491 -1.1610
 9484SOL    HW239912   2.652   3.419  12.380  1.9154 -0.0396  1.9437
 9485SOL     OW39913   0.465   2.231   5.131 -0.3428  0.2408 -0.1117
 9485SOL    HW139914   0.434   2.191   5.051 -2.1264 -0.8438  1.1267
 9485SOL    HW239915   0.387   2.263   5.176  0.8576  1.0457  1.4141
 9486SOL     OW39916   1.708   1.870   2.834  0.1228 -0.3826 -0.8327
 9486SOL    HW139917   1.671   1.912   2.912  0.2998 -1.7242 -0.0280
 9486SOL    HW239918   1.667   1.923   2.766  0.7210  0.7773 -0.3080
 9487SOL     OW39919   2.670   4.359  11.824 -0.7760 -0.1614  0.0681
 9487SOL    HW139920   2.655   4.265  11.816 -2.5014  0.3639 -2.4963
 9487SOL    HW239921   2.582   4.391  11.807 -1.6378 -2.6516 -0.1647
 9488SOL     OW39922   2.821   3.129   5.724  0.0509 -0.7227  0.2320
 9488SOL    HW139923   2.746   3.161   5.674 -1.0475  0.8572  2.8605
 9488SOL    HW239924   2.770   3.096   5.798 -0.2343 -0.4974  0.1360
 9489SOL     OW39925   3.925   3.091   8.109 -0.1680 -0.1863  0.0354
 9489SOL    HW139926   3.830   3.081   8.121  0.1135  0.8600  3.2112
 9489SOL    HW239927   3.945   3.049   8.193 -1.3518  0.2682  0.5528
 9490SOL     OW39928   0.849   0.861   8.283 -0.1341  0.1373 -0.0666
 9490SOL    HW139929   0.766   0.851   8.236  0.0422 -3.2312  0.3545
 9490SOL    HW239930   0.901   0.914   8.222  0.0385  2.0239  1.7377
 9491SOL     OW39931   2.418   3.761   9.437  0.4022 -0.2777  0.6099
 9491SOL    HW139932   2.332   3.794   9.413  0.9976  0.3639 -0.6524
 9491SOL    HW239933   2.444   3.729   9.350 -0.0774 -1.1450  0.7811
 9492SOL     OW39934   4.690   0.421  14.630 -0.0621  0.5285  0.1776
 9492SOL    HW139935   4.657   0.390  14.715  2.1856  0.8100  1.1433
 9492SOL    HW239936   4.650   0.363  14.565 -0.2330  0.6874  0.1401
 9493SOL     OW39937   0.872   0.472   2.813 -0.9666  0.4148  0.3353
 9493SOL    HW139938   0.850   0.379   2.803 -2.4994  0.6519  1.4535
 9493SOL    HW239939   0.939   0.475   2.745 -0.6178  0.6203  0.6945
 9494SOL     OW39940   3.936   1.063   3.662 -0.0823  0.0800  0.1560
 9494SOL    HW139941   4.031   1.053   3.653 -0.0852  0.0357  0.1746
 9494SOL    HW239942   3.919   1.126   3.732 -0.5688  1.9151 -1.6328
 9495SOL     OW39943   1.702   0.697  12.835  0.3982 -0.2747 -0.3342
 9495SOL    HW139944   1.772   0.752  12.869 -0.8713  0.9603  0.2639
 9495SOL    HW239945   1.668   0.647  12.909  1.5253  2.9937  2.3690
 9496SOL     OW39946   1.342   2.477  16.261  0.1449 -0.2205 -0.2721
 9496SOL    HW139947   1.431   2.497  16.288  0.0088  2.6970 -2.0159
 9496SOL    HW239948   1.321   2.390  16.295 -1.2487  1.0062  2.0507
 9497SOL     OW39949   2.536   2.201   6.198 -0.0960  0.0332  0.1984
 9497SOL    HW139950   2.581   2.230   6.277 -1.4693  0.2652  0.9025
 9497SOL    HW239951   2.444   2.199   6.225 -0.3798  1.1701 -0.6698
 9498SOL     OW39952   2.785   3.848   1.660  0.8401 -0.5083  0.4550
 9498SOL    HW139953   2.776   3.762   1.699  0.4535 -1.6943 -2.2561
 9498SOL    HW239954   2.864   3.838   1.607  0.2098 -2.4076 -0.1223
 9499SOL     OW39955   4.666   2.139   5.048  0.0588 -0.1886  0.3770
 9499SOL    HW139956   4.698   2.051   5.027  1.5175  0.6624 -0.9639
 9499SOL    HW239957   4.705   2.193   4.979 -0.4302 -1.7070 -1.0627
 9500SOL     OW39958   2.386   1.676   2.034 -0.5791 -0.1556  0.2736
 9500SOL    HW139959   2.361   1.720   1.952 -2.7256  0.3287  1.1621
 9500SOL    HW239960   2.320   1.703   2.098  0.5018  1.4846  0.7055
 9501SOL     OW39961   2.909   3.512   4.623 -0.0046  0.6071  0.5022
 9501SOL    HW139962   2.951   3.433   4.656 -0.5104 -1.3007 -3.4545
 9501SOL    HW239963   2.845   3.465   4.569  0.4432 -0.9165  1.2964
 9502SOL     OW39964   0.725   1.727   0.283 -0.1743  0.1130  0.0477
 9502SOL    HW139965   0.769   1.645   0.306  0.8855  0.3593 -1.1021
 9502SOL    HW239966   0.725   1.772   0.367  1.4792  0.0080  0.1078
 9503SOL     OW39967   2.018   2.788   6.057  0.3289 -0.4241 -0.1777
 9503SOL    HW139968   2.054   2.708   6.018 -0.2061 -0.9858  0.4831
 9503SOL    HW239969   2.051   2.851   5.993  2.7700 -2.4372 -0.8952
 9504SOL     OW39970   2.345   1.006   3.464  0.0492 -0.2753 -0.2730
 9504SOL    HW139971   2.381   1.066   3.399 -0.8663 -0.9510 -1.4127
 9504SOL    HW239972   2.255   0.995   3.432  1.0714 -0.5710 -3.0482
 9505SOL     OW39973   0.794   2.564   3.741 -0.0474 -0.3961  0.3111
 9505SOL    HW139974   0.793   2.640   3.799  0.7149  0.7553 -1.1828
 9505SOL    HW239975   0.707   2.526   3.756  0.2106 -0.6421  1.1472
 9506SOL     OW39976   4.331   1.869   8.716 -0.1650 -0.6437 -0.4780
 9506SOL    HW139977   4.268   1.911   8.657 -0.3784 -1.7220 -1.0241
 9506SOL    HW239978   4.348   1.795   8.657  1.2420 -0.8989  0.2394
 9507SOL     OW39979   3.226   2.830   5.593  0.0306  0.1872  0.0667
 9507SOL    HW139980   3.193   2.783   5.670 -0.8615 -1.0236 -1.0663
 9507SOL    HW239981   3.149   2.871   5.554  0.2691  0.5889  0.0155
 9508SOL     OW39982   3.146   1.644   5.648  0.2638  0.1131  0.6334
 9508SOL    HW139983   3.183   1.699   5.717 -0.2377  2.0161 -0.6085
 9508SOL    HW239984   3.078   1.604   5.703 -2.6218  1.7557 -1.7261
 9509SOL     OW39985   3.257   2.871  14.754 -0.3381 -0.0387 -0.9270
 9509SOL    HW139986   3.335   2.823  14.725 -0.2995 -1.1231  0.9376
 9509SOL    HW239987   3.193   2.810  14.718 -1.0765  0.5656 -0.6223
 9510SOL     OW39988   1.050   2.344  12.582 -0.3580 -0.0347  0.0752
 9510SOL    HW139989   1.062   2.377  12.493 -3.4530  0.2699 -0.2395
 9510SOL    HW239990   1.135   2.307  12.604 -0.6131 -1.0229 -0.6158
 9511SOL     OW39991   0.768   2.588   6.722  0.1052  0.3756 -0.2359
 9511SOL    HW139992   0.844   2.627   6.765  0.9000 -1.2494 -0.1441
 9511SOL    HW239993   0.733   2.662   6.674  3.8060  0.9754 -2.0288
 9512SOL     OW39994   2.897   2.510   5.528 -0.1165 -0.9898  0.5185
 9512SOL    HW139995   2.831   2.510   5.458  0.2558  2.7902  0.1765
 9512SOL    HW239996   2.867   2.587   5.576  1.4194  0.5512 -1.0164
 9513SOL     OW39997   3.730   3.232  12.449  0.1652  0.1734  0.1197
 9513SOL    HW139998   3.797   3.256  12.386 -1.6150  2.4363 -0.8942
 9513SOL    HW239999   3.774   3.280  12.519  1.9224 -1.0969 -0.1142
 9514SOL     OW40000   0.396   3.533   4.474 -0.2326 -0.2437  0.0439
 9514SOL    HW140001   0.426   3.593   4.406 -1.0036 -0.3122 -0.3601
 9514SOL    HW240002   0.352   3.459   4.432  0.5512 -0.5942 -0.1666
 9515SOL     OW40003   1.684   3.030   4.643  0.1510 -0.1673  0.3165
 9515SOL    HW140004   1.729   3.032   4.558  0.1424  1.4222  0.3592
 9515SOL    HW240005   1.659   2.937   4.646  1.7973 -0.6425 -0.1967
 9516SOL     OW40006   0.351   4.214   5.059  0.0284  0.0115  0.3460
 9516SOL    HW140007   0.418   4.204   4.992  2.0961 -1.5911  2.6466
 9516SOL    HW240008   0.313   4.126   5.065 -0.8815  0.3500 -0.5482
 9517SOL     OW40009   0.594   2.827   4.978 -0.0384  0.2156 -0.3888
 9517SOL    HW140010   0.561   2.904   4.931  0.3412  0.3572 -0.4211
 9517SOL    HW240011   0.518   2.768   4.980  0.5011 -0.5174 -1.6863
 9518SOL     OW40012   0.098   1.510  14.946 -0.0305  0.0046 -0.0546
 9518SOL    HW140013   0.022   1.544  14.993 -0.9689 -0.4623 -1.2328
 9518SOL    HW240014   0.097   1.563  14.866 -1.0094 -1.9837 -1.3655
 9519SOL     OW40015   4.406   1.442   8.924  0.0560  0.4214 -0.2167
 9519SOL    HW140016   4.407   1.357   8.968 -0.1330 -0.3267 -1.6585
 9519SOL    HW240017   4.336   1.481   8.976 -0.5452 -0.7224 -0.1751
 9520SOL     OW40018   1.391   4.527  11.585 -0.0330  0.0092  0.0197
 9520SOL    HW140019   1.421   4.615  11.563 -1.2285  0.7069  1.1677
 9520SOL    HW240020   1.463   4.495  11.640  1.0654 -1.5351 -2.3282
 9521SOL     OW40021   2.653   2.661   0.184  0.0907  0.4374 -0.1705
 9521SOL    HW140022   2.719   2.694   0.246  1.7851  0.5801 -2.0246
 9521SOL    HW240023   2.593   2.618   0.244  0.3461  0.3014 -0.0118
 9522SOL     OW40024   2.513   4.408   5.131  0.7604 -0.2521 -0.3933
 9522SOL    HW140025   2.544   4.358   5.206  5.0326  1.8243 -0.8176
 9522SOL    HW240026   2.579   4.412   5.062  0.6204  0.6614 -0.4680
 9523SOL     OW40027   0.517   0.475   8.632 -0.2719 -0.0849 -0.5617
 9523SOL    HW140028   0.480   0.445   8.715 -2.3632  1.0417 -1.0907
 9523SOL    HW240029   0.607   0.441   8.641  0.6800  3.0453  1.8868
 9524SOL     OW40030   3.431   4.039   6.704 -0.2625  0.2682 -0.7676
 9524SOL    HW140031   3.411   4.113   6.761  1.1078 -1.3552  1.7943
 9524SOL    HW240032   3.446   4.081   6.619 -1.2602 -0.8748 -1.5171
 9525SOL     OW40033   0.816   1.811   7.885 -0.3003 -0.3353 -0.2957
 9525SOL    HW140034   0.809   1.805   7.980 -0.2166 -1.6699 -0.3804
 9525SOL    HW240035   0.851   1.722   7.877 -0.7857 -0.4796 -0.7656
 9526SOL     OW40036   4.449   0.093   8.792 -0.1864 -0.5357 -0.2293
 9526SOL    HW140037   4.536   0.054   8.790 -0.1674 -0.4859 -0.4583
 9526SOL    HW240038   4.408   0.036   8.726  2.7283 -1.9885 -0.7516
 9527SOL     OW40039   1.071   3.073   3.565 -0.5667 -0.0313  0.2952
 9527SOL    HW140040   1.059   3.160   3.603  3.3680  1.7137 -2.3802
 9527SOL    HW240041   1.000   3.068   3.501 -0.8397  0.8686  0.5278
 9528SOL     OW40042   2.622   2.841   6.932 -0.0900 -0.4608  0.0369
 9528SOL    HW140043   2.605   2.772   6.868  2.1432  0.5978 -1.6927
 9528SOL    HW240044   2.662   2.788   7.001  1.9351  1.0284  0.0295
 9529SOL     OW40045   2.668   1.247   7.558  0.1222 -0.2010 -0.2994
 9529SOL    HW140046   2.671   1.224   7.651  3.1418 -2.4837 -0.9540
 9529SOL    HW240047   2.735   1.184   7.534  0.7254  0.3480 -0.0637
 9530SOL     OW40048   4.537   4.627  10.483  0.0728  0.4703  0.0556
 9530SOL    HW140049   4.550   4.585  10.568  1.0178 -0.7154 -0.6763
 9530SOL    HW240050   4.489   4.705  10.512  1.3094  0.7707  1.2808
 9531SOL     OW40051   2.055   3.045  16.383 -0.0400 -0.5075 -0.5053
 9531SOL    HW140052   2.119   3.101  16.339  0.2488 -0.7312 -0.3715
 9531SOL    HW240053   2.081   3.070  16.471 -1.1786  2.3277 -0.9823
 9532SOL     OW40054   4.310   0.082  11.122 -0.7434 -0.1399  0.0645
 9532SOL    HW140055   4.343   0.040  11.201  2.1578  0.0879 -1.0138
 9532SOL    HW240056   4.241   0.140  11.154  0.5362  2.4565 -1.8292
 9533SOL     OW40057   1.729   0.405   4.079  0.1680 -0.3114 -0.4185
 9533SOL    HW140058   1.760   0.445   3.998  1.5924  1.6356  1.0732
 9533SOL    HW240059   1.651   0.460   4.084  0.6053  0.2497  0.3656
 9534SOL     OW40060   1.515   3.952   9.599  0.6822 -0.0798 -0.2772
 9534SOL    HW140061   1.441   3.940   9.659  0.2555  3.4357 -0.1277
 9534SOL    HW240062   1.470   3.968   9.516  0.0510 -1.5104 -0.2093
 9535SOL     OW40063   2.800   0.316   5.098 -0.1911  0.2151  0.2572
 9535SOL    HW140064   2.772   0.379   5.031  1.7535  0.7055 -0.1042
 9535SOL    HW240065   2.892   0.343   5.091 -0.2937  0.0856 -1.6758
 9536SOL     OW40066   1.341   3.887   3.143  0.1915  0.0302  0.4046
 9536SOL    HW140067   1.286   3.963   3.126 -1.2085 -1.3965 -1.4034
 9536SOL    HW240068   1.295   3.818   3.096  1.0735 -0.8752  0.8630
 9537SOL     OW40069   3.522   0.359   2.576  0.2525  0.7245 -0.4440
 9537SOL    HW140070   3.448   0.404   2.617  1.2896  2.4677 -0.4810
 9537SOL    HW240071   3.528   0.404   2.492  1.6653 -0.0584 -0.7635
 9538SOL     OW40072   4.555   2.116   3.030  0.8687  0.4767 -0.4056
 9538SOL    HW140073   4.615   2.100   2.957 -0.9347 -1.7162 -1.4495
 9538SOL    HW240074   4.474   2.125   2.979  0.6015 -2.5197 -0.5273
 9539SOL     OW40075   1.333   4.348  15.167 -0.5146  0.1589 -0.1779
 9539SOL    HW140076   1.402   4.358  15.233  0.7478  0.2082 -1.5255
 9539SOL    HW240077   1.283   4.289  15.224  0.3534 -0.3129  0.0888
 9540SOL     OW40078   4.452   4.672   4.235  0.4364 -0.0900  0.0651
 9540SOL    HW140079   4.449   4.634   4.323  0.1192 -0.0951  0.0521
 9540SOL    HW240080   4.500   0.029   4.258  0.3482 -0.1230  0.3601
 9541SOL     OW40081   2.913   1.284   1.965  0.3027 -0.4780  0.5209
 9541SOL    HW140082   2.996   1.314   1.927 -0.4505  0.6555 -0.2122
 9541SOL    HW240083   2.928   1.189   1.968  0.2716 -0.4363  2.0796
 9542SOL     OW40084   2.521   0.273   3.422  0.5414 -0.4455  0.3877
 9542SOL    HW140085   2.604   0.274   3.373 -0.7656  2.2143 -1.7648
 9542SOL    HW240086   2.540   0.200   3.481  0.4879 -0.6452  0.1593
 9543SOL     OW40087   3.806   1.928   2.408  0.0559  0.0838 -0.0692
 9543SOL    HW140088   3.731   1.915   2.351 -0.6741  1.4758  0.5825
 9543SOL    HW240089   3.844   1.841   2.417 -0.5873 -0.0792  1.1592
 9544SOL     OW40090   2.538   0.864   5.198  0.4034  0.0738  0.0803
 9544SOL    HW140091   2.524   0.959   5.194 -1.3815 -0.1494  0.9484
 9544SOL    HW240092   2.537   0.836   5.107  0.7555  0.2173  0.0310
 9545SOL     OW40093   3.725   1.541   4.954  0.0082  0.3055  0.1576
 9545SOL    HW140094   3.766   1.628   4.947 -2.3329  1.5396  1.7205
 9545SOL    HW240095   3.764   1.514   5.037 -0.7403 -0.7247  0.1645
 9546SOL     OW40096   3.298   2.479   4.185 -0.2713 -0.2524  0.1749
 9546SOL    HW140097   3.235   2.501   4.117  0.7070 -0.3741 -0.7827
 9546SOL    HW240098   3.285   2.543   4.255 -1.8260 -1.6278  1.1333
 9547SOL     OW40099   3.599   4.680   8.097  0.3449 -0.3077  0.1476
 9547SOL    HW140100   3.612   4.700   8.004  0.4392 -2.8170 -0.3720
 9547SOL    HW240101   3.633   4.590   8.100  1.5263  0.1095 -0.4776
 9548SOL     OW40102   1.379   0.676   4.228 -0.0421 -0.3942 -0.3731
 9548SOL    HW140103   1.442   0.617   4.270  1.1588  0.3887 -1.0779
 9548SOL    HW240104   1.299   0.645   4.271  0.4714  0.1010  0.9513
 9549SOL     OW40105   3.287   0.841  12.578  0.2114 -0.3593  0.5775
 9549SOL    HW140106   3.358   0.904  12.572 -0.1888  0.0496  0.1071
 9549SOL    HW240107   3.219   0.908  12.571  1.0801  0.6047  1.3482
 9550SOL     OW40108   0.287   4.569   4.999 -0.4426  0.4151  0.4148
 9550SOL    HW140109   0.240   4.511   5.059 -0.1087  1.1104  1.3623
 9550SOL    HW240110   0.357   4.603   5.056 -3.8867  4.2741  2.3249
 9551SOL     OW40111   0.372   2.093   2.765 -0.0867 -1.0331 -0.4543
 9551SOL    HW140112   0.382   2.007   2.806  2.0464 -0.0305  1.1450
 9551SOL    HW240113   0.417   2.087   2.681 -1.5823 -0.7160 -1.2726
 9552SOL     OW40114   3.930   0.767   7.377  0.0216 -0.2813 -0.3657
 9552SOL    HW140115   3.912   0.676   7.355  0.2183 -0.4628  0.2163
 9552SOL    HW240116   3.973   0.802   7.299  0.3788 -0.1770 -0.1289
 9553SOL     OW40117   0.425   2.224   8.488 -0.1803  0.6402  0.0967
 9553SOL    HW140118   0.513   2.196   8.511  0.3700  1.3852 -1.1403
 9553SOL    HW240119   0.411   2.291   8.555  1.9713  1.9764 -0.8048
 9554SOL     OW40120   3.177   0.522   3.708  0.5072 -0.4726  0.0783
 9554SOL    HW140121   3.156   0.464   3.781  2.3862 -2.4348 -0.9357
 9554SOL    HW240122   3.229   0.466   3.649 -1.5290 -1.4930 -0.7552
 9555SOL     OW40123   3.519   3.243   8.368  0.3193 -0.2324 -0.2773
 9555SOL    HW140124   3.500   3.241   8.275 -2.2236  1.0340  0.2228
 9555SOL    HW240125   3.586   3.311   8.367  0.2127 -0.1238  0.0483
 9556SOL     OW40126   3.204   0.900   8.228 -0.7498 -0.1028  0.4990
 9556SOL    HW140127   3.233   0.949   8.305 -0.9190  0.0649  0.4546
 9556SOL    HW240128   3.188   0.816   8.271  2.2103 -0.1979  1.4627
 9557SOL     OW40129   1.988   0.385   2.400  0.1170  0.0294  0.6539
 9557SOL    HW140130   2.015   0.337   2.321  1.0469  0.2702  0.8290
 9557SOL    HW240131   2.027   0.336   2.472  1.1407 -0.4215 -0.2071
 9558SOL     OW40132   2.996   1.129   3.027  0.0187  0.7036 -0.1414
 9558SOL    HW140133   3.001   1.134   3.122 -0.4243 -0.0637 -0.0785
 9558SOL    HW240134   2.918   1.073   3.018 -0.1838  0.9050  0.4023
 9559SOL     OW40135   0.562   0.383   6.116  0.8096  0.2309 -0.5996
 9559SOL    HW140136   0.650   0.359   6.086  0.8323  0.4183 -0.6851
 9559SOL    HW240137   0.535   0.297   6.147 -1.5025  0.7907 -1.0740
 9560SOL     OW40138   1.934   1.902   3.461 -0.2151  0.9611  0.1782
 9560SOL    HW140139   2.002   1.837   3.479  0.7340  2.0903  0.7480
 9560SOL    HW240140   1.856   1.849   3.475 -0.0952  0.9039  0.6616
 9561SOL     OW40141   0.077   2.267   4.217  0.2491 -0.0455  0.2964
 9561SOL    HW140142   4.717   2.224   4.237  0.3409 -0.5708 -0.4797
 9561SOL    HW240143   0.075   2.271   4.122 -0.8143  0.9556  0.3564
 9562SOL     OW40144   1.499   3.935   7.026 -0.5299  0.0004  0.0441
 9562SOL    HW140145   1.523   4.028   7.016  1.3578 -0.4048  0.7547
 9562SOL    HW240146   1.584   3.892   7.016  0.1423  0.9276  1.8083
 9563SOL     OW40147   2.828   3.253   0.169 -0.0382  0.1689 -0.4057
 9563SOL    HW140148   2.735   3.275   0.160  0.1082  0.1707 -2.0525
 9563SOL    HW240149   2.839   3.183   0.104  0.6839 -0.3633  0.2997
 9564SOL     OW40150   1.086   2.150   4.823 -0.6393  0.2768  0.0927
 9564SOL    HW140151   1.088   2.068   4.871  0.3466  0.2916  0.0878
 9564SOL    HW240152   1.168   2.154   4.773 -1.8936  0.6644 -1.9014
 9565SOL     OW40153   4.677   0.756  14.039 -0.1281  0.1197  0.2413
 9565SOL    HW140154   4.602   0.739  13.982  0.9696  1.7909 -1.7070
 9565SOL    HW240155   4.639   0.823  14.097  1.3998  0.3974  0.9308
   4.72276   4.72276  17.69304
