Membrane in water
40155
    1TCq1    O1    1   1.933   4.329  10.171  0.7341  0.0569 -0.7203
    1TCq1    C1    2   1.816   4.269  10.203  0.5792  0.4445 -0.4725
    1TCq1    O2    3   1.801   4.150  10.205 -0.4793 -0.4367 -0.5211
    1TCq1    C2    4   1.726   4.360  10.266 -0.0162  0.1858 -1.0098
    1TCq1    C3    5   1.724   4.492  10.221 -0.0714  0.1864  0.7953
    1TCq1    C4    6   1.617   4.570  10.264  0.3195  0.0701 -0.6344
    1TCq1    C5    7   1.523   4.520  10.343 -0.4224 -0.2600  0.1430
    1TCq1    C6    8   1.535   4.387  10.391 -0.1330 -0.0647 -0.2357
    1TCq1    C7    9   1.640   4.304  10.358  0.8620 -0.2415  0.3606
    1TCq1    C8   10   1.461   4.352  10.515  0.6483 -0.0490  0.2072
    1TCq1    O4   11   1.425   4.439  10.589  0.0862 -0.2968 -0.5391
    1TCq1    C9   12   1.608   4.706  10.219 -0.0536  0.1644 -0.6801
    1TCq1    O5   13   1.712   0.026  10.163  0.2366 -0.2194  0.4049
    1TCq1    O6   14   1.506   0.044  10.258  0.0167 -0.2463  0.4169
    1TCq1    H1   15   1.940   4.422  10.202  0.1835  0.0618 -0.6130
    1TCq1    H2   16   1.800   4.526  10.152  0.8598 -2.1760  0.6363
    1TCq1    H3   17   1.452   4.589  10.386 -0.6794 -1.2094  1.2476
    1TCq1    H4   18   1.649   4.201  10.390 -2.1048 -1.1819 -1.8238
    2MPD2     C   19   1.143   4.064  10.807 -0.0671  0.1092  0.6310
    2MPD2    C1   20   1.213   4.178  10.830  0.0640  0.2108  0.6989
    2MPD2    C2   21   1.308   4.229  10.735 -0.3664  0.5523 -0.2839
    2MPD2    C3   22   1.326   4.170  10.613  0.5640  0.1893  0.4837
    2MPD2    C4   23   1.253   4.049  10.593  0.6317  0.0921 -0.1061
    2MPD2    C5   24   1.165   3.997  10.690 -0.1363  0.3069  0.2002
    2MPD2     H   25   1.353   4.324  10.762  0.0012  0.2156  0.2808
    2MPD2    H1   26   1.264   3.994  10.500 -0.4969  0.9454 -0.7407
    2MPD2    H2   27   1.069   4.020  10.872 -2.9004  2.0007 -1.3482
    2MPD2    H3   28   1.102   3.910  10.674  0.2185 -0.1027  1.0215
    2MPD2     N   29   1.406   4.225  10.509  0.2484  0.4159 -0.1551
    2MPD2    H5   30   1.433   4.161  10.435  1.8445  1.0674 -0.1197
    2MPD2    N1   31   1.199   4.225  10.960 -0.7410  0.5301 -0.0013
    2MPD2    H7   32   1.133   4.175  11.019 -2.0031  0.1022 -1.7498
    3TCq1    O1   33   0.981   0.530  10.502  0.1877 -0.1663 -0.4216
    3TCq1    C1   34   0.889   0.569  10.590  0.8517  0.4064  0.5270
    3TCq1    O2   35   0.855   0.520  10.699 -0.3452  0.5766  0.5265
    3TCq1    C2   36   0.826   0.694  10.547  0.5522  0.2115 -0.1561
    3TCq1    C3   37   0.907   0.798  10.509  0.2274  0.2473 -0.1333
    3TCq1    C4   38   0.861   0.929  10.512  0.3105  0.1620  0.4514
    3TCq1    C5   39   0.735   0.949  10.558 -0.0795  0.1157 -0.0683
    3TCq1    C6   40   0.651   0.844  10.588  0.4064 -0.0834  1.1409
    3TCq1    C7   41   0.700   0.716  10.591  0.0773 -0.2877 -0.0563
    3TCq1    C8   42   0.512   0.871  10.593  0.0130 -0.6959  0.0803
    3TCq1    O4   43   0.435   0.778  10.577 -0.3381 -0.2458 -0.0191
    3TCq1    C9   44   0.937   1.035  10.456  0.3585 -0.2917  0.0827
    3TCq1    O5   45   1.015   1.000  10.368 -0.2315 -0.0545  0.3036
    3TCq1    O6   46   0.902   1.152  10.495 -0.0448  0.0831  0.2862
    3TCq1    H1   47   0.972   0.566  10.411 -1.5420  1.4997  0.4040
    3TCq1    H2   48   1.014   0.779  10.500 -0.4288 -2.5626 -2.1541
    3TCq1    H3   49   0.708   1.054  10.561 -1.2870 -0.2737  3.0201
    3TCq1    H4   50   0.640   0.634  10.631 -3.3216  1.7337 -1.0027
    4MPD2     C   51   0.126   1.206  10.643  0.2201 -0.4801 -0.1307
    4MPD2    C1   52   0.240   1.249  10.709  0.1909  0.2619  0.1585
    4MPD2    C2   53   0.361   1.184  10.701 -0.5756  0.5458  0.8465
    4MPD2    C3   54   0.368   1.060  10.645  0.2560  0.4503 -0.3849
    4MPD2    C4   55   0.249   1.008  10.588  0.2079  0.3328 -0.4127
    4MPD2    C5   56   0.136   1.081  10.587  0.3847 -0.2319  0.2746
    4MPD2     H   57   0.447   1.233  10.746 -0.0462 -1.0493  1.5637
    4MPD2    H1   58   0.236   0.908  10.550 -0.6511 -0.5720  2.1964
    4MPD2    H2   59   0.033   1.262  10.641 -0.5668 -1.7521  1.2964
    4MPD2    H3   60   0.050   1.034  10.540 -0.3904  0.7260  0.7329
    4MPD2     N   61   0.489   0.994  10.641  1.0042  0.7045 -0.0376
    4MPD2    H5   62   0.568   1.035  10.690 -0.4049  2.5762  0.7018
    4MPD2    N1   63   0.248   1.378  10.770  0.4642 -0.6775 -0.2428
    4MPD2    H7   64   0.341   1.411  10.794  0.0331 -0.7852  1.5900
    5TCq1    O1   65   0.422   2.986  10.537  0.7091 -0.5279  0.8974
    5TCq1    C1   66   0.513   3.035  10.620  0.8679  0.4123  1.0909
    5TCq1    O2   67   0.607   3.112  10.580 -0.6741 -0.1195  0.1798
    5TCq1    C2   68   0.548   2.921  10.699 -0.4116  0.4229  0.4064
    5TCq1    C3   69   0.443   2.847  10.743 -0.5310 -0.5660 -0.5970
    5TCq1    C4   70   0.477   2.723  10.796  0.3463 -0.5946  0.7610
    5TCq1    C5   71   0.603   2.676  10.802  0.6590  0.5830  0.6954
    5TCq1    C6   72   0.700   2.744  10.730 -0.0430 -0.2656 -0.2303
    5TCq1    C7   73   0.669   2.870  10.683  0.4075  0.3605  0.6434
    5TCq1    C8   74   0.833   2.683  10.718 -0.5525 -0.6015 -0.2165
    5TCq1    O4   75   0.856   2.586  10.790 -0.5100 -0.2461  0.1287
    5TCq1    C9   76   0.362   2.644  10.853 -0.1139  0.8618  0.4109
    5TCq1    O5   77   0.249   2.701  10.854 -0.3936 -0.4952 -0.4279
    5TCq1    O6   78   0.401   2.539  10.903 -0.6001  0.3387  0.1559
    5TCq1    H1   79   0.371   2.907  10.567  0.8621 -0.7033  0.6985
    5TCq1    H2   80   0.344   2.891  10.747  0.8487  2.3577  2.0640
    5TCq1    H3   81   0.619   2.583  10.856 -1.4721  0.7763  1.6900
    5TCq1    H4   82   0.750   2.936  10.652  0.9690 -0.8804 -0.5599
    6MPD2     C   83   1.078   2.738  10.460  0.3056 -0.6756  0.0776
    6MPD2    C1   84   1.030   2.682  10.574  0.3203  0.5388  0.2733
    6MPD2    C2   85   1.101   2.581  10.635 -0.2466 -0.0908  0.5208
    6MPD2    C3   86   1.220   2.540  10.580 -0.3725 -0.2365  0.7809
    6MPD2    C4   87   1.275   2.600  10.466  0.3786  0.5104  0.1547
    6MPD2    C5   88   1.194   2.700  10.407 -0.1160  0.1459 -0.0752
    6MPD2     H   89   1.061   2.526  10.720 -1.1625 -1.7734 -0.9892
    6MPD2    H1   90   1.373   2.584  10.425  0.0794 -2.5288  0.6261
    6MPD2    H2   91   1.029   2.822  10.411  0.4372  0.9201  2.6706
    6MPD2    H3   92   1.229   2.744  10.314  0.6495 -0.3550 -0.0230
    6MPD2     N   93   1.289   2.440  10.651  0.1281  0.6723  0.1799
    6MPD2    H5   94   1.244   2.408  10.736  1.0821 -1.9455 -0.2959
    6MPD2    N1   95   0.909   2.735  10.613 -0.0797  0.2273  0.0665
    6MPD2    H7   96   0.873   2.806  10.550 -2.9325  0.3137  1.7554
    7TCq1    O1   97   2.954   1.885  12.812 -0.0809 -0.6253  0.2989
    7TCq1    C1   98   2.973   2.007  12.875  0.4524 -0.7522 -0.0733
    7TCq1    O2   99   2.895   2.103  12.870 -0.1182  0.0339 -0.2051
    7TCq1    C2  100   3.101   2.029  12.942  0.3464  0.5675 -0.3279
    7TCq1    C3  101   3.155   2.158  12.965 -0.0754 -0.1998 -0.2253
    7TCq1    C4  102   3.272   2.172  13.024 -0.0191  0.1312 -0.1715
    7TCq1    C5  103   3.348   2.065  13.062  0.0045 -0.0626  0.3051
    7TCq1    C6  104   3.289   1.945  13.050  0.1240 -0.0575  0.4444
    7TCq1    C7  105   3.167   1.923  12.988 -0.9785  0.6244  0.2133
    7TCq1    C8  106   3.358   1.836  13.110  0.1080 -0.4940  0.1197
    7TCq1    O4  107   3.340   1.716  13.073  0.3385  0.0576 -0.1504
    7TCq1    C9  108   3.331   2.301  13.036  0.5501  0.2649 -0.0846
    7TCq1    O5  109   3.246   2.394  13.029 -0.2729  0.0996  0.1505
    7TCq1    O6  110   3.452   2.308  13.069 -0.1450 -0.0096  0.2154
    7TCq1    H1  111   3.028   1.830  12.778 -0.4036 -1.3566  0.7920
    7TCq1    H2  112   3.098   2.244  12.931 -0.8608  0.1554  1.9691
    7TCq1    H3  113   3.451   2.084  13.090 -0.2415  0.6366  0.7019
    7TCq1    H4  114   3.131   1.822  12.976  0.4919  0.4652 -2.7539
    8MPD2     C  115   3.555   1.642  13.552 -0.1242 -0.0813  0.1879
    8MPD2    C1  116   3.510   1.568  13.443  0.1421  0.2300 -0.0833
    8MPD2    C2  117   3.457   1.641  13.336 -0.0676 -0.0845 -0.3967
    8MPD2    C3  118   3.466   1.781  13.335  0.0031 -0.4240  0.2342
    8MPD2    C4  119   3.511   1.847  13.448 -0.2066  0.1064  0.8187
    8MPD2    C5  120   3.547   1.778  13.555 -0.1772 -0.1764 -0.1295
    8MPD2     H  121   3.423   1.594  13.244  0.9027 -1.5676  0.0049
    8MPD2    H1  122   3.499   1.954  13.459  0.9360  0.2198  0.9592
    8MPD2    H2  123   3.582   1.586  13.641  1.8267 -1.3647 -1.2330
    8MPD2    H3  124   3.579   1.821  13.649 -1.8285 -0.2767  0.4664
    8MPD2     N  125   3.411   1.868  13.235 -0.2611  0.3947  0.0786
    8MPD2    H5  126   3.404   1.964  13.268 -0.6905 -0.0242  1.1865
    8MPD2    N1  127   3.511   1.421  13.451  0.2779 -0.3806 -0.9232
    8MPD2    H7  128   3.563   1.381  13.528 -0.9105 -1.0344 -0.4699
    9TCq1    O1  129   0.396   2.083  11.148 -0.0960 -0.4715  0.5593
    9TCq1    C1  130   0.432   2.039  11.272 -0.0689 -0.8529  0.1867
    9TCq1    O2  131   0.369   2.049  11.382  0.2641 -0.0638 -0.3914
    9TCq1    C2  132   0.534   1.937  11.265  0.8648 -0.7232  0.3410
    9TCq1    C3  133   0.632   1.936  11.169 -0.2165  0.3855 -0.2679
    9TCq1    C4  134   0.717   1.832  11.157 -0.7558  0.9982  0.1659
    9TCq1    C5  135   0.713   1.732  11.243  0.0903 -0.0363 -0.0003
    9TCq1    C6  136   0.615   1.732  11.339  0.4882 -0.5537  0.2783
    9TCq1    C7  137   0.530   1.837  11.354  0.5283 -0.2035 -0.4328
    9TCq1    C8  138   0.566   1.603  11.390  0.2751  0.0802  0.1153
    9TCq1    O4  139   0.449   1.600  11.431  0.4665 -0.0380  0.2226
    9TCq1    C9  140   0.812   1.828  11.050 -0.4615 -0.3518 -0.3903
    9TCq1    O5  141   0.850   1.711  11.031 -0.6935 -0.2411 -0.1676
    9TCq1    O6  142   0.786   1.907  10.956 -0.1118  0.3655  0.3025
    9TCq1    H1  143   0.428   2.029  11.072  0.2435 -1.0138  1.0864
    9TCq1    H2  144   0.638   2.014  11.094 -1.8262 -0.4042 -1.2074
    9TCq1    H3  145   0.784   1.651  11.233 -0.1714 -0.1991 -0.5202
    9TCq1    H4  146   0.463   1.840  11.438  0.8614 -0.8924 -0.1420
   10MPD2     C  147   0.462   1.319  11.365  0.4176 -0.2737  0.0516
   10MPD2    C1  148   0.595   1.362  11.343  1.0193  0.2050 -0.3314
   10MPD2    C2  149   0.689   1.263  11.321 -0.1079 -1.0938 -0.2203
   10MPD2    C3  150   0.649   1.130  11.315  0.3405 -0.5607  0.3643
   10MPD2    C4  151   0.518   1.095  11.338  0.2800  0.2755  0.0721
   10MPD2    C5  152   0.431   1.192  11.361 -0.2887 -0.2947 -0.3120
   10MPD2     H  153   0.792   1.284  11.295 -0.1844 -1.0647 -0.4968
   10MPD2    H1  154   0.470   1.000  11.318  0.7240 -0.1316  0.9385
   10MPD2    H2  155   0.386   1.389  11.398 -0.2597 -0.2863 -1.4351
   10MPD2    H3  156   0.327   1.161  11.361  0.7069 -3.6675  2.1685
   10MPD2     N  157   0.742   1.020  11.293  0.1611 -0.3612 -0.4009
   10MPD2    H5  158   0.708   0.928  11.318 -2.4390  0.5640 -0.5808
   10MPD2    N1  159   0.641   1.495  11.353 -0.1764  0.2406 -0.2784
   10MPD2    H7  160   0.741   1.514  11.347 -0.0427 -0.4055 -0.0974
   11TCq1    O1  161   2.389   0.399  13.976 -0.1910 -0.1190  0.0148
   11TCq1    C1  162   2.263   0.373  13.969 -0.6843 -0.1873  0.6674
   11TCq1    O2  163   2.208   0.299  13.889  0.0585  0.4865  0.1222
   11TCq1    C2  164   2.195   0.440  14.075 -0.3551  0.5818  0.3853
   11TCq1    C3  165   2.263   0.474  14.192 -0.0413  0.1685 -0.8999
   11TCq1    C4  166   2.186   0.523  14.296  0.5244  0.1946 -0.0513
   11TCq1    C5  167   2.048   0.544  14.279  0.8066  0.0838 -0.7964
   11TCq1    C6  168   1.993   0.510  14.159  0.3635  0.3231 -0.1541
   11TCq1    C7  169   2.064   0.464  14.054  0.1780 -0.5642  0.6222
   11TCq1    C8  170   1.857   0.546  14.145  0.7279 -0.9151  0.4499
   11TCq1    O4  171   1.812   0.624  14.228 -0.0549  0.2608 -0.1162
   11TCq1    C9  172   2.252   0.534  14.428 -0.3470 -0.2284 -0.3513
   11TCq1    O5  173   2.375   0.567  14.420  0.0914  0.6080 -0.3221
   11TCq1    O6  174   2.166   0.565  14.519 -0.2049 -0.1146  0.3604
   11TCq1    H1  175   2.402   0.477  14.034  2.1009 -0.6368  0.1829
   11TCq1    H2  176   2.361   0.436  14.216 -0.8998 -0.5397  1.5084
   11TCq1    H3  177   1.989   0.579  14.362  0.5676 -0.1515 -0.8694
   11TCq1    H4  178   2.021   0.434  13.959 -2.2294 -1.8095  2.0905
   12MPD2     C  179   1.580   0.592  14.075  0.3939 -0.4397 -0.0846
   12MPD2    C1  180   1.648   0.478  14.045  0.0844 -0.3722  0.3137
   12MPD2    C2  181   1.582   0.376  13.987 -0.7564 -0.7180 -0.1741
   12MPD2    C3  182   1.443   0.369  13.975  1.0859  0.9505 -0.0852
   12MPD2    C4  183   1.375   0.487  14.007  0.0642 -0.6629  0.1493
   12MPD2    C5  184   1.447   0.596  14.052 -0.2602  0.2719 -0.1901
   12MPD2     H  185   1.647   0.293  13.960  0.2236  0.0373 -0.1218
   12MPD2    H1  186   1.268   0.496  13.999 -0.4179 -2.2496  4.5121
   12MPD2    H2  187   1.624   0.684  14.114  1.6183 -0.4702 -1.4086
   12MPD2    H3  188   1.402   0.687  14.091 -1.1384 -1.0491  1.8886
   12MPD2     N  189   1.377   0.251  13.927 -0.4015 -0.4236  0.0096
   12MPD2    H5  190   1.276   0.254  13.928 -0.3440  1.4395 -0.4691
   12MPD2    N1  191   1.784   0.466  14.064 -0.7680 -1.2210  0.4497
   12MPD2    H7  192   1.825   0.380  14.028  1.7812 -1.0009  2.9057
   13TCq1    O1  193   0.182   0.127   9.895 -0.1433  0.1732 -0.4993
   13TCq1    C1  194   0.280   0.034   9.883  0.3679 -0.7431  0.2683
   13TCq1    O2  195   0.260   4.669   9.801 -0.3483 -0.1568 -0.1142
   13TCq1    C2  196   0.403   0.109   9.893 -0.1302 -0.0358 -0.0581
   13TCq1    C3  197   0.505   0.073   9.814 -0.0474  0.7545  0.0396
   13TCq1    C4  198   0.633   0.108   9.845  0.7276 -0.7076  0.4542
   13TCq1    C5  199   0.659   0.183   9.959  0.6454 -0.1932 -0.2157
   13TCq1    C6  200   0.553   0.221  10.035 -0.4834  0.3522  0.4392
   13TCq1    C7  201   0.426   0.172  10.005 -0.1994 -0.7773  0.4011
   13TCq1    C8  202   0.574   0.245  10.175 -0.5635 -0.7159 -0.3554
   13TCq1    O4  203   0.477   0.289  10.238 -0.7037 -0.0616 -0.1236
   13TCq1    C9  204   0.744   0.057   9.776 -0.2106  0.2411 -0.3713
   13TCq1    O5  205   0.730   4.686   9.693 -0.0519 -0.4400  0.4105
   13TCq1    O6  206   0.844   0.132   9.787 -0.4194 -0.8857 -0.5085
   13TCq1    H1  207   0.195   0.197   9.962 -2.0176 -0.5126  0.5829
   13TCq1    H2  208   0.482   0.017   9.724 -1.2954  1.1146  0.1405
   13TCq1    H3  209   0.760   0.218   9.978  0.7262  0.7782 -2.4925
   13TCq1    H4  210   0.348   0.165  10.080 -1.1021  0.9712 -0.3944
   14MPD2     C  211   0.892   0.188  10.345  0.7007  0.4413  0.1255
   14MPD2    C1  212   0.762   0.215  10.337  0.5975  0.1401  0.7176
   14MPD2    C2  213   0.695   0.224  10.455 -0.1446 -0.1754  0.6896
   14MPD2    C3  214   0.757   0.207  10.573  0.4839  0.0946 -0.2422
   14MPD2    C4  215   0.897   0.184  10.574 -0.1246  0.0655 -0.2682
   14MPD2    C5  216   0.961   0.168  10.461  0.0482 -0.2018  0.5241
   14MPD2     H  217   0.594   0.261  10.467 -1.1587 -3.8710  3.4937
   14MPD2    H1  218   0.955   0.194  10.665  1.3012  2.0667 -1.3927
   14MPD2    H2  219   0.944   0.164  10.252  0.8573 -0.1136  0.3509
   14MPD2    H3  220   1.065   0.142  10.448 -0.0654 -0.5125  0.2537
   14MPD2     N  221   0.674   0.223  10.688  0.3011 -0.0780  0.0948
   14MPD2    H5  222   0.588   0.273  10.669 -0.2323 -0.9876  0.1265
   14MPD2    N1  223   0.703   0.218  10.210 -0.3574  0.1622 -0.8207
   14MPD2    H7  224   0.763   0.186  10.134  0.2399 -0.3407 -0.1250
   15TCq1    O1  225   2.717   4.022   1.549  0.2551 -0.3359 -0.3863
   15TCq1    C1  226   2.831   3.986   1.483 -0.2451 -0.5824 -0.0898
   15TCq1    O2  227   2.939   3.971   1.540 -0.4089  0.0389  0.4336
   15TCq1    C2  228   2.796   3.946   1.353 -0.0213  0.0697 -0.0951
   15TCq1    C3  229   2.673   3.981   1.296  0.3164 -0.7035 -0.6711
   15TCq1    C4  230   2.651   3.933   1.174 -0.2358  0.1096  0.5498
   15TCq1    C5  231   2.733   3.842   1.113 -0.2542 -0.3247  0.1788
   15TCq1    C6  232   2.843   3.789   1.181 -0.3659  0.0649 -0.4671
   15TCq1    C7  233   2.882   3.853   1.295 -0.6780 -0.4283 -0.1431
   15TCq1    C8  234   2.939   3.698   1.117 -0.1289 -0.6141  0.6780
   15TCq1    O4  235   3.055   3.694   1.156 -0.0273  0.2787 -0.3901
   15TCq1    C9  236   2.528   3.966   1.105 -1.0056  0.6437 -0.8129
   15TCq1    O5  237   2.518   3.931   0.985 -0.0348  0.2261 -0.0266
   15TCq1    O6  238   2.433   3.998   1.190 -0.3178  0.4441 -0.4786
   15TCq1    H1  239   2.632   4.027   1.501 -0.1885  0.4220  0.4806
   15TCq1    H2  240   2.600   4.045   1.344  1.2810 -1.3330  1.6832
   15TCq1    H3  241   2.696   3.805   1.018  0.8103 -0.8622 -0.0227
   15TCq1    H4  242   2.967   3.819   1.354 -0.9890 -0.9871 -0.0237
   16MPD2     C  243   2.875   3.498   0.816 -0.2262 -0.5634  0.1268
   16MPD2    C1  244   2.949   3.552   0.920 -0.2588 -0.5832 -0.5154
   16MPD2    C2  245   3.085   3.534   0.916 -0.3061  0.5974  0.2947
   16MPD2    C3  246   3.145   3.452   0.825 -0.4925 -0.1254  0.5286
   16MPD2    C4  247   3.070   3.395   0.730 -0.8391 -0.4878 -0.0191
   16MPD2    C5  248   2.941   3.422   0.722  0.7694 -0.6469 -0.0911
   16MPD2     H  249   3.152   3.577   0.990 -0.1344  2.5349 -0.9750
   16MPD2    H1  250   3.104   3.323   0.656  1.1367  0.6711 -0.2058
   16MPD2    H2  251   2.769   3.520   0.810 -0.2157 -0.4015  0.4840
   16MPD2    H3  252   2.873   3.377   0.649  0.3572  0.7302 -0.5578
   16MPD2     N  253   3.286   3.457   0.829 -0.4010 -0.5206  0.5772
   16MPD2    H5  254   3.331   3.524   0.890 -0.9473  0.0174  0.3837
   16MPD2    N1  255   2.878   3.637   1.009 -0.5894 -0.0762  0.2211
   16MPD2    H7  256   2.779   3.637   0.987 -0.2878 -0.0336 -1.1067
   17TCq1    O1  257   0.827   4.611  10.959  0.0134  0.3702 -0.1746
   17TCq1    C1  258   0.893   4.500  10.926  0.1419 -0.1892  0.5892
   17TCq1    O2  259   0.837   4.392  10.933  0.6918 -0.3945  0.1109
   17TCq1    C2  260   0.976   4.538  10.811  0.4982 -0.2520 -0.3710
   17TCq1    C3  261   1.035   4.663  10.807  0.4850  0.4570 -0.3909
   17TCq1    C4  262   1.135   4.684  10.715 -0.8242 -0.8538  0.9544
   17TCq1    C5  263   1.160   4.591  10.614  0.2113  0.6977 -0.6888
   17TCq1    C6  264   1.076   4.480  10.607  0.2291 -0.1269  0.5269
   17TCq1    C7  265   0.996   4.445  10.713 -0.0690  0.2650  0.4455
   17TCq1    C8  266   1.049   4.419  10.484  0.4692 -0.2296  0.0977
   17TCq1    O4  267   0.964   4.330  10.493  0.2164 -0.2899  0.1145
   17TCq1    C9  268   1.213   0.087  10.725 -0.8447  0.6158  0.5191
   17TCq1    O5  269   1.191   0.165  10.823  0.5688  0.0495  0.0111
   17TCq1    O6  270   1.307   0.104  10.643 -0.7289 -0.3551 -0.1798
   17TCq1    H1  271   0.864   4.695  10.925 -0.8062  1.0109  0.5541
   17TCq1    H2  272   1.028   0.001  10.894 -2.0456 -0.2989 -0.0238
   17TCq1    H3  273   1.245   4.606  10.548  0.0011  1.0409 -0.8831
   17TCq1    H4  274   0.941   4.352  10.715  1.2615 -0.5569 -1.6571
   18MPD2     C  275   1.061   4.280  10.213 -0.0465 -0.7193  0.4137
   18MPD2    C1  276   1.133   4.398  10.256 -0.5519  0.0254 -0.2074
   18MPD2    C2  277   1.229   4.448  10.169  0.2225 -0.0450 -0.5553
   18MPD2    C3  278   1.264   4.384  10.051  0.3069 -0.1337  0.0867
   18MPD2    C4  279   1.189   4.273  10.011 -0.4660 -0.5595  0.9364
   18MPD2    C5  280   1.088   4.227  10.088  0.5259 -0.1732 -0.3823
   18MPD2     H  281   1.280   4.540  10.198  0.5193  0.8644 -3.9521
   18MPD2    H1  282   1.216   4.209   9.928  2.9524 -1.6362  2.8413
   18MPD2    H2  283   0.979   4.230  10.263 -0.8553 -0.9619 -1.1468
   18MPD2    H3  284   1.030   4.139  10.065 -0.5177  0.1943  0.8115
   18MPD2     N  285   1.382   4.419   9.980  0.7129 -0.0179 -0.3939
   18MPD2    H5  286   1.412   4.354   9.908  0.0668  0.0501 -0.7298
   18MPD2    N1  287   1.110   4.466  10.374 -0.0232  0.4205  0.1008
   18MPD2    H7  288   1.169   4.548  10.386  1.0200 -0.2040 -0.7911
   19TMC2    C1  289   2.865   4.519  13.796  0.6676  0.5660  0.3314
   19TMC2    C2  290   2.884   4.531  13.660  0.4431 -0.1198 -0.1247
   19TMC2    C3  291   2.789   4.481  13.575  0.5196  0.4605  0.1255
   19TMC2    C4  292   2.756   4.465  13.853  0.1325  0.2463 -0.2694
   19TMC2    C5  293   2.663   4.415  13.760 -0.4994  0.1535 -0.0731
   19TMC2    C6  294   2.675   4.421  13.622  0.1771 -0.6847  0.0136
   19TMC2     C  295   2.957   4.614  13.869 -0.4724 -0.2621  0.7049
   19TMC2     O  296   3.044   4.663  13.802 -0.1326  0.0021  0.2024
   19TMC2     H  297   2.970   4.582  13.620  0.6355 -0.2511  0.1203
   19TMC2    H1  298   2.732   4.468  13.958 -1.5010  0.1386 -0.6395
   19TMC2    H2  299   2.600   4.371  13.562  0.6952 -0.1334 -1.0872
   19TMC2    C7  300   2.537   4.357  13.809  0.1283  0.5100 -0.1736
   19TMC2    C8  301   2.808   4.502  13.428 -0.8320 -0.4794  0.4495
   19TMC2    O1  302   2.492   4.270  13.734  0.2666 -0.5705 -1.0079
   19TMC2    O2  303   2.878   4.596  13.386 -0.2337  0.4676 -0.0077
   19TMC2    O5  304   2.723   4.428  13.356  0.4781  1.0081  0.3022
   19TMC2    H5  305   2.705   4.336  13.386 -1.3031  0.6461 -1.9011
   20MPD2     C  306   3.129   0.041  14.054  0.5979 -0.3088 -0.2965
   20MPD2    C1  307   3.024   4.683  14.095 -0.8903  0.9310  0.3105
   20MPD2    C2  308   3.002   4.667  14.228 -0.0711  0.1037 -0.5278
   20MPD2    C3  309   3.079   0.008  14.323  0.0290  0.0188  0.3547
   20MPD2    C4  310   3.184   0.087  14.283  0.2440  0.3033  0.1695
   20MPD2    C5  311   3.206   0.096  14.150  0.0028  0.5161  1.3004
   20MPD2     H  312   2.921   4.598  14.250  0.6573 -0.7211 -0.4315
   20MPD2    H1  313   3.251   0.130  14.357  0.4825  0.8739 -0.3762
   20MPD2    H2  314   3.164   0.062  13.954 -1.0476 -2.1554 -1.2475
   20MPD2    H3  315   3.288   0.161  14.124  1.9222 -1.7698  1.6052
   20MPD2     N  316   3.064   4.712  14.463 -0.2067 -0.2722 -0.9252
   20MPD2    H5  317   3.124   0.030  14.532  0.1002 -2.2951  0.0778
   20MPD2    N1  318   2.945   4.604  14.006  0.5848 -0.0977 -0.3979
   20MPD2    H7  319   2.883   4.533  14.042 -0.7455  1.0008 -0.5490
   21MPD2     C  320   0.197   0.889  14.016 -0.0043 -0.7076  0.5587
   21MPD2    C1  321   0.297   0.811  14.071  0.1883 -1.2433  0.0487
   21MPD2    C2  322   0.261   0.721  14.171 -0.0532  0.3893  0.3142
   21MPD2    C3  323   0.135   0.703  14.219 -0.5004  0.0163 -0.1645
   21MPD2    C4  324   0.037   0.792  14.166  0.1575  0.2019  0.0499
   21MPD2    C5  325   0.070   0.876  14.062  0.0362  0.2504 -0.0469
   21MPD2     H  326   0.344   0.654  14.191  1.1638  2.0142  0.7141
   21MPD2    H1  327   4.658   0.786  14.193  0.7508 -1.1805  2.0915
   21MPD2    H2  328   0.207   0.963  13.937 -0.9729  1.2152  2.2132
   21MPD2    H3  329   4.724   0.939  14.011  0.0271 -0.2956 -0.7177
   21MPD2     N  330   0.102   0.605  14.311  0.2210 -0.4250 -0.7228
   21MPD2    H5  331   0.012   0.610  14.358  1.4410 -1.5711  1.7364
   21MPD2    N1  332   0.426   0.793  14.020 -0.1970 -0.3028 -0.5339
   21MPD2    H7  333   0.484   0.718  14.056 -0.9078 -1.2550 -1.3662
   22TCq2    C1  334   0.191   0.512  14.370 -0.2690 -0.6223 -1.0324
   22TCq2    O2  335   0.310   0.497  14.355 -0.3283 -0.0235  0.1670
   22TCq2    C2  336   0.121   0.431  14.466 -0.0016 -0.2672  0.0013
   22TCq2    C3  337   0.209   0.361  14.549 -0.4127  0.0786 -0.0581
   22TCq2    C4  338   0.146   0.276  14.641 -0.7723  0.1172 -0.4495
   22TCq2    C5  339   0.013   0.262  14.646 -0.5188 -0.4582 -0.4944
   22TCq2    C6  340   4.655   0.336  14.559  0.8158 -0.6280 -0.7120
   22TCq2    C7  341   4.713   0.427  14.472 -0.4260  0.3943  0.0948
   22TCq2    C8  342   4.510   0.305  14.557  0.7632 -0.7047 -0.1437
   22TCq2    O4  343   4.480   0.188  14.587  0.1552  0.1803 -0.1235
   22TCq2    C9  344   0.229   0.205  14.737  0.0648  0.7015  0.2063
   22TCq2    O5  345   0.354   0.199  14.702 -0.3312  0.0206 -0.3457
   22TCq2    O6  346   0.163   0.149  14.831  0.3096  0.0897  0.2779
   22TCq2    H2  347   0.316   0.372  14.561 -0.8393  0.8913  3.0255
   22TCq2    H3  348   4.700   0.187  14.713 -0.2201  0.2183  0.4327
   22TCq2    H4  349   4.658   0.459  14.384 -0.0796  1.2009  0.1698
   23MPD2     C  350   1.968   1.646  14.459 -0.2278 -0.5596  0.5382
   23MPD2    C1  351   1.872   1.598  14.552  1.0847  0.9443 -0.1518
   23MPD2    C2  352   1.737   1.622  14.532 -0.1273  0.0407 -0.3903
   23MPD2    C3  353   1.703   1.700  14.419 -0.1963  0.0547 -0.0623
   23MPD2    C4  354   1.799   1.743  14.327 -0.6392  0.3344 -0.1428
   23MPD2    C5  355   1.927   1.718  14.354 -0.6123  0.1653 -0.2130
   23MPD2     H  356   1.663   1.571  14.592 -0.1319  2.6504  1.8438
   23MPD2    H1  357   1.789   1.796  14.233  1.4516 -0.7029 -0.9595
   23MPD2    H2  358   2.074   1.623  14.464  0.1982  1.3259 -0.0581
   23MPD2    H3  359   2.005   1.758  14.291  1.3189 -1.7211  0.9660
   23MPD2     N  360   1.570   1.713  14.378 -0.2093 -0.3133  0.3430
   23MPD2    H5  361   1.555   1.766  14.293  0.4325 -2.4930 -1.1496
   23MPD2    N1  362   1.914   1.536  14.674 -0.2088 -0.1723 -0.4099
   23MPD2    H7  363   1.849   1.515  14.749 -1.4558 -3.4739 -2.4104
   24TCq2    C1  364   1.464   1.637  14.420  0.6164 -0.2200 -0.3529
   24TCq2    O2  365   1.462   1.530  14.481  0.3876 -0.3672  0.2154
   24TCq2    C2  366   1.333   1.677  14.363 -0.8319  0.1164 -0.9022
   24TCq2    C3  367   1.306   1.805  14.313  0.4014 -0.6432  0.5121
   24TCq2    C4  368   1.184   1.836  14.258  0.6537 -0.3837 -0.9011
   24TCq2    C5  369   1.097   1.730  14.243 -0.1563 -0.0394  0.0667
   24TCq2    C6  370   1.133   1.602  14.288  0.0433  0.6239 -0.5254
   24TCq2    C7  371   1.251   1.571  14.343 -0.2712  0.3586 -0.0269
   24TCq2    C8  372   1.047   1.481  14.257  0.2743  0.1133  0.8103
   24TCq2    O4  373   1.082   1.375  14.310  0.3411  0.0176  0.6435
   24TCq2    C9  374   1.149   1.964  14.210 -0.2655  0.3152 -0.1493
   24TCq2    O5  375   1.216   2.057  14.252  0.4999 -0.1371  0.2056
   24TCq2    O6  376   1.036   1.965  14.155 -0.1768 -0.8678 -0.0574
   24TCq2    H2  377   1.380   1.883  14.326 -1.2732  0.6559  2.1839
   24TCq2    H3  378   1.008   1.753  14.186 -0.7188  1.4045  1.5437
   24TCq2    H4  379   1.268   1.470  14.379  0.3917  1.0720  1.6698
   25TMC2    C1  380   0.379   4.108  11.343  0.4524 -0.2758 -0.8335
   25TMC2    C2  381   0.378   4.248  11.352 -0.5464 -0.3656 -0.4038
   25TMC2    C3  382   0.291   4.305  11.431  0.7746 -0.0690  0.1393
   25TMC2    C4  383   0.297   4.025  11.430  0.5887 -0.6368 -0.2488
   25TMC2    C5  384   0.203   4.100  11.493  0.3405 -0.0185 -0.1673
   25TMC2    C6  385   0.194   4.235  11.491 -0.1206 -0.1663  0.6332
   25TMC2     C  386   0.468   4.047  11.256 -0.2420  0.7178 -0.1284
   25TMC2     O  387   0.557   4.113  11.201 -0.7298 -0.1264 -0.8820
   25TMC2     H  388   0.468   4.300  11.320 -0.0682 -0.5831  0.5940
   25TMC2    H1  389   0.302   3.917  11.437  1.1008 -0.7428 -2.1829
   25TMC2    H2  390   0.129   4.279  11.565 -0.5924 -0.4314  0.3801
   25TMC2    C7  391   0.145   4.027  11.600 -0.3621 -0.4732 -0.1744
   25TMC2    C8  392   0.309   4.441  11.457  0.4496  0.2413 -0.0008
   25TMC2    O1  393   0.201   3.936  11.654 -0.0770 -0.0159 -0.3777
   25TMC2    O2  394   0.265   4.484  11.560 -0.1608  0.1010  0.2737
   25TMC2    O5  395   0.290   4.494  11.328  0.1436  0.4257  0.2979
   25TMC2    H5  396   0.300   4.441  11.246  0.8742  0.2661  0.4866
   26MPD2     C  397   0.593   3.637  10.976 -0.8019 -0.3794  0.2401
   26MPD2    C1  398   0.469   3.615  11.033  0.1079  0.2686  0.3159
   26MPD2    C2  399   0.424   3.713  11.119 -0.0364 -0.2095 -0.5871
   26MPD2    C3  400   0.488   3.830  11.143  0.0471 -0.5321 -0.5914
   26MPD2    C4  401   0.615   3.848  11.091 -0.1294 -0.0948 -0.0417
   26MPD2    C5  402   0.669   3.750  11.010  0.4101  0.9093 -0.0876
   26MPD2     H  403   0.320   3.707  11.150 -0.0235 -0.4292 -0.5883
   26MPD2    H1  404   0.676   3.937  11.101  1.7910 -1.8965  3.9668
   26MPD2    H2  405   0.627   3.564  10.904 -0.6579  0.9371 -1.0219
   26MPD2    H3  406   0.768   3.769  10.969  1.2680 -1.8197  0.7265
   26MPD2     N  407   0.423   3.923  11.229 -0.8426  0.0471 -0.2842
   26MPD2    H5  408   0.334   3.887  11.260 -1.1371 -1.2980 -2.6597
   26MPD2    N1  409   0.389   3.496  11.010  0.3632 -0.0407 -0.5608
   26MPD2    H7  410   0.424   3.429  10.942  0.7904  0.5168 -0.9015
   27TMC2    C1  411   3.924   0.497  11.737 -0.2332  0.5399 -0.9032
   27TMC2    C2  412   3.808   0.448  11.691 -0.1894 -0.2592  0.1765
   27TMC2    C3  413   3.715   0.534  11.644 -1.1178 -0.2363  0.0060
   27TMC2    C4  414   3.938   0.634  11.737 -0.2844 -0.1007 -0.2973
   27TMC2    C5  415   3.844   0.728  11.702 -0.5955 -0.2051 -0.5592
   27TMC2    C6  416   3.729   0.671  11.657 -0.4648 -0.2796  0.6458
   27TMC2     C  417   3.960   0.430  11.859  0.1002 -0.4248  0.2348
   27TMC2     O  418   4.024   0.324  11.861 -0.1219 -0.3900  0.0806
   27TMC2     H  419   3.795   0.340  11.691 -2.6272  0.0219  0.5674
   27TMC2    H1  420   4.023   0.671  11.792 -0.7855  1.0978 -0.3356
   27TMC2    H2  421   3.650   0.739  11.626  0.9589  1.3062  0.5032
   27TMC2    C7  422   3.821   0.815  11.821  0.1089 -0.7849  1.0445
   27TMC2    C8  423   3.584   0.486  11.606  0.0349  0.3570  0.1995
   27TMC2    O1  424   3.851   0.766  11.927  0.0054 -0.1087 -0.5334
   27TMC2    O2  425   3.479   0.549  11.625  0.2851  0.3571  0.5262
   27TMC2    O5  426   3.603   0.393  11.514 -0.0973  0.1496 -0.2487
   27TMC2    H5  427   3.696   0.365  11.499 -0.0450  0.0794  0.2045
   28MPD2     C  428   3.901   0.419  12.364 -0.4990  0.2462  0.4630
   28MPD2    C1  429   3.855   0.545  12.327 -0.7403 -0.0033 -0.3135
   28MPD2    C2  430   3.878   0.579  12.192  0.3248 -0.3118  0.0625
   28MPD2    C3  431   3.937   0.491  12.102  0.1841 -0.1684 -0.2584
   28MPD2    C4  432   3.994   0.378  12.153 -0.4586  0.6127  0.4088
   28MPD2    C5  433   3.979   0.338  12.283  0.1106 -0.2214 -0.1992
   28MPD2     H  434   3.837   0.669  12.148  1.5835  0.8782  1.3631
   28MPD2    H1  435   4.050   0.309  12.090  1.0182  0.3866  1.9824
   28MPD2    H2  436   3.881   0.394  12.467 -2.4613  1.3897  0.3650
   28MPD2    H3  437   4.002   0.238  12.316 -0.9305 -0.1570  0.7081
   28MPD2     N  438   3.928   0.511  11.963 -0.2696 -0.2315 -0.3979
   28MPD2    H5  439   3.894   0.601  11.930  1.8682  0.2331 -1.3383
   28MPD2    N1  440   3.776   0.619  12.420 -0.4350  0.1130  0.4595
   28MPD2    H7  441   3.763   0.591  12.517 -1.6787 -1.4785 -0.1557
   29MPD2     C  442   3.528   3.093  14.066 -0.6255 -0.9206  0.4892
   29MPD2    C1  443   3.644   3.090  14.141 -0.8703  0.2193 -0.6616
   29MPD2    C2  444   3.674   3.201  14.222 -0.4303 -0.0839  0.6319
   29MPD2    C3  445   3.588   3.309  14.212 -0.5689 -0.0869 -0.3917
   29MPD2    C4  446   3.463   3.305  14.148 -0.6781  0.1703 -0.4801
   29MPD2    C5  447   3.438   3.196  14.073 -0.3532  0.3459  1.0338
   29MPD2     H  448   3.768   3.206  14.276 -0.2875 -2.4639  0.6087
   29MPD2    H1  449   3.397   3.391  14.153 -0.7497  0.1162 -0.4955
   29MPD2    H2  450   3.490   3.007  14.012 -0.7348  0.7873 -2.1996
   29MPD2    H3  451   3.345   3.187  14.019  0.2906 -2.0222  0.3513
   29MPD2     N  452   3.621   3.423  14.287  0.7457  0.3951 -0.8223
   29MPD2    H5  453   3.542   3.488  14.293 -1.2442 -2.0960  0.1106
   29MPD2    N1  454   3.722   2.970  14.152  0.1373 -0.6134 -0.5292
   29MPD2    H7  455   3.798   2.982  14.217  0.6922 -2.6900 -0.7907
   30TCq2    C1  456   3.743   3.464  14.336 -0.8029 -0.3662 -0.4583
   30TCq2    O2  457   3.858   3.428  14.314 -0.5632  0.2794 -0.1987
   30TCq2    C2  458   3.727   3.575  14.429 -0.0760 -0.2628  0.9409
   30TCq2    C3  459   3.612   3.594  14.503  0.4188  0.3265 -0.2612
   30TCq2    C4  460   3.623   3.673  14.614 -0.1143  0.7649  0.4063
   30TCq2    C5  461   3.730   3.754  14.640 -0.8955  0.1901  0.1631
   30TCq2    C6  462   3.842   3.732  14.566  0.2272  0.6716  0.2883
   30TCq2    C7  463   3.838   3.644  14.462 -0.0937  0.6610  0.1878
   30TCq2    C8  464   3.943   3.827  14.570 -0.1622 -0.4107 -0.0483
   30TCq2    O4  465   4.032   3.819  14.487 -0.0360 -0.7309  0.0499
   30TCq2    C9  466   3.500   3.692  14.693 -0.2697  0.1128 -0.3563
   30TCq2    O5  467   3.494   3.797  14.767 -0.1616  0.0546 -0.5852
   30TCq2    O6  468   3.416   3.598  14.683  0.0556  0.1279  0.1505
   30TCq2    H2  469   3.520   3.539  14.485  1.4082 -1.5194  0.3606
   30TCq2    H3  470   3.739   3.806  14.735  1.3548 -1.5172  0.9022
   30TCq2    H4  471   3.934   3.626  14.416 -1.4501 -1.7658 -1.7274
   31MPD2     C  472   2.118   2.054  14.844  0.1279  0.0281  0.2886
   31MPD2    C1  473   2.018   2.126  14.896 -0.6774  0.9790  0.7084
   31MPD2    C2  474   1.913   2.064  14.956  0.2287 -0.1360  0.5996
   31MPD2    C3  475   1.907   1.929  14.977 -0.0408  0.2732 -0.2240
   31MPD2    C4  476   2.011   1.855  14.933 -0.5693  0.1120  0.0235
   31MPD2    C5  477   2.121   1.914  14.871 -0.2791  1.1975  0.8675
   31MPD2     H  478   1.840   2.134  14.994  0.5011  0.6047 -0.2182
   31MPD2    H1  479   2.020   1.749  14.956  2.2566 -0.1691 -2.4367
   31MPD2    H2  480   2.201   2.105  14.797  1.6979 -1.4941  1.4076
   31MPD2    H3  481   2.203   1.845  14.857 -2.1032 -0.0781 -3.4856
   31MPD2     N  482   1.809   1.873  15.058  0.4515 -0.1876  0.3310
   31MPD2    H5  483   1.816   1.779  15.095  0.2650  0.1532  1.2399
   31MPD2    N1  484   2.021   2.265  14.861  0.2219 -0.2714 -0.4425
   31MPD2    H7  485   2.100   2.291  14.802  0.9007 -1.3094  0.0108
   32TCq2    C1  486   1.686   1.934  15.085  0.1903 -0.4896 -0.5046
   32TCq2    O2  487   1.631   2.018  15.017  0.6109  0.0334  0.0938
   32TCq2    C2  488   1.598   1.836  15.146  0.1543  0.4669  0.2091
   32TCq2    C3  489   1.473   1.825  15.089  0.7466 -0.9761  0.0703
   32TCq2    C4  490   1.363   1.823  15.162  0.8568 -0.0428 -0.6912
   32TCq2    C5  491   1.366   1.821  15.296  0.3166 -0.0929  0.6652
   32TCq2    C6  492   1.481   1.845  15.357  0.2272  0.3328  0.5963
   32TCq2    C7  493   1.597   1.853  15.284  0.6804 -0.3742  0.1078
   32TCq2    C8  494   1.484   1.873  15.495  0.4793 -0.0270  0.6054
   32TCq2    O4  495   1.387   1.860  15.568 -0.1536  0.0349 -0.3057
   32TCq2    C9  496   1.237   1.829  15.082  0.5348 -0.4571 -0.4960
   32TCq2    O5  497   1.253   1.803  14.958 -0.9066 -0.3162 -0.5489
   32TCq2    O6  498   1.131   1.858  15.143 -0.1618 -0.0556 -0.0357
   32TCq2    H2  499   1.470   1.829  14.980  1.9066  0.9817  0.1254
   32TCq2    H3  500   1.276   1.828  15.356  0.5410 -0.9218  1.0882
   32TCq2    H4  501   1.693   1.849  15.335  0.9390  1.2735 -0.2394
   33MPD2     C  502   1.950   0.319   9.586 -0.0317  0.0923 -0.2422
   33MPD2    C1  503   1.890   0.260   9.704 -0.2115 -0.5800  0.5883
   33MPD2    C2  504   1.913   0.315   9.829  0.1592 -0.7796 -0.0762
   33MPD2    C3  505   2.007   0.420   9.841  0.6302 -0.0098 -0.2957
   33MPD2    C4  506   2.065   0.467   9.720  0.3493  0.6945  0.6854
   33MPD2    C5  507   2.028   0.424   9.594  0.4539  0.0673  0.1473
   33MPD2     H  508   1.860   0.264   9.908  2.3348 -1.3714  0.9969
   33MPD2    H1  509   2.132   0.552   9.730  1.1237  0.4121 -2.1258
   33MPD2    H2  510   1.921   0.289   9.486 -3.6195 -0.3589  0.9365
   33MPD2    H3  511   2.074   0.476   9.510 -0.8846 -0.3470 -0.8453
   33MPD2     N  512   2.034   0.478   9.970  0.4162 -0.2731 -0.1058
   33MPD2    H5  513   2.050   0.579   9.973  2.3503 -0.5886  0.6368
   33MPD2    N1  514   1.796   0.158   9.683  0.6200 -0.0339 -0.8357
   33MPD2    H7  515   1.790   0.112   9.593 -0.6551 -1.7079  0.1107
   34TCq2    C1  516   2.004   0.410  10.081  0.4596 -1.0372 -0.5127
   34TCq2    O2  517   1.987   0.288  10.091 -0.2857  0.6969  0.0199
   34TCq2    C2  518   1.986   0.480  10.210  0.2242 -0.5284  1.1492
   34TCq2    C3  519   1.929   0.403  10.313  0.8462  1.4151  0.7719
   34TCq2    C4  520   1.883   0.473  10.420  0.4411 -0.1437 -0.2726
   34TCq2    C5  521   1.909   0.607  10.430 -0.4254 -0.0828  0.2571
   34TCq2    C6  522   1.950   0.682  10.330  0.0732  0.5102  0.0411
   34TCq2    C7  523   1.993   0.619  10.210  0.8241 -0.5390 -1.2194
   34TCq2    C8  524   1.930   0.822  10.327  0.1393 -0.3816  0.5580
   34TCq2    O4  525   1.994   0.887  10.246  0.1988  0.0483 -0.2903
   34TCq2    C9  526   1.805   0.395  10.515 -0.3924  0.0828  0.3446
   34TCq2    O5  527   1.793   0.271  10.492 -0.4059 -0.1682  0.4838
   34TCq2    O6  528   1.762   0.453  10.615  0.1756 -0.4082 -0.8905
   34TCq2    H2  529   1.910   0.297  10.299 -0.7778  1.8820 -0.5783
   34TCq2    H3  530   1.880   0.665  10.517 -0.4637 -1.2673  1.0390
   34TCq2    H4  531   2.044   0.676  10.133  3.0074 -1.0632 -0.1587
   35MPD2     C  532   2.860   1.537  11.940 -0.7271 -0.2248 -0.0659
   35MPD2    C1  533   2.895   1.401  11.933 -0.7764  0.2610  0.1041
   35MPD2    C2  534   2.858   1.334  11.822 -0.5020 -0.4745  0.1456
   35MPD2    C3  535   2.794   1.399  11.715  0.0114 -0.1944 -0.6951
   35MPD2    C4  536   2.774   1.537  11.719  0.3115 -0.0301 -0.2913
   35MPD2    C5  537   2.809   1.598  11.833 -0.5088 -0.0250  0.3786
   35MPD2     H  538   2.874   1.227  11.814  0.4732 -0.4354  1.5070
   35MPD2    H1  539   2.727   1.600  11.644 -0.6873  0.0120  0.3739
   35MPD2    H2  540   2.880   1.601  12.025  2.0921 -1.0167 -0.1394
   35MPD2    H3  541   2.798   1.706  11.840 -0.8898  0.0599 -1.6625
   35MPD2     N  542   2.762   1.325  11.598  0.9538 -0.4191  0.7890
   35MPD2    H5  543   2.796   1.229  11.600  0.4883 -0.5713  1.5575
   35MPD2    N1  544   2.954   1.348  12.053  0.5340 -0.4947  1.0131
   35MPD2    H7  545   2.984   1.423  12.115  0.2279 -0.4314  1.0811
   36TCq2    C1  546   2.721   1.370  11.472  0.1639 -0.2347  0.3180
   36TCq2    O2  547   2.707   1.484  11.432 -0.4104 -0.5661 -0.2690
   36TCq2    C2  548   2.705   1.270  11.369  0.5002 -0.5239  0.5692
   36TCq2    C3  549   2.715   1.324  11.243 -0.2562  0.8194 -0.4929
   36TCq2    C4  550   2.675   1.246  11.139 -0.4319 -0.6963  0.2489
   36TCq2    C5  551   2.612   1.126  11.156 -0.1094 -0.6388  0.6470
   36TCq2    C6  552   2.593   1.080  11.287  0.8198  0.0130  0.5582
   36TCq2    C7  553   2.644   1.148  11.390  1.3209 -0.1825  0.5170
   36TCq2    C8  554   2.512   0.963  11.304 -0.2912  0.3965 -0.5902
   36TCq2    O4  555   2.439   0.947  11.203 -0.0667 -0.1480  0.1781
   36TCq2    C9  556   2.688   1.299  11.005  0.5629  0.4620  0.9126
   36TCq2    O5  557   2.750   1.408  10.993 -0.6484 -0.4775 -0.6177
   36TCq2    O6  558   2.635   1.231  10.916 -0.4626  0.0400  0.2388
   36TCq2    H2  559   2.756   1.421  11.219 -2.3248  1.1168 -2.8828
   36TCq2    H3  560   2.584   1.076  11.064 -1.2933  2.5289 -0.7103
   36TCq2    H4  561   2.635   1.123  11.495  3.2837  0.6861  0.9072
   37TMC2    C1  562   0.761   1.893  11.617 -1.3277  0.1799 -0.3286
   37TMC2    C2  563   0.764   1.998  11.530  0.4234 -0.0937 -0.4331
   37TMC2    C3  564   0.871   2.028  11.453  0.0069  0.1980 -1.0415
   37TMC2    C4  565   0.883   1.842  11.651  0.2282  0.0657  0.6249
   37TMC2    C5  566   0.995   1.874  11.571  0.2582 -0.5573  0.5077
   37TMC2    C6  567   0.986   1.954  11.457 -0.0464  0.0439 -0.2084
   37TMC2     C  568   0.644   1.877  11.710  0.1039  0.8657  0.2802
   37TMC2     O  569   0.537   1.928  11.681 -0.3927 -0.6838  0.7317
   37TMC2     H  570   0.664   2.032  11.508 -0.1341 -0.0634  2.2113
   37TMC2    H1  571   0.897   1.757  11.717  0.7797 -0.5777 -0.3388
   37TMC2    H2  572   1.077   1.988  11.409  0.2379 -0.0184  0.2902
   37TMC2    C7  573   1.121   1.826  11.628 -0.0040  0.3708  0.0132
   37TMC2    C8  574   0.857   2.131  11.348  0.3475  0.4216  0.0627
   37TMC2    O1  575   1.125   1.773  11.735 -0.0155 -0.2102  0.3821
   37TMC2    O2  576   0.757   2.201  11.331 -0.5761 -0.3734  0.2889
   37TMC2    O5  577   0.930   2.089  11.244 -0.7702  0.3122 -0.6855
   37TMC2    H5  578   0.986   2.010  11.258  0.2609  0.9169 -1.4598
   38MPD2     C  579   0.403   1.630  12.091  0.1508 -0.5190 -0.2919
   38MPD2    C1  580   0.514   1.558  12.058  0.3477 -0.3025 -0.3506
   38MPD2    C2  581   0.606   1.617  11.978  0.2458 -0.2974 -0.3451
   38MPD2    C3  582   0.584   1.736  11.908  0.5722  0.2265  0.2625
   38MPD2    C4  583   0.467   1.802  11.940 -0.0206 -0.5701 -0.1556
   38MPD2    C5  584   0.376   1.747  12.025 -0.8429 -0.0726 -0.3148
   38MPD2     H  585   0.698   1.562  11.960  1.0998  0.3055  2.2169
   38MPD2    H1  586   0.443   1.894  11.888  0.3338 -1.1519 -1.3620
   38MPD2    H2  587   0.328   1.585  12.155 -0.5635  0.5692 -0.3504
   38MPD2    H3  588   0.281   1.798  12.036 -0.5324  0.5906 -0.7439
   38MPD2     N  589   0.670   1.781  11.812 -0.1664 -0.0504 -0.0675
   38MPD2    H5  590   0.758   1.730  11.802 -0.4538 -0.8404  1.4947
   38MPD2    N1  591   0.545   1.440  12.127  0.7214  0.4372  0.2907
   38MPD2    H7  592   0.631   1.392  12.102 -0.6728 -0.0377 -3.5922
   39MPD2     C  593   3.843   3.234   1.111  0.4226  0.1927 -0.0763
   39MPD2    C1  594   3.747   3.326   1.134 -0.0661  0.0101 -0.2868
   39MPD2    C2  595   3.613   3.291   1.111  0.1995  0.1950  0.8590
   39MPD2    C3  596   3.580   3.163   1.062 -0.2951 -1.0485 -0.2251
   39MPD2    C4  597   3.677   3.065   1.049 -0.3282  0.4422  0.1366
   39MPD2    C5  598   3.810   3.107   1.069 -0.0990 -0.9972  0.3267
   39MPD2     H  599   3.539   3.369   1.119  0.1113  0.3651 -1.7284
   39MPD2    H1  600   3.641   2.967   1.020  1.9969 -0.5746  0.7245
   39MPD2    H2  601   3.949   3.254   1.116  0.2977  0.9279 -0.3202
   39MPD2    H3  602   3.901   3.048   1.058 -0.5791 -1.6000 -0.3615
   39MPD2     N  603   3.449   3.129   1.023 -0.0939  0.3025  0.0083
   39MPD2    H5  604   3.445   3.038   0.976 -0.5578  0.0525  0.5395
   39MPD2    N1  605   3.795   3.454   1.184  0.3186  0.2623 -0.0965
   39MPD2    H7  606   3.894   3.475   1.185  0.6851 -1.4398 -1.1023
   40TCq2    C1  607   3.717   3.555   1.232  0.1892 -0.5129 -0.0854
   40TCq2    O2  608   3.593   3.555   1.225 -0.8122 -0.2129 -0.2992
   40TCq2    C2  609   3.777   3.679   1.292 -0.1254  0.0338 -0.5946
   40TCq2    C3  610   3.699   3.781   1.325 -0.4834  1.3088  0.4377
   40TCq2    C4  611   3.745   3.884   1.397 -0.2160  0.4433  0.2895
   40TCq2    C5  612   3.873   3.876   1.438 -0.0435 -0.1837  0.0852
   40TCq2    C6  613   3.954   3.766   1.408  0.6268 -0.0270 -0.2044
   40TCq2    C7  614   3.907   3.664   1.334 -0.0813 -0.4757 -0.0888
   40TCq2    C8  615   4.101   3.773   1.426 -0.2156  0.2325  0.3888
   40TCq2    O4  616   4.163   3.669   1.429  0.3390  0.8080 -0.3753
   40TCq2    C9  617   3.664   3.994   1.441  0.6987 -0.2621 -0.7832
   40TCq2    O5  618   3.714   4.100   1.489  0.6924  0.0726  0.0119
   40TCq2    O6  619   3.545   3.959   1.441  0.2613  0.4617  0.0623
   40TCq2    H2  620   3.600   3.790   1.282  0.4382  0.1480 -1.9682
   40TCq2    H3  621   3.906   3.967   1.488 -0.5932 -0.2640  0.5914
   40TCq2    H4  622   3.972   3.585   1.297  0.1072  0.8179 -2.4842
   41TMC2    C1  623   2.560   1.269  13.090  0.5118  0.4797  0.5701
   41TMC2    C2  624   2.639   1.321  13.194  0.0462  1.1368  0.6269
   41TMC2    C3  625   2.775   1.310  13.186 -0.8827 -0.6032 -0.0139
   41TMC2    C4  626   2.623   1.211  12.979 -0.1869 -0.3998 -0.1655
   41TMC2    C5  627   2.756   1.208  12.975 -0.3910 -0.1117 -0.4616
   41TMC2    C6  628   2.840   1.252  13.079  0.5060 -0.0006  0.6689
   41TMC2     C  629   2.421   1.241  13.122 -0.3083 -1.0969  0.6277
   41TMC2     O  630   2.330   1.224  13.039  0.2086  0.8084 -0.0552
   41TMC2     H  631   2.590   1.368  13.279  0.4578 -0.2809  1.6527
   41TMC2    H1  632   2.563   1.162  12.902 -0.1834 -0.0021 -0.4188
   41TMC2    H2  633   2.948   1.244  13.075  0.3096 -1.0513 -2.3895
   41TMC2    C7  634   2.819   1.117  12.879 -0.0091 -0.5124 -0.6202
   41TMC2    C8  635   2.859   1.324  13.299 -0.5828 -0.0698 -0.6688
   41TMC2    O1  636   2.907   1.040  12.912 -0.3313  0.3144  0.0706
   41TMC2    O2  637   2.968   1.270  13.318  0.2150  0.4339 -0.8461
   41TMC2    O5  638   2.798   1.405  13.391  0.3215  0.0308 -0.4691
   41TMC2    H5  639   2.736   1.463  13.342 -1.3849 -0.4262  1.1364
   42MPD2     C  640   2.180   1.197  13.313  0.5422 -0.0182 -0.0955
   42MPD2    C1  641   2.314   1.188  13.346  0.1916  0.1583  0.5073
   42MPD2    C2  642   2.340   1.153  13.477 -0.4776 -0.9870  0.4454
   42MPD2    C3  643   2.243   1.139  13.577  1.0775 -0.0092  0.3309
   42MPD2    C4  644   2.112   1.159  13.538 -0.4611  0.5685  0.0441
   42MPD2    C5  645   2.084   1.200  13.406 -0.3959 -0.7653 -0.1367
   42MPD2     H  646   2.445   1.144  13.500 -0.4113 -3.2769 -0.7199
   42MPD2    H1  647   2.030   1.163  13.609  2.8920 -1.6973  4.0735
   42MPD2    H2  648   2.152   1.214  13.210  1.4635  2.7518  0.0970
   42MPD2    H3  649   1.978   1.203  13.384 -0.2156  0.0229 -0.8860
   42MPD2     N  650   2.272   1.118  13.713  0.2418  0.3505 -0.4130
   42MPD2    H5  651   2.193   1.117  13.777  1.5957 -2.3214  1.2167
   42MPD2    N1  652   2.422   1.196  13.257  0.3769  0.1801  0.6150
   42MPD2    H7  653   2.515   1.174  13.293  0.5260  1.0364  0.7479
   43MPD2     C  654   3.971   4.369   0.316 -0.2576 -0.4085 -0.2662
   43MPD2    C1  655   4.017   4.463   0.407 -0.4197  0.0091 -0.2210
   43MPD2    C2  656   3.945   4.465   0.528 -0.3493 -0.1912 -0.4426
   43MPD2    C3  657   3.838   4.375   0.542  0.8142 -0.7523  0.4270
   43MPD2    C4  658   3.792   4.291   0.438  0.3168  0.3151 -0.3778
   43MPD2    C5  659   3.856   4.297   0.321 -0.2969  0.0853  0.1057
   43MPD2     H  660   3.968   4.535   0.608  0.7493  0.4570 -1.3297
   43MPD2    H1  661   3.711   4.220   0.445  0.6658  0.1076  1.5196
   43MPD2    H2  662   4.031   4.359   0.226  1.3974  0.1238  0.7604
   43MPD2    H3  663   3.836   4.227   0.241 -1.9036  2.5270 -1.6268
   43MPD2     N  664   3.779   4.350   0.668  0.2025 -0.2752 -0.5155
   43MPD2    H5  665   3.690   4.301   0.674 -0.0395  0.2684  0.4128
   43MPD2    N1  666   4.122   4.548   0.387  0.9048  0.3954 -0.3003
   43MPD2    H7  667   4.134   4.614   0.463  1.3258  1.3249 -1.1757
   44TCq2    C1  668   3.739   4.544   1.199 -0.4868 -0.7807  0.0700
   44TCq2    O2  669   3.783   4.639   1.135  0.0965  0.2843 -0.1221
   44TCq2    C2  670   3.724   4.422   1.124  0.3844 -0.3819 -0.2516
   44TCq2    C3  671   3.596   4.361   1.124  0.3551 -0.2120 -0.0045
   44TCq2    C4  672   3.557   4.296   1.010 -0.0346  0.0131  0.0254
   44TCq2    C5  673   3.631   4.306   0.891 -0.1809  0.1321  0.4689
   44TCq2    C6  674   3.751   4.366   0.905  0.2456  0.8137  0.2034
   44TCq2    C7  675   3.805   4.415   1.016  0.4175  0.0234  0.6249
   44TCq2    C8  676   3.839   4.385   0.787  0.4877  0.6838 -0.1692
   44TCq2    O4  677   3.959   4.416   0.805  0.1083  0.4679  0.1275
   44TCq2    C9  678   3.427   4.235   1.008 -0.1239 -0.0994  0.3081
   44TCq2    O5  679   3.380   4.212   1.126  0.9005  0.0968  0.1032
   44TCq2    O6  680   3.361   4.259   0.903  0.1480 -0.2332 -0.1810
   44TCq2    H2  681   3.528   4.361   1.209 -0.0246 -1.2178 -0.3145
   44TCq2    H3  682   3.591   4.260   0.802  2.4301  0.6517 -0.9858
   44TCq2    H4  683   3.897   4.473   1.019 -1.0975  2.5488 -1.3432
   45TMC2    C1  684   0.130   1.484   9.462 -0.1446 -0.6110  0.0957
   45TMC2    C2  685   0.222   1.421   9.535  0.0205  0.1141  0.0556
   45TMC2    C3  686   0.291   1.512   9.616  0.3641  0.6809  0.4226
   45TMC2    C4  687   0.133   1.619   9.438  0.0324 -0.0833 -0.1626
   45TMC2    C5  688   0.192   1.702   9.527 -0.0727 -0.6494 -0.0406
   45TMC2    C6  689   0.274   1.652   9.622 -0.1663  0.0039 -0.4272
   45TMC2     C  690   0.043   1.404   9.379  0.2386  0.0265  0.3647
   45TMC2     O  691   0.088   1.290   9.357 -0.4789  0.4577  0.1693
   45TMC2     H  692   0.244   1.315   9.542 -0.9382 -0.1480 -0.9619
   45TMC2    H1  693   0.072   1.648   9.354 -0.4166 -2.2816 -0.6032
   45TMC2    H2  694   0.329   1.715   9.690 -0.6925 -0.9322  0.8714
   45TMC2    C7  695   0.208   1.840   9.482  0.2681  0.6733  0.5826
   45TMC2    C8  696   0.405   1.461   9.681 -0.6588  0.0463 -0.5083
   45TMC2    O1  697   0.171   1.854   9.365 -0.3125  0.0716  0.4036
   45TMC2    O2  698   0.403   1.344   9.718  0.0461 -0.2023 -0.6103
   45TMC2    O5  699   0.517   1.531   9.672  0.1060  0.1785 -0.2191
   45TMC2    H5  700   0.503   1.617   9.629  1.8407  0.5358 -0.1011
   46MPD2     C  701   4.543   1.290   9.215 -0.4122 -0.1625  0.0122
   46MPD2    C1  702   4.535   1.394   9.303 -0.0791  0.2499 -0.8527
   46MPD2    C2  703   4.413   1.456   9.314  0.0650  0.3760 -0.4375
   46MPD2    C3  704   4.301   1.400   9.260 -0.2483 -0.8011  0.1924
   46MPD2    C4  705   4.309   1.287   9.177  0.8741  0.4253  0.1396
   46MPD2    C5  706   4.431   1.248   9.143 -0.4802 -0.4416  0.1721
   46MPD2     H  707   4.409   1.542   9.380  2.1176  0.6776 -0.7001
   46MPD2    H1  708   4.229   1.239   9.122  1.1402  1.8946 -1.5049
   46MPD2    H2  709   4.640   1.243   9.200  0.0197  0.3876  1.0406
   46MPD2    H3  710   4.443   1.173   9.065  0.5581 -2.0371  1.8793
   46MPD2     N  711   4.176   1.452   9.302 -0.3987 -0.3605  0.3452
   46MPD2    H5  712   4.179   1.544   9.345  0.3497 -0.5063  0.6007
   46MPD2    N1  713   4.644   1.447   9.377  0.0467 -0.0613 -0.3932
   46MPD2    H7  714   4.615   1.518   9.444 -0.9756 -0.4538 -0.4054
   47TMC2    C1  715   2.516   2.071   9.460 -0.3355  0.1696  0.6696
   47TMC2    C2  716   2.541   1.983   9.358 -0.2814  0.5353 -0.7113
   47TMC2    C3  717   2.446   1.969   9.258  0.1177  0.2104 -1.0353
   47TMC2    C4  718   2.394   2.135   9.465  0.7664  0.4209  0.1570
   47TMC2    C5  719   2.304   2.119   9.370  0.2738  0.4167  0.1816
   47TMC2    C6  720   2.318   2.025   9.274  0.1570 -0.0660  0.7152
   47TMC2     C  721   2.601   2.074   9.573  0.2758  0.1305 -1.1192
   47TMC2     O  722   2.658   1.967   9.592  0.2963  0.0016  0.2403
   47TMC2     H  723   2.644   1.953   9.341 -0.6230 -1.1953  0.3038
   47TMC2    H1  724   2.364   2.198   9.548  0.8392 -0.8115  1.1218
   47TMC2    H2  725   2.248   2.024   9.191  1.6311  0.0788 -0.5504
   47TMC2    C7  726   2.168   2.146   9.400 -0.3264  0.1714 -0.2669
   47TMC2    C8  727   2.466   1.881   9.140 -0.2595 -0.1500  0.3311
   47TMC2    O1  728   2.086   2.159   9.308  0.3465 -0.4650  0.4156
   47TMC2    O2  729   2.377   1.855   9.066 -0.1547  0.0687 -0.2806
   47TMC2    O5  730   2.594   1.833   9.139 -0.2820 -0.1568  0.2108
   47TMC2    H5  731   2.656   1.873   9.205  0.8684 -1.5974 -0.0067
   48MPD2     C  732   2.710   2.367   9.768  0.6664 -0.4922  0.2174
   48MPD2    C1  733   2.700   2.234   9.732 -0.2212 -0.5596  0.0640
   48MPD2    C2  734   2.760   2.145   9.819  0.0833  0.0130 -0.1971
   48MPD2    C3  735   2.844   2.174   9.925  0.1788  0.2129  0.4286
   48MPD2    C4  736   2.852   2.310   9.961 -0.6583  0.5018  0.0577
   48MPD2    C5  737   2.779   2.398   9.882  0.3676  0.2117  0.2683
   48MPD2     H  738   2.759   2.038   9.797  1.1199  0.1303 -0.7841
   48MPD2    H1  739   2.912   2.337  10.047 -0.2778  0.5799 -0.2322
   48MPD2    H2  740   2.679   2.449   9.704  1.5074  0.3317  0.8661
   48MPD2    H3  741   2.786   2.504   9.904 -0.6953  0.6903 -1.6192
   48MPD2     N  742   2.893   2.068  10.007 -0.5212 -0.1716 -0.7571
   48MPD2    H5  743   2.872   1.974   9.975 -0.3484 -0.6939  0.6842
   48MPD2    N1  744   2.619   2.200   9.619 -0.0695 -0.1935 -0.9953
   48MPD2    H7  745   2.560   2.270   9.574 -0.3784 -1.3168 -2.3500
   49MPD2     C  746   4.658   4.334   9.604 -0.4745  0.2337 -0.1202
   49MPD2    C1  747   4.645   4.267   9.726  0.6609 -0.5572  0.6763
   49MPD2    C2  748   4.649   4.343   9.840  0.1521 -0.1639 -0.9331
   49MPD2    C3  749   4.678   4.482   9.833  0.0540  0.1848  0.4120
   49MPD2    C4  750   4.701   4.535   9.713 -0.3943  0.0836 -0.2333
   49MPD2    C5  751   4.689   4.470   9.598  0.3456  0.5507  0.2492
   49MPD2     H  752   4.628   4.293   9.933  0.1411 -1.2880 -1.5464
   49MPD2    H1  753   0.010   4.637   9.708 -3.3189  1.1693  1.9862
   49MPD2    H2  754   4.649   4.280   9.510 -0.3816  1.7086 -0.9730
   49MPD2    H3  755   4.696   4.520   9.502  2.6098 -0.2459 -0.0064
   49MPD2     N  756   4.681   4.565   9.953  0.1652  0.2367  0.0253
   49MPD2    H5  757   4.674   4.663   9.929  0.3246  0.8891  2.6180
   49MPD2    N1  758   4.610   4.124   9.745  0.0459 -0.3681 -0.5737
   49MPD2    H7  759   4.599   4.095   9.842  0.1898  0.9076 -0.1749
   50TCq2    C1  760   4.580   4.033   9.646  0.1222 -0.2786 -0.3895
   50TCq2    O2  761   4.584   4.059   9.525 -0.2320 -0.2924 -0.0799
   50TCq2    C2  762   4.538   3.910   9.700 -0.1306  0.3304  0.7696
   50TCq2    C3  763   4.430   3.853   9.632  0.3956  0.2403  0.4203
   50TCq2    C4  764   4.371   3.739   9.694  0.4705  0.1547 -0.0233
   50TCq2    C5  765   4.418   3.701   9.821 -0.3893  0.2500  0.5060
   50TCq2    C6  766   4.527   3.766   9.877  0.0194  0.1824  0.1841
   50TCq2    C7  767   4.590   3.874   9.820 -0.3694  0.2066 -0.5554
   50TCq2    C8  768   4.595   3.717  10.001  0.3663  0.5561  0.2080
   50TCq2    O4  769   4.573   3.600  10.029 -0.0877  0.4422  0.1188
   50TCq2    C9  770   4.262   3.674   9.631 -0.0203 -0.2051  0.3291
   50TCq2    O5  771   4.184   3.608   9.707  0.0112  0.6595  0.1128
   50TCq2    O6  772   4.236   3.698   9.512 -0.2515  0.1971 -0.3198
   50TCq2    H2  773   4.397   3.892   9.536 -1.2822 -2.8810 -0.2879
   50TCq2    H3  774   4.375   3.613   9.868  0.9574 -1.2558 -1.0693
   50TCq2    H4  775   4.679   3.919   9.863  0.9019 -3.5431  0.8322
   51MPD2     C  776   0.060   2.931   0.825 -0.4555  0.2233 -0.3760
   51MPD2    C1  777   0.160   2.865   0.898  0.1394 -0.0108 -0.8859
   51MPD2    C2  778   0.244   2.943   0.977  0.6513  0.3855 -1.1810
   51MPD2    C3  779   0.244   3.081   0.975 -0.3309  0.0040  0.2108
   51MPD2    C4  780   0.161   3.142   0.879 -0.0219 -0.4551  0.3261
   51MPD2    C5  781   0.073   3.067   0.805  0.2399 -0.1723  0.0500
   51MPD2     H  782   0.309   2.891   1.047 -0.5710  1.3184  0.6766
   51MPD2    H1  783   0.162   3.250   0.872  0.0117 -0.4324  0.6553
   51MPD2    H2  784   4.717   2.880   0.759  1.2386  0.9001 -2.6682
   51MPD2    H3  785   0.010   3.123   0.737  0.2578 -0.6691 -0.3742
   51MPD2     N  786   0.321   3.163   1.056 -0.5487  0.4048 -0.6962
   51MPD2    H5  787   0.335   3.259   1.024  1.2063  0.3387 -0.1544
   51MPD2    N1  788   0.177   2.726   0.899 -0.4351 -0.0920 -0.5655
   51MPD2    H7  789   0.262   2.695   0.946  0.3744  1.8099 -0.7521
   52TCq2    C1  790   0.383   3.129   1.176 -0.4002 -0.7831 -0.3420
   52TCq2    O2  791   0.380   3.016   1.227  0.4089  0.9874 -0.1195
   52TCq2    C2  792   0.418   3.239   1.264  0.1042 -0.7147  0.1082
   52TCq2    C3  793   0.405   3.370   1.214  0.4415 -0.8330 -0.3685
   52TCq2    C4  794   0.494   3.468   1.260 -0.5531  0.7071  0.0856
   52TCq2    C5  795   0.586   3.441   1.360  0.7110 -0.4676 -0.1245
   52TCq2    C6  796   0.591   3.322   1.420  0.3210  0.3345 -0.7036
   52TCq2    C7  797   0.508   3.221   1.371  0.0069  0.5496  0.0428
   52TCq2    C8  798   0.700   3.308   1.519 -0.1572  0.2829 -0.0958
   52TCq2    O4  799   0.794   3.384   1.508  0.3193  0.1233 -0.0253
   52TCq2    C9  800   0.484   3.605   1.200 -0.0557  0.0112 -0.7104
   52TCq2    O5  801   0.377   3.630   1.134  0.3876 -0.1120 -0.2309
   52TCq2    O6  802   0.571   3.690   1.241 -0.0630  0.0528 -0.0961
   52TCq2    H2  803   0.333   3.402   1.139  1.0983 -2.3532 -1.6400
   52TCq2    H3  804   0.650   3.520   1.400  0.0755  1.0324 -2.1069
   52TCq2    H4  805   0.513   3.121   1.412  0.3409  1.4146  2.0800
   53TMC2    C1  806   1.617   1.459  11.986  0.0162  0.5828 -0.3987
   53TMC2    C2  807   1.676   1.338  11.994 -0.4899  0.3256 -0.0810
   53TMC2    C3  808   1.616   1.243  12.073 -0.3715  0.0673 -0.6312
   53TMC2    C4  809   1.500   1.482  12.054 -0.0948  0.1543  0.3474
   53TMC2    C5  810   1.443   1.391  12.134  0.5270 -0.0193  0.5907
   53TMC2    C6  811   1.504   1.271  12.147 -0.6053  0.1857 -0.2598
   53TMC2     C  812   1.636   1.535  11.860 -0.0147  0.0919  0.6602
   53TMC2     O  813   1.747   1.532  11.811  0.1819  0.3257  0.0467
   53TMC2     H  814   1.770   1.319  11.944 -0.3329  1.2120 -0.1214
   53TMC2    H1  815   1.467   1.585  12.054  0.7821  0.4354 -0.1713
   53TMC2    H2  816   1.462   1.187  12.202  1.3543 -0.1367  0.7370
   53TMC2    C7  817   1.320   1.432  12.200  0.0965 -0.1575 -0.0491
   53TMC2    C8  818   1.705   1.147  12.134 -0.0953 -1.4303  0.7243
   53TMC2    O1  819   1.267   1.535  12.156 -0.8103 -0.2710 -0.4476
   53TMC2    O2  820   1.691   1.127  12.255 -0.5213  0.6931  0.1815
   53TMC2    O5  821   1.811   1.118  12.057 -0.1870  0.0343 -0.3173
   53TMC2    H5  822   1.778   1.135  11.967 -0.5083  2.1638  0.1851
   54MPD2     C  823   1.623   1.767  11.672  0.4941 -0.7806  0.5144
   54MPD2    C1  824   1.516   1.695  11.718  0.5154  0.4385  0.4789
   54MPD2    C2  825   1.390   1.720  11.668  0.0676 -0.3497 -0.0947
   54MPD2    C3  826   1.366   1.832  11.594  0.1848  0.1979  0.5888
   54MPD2    C4  827   1.473   1.902  11.544  0.5784 -0.0924  0.2279
   54MPD2    C5  828   1.605   1.866  11.575 -0.2563 -0.0791  0.1831
   54MPD2     H  829   1.303   1.658  11.688 -0.6700  0.5694 -0.4355
   54MPD2    H1  830   1.458   1.988  11.479  5.1181 -0.7038 -1.6218
   54MPD2    H2  831   1.721   1.740  11.708  0.9181  1.1370  0.8167
   54MPD2    H3  832   1.684   1.920  11.523 -1.6006  0.9339 -0.7977
   54MPD2     N  833   1.232   1.874  11.566 -0.1116 -0.1925 -0.0553
   54MPD2    H5  834   1.233   1.951  11.499  2.6379  0.1569  0.4038
   54MPD2    N1  835   1.516   1.595  11.818 -0.3111  0.1965 -0.8365
   54MPD2    H7  836   1.428   1.556  11.853  1.3268 -1.0577  1.8490
   55MPD2     C  837   1.758   3.602   0.243 -0.8716  0.2314 -0.6259
   55MPD2    C1  838   1.666   3.572   0.341  0.3952  0.1367 -0.0826
   55MPD2    C2  839   1.546   3.639   0.342  0.6442 -0.5209 -0.6176
   55MPD2    C3  840   1.521   3.747   0.256 -0.4031 -0.3973  0.0706
   55MPD2    C4  841   1.623   3.786   0.166 -0.6163  0.2645  0.1475
   55MPD2    C5  842   1.741   3.713   0.157  0.2763 -0.2291 -0.2342
   55MPD2     H  843   1.464   3.607   0.404  0.8275  0.2460  0.0161
   55MPD2    H1  844   1.626   3.877   0.107 -0.4242 -0.4982 -1.0322
   55MPD2    H2  845   1.851   3.546   0.237 -0.8120  0.1628  1.0453
   55MPD2    H3  846   1.813   3.754   0.087  2.8626 -0.9069  2.0261
   55MPD2     N  847   1.400   3.813   0.262 -0.0709  0.1588 -0.2719
   55MPD2    H5  848   1.323   3.774   0.316  0.1243  0.2946  0.1126
   55MPD2    N1  849   1.705   3.460   0.419  0.0561  0.5304  0.3433
   55MPD2    H7  850   1.785   3.403   0.398 -0.7924 -0.4194 -0.3148
   56TCq2    C1  851   1.627   3.424   0.529 -0.0766 -0.0324  0.1742
   56TCq2    O2  852   1.534   3.485   0.581  0.6062  0.3661 -0.0205
   56TCq2    C2  853   1.671   3.304   0.598 -0.5364 -1.0124 -0.1923
   56TCq2    C3  854   1.796   3.246   0.582 -0.1146 -0.0407 -0.1918
   56TCq2    C4  855   1.829   3.142   0.667  0.0992  0.2369 -0.9609
   56TCq2    C5  856   1.749   3.087   0.757 -0.3523  0.2346 -0.2461
   56TCq2    C6  857   1.623   3.141   0.765  0.3043 -1.0234 -0.3555
   56TCq2    C7  858   1.582   3.249   0.689  0.0071  0.3114  0.3037
   56TCq2    C8  859   1.523   3.065   0.842 -0.0496  0.7370 -0.1576
   56TCq2    O4  860   1.546   2.944   0.848  0.1217 -0.1262  0.0511
   56TCq2    C9  861   1.964   3.095   0.654  0.1163 -0.4898  0.2443
   56TCq2    O5  862   1.994   2.989   0.714  0.4559  0.0922  0.1106
   56TCq2    O6  863   2.049   3.175   0.603  0.5344 -0.3877 -0.0992
   56TCq2    H2  864   1.868   3.289   0.514  1.5505 -3.2461 -0.4092
   56TCq2    H3  865   1.784   3.009   0.823  2.0967 -0.2607 -2.1097
   56TCq2    H4  866   1.478   3.278   0.695  0.0466  0.3400  0.9224
   57TMC2    C1  867   0.947   0.716  13.465  0.7035 -0.6969 -0.0880
   57TMC2    C2  868   1.010   0.659  13.573  0.0806 -0.4226  0.2705
   57TMC2    C3  869   1.062   0.532  13.565  0.3606 -0.3208  0.2595
   57TMC2    C4  870   0.921   0.629  13.360 -1.2470  0.4754 -0.6222
   57TMC2    C5  871   0.969   0.501  13.358  0.2856  0.0252 -0.3106
   57TMC2    C6  872   1.045   0.448  13.461 -0.7692  0.3917 -0.2711
   57TMC2     C  873   0.882   0.845  13.469 -0.4223 -0.4544 -0.0415
   57TMC2     O  874   0.842   0.882  13.356  0.1686  0.0716 -0.3437
   57TMC2     H  875   1.030   0.714  13.664 -1.0197 -3.9082  2.6075
   57TMC2    H1  876   0.859   0.653  13.274 -2.6517 -0.1053  0.2375
   57TMC2    H2  877   1.077   0.345  13.460 -1.0120  0.3013  3.2285
   57TMC2    C7  878   0.962   0.441  13.227 -0.1867  0.0405 -0.2575
   57TMC2    C8  879   1.106   0.485  13.695  0.5275  0.5746 -0.1613
   57TMC2    O1  880   0.876   0.472  13.146  0.4788 -0.6538 -0.1696
   57TMC2    O2  881   1.068   0.538  13.797 -0.2567  0.1073 -0.2917
   57TMC2    O5  882   1.165   0.363  13.683  0.5247 -0.2917 -0.5060
   57TMC2    H5  883   1.192   0.336  13.593 -0.3354  1.1959 -1.2131
   58MPD2     C  884   0.626   1.216  13.674  0.7488  0.5571  0.6233
   58MPD2    C1  885   0.591   1.134  13.574 -0.1766 -0.0739  0.3886
   58MPD2    C2  886   0.687   1.030  13.545  0.4237  0.1771 -0.3007
   58MPD2    C3  887   0.803   1.018  13.618  0.0872 -0.0595 -1.0876
   58MPD2    C4  888   0.834   1.106  13.716 -0.7228  0.3538 -0.5702
   58MPD2    C5  889   0.741   1.201  13.749  0.5257  0.2546  0.2960
   58MPD2     H  890   0.659   0.954  13.473 -0.4117  0.0896  0.1127
   58MPD2    H1  891   0.930   1.105  13.767 -0.3233  0.1997 -1.3288
   58MPD2    H2  892   0.564   1.303  13.694  0.3505  1.0110 -2.5677
   58MPD2    H3  893   0.760   1.277  13.824 -0.8696  1.5561 -0.6580
   58MPD2     N  894   0.892   0.909  13.589 -0.2091 -1.5030  0.1153
   58MPD2    H5  895   0.963   0.888  13.658 -0.6856 -1.4752  0.6170
   58MPD2    N1  896   0.469   1.139  13.507 -0.8184  0.3785 -0.6757
   58MPD2    H7  897   0.465   1.082  13.423 -0.3590  1.0876 -1.1785
   59MPD2     C  898   3.377   0.246  13.110 -0.1081  0.7694 -0.5561
   59MPD2    C1  899   3.435   0.305  13.002  0.0187 -0.4402 -0.9545
   59MPD2    C2  900   3.514   0.413  13.021  0.5412 -0.2000 -0.3424
   59MPD2    C3  901   3.548   0.461  13.144  0.1676 -0.6060  0.5247
   59MPD2    C4  902   3.469   0.412  13.244  0.7592 -0.5434 -0.4007
   59MPD2    C5  903   3.387   0.304  13.233  0.1853 -0.0205  0.0239
   59MPD2     H  904   3.563   0.451  12.932  1.9152  0.7009  0.8002
   59MPD2    H1  905   3.477   0.462  13.340 -1.4028  0.1744 -0.6013
   59MPD2    H2  906   3.302   0.169  13.099  0.1698  0.8805 -3.0452
   59MPD2    H3  907   3.338   0.259  13.318 -0.6407  3.1010  1.2107
   59MPD2     N  908   3.650   0.554  13.167  0.0611 -0.3794  0.1973
   59MPD2    H5  909   3.657   0.592  13.261 -1.2635 -1.4492  0.7361
   59MPD2    N1  910   3.406   0.270  12.866 -0.3367  0.2280  0.0889
   59MPD2    H7  911   3.418   0.339  12.792 -0.6678  1.6227  1.3558
   60TCq2    C1  912   3.347   0.152  12.834  0.6340  0.5761  0.3226
   60TCq2    O2  913   3.328   0.052  12.904 -0.3861 -0.1182  0.2924
   60TCq2    C2  914   3.298   0.145  12.693  0.4336 -0.3628  0.3542
   60TCq2    C3  915   3.212   0.040  12.660 -0.0443  1.0360 -0.1971
   60TCq2    C4  916   3.169   0.025  12.530 -0.0247  0.2455 -0.0166
   60TCq2    C5  917   3.222   0.103  12.430 -0.2182 -0.0163  0.6068
   60TCq2    C6  918   3.326   0.185  12.460  0.1370  0.2105  0.1645
   60TCq2    C7  919   3.363   0.211  12.593  0.5114  0.3928 -0.0073
   60TCq2    C8  920   3.390   0.256  12.351  0.3600 -0.0854  0.5982
   60TCq2    O4  921   3.409   0.189  12.249 -0.3484  0.4206  0.1973
   60TCq2    C9  922   3.054   4.671  12.489 -0.3987  0.0035 -0.3447
   60TCq2    O5  923   3.012   4.690  12.372 -0.5085 -0.2176 -0.4481
   60TCq2    O6  924   2.985   4.616  12.581 -0.0390  0.4483 -0.1601
   60TCq2    H2  925   3.164   4.708  12.739 -0.1336 -1.5631 -2.1678
   60TCq2    H3  926   3.187   0.093  12.328  1.0285  1.6945 -0.0017
   60TCq2    H4  927   3.445   0.279  12.613  0.0975  1.6921 -2.7277
   61MPD2     C  928   2.228   1.675  15.167  0.2346  0.5094  0.6212
   61MPD2    C1  929   2.257   1.807  15.130  0.7369  0.3103  0.0162
   61MPD2    C2  930   2.368   1.843  15.053  0.1425 -0.9507 -0.2904
   61MPD2    C3  931   2.436   1.739  15.000 -0.1477 -0.3238  0.5755
   61MPD2    C4  932   2.401   1.603  15.018  0.7493  0.3830 -0.3449
   61MPD2    C5  933   2.297   1.570  15.107 -0.5377 -0.1797  0.0035
   61MPD2     H  934   2.383   1.946  15.025  0.0942 -0.3008  2.1199
   61MPD2    H1  935   2.457   1.521  14.975 -1.2741 -2.2150  1.9459
   61MPD2    H2  936   2.138   1.655  15.225 -0.5839 -0.7430 -1.0841
   61MPD2    H3  937   2.278   1.466  15.132 -0.5094 -0.2664 -0.3335
   61MPD2     N  938   2.551   1.762  14.919  0.1544 -0.2440 -0.1202
   61MPD2    H5  939   2.595   1.684  14.871 -2.1513 -1.2160 -0.6045
   61MPD2    N1  940   2.190   1.921  15.185  0.1049  0.4945  0.0040
   61MPD2    H7  941   2.215   2.013  15.151 -0.9323  1.2578  1.2752
   62TCq2    C1  942   2.079   1.914  15.271 -0.0717 -0.3509  0.1461
   62TCq2    O2  943   2.006   1.824  15.312 -0.3388 -0.8140  0.3112
   62TCq2    C2  944   2.048   2.057  15.311 -0.0108  0.3906  0.7026
   62TCq2    C3  945   1.926   2.085  15.354 -0.3669 -0.3404  0.0030
   62TCq2    C4  946   1.880   2.211  15.327 -0.4158  0.2645  0.1347
   62TCq2    C5  947   1.946   2.310  15.261  0.2107 -0.4109  0.0791
   62TCq2    C6  948   2.077   2.284  15.247  0.5867 -0.3897  0.2763
   62TCq2    C7  949   2.131   2.159  15.260 -0.5160  0.2378 -0.6044
   62TCq2    C8  950   2.162   2.393  15.197  0.8954 -0.3067  0.7975
   62TCq2    O4  951   2.269   2.364  15.155 -0.3197  0.3214 -0.0966
   62TCq2    C9  952   1.745   2.239  15.363  0.0669  0.2949  0.3312
   62TCq2    O5  953   1.695   2.340  15.312 -0.3392 -0.3779  0.3810
   62TCq2    O6  954   1.677   2.154  15.423  0.6421 -0.0896 -0.1336
   62TCq2    H2  955   1.855   2.008  15.384  0.5252 -1.2092 -0.1026
   62TCq2    H3  956   1.897   2.401  15.230  3.9378  1.5385 -0.0600
   62TCq2    H4  957   2.239   2.149  15.256 -0.4582  1.1435 -1.1798
   63TMC2    C1  958   2.166   2.467  10.574 -0.0257  0.2932  0.2910
   63TMC2    C2  959   2.104   2.588  10.594 -0.2995 -0.3387 -0.7826
   63TMC2    C3  960   2.118   2.687  10.498 -0.6259  0.1507  0.5832
   63TMC2    C4  961   2.245   2.441  10.465 -0.2389  0.1805 -0.2322
   63TMC2    C5  962   2.274   2.547  10.376 -0.1034 -0.2583  0.8899
   63TMC2    C6  963   2.203   2.668  10.394 -0.2167 -0.4398 -0.2039
   63TMC2     C  964   2.125   2.354  10.653  0.5141 -0.0787 -0.2403
   63TMC2     O  965   2.014   2.369  10.704  0.0648 -0.2867  0.5788
   63TMC2     H  966   2.034   2.606  10.675  0.2241  0.4964 -0.5246
   63TMC2    H1  967   2.278   2.340  10.447  0.6803  0.2381  1.1572
   63TMC2    H2  968   2.224   2.741  10.316 -1.4311  1.5610  1.3602
   63TMC2    C7  969   2.321   2.522  10.251 -0.1708  0.0331  0.3545
   63TMC2    C8  970   2.012   2.792  10.494  0.4869 -0.4813  0.4249
   63TMC2    O1  971   2.317   2.404  10.215  0.3153  0.4611  0.5647
   63TMC2    O2  972   1.983   2.867  10.583  0.2452 -0.2574 -0.3564
   63TMC2    O5  973   1.996   2.801  10.363  0.6408  0.1581 -0.7555
   63TMC2    H5  974   1.994   2.709  10.330 -1.9978 -0.0225 -0.1359
   64MPD2     C  975   2.113   1.888  10.869 -0.0738  0.3403 -0.0026
   64MPD2    C1  976   2.175   1.882  10.743  0.1320 -0.0449  0.6331
   64MPD2    C2  977   2.202   1.994  10.668  0.4974  0.0562  0.4977
   64MPD2    C3  978   2.164   2.116  10.716 -0.7656  0.5936  0.8418
   64MPD2    C4  979   2.093   2.123  10.838  0.6292 -0.0592  0.3052
   64MPD2    C5  980   2.074   2.012  10.921 -0.1817  0.0127  0.6203
   64MPD2     H  981   2.248   1.982  10.571 -1.7881 -0.2680 -0.5419
   64MPD2    H1  982   2.061   2.221  10.873  1.9918  1.2362 -2.0435
   64MPD2    H2  983   2.104   1.794  10.923 -1.1900  0.3283 -0.1980
   64MPD2    H3  984   2.017   2.022  11.013  1.6368 -0.2648  1.7847
   64MPD2     N  985   2.188   2.234  10.635 -0.1768 -0.1725  0.4527
   64MPD2    H5  986   2.251   2.226  10.555 -0.7840  1.1322 -0.1631
   64MPD2    N1  987   2.198   1.757  10.683  0.2426 -0.3406  0.4718
   64MPD2    H7  988   2.266   1.764  10.608 -0.3866  0.3669 -0.0349
   65MPD2     C  989   3.516   1.312  15.819  0.5155  0.6005  0.0250
   65MPD2    C1  990   3.550   1.288  15.689 -0.5429 -0.2476  0.2581
   65MPD2    C2  991   3.516   1.160  15.636  0.2126  0.4632 -0.0592
   65MPD2    C3  992   3.438   1.067  15.713  0.0247 -0.5912 -0.1282
   65MPD2    C4  993   3.397   1.104  15.841  0.4591  0.1204 -0.1801
   65MPD2    C5  994   3.435   1.223  15.895 -0.6304  0.1777  0.0228
   65MPD2     H  995   3.528   1.151  15.528 -0.5118 -1.6685  0.0505
   65MPD2    H1  996   3.338   1.035  15.900  1.4998 -1.1689 -0.6417
   65MPD2    H2  997   3.548   1.403  15.868 -1.6858  1.0431  0.6325
   65MPD2    H3  998   3.415   1.235  16.001 -0.8925 -1.1647  0.1223
   65MPD2     N  999   3.388   0.942  15.660  0.6148 -0.1700 -0.6036
   65MPD2    H5 1000   3.337   0.882  15.724 -2.5498  0.6028 -2.3963
   65MPD2    N1 1001   3.593   1.384  15.597 -0.0609 -0.0265  0.1990
   65MPD2    H7 1002   3.614   1.353  15.502 -1.8811 -2.2620  0.5245
   66TCq2    C1 1003   3.586   1.519  15.621 -0.7000 -0.2652 -0.1322
   66TCq2    O2 1004   3.536   1.588  15.710 -0.3170  0.6695  0.0218
   66TCq2    C2 1005   3.621   1.601  15.510 -0.2989 -0.3234  0.2317
   66TCq2    C3 1006   3.661   1.545  15.393  0.0301  0.0082 -0.7354
   66TCq2    C4 1007   3.662   1.638  15.295  0.5268 -0.9580 -0.4287
   66TCq2    C5 1008   3.642   1.773  15.312  0.4171  0.3777  0.6804
   66TCq2    C6 1009   3.623   1.825  15.435  0.1909 -0.0937 -0.1125
   66TCq2    C7 1010   3.603   1.735  15.534  0.5485  0.6285  0.2372
   66TCq2    C8 1011   3.577   1.964  15.437  0.5917 -0.5228  0.4184
   66TCq2    O4 1012   3.579   2.037  15.334 -0.0959  0.3705  0.2504
   66TCq2    C9 1013   3.701   1.605  15.163 -0.9011 -0.9510  0.4220
   66TCq2    O5 1014   3.683   1.686  15.069  0.0019 -0.3298 -0.1532
   66TCq2    O6 1015   3.730   1.481  15.147 -0.2492  0.0126  0.3180
   66TCq2    H2 1016   3.682   1.441  15.370 -1.0085 -0.4549  0.4170
   66TCq2    H3 1017   3.654   1.835  15.224 -0.4077 -0.5042 -0.0478
   66TCq2    H4 1018   3.585   1.779  15.631  0.0863  0.1654  0.3654
   67MPD2     C 1019   3.633   0.556  14.101  0.7960 -0.2614  0.2198
   67MPD2    C1 1020   3.532   0.565  14.197  0.3658 -0.3709  0.6714
   67MPD2    C2 1021   3.408   0.515  14.177 -0.1760  0.6691 -0.2650
   67MPD2    C3 1022   3.381   0.456  14.053 -0.1067 -0.1738 -0.9895
   67MPD2    C4 1023   3.483   0.433  13.960  0.3176  0.1238  0.5637
   67MPD2    C5 1024   3.609   0.479  13.989  0.0984  0.2027 -0.2867
   67MPD2     H 1025   3.336   0.535  14.255  0.0477  0.9940 -0.1377
   67MPD2    H1 1026   3.465   0.384  13.865 -1.9271  0.0492  1.0362
   67MPD2    H2 1027   3.729   0.603  14.116 -0.4569  2.4103 -0.1158
   67MPD2    H3 1028   3.690   0.470  13.918 -1.4252 -0.9199 -1.8887
   67MPD2     N 1029   3.247   0.416  14.016 -0.1677 -0.4062 -0.4191
   67MPD2    H5 1030   3.242   0.382  13.920 -2.7594 -0.9156 -0.0865
   67MPD2    N1 1031   3.563   0.626  14.315  0.4669 -0.0075 -0.2346
   67MPD2    H7 1032   3.491   0.642  14.385 -0.5658 -1.4000 -0.9833
   68TCq2    C1 1033   3.691   0.654  14.363 -0.4139 -0.3758  0.3149
   68TCq2    O2 1034   3.802   0.622  14.324 -0.2129  0.3665 -0.4254
   68TCq2    C2 1035   3.701   0.751  14.470 -0.4788 -0.2884 -0.2852
   68TCq2    C3 1036   3.589   0.819  14.506 -1.3290 -0.2137 -0.5603
   68TCq2    C4 1037   3.607   0.911  14.605  0.2981 -0.4035  0.5356
   68TCq2    C5 1038   3.727   0.927  14.668  0.0407  0.3036  0.5156
   68TCq2    C6 1039   3.835   0.847  14.636  0.0823  0.2069  0.0012
   68TCq2    C7 1040   3.826   0.762  14.531  0.1593  0.2655  0.1921
   68TCq2    C8 1041   3.946   0.831  14.721 -0.1966 -0.1624  0.0001
   68TCq2    O4 1042   4.048   0.788  14.671 -0.3896  0.6860  1.1175
   68TCq2    C9 1043   3.487   0.971  14.661  1.5253 -0.3681  0.7325
   68TCq2    O5 1044   3.380   0.959  14.598  0.5007  0.4875  0.0541
   68TCq2    O6 1045   3.505   1.044  14.758  0.1347  0.5950  0.4546
   68TCq2    H2 1046   3.493   0.806  14.459 -0.2854  0.5233 -2.8958
   68TCq2    H3 1047   3.734   1.010  14.738 -2.0885  0.2467  0.7823
   68TCq2    H4 1048   3.912   0.702  14.504  0.5487  0.4739  0.9815
   69TMC2    C1 1049   0.495   2.624  12.355  0.5100 -0.6080 -0.1890
   69TMC2    C2 1050   0.392   2.684  12.426 -0.8246  0.1811  0.0276
   69TMC2    C3 1051   0.305   2.760  12.354 -0.0205  1.0404  0.3062
   69TMC2    C4 1052   0.513   2.636  12.222 -0.2367  0.5378  0.0497
   69TMC2    C5 1053   0.420   2.702  12.150 -0.1868 -0.1450  0.3234
   69TMC2    C6 1054   0.321   2.782  12.215  0.0715 -0.4876  0.2230
   69TMC2     C 1055   0.543   2.499  12.421  0.0920 -0.6595 -0.5316
   69TMC2     O 1056   0.472   2.472  12.516  0.0580  0.1117 -0.5732
   69TMC2     H 1057   0.373   2.676  12.533 -0.5628 -2.0312 -0.1030
   69TMC2    H1 1058   0.562   2.559  12.164 -2.2179 -0.1300 -0.7212
   69TMC2    H2 1059   0.273   2.867  12.169  0.9597  0.4255  0.9786
   69TMC2    C7 1060   0.436   2.733  12.002  0.3498  0.2599  0.0908
   69TMC2    C8 1061   0.256   2.878  12.427  0.2210  0.8774  0.1812
   69TMC2    O1 1062   0.340   2.772  11.938 -0.6284  0.2230  0.0366
   69TMC2    O2 1063   0.255   2.989  12.376 -0.1636  0.0421 -0.0828
   69TMC2    O5 1064   0.173   2.834  12.525  0.2618  0.1878  0.8042
   69TMC2    H5 1065   0.153   2.738  12.520  2.9769 -0.4613  2.4789
   70MPD2     C 1066   0.822   2.288  12.321  0.6869  0.0617 -0.0630
   70MPD2    C1 1067   0.720   2.329  12.399  0.4917  0.2958  0.6885
   70MPD2    C2 1068   0.674   2.249  12.502 -0.1071  0.0288 -0.0069
   70MPD2    C3 1069   0.731   2.126  12.518 -0.1409  0.1499 -0.1003
   70MPD2    C4 1070   0.841   2.082  12.441 -0.1038 -0.0471  0.2780
   70MPD2    C5 1071   0.878   2.161  12.338  0.1891  0.3229 -0.5083
   70MPD2     H 1072   0.599   2.290  12.569  1.8672  2.8317  0.4679
   70MPD2    H1 1073   0.891   1.986  12.445  0.5597  0.3750  2.1495
   70MPD2    H2 1074   0.869   2.350  12.245  1.2644  0.0978  0.3205
   70MPD2    H3 1075   0.952   2.119  12.271  0.7185  0.3199  0.0759
   70MPD2     N 1076   0.686   2.035  12.619 -0.1929 -0.1537 -0.0411
   70MPD2    H5 1077   0.752   1.963  12.647 -2.4953 -2.0310  0.6276
   70MPD2    N1 1078   0.651   2.442  12.358  0.3037 -0.7949  0.3973
   70MPD2    H7 1079   0.694   2.493  12.282  0.6939 -1.1122  0.3983
   71TMC2    C1 1080   3.497   2.358   1.716  0.3330 -0.3447 -1.1390
   71TMC2    C2 1081   3.512   2.223   1.702 -0.0811  1.1167  0.4035
   71TMC2    C3 1082   3.396   2.152   1.697 -0.0018  0.4138 -0.0044
   71TMC2    C4 1083   3.378   2.423   1.732  0.3037 -0.3680  0.3737
   71TMC2    C5 1084   3.268   2.344   1.733  0.0501 -0.3919  0.3406
   71TMC2    C6 1085   3.272   2.210   1.713  0.0832 -0.1633 -0.1081
   71TMC2     C 1086   3.611   2.447   1.685 -0.6736  0.7866  0.0905
   71TMC2     O 1087   3.596   2.559   1.644  0.6128 -0.3594  0.2123
   71TMC2     H 1088   3.606   2.171   1.687 -1.0935 -1.0186  1.4838
   71TMC2    H1 1089   3.364   2.529   1.747 -0.4923 -0.5676  1.0221
   71TMC2    H2 1090   3.182   2.150   1.713  0.7178 -1.1035  0.9258
   71TMC2    C7 1091   3.137   2.410   1.746 -0.5155 -0.1990  0.5139
   71TMC2    C8 1092   3.399   2.024   1.623 -0.1218  0.2386 -0.2333
   71TMC2    O1 1093   3.141   2.522   1.800  0.6067 -0.0392  0.6854
   71TMC2    O2 1094   3.290   1.989   1.574 -0.6737  0.2330 -0.6073
   71TMC2    O5 1095   3.504   1.952   1.660  0.5288  0.0270  0.3839
   71TMC2    H5 1096   3.538   1.986   1.746  1.1416  0.0281  0.1405
   72MPD2     C 1097   4.103   2.456   1.535 -0.0718 -0.0715 -0.0091
   72MPD2    C1 1098   3.992   2.521   1.485  0.0602  0.0317  1.0391
   72MPD2    C2 1099   3.865   2.507   1.546  0.0329  0.7816  0.5602
   72MPD2    C3 1100   3.852   2.442   1.668  0.4640 -0.2422 -0.7340
   72MPD2    C4 1101   3.970   2.397   1.727 -0.3026  0.0889  0.4182
   72MPD2    C5 1102   4.086   2.393   1.659  0.6762  0.3740 -0.3255
   72MPD2     H 1103   3.781   2.546   1.490  0.3181  1.0951  0.3495
   72MPD2    H1 1104   3.962   2.347   1.822 -1.4590 -0.0223  0.2608
   72MPD2    H2 1105   4.203   2.464   1.493 -0.4932 -2.1234 -1.3839
   72MPD2    H3 1106   4.176   2.350   1.703  0.9934  1.0562 -0.3186
   72MPD2     N 1107   3.734   2.387   1.716  0.0165 -0.1400 -0.7000
   72MPD2    H5 1108   3.732   2.318   1.791 -0.4135  1.8206  1.0813
   72MPD2    N1 1109   3.996   2.580   1.354  0.0582  0.3346 -0.3813
   72MPD2    H7 1110   3.913   2.596   1.298 -0.4594 -1.4268 -0.1116
   73TMC2    C1 1111   2.731   3.845  13.771  0.3894 -0.2005  0.1398
   73TMC2    C2 1112   2.623   3.885  13.846 -0.0212 -0.2892  0.4268
   73TMC2    C3 1113   2.644   3.999  13.926 -0.4208  0.3319  0.1188
   73TMC2    C4 1114   2.861   3.899  13.803 -0.2132 -1.0077 -0.2071
   73TMC2    C5 1115   2.879   4.006  13.888 -0.3358  0.0667 -0.0961
   73TMC2    C6 1116   2.766   4.058  13.946  0.9890  0.0837  0.4188
   73TMC2     C 1117   2.707   3.800  13.643 -0.0491  0.4558  0.2124
   73TMC2     O 1118   2.799   3.815  13.564  0.6606 -0.1260  0.6462
   73TMC2     H 1119   2.525   3.838  13.843  0.0851 -0.3744 -1.8639
   73TMC2    H1 1120   2.950   3.865  13.750 -0.2689 -0.0125 -0.9645
   73TMC2    H2 1121   2.765   4.136  14.021 -0.6278  0.0062  0.4818
   73TMC2    C7 1122   2.941   4.111  13.810  0.5295 -0.3660 -0.2170
   73TMC2    C8 1123   2.543   4.028  14.025 -0.0351 -0.6359  0.7032
   73TMC2    O1 1124   2.985   4.202  13.877 -0.0734 -0.4786  1.3054
   73TMC2    O2 1125   2.505   4.139  14.063  1.0129  0.0095 -0.1118
   73TMC2    O5 1126   2.510   3.905  14.079  0.7386  0.1462 -0.2159
   73TMC2    H5 1127   2.572   3.832  14.055  0.2594  0.4150 -2.2768
   74MPD2     C 1128   2.415   3.712  13.254  0.3302  1.0130  0.0453
   74MPD2    C1 1129   2.525   3.794  13.263  0.2323 -0.1007  0.0966
   74MPD2    C2 1130   2.584   3.799  13.383 -0.9567  0.1092 -0.0859
   74MPD2    C3 1131   2.533   3.718  13.489  0.3490 -0.0369  0.4473
   74MPD2    C4 1132   2.424   3.636  13.474 -0.2497  0.3598 -0.5024
   74MPD2    C5 1133   2.362   3.634  13.355  0.0785  0.3867 -0.3745
   74MPD2     H 1134   2.671   3.864  13.387 -0.7169 -0.2612  0.9356
   74MPD2    H1 1135   2.390   3.562  13.545  0.5611 -0.6663 -1.1858
   74MPD2    H2 1136   2.363   3.691  13.161 -0.7405  0.7769  0.7025
   74MPD2    H3 1137   2.283   3.563  13.334 -0.2767  1.1291 -1.5355
   74MPD2     N 1138   2.590   3.732  13.620  0.1648  0.2907 -0.0065
   74MPD2    H5 1139   2.541   3.696  13.701 -1.6807  0.7628 -0.9180
   74MPD2    N1 1140   2.576   3.869  13.151  0.7922  0.0987 -0.5048
   74MPD2    H7 1141   2.537   3.844  13.061 -1.4366 -2.7721  1.2732
   75TCq2    C1 1142   3.139   0.413  14.101 -0.9018  0.9048 -0.4050
   75TCq2    O2 1143   3.142   0.410  14.223 -0.2995 -0.4799 -0.2757
   75TCq2    C2 1144   3.022   0.378  14.025 -0.4107 -0.3170  0.0226
   75TCq2    C3 1145   2.908   0.370  14.109  0.7537 -0.2050 -0.0932
   75TCq2    C4 1146   2.790   0.427  14.075  1.0807 -0.5265 -0.2064
   75TCq2    C5 1147   2.776   0.507  13.968 -0.9087  0.7142  0.7458
   75TCq2    C6 1148   2.889   0.502  13.884  0.5380 -0.3840  0.4819
   75TCq2    C7 1149   3.005   0.444  13.905 -0.2572  0.3506  0.7997
   75TCq2    C8 1150   2.873   0.555  13.748 -0.2362  0.1626  0.2936
   75TCq2    O4 1151   2.901   0.490  13.648 -0.3691 -0.4807 -0.1606
   75TCq2    C9 1152   2.688   0.430  14.167  0.4034  0.0142  0.2609
   75TCq2    O5 1153   2.701   0.348  14.262 -0.4226 -0.4939 -0.1290
   75TCq2    O6 1154   2.599   0.517  14.168 -0.4790 -0.0885  0.3534
   75TCq2    H2 1155   2.922   0.335  14.210 -0.6403 -1.9917 -0.5172
   75TCq2    H3 1156   2.683   0.559  13.947 -2.7974 -2.1520  2.0889
   75TCq2    H4 1157   3.092   0.457  13.842 -0.3468  1.4187  0.8856
   76MPD2     C 1158   1.753   2.891  12.041  0.7021 -0.4115 -0.6824
   76MPD2    C1 1159   1.736   2.786  11.948  0.1430  0.2557 -0.3538
   76MPD2    C2 1160   1.840   2.689  11.944 -0.3237 -0.0275  0.0874
   76MPD2    C3 1161   1.960   2.692  12.011  0.3572  0.0878 -0.1774
   76MPD2    C4 1162   1.973   2.796  12.098 -0.4252  0.5153 -0.3082
   76MPD2    C5 1163   1.869   2.891  12.106  0.3596  0.2484 -0.0801
   76MPD2     H 1164   1.826   2.616  11.865 -0.0463 -1.7451  1.6105
   76MPD2    H1 1165   2.050   2.805  12.174 -1.0437 -0.0669  0.3865
   76MPD2    H2 1166   1.682   2.971  12.054 -0.3418 -1.3042 -0.9294
   76MPD2    H3 1167   1.889   2.978  12.168  0.8304  0.8353 -1.0522
   76MPD2     N 1168   2.068   2.591  12.006 -0.3678  0.6099 -0.4454
   76MPD2    H5 1169   2.149   2.606  12.064 -0.7654 -0.1774  0.3135
   76MPD2    N1 1170   1.621   2.760  11.877 -0.1007 -0.4713 -0.2358
   76MPD2    H7 1171   1.615   2.674  11.823  0.5708 -3.4325  4.3606
   77TCq2    C1 1172   2.064   2.478  11.926  0.2165  0.4056 -0.0481
   77TCq2    O2 1173   1.975   2.448  11.845 -1.3805 -0.5118  0.0851
   77TCq2    C2 1174   2.179   2.379  11.933  0.5396 -0.0043 -0.4562
   77TCq2    C3 1175   2.273   2.386  12.029 -0.0168 -0.2160  0.4031
   77TCq2    C4 1176   2.379   2.298  12.027 -0.0317 -0.1573  0.2512
   77TCq2    C5 1177   2.397   2.206  11.931 -0.2468 -0.1718 -1.0486
   77TCq2    C6 1178   2.300   2.208  11.840  0.4719 -0.4383  0.5360
   77TCq2    C7 1179   2.190   2.289  11.833 -0.0630  0.2402 -0.1652
   77TCq2    C8 1180   2.298   2.106  11.738 -0.7195 -0.4108  0.4786
   77TCq2    O4 1181   2.245   2.143  11.633 -0.1161  0.5950  0.7256
   77TCq2    C9 1182   2.466   2.292  12.144  0.3802 -0.1671 -0.1837
   77TCq2    O5 1183   2.526   2.182  12.154 -0.5251  0.0615  0.2924
   77TCq2    O6 1184   2.473   2.392  12.215 -0.2737  0.1689  0.0271
   77TCq2    H2 1185   2.266   2.452  12.115  1.4922 -2.0041  1.9019
   77TCq2    H3 1186   2.496   2.162  11.926  0.1808  0.3313  2.6464
   77TCq2    H4 1187   2.117   2.300  11.753 -1.1486 -0.3293  0.7467
   78MPD1     C 1188   2.433   2.452   1.064 -0.0253 -0.4041  0.2238
   78MPD1    C1 1189   2.442   2.547   1.162 -0.0949 -0.0379 -0.6807
   78MPD1    C2 1190   2.558   2.570   1.233  0.8678 -0.0170 -0.9095
   78MPD1    C3 1191   2.676   2.492   1.197  0.3648  0.0996 -0.5374
   78MPD1    C4 1192   2.663   2.396   1.102  0.3164  0.0037  0.3442
   78MPD1    C5 1193   2.548   2.383   1.033 -0.4166  0.2669  0.3013
   78MPD1     H 1194   2.571   2.646   1.310  0.8196 -1.2696  0.3283
   78MPD1    H1 1195   2.736   2.319   1.081  2.6463  2.3427 -0.1151
   78MPD1    H2 1196   2.349   2.419   1.005  0.6090  2.0380 -2.0819
   78MPD1    H3 1197   2.541   2.314   0.949 -0.8654 -0.5878  1.0415
   78MPD1     N 1198   2.801   2.504   1.261  0.5678  0.7420  0.2815
   78MPD1    H5 1199   2.872   2.437   1.235 -0.3536  0.3570 -1.2725
   78MPD1    N1 1200   2.322   2.617   1.192  1.2013  0.0622 -0.1738
   78MPD1    H6 1201   2.248   2.619   1.123  1.9934  1.0944 -0.9899
   78MPD1    H7 1202   2.330   2.701   1.248  0.6741 -0.2685  0.3914
   79TCq2    C1 1203   2.842   2.598   1.353  0.1214 -0.0195  0.4318
   79TCq2    O2 1204   2.774   2.690   1.396  0.1263  0.8452 -0.2134
   79TCq2    C2 1205   2.980   2.579   1.399  0.3748 -0.4509  0.1631
   79TCq2    C3 1206   3.033   2.691   1.459  0.4102  0.0843  0.0168
   79TCq2    C4 1207   3.169   2.705   1.469 -0.5737  0.1456 -0.5972
   79TCq2    C5 1208   3.246   2.594   1.446  0.0586  0.0460  0.2987
   79TCq2    C6 1209   3.192   2.487   1.378  1.2487  0.2687 -0.0935
   79TCq2    C7 1210   3.055   2.474   1.354 -0.2991 -0.2791  0.9061
   79TCq2    C8 1211   3.286   2.379   1.355  0.3761 -0.1106  0.2328
   79TCq2    O4 1212   3.379   2.385   1.428 -0.0631  0.0026 -0.1162
   79TCq2    C9 1213   3.228   2.834   1.521 -1.0321 -0.6491 -0.7122
   79TCq2    O5 1214   3.150   2.926   1.556  0.0140 -0.1540  0.3945
   79TCq2    O6 1215   3.352   2.847   1.497 -0.3623  0.2712 -0.6012
   79TCq2    H2 1216   2.974   2.780   1.475  0.8210  0.3420  0.1024
   79TCq2    H3 1217   3.354   2.605   1.455 -0.2000  0.9253  2.2561
   79TCq2    H4 1218   3.008   2.379   1.335  1.2072 -0.7005 -0.7256
   80MPD2     C 1219   1.282   0.844  12.343 -0.2524  0.0903  0.6106
   80MPD2    C1 1220   1.236   0.925  12.245 -0.0022  0.1172  0.0799
   80MPD2    C2 1221   1.116   0.992  12.274  0.5580 -0.1515  0.1641
   80MPD2    C3 1222   1.037   0.968  12.386  1.5980  0.5596  0.2351
   80MPD2    C4 1223   1.081   0.881  12.479  0.1978  0.2212 -0.0338
   80MPD2    C5 1224   1.205   0.822  12.448  0.6571  0.5301  0.7982
   80MPD2     H 1225   1.088   1.072  12.205 -0.4950 -0.3533  0.3614
   80MPD2    H1 1226   1.030   0.861  12.573  2.0784 -0.4353  0.8545
   80MPD2    H2 1227   1.378   0.794  12.338 -0.4731 -0.4821  1.9839
   80MPD2    H3 1228   1.252   0.756  12.520  1.0211  0.0140  0.0782
   80MPD2     N 1229   0.918   1.029  12.406 -0.1031  0.4953  0.3751
   80MPD2    H5 1230   0.868   1.010  12.492 -1.6313  2.7137 -0.0055
   80MPD2    N1 1231   1.287   0.940  12.118 -0.2859 -0.4272 -1.1103
   80MPD2    H7 1232   1.242   1.003  12.053  0.9955 -1.0504 -2.5925
   81TCq2    C1 1233   1.395   0.871  12.075 -0.9361 -0.0419 -0.0775
   81TCq2    O2 1234   1.483   0.820  12.143  0.4248  0.6364 -0.6006
   81TCq2    C2 1235   1.404   0.888  11.933 -0.1883  0.3956  0.2992
   81TCq2    C3 1236   1.507   0.963  11.886  0.5324  0.1200  0.1052
   81TCq2    C4 1237   1.500   1.018  11.762 -0.1877  0.4777 -0.4817
   81TCq2    C5 1238   1.388   1.002  11.686 -0.2512  0.1784  0.2743
   81TCq2    C6 1239   1.283   0.937  11.737  0.0348  0.1243 -0.9312
   81TCq2    C7 1240   1.291   0.877  11.863 -0.0365  0.3412 -0.6314
   81TCq2    C8 1241   1.161   0.968  11.669  0.0929  0.4249  0.0240
   81TCq2    O4 1242   1.160   1.063  11.589  0.4143 -0.3692 -0.8443
   81TCq2    C9 1243   1.613   1.100  11.717  0.1516 -0.0610  0.5677
   81TCq2    O5 1244   1.695   1.126  11.813  0.1377 -0.3471 -0.5995
   81TCq2    O6 1245   1.622   1.133  11.599 -0.4694 -0.0058  0.3137
   81TCq2    H2 1246   1.599   0.971  11.943  1.3593 -0.6153 -1.1214
   81TCq2    H3 1247   1.379   1.049  11.589  1.5074 -1.8421 -0.8708
   81TCq2    H4 1248   1.200   0.833  11.900  0.6214 -0.2065  0.3304
   82MPD2     C 1249   3.988   1.316  10.499  0.0135 -0.3454  0.3031
   82MPD2    C1 1250   3.936   1.207  10.439 -0.2076 -0.2080 -0.2349
   82MPD2    C2 1251   3.977   1.080  10.480  0.2132 -0.4965 -0.0634
   82MPD2    C3 1252   4.071   1.061  10.582  0.1689 -0.1133 -0.6230
   82MPD2    C4 1253   4.121   1.173  10.646  0.2775 -0.5522  0.1141
   82MPD2    C5 1254   4.076   1.302  10.608 -0.0584  0.1679  0.3285
   82MPD2     H 1255   3.934   0.988  10.443 -1.1470  1.3382 -3.0303
   82MPD2    H1 1256   4.183   1.163  10.734  0.2118 -0.8183  0.1313
   82MPD2    H2 1257   3.955   1.414  10.466 -0.4791 -0.3106  0.9008
   82MPD2    H3 1258   4.127   1.387  10.651 -0.2221  0.4459 -0.0345
   82MPD2     N 1259   4.114   0.939  10.625  0.2688  0.3972 -0.5041
   82MPD2    H5 1260   4.188   0.936  10.694 -1.1263 -1.1173  0.9388
   82MPD2    N1 1261   3.843   1.237  10.333  0.0154  0.0236 -0.5484
   82MPD2    H7 1262   3.814   1.332  10.314  0.8260  0.1458 -1.1389
   83TCq2    C1 1263   4.065   0.816  10.593 -0.6612  0.1814 -0.4525
   83TCq2    O2 1264   3.964   0.778  10.541 -0.5567 -0.1087  0.0280
   83TCq2    C2 1265   4.141   0.711  10.666  0.0507  0.4692 -0.1907
   83TCq2    C3 1266   4.261   0.739  10.722 -0.5476 -0.5497  0.1435
   83TCq2    C4 1267   4.321   0.650  10.804 -0.1252 -0.9832 -0.8543
   83TCq2    C5 1268   4.269   0.527  10.833 -0.5609  0.1448 -0.1347
   83TCq2    C6 1269   4.150   0.500  10.773 -1.1712 -0.2339  0.8669
   83TCq2    C7 1270   4.082   0.585  10.684 -0.3717  0.3394 -0.1152
   83TCq2    C8 1271   4.089   0.374  10.816 -0.0097  0.6223 -0.0499
   83TCq2    O4 1272   4.115   0.335  10.931 -0.6207 -0.1394 -0.1682
   83TCq2    C9 1273   4.445   0.681  10.860  0.0603  0.0937  0.3178
   83TCq2    O5 1274   4.479   0.629  10.968  0.1108  0.1785 -0.0733
   83TCq2    O6 1275   4.510   0.779  10.812  0.5002 -0.1991 -0.2473
   83TCq2    H2 1276   4.326   0.821  10.693 -1.0554  0.4144  1.7623
   83TCq2    H3 1277   4.322   0.458  10.898  0.3733  0.4395 -0.5890
   83TCq2    H4 1278   3.990   0.553  10.637 -0.4041 -0.7098  0.6667
   84TCq2    C1 1279   4.660   4.522  10.084  0.0070  0.3094  0.5413
   84TCq2    O2 1280   4.662   4.412  10.138  0.4343  0.0973 -0.0378
   84TCq2    C2 1281   4.642   4.635  10.172  0.2903  0.2312  0.1200
   84TCq2    C3 1282   4.703   0.028  10.138  0.6627 -0.5326 -0.1691
   84TCq2    C4 1283   4.723   0.117  10.241 -0.5578 -0.7553  1.0822
   84TCq2    C5 1284   4.667   0.091  10.367 -0.2585  0.2196 -0.3947
   84TCq2    C6 1285   4.589   4.710  10.391 -0.4076  0.2009 -0.2561
   84TCq2    C7 1286   4.583   4.615  10.292  1.0193 -0.1406 -0.1901
   84TCq2    C8 1287   4.579   4.665  10.528  0.2630 -0.1896 -0.1355
   84TCq2    O4 1288   4.649   0.000  10.609 -0.6531 -0.2791  0.0608
   84TCq2    C9 1289   0.078   0.237  10.227  0.0565 -0.0583 -0.2776
   84TCq2    O5 1290   0.145   0.259  10.119 -0.6591 -0.0843 -0.4321
   84TCq2    O6 1291   0.102   0.301  10.336 -0.2062  0.2154 -0.5749
   84TCq2    H2 1292   0.020   0.044  10.040 -1.4168 -0.7364 -1.1116
   84TCq2    H3 1293   4.689   0.170  10.437 -0.3768  1.7340 -2.0510
   84TCq2    H4 1294   4.532   4.522  10.314 -2.2697  1.5227 -0.6385
   85MPD2     C 1295   0.524   2.219  16.436 -0.5830  0.1557 -0.1579
   85MPD2    C1 1296   0.495   2.181  16.310  0.2232  0.0421 -0.0992
   85MPD2    C2 1297   0.514   2.272  16.211  0.3997 -0.8188  0.1466
   85MPD2    C3 1298   0.564   2.397  16.223  0.3285  0.4347 -0.5160
   85MPD2    C4 1299   0.600   2.434  16.353 -0.1259 -0.2029  0.4605
   85MPD2    C5 1300   0.584   2.340  16.457  0.6522  0.6311  0.0266
   85MPD2     H 1301   0.490   2.238  16.111 -0.3904  1.5053 -0.4481
   85MPD2    H1 1302   0.639   2.531  16.382  0.7602  0.1610 -1.9637
   85MPD2    H2 1303   0.491   2.159  16.519 -0.5789  2.6232  1.6265
   85MPD2    H3 1304   0.603   2.359  16.562 -0.1413 -0.6525  0.3946
   85MPD2     N 1305   0.593   2.480  16.108 -0.2278  0.6984  0.0706
   85MPD2    H5 1306   0.575   2.444  16.015  0.0076 -0.8629  0.6243
   85MPD2    N1 1307   0.440   2.062  16.270  0.1019  0.1623  0.4052
   85MPD2    H7 1308   0.413   2.052  16.172 -1.0655 -3.5505  1.1118
   86TCq2    C1 1309   0.626   2.612  16.116  0.2824  0.3965 -0.1589
   86TCq2    O2 1310   0.644   2.678  16.214 -0.1213  0.0508 -0.2057
   86TCq2    C2 1311   0.636   2.681  15.988 -0.2438 -0.1802 -0.4727
   86TCq2    C3 1312   0.606   2.810  15.990 -0.2973  0.1618 -0.5764
   86TCq2    C4 1313   0.641   2.895  15.892 -1.2738 -0.0791 -0.0749
   86TCq2    C5 1314   0.696   2.841  15.779 -0.2301  0.1192 -0.9649
   86TCq2    C6 1315   0.732   2.709  15.783  0.2636 -0.2822  0.1230
   86TCq2    C7 1316   0.716   2.626  15.888  0.4102 -0.1326 -0.3956
   86TCq2    C8 1317   0.828   2.677  15.676  0.0822 -0.6750 -0.0816
   86TCq2    O4 1318   0.925   2.616  15.708 -0.2340  0.6267  0.2165
   86TCq2    C9 1319   0.605   3.033  15.902 -0.0710 -0.8838 -0.4194
   86TCq2    O5 1320   0.502   3.061  15.968  0.3439  0.2889  0.1128
   86TCq2    O6 1321   0.690   3.121  15.861 -0.0351  0.0001  0.1199
   86TCq2    H2 1322   0.545   2.847  16.072 -0.1419 -0.0192 -0.3820
   86TCq2    H3 1323   0.725   2.908  15.699  0.1169 -0.5894 -1.4331
   86TCq2    H4 1324   0.738   2.519  15.886 -2.3166 -0.6882 -0.3924
   87MPD2     C 1325   2.702   0.778   0.050 -0.0497 -0.2159  0.2252
   87MPD2    C1 1326   2.598   0.793   0.144 -0.5502  0.2886  0.0108
   87MPD2    C2 1327   2.503   0.888   0.123  0.5105  0.1834 -0.0309
   87MPD2    C3 1328   2.512   0.970   0.013 -0.9435  0.1078  0.1798
   87MPD2    C4 1329   2.613   0.958  17.625 -0.7078  0.4652 -0.1976
   87MPD2    C5 1330   2.698   0.851  17.641 -0.0809 -0.4600  0.0689
   87MPD2     H 1331   2.424   0.908   0.194  0.1051  0.1640 -0.4761
   87MPD2    H1 1332   2.622   1.018  17.535  3.1532 -1.5661 -1.1732
   87MPD2    H2 1333   2.783   0.706   0.054  0.8149  0.6373 -1.6314
   87MPD2    H3 1334   2.773   0.843  17.563  0.7319  0.3354  0.7748
   87MPD2     N 1335   2.415   1.073  17.695 -0.2322 -0.7825  0.1687
   87MPD2    H5 1336   2.429   1.136  17.617  0.0217 -0.0409  0.8122
   87MPD2    N1 1337   2.606   0.707   0.252  0.1323 -0.5234 -0.5578
   87MPD2    H7 1338   2.687   0.647   0.243  1.0407  0.6086 -0.0545
   88TCq2    C1 1339   2.525   0.708   0.367  0.6330 -0.6028  0.1148
   88TCq2    O2 1340   2.421   0.768   0.385  0.3127  0.1447  0.1375
   88TCq2    C2 1341   2.600   0.672   0.490 -0.5987  0.1907  0.8216
   88TCq2    C3 1342   2.526   0.681   0.606 -0.5423 -0.1281 -0.8278
   88TCq2    C4 1343   2.592   0.659   0.722  0.3854  0.9253  0.1401
   88TCq2    C5 1344   2.729   0.646   0.727  0.5073  0.9294  0.1653
   88TCq2    C6 1345   2.794   0.645   0.609  0.5241 -0.3181  0.8498
   88TCq2    C7 1346   2.740   0.659   0.487  0.9423 -0.1879 -0.2637
   88TCq2    C8 1347   2.936   0.656   0.614  0.2141 -0.3844  0.2059
   88TCq2    O4 1348   3.000   0.710   0.527 -0.4731 -0.0812 -0.4888
   88TCq2    C9 1349   2.516   0.644   0.849  0.3166 -0.6317 -0.2995
   88TCq2    O5 1350   2.578   0.643   0.958  0.0322  0.7128 -0.2947
   88TCq2    O6 1351   2.394   0.667   0.833  1.0000 -0.6238  0.3527
   88TCq2    H2 1352   2.418   0.695   0.606 -0.5934 -0.4764 -1.7293
   88TCq2    H3 1353   2.778   0.650   0.824  0.9201  2.4026 -0.1044
   88TCq2    H4 1354   2.792   0.666   0.393 -1.6216  0.6744 -1.6256
   89MPD2     C 1355   4.375   3.862   1.515 -0.4642 -0.3161  0.2795
   89MPD2    C1 1356   4.266   3.938   1.493  0.0262  0.0102 -0.3580
   89MPD2    C2 1357   4.286   4.070   1.500  0.1597  0.0009 -0.2603
   89MPD2    C3 1358   4.416   4.126   1.519 -0.6279 -0.4454 -0.1737
   89MPD2    C4 1359   4.523   4.049   1.550  0.5403  1.0390  0.4340
   89MPD2    C5 1360   4.494   3.915   1.545  0.3816  0.2506 -0.0536
   89MPD2     H 1361   4.201   4.138   1.501  1.2635  1.3201  2.5164
   89MPD2    H1 1362   4.622   4.089   1.572  1.6806 -1.7186  0.3244
   89MPD2    H2 1363   4.368   3.755   1.527  0.2713 -0.4990 -0.9617
   89MPD2    H3 1364   4.577   3.851   1.572 -0.1968 -0.5743 -0.2625
   89MPD2     N 1365   4.421   4.271   1.508 -0.2700 -0.1414 -0.5704
   89MPD2    H5 1366   4.331   4.318   1.519 -0.0896 -0.1377  0.8424
   89MPD2    N1 1367   4.138   3.893   1.467 -0.8948  0.0510  0.0479
   89MPD2    H7 1368   4.070   3.967   1.452 -0.6298  0.1988 -0.4078
   90TCq2    C1 1369   4.534   4.350   1.488  0.2059  0.8289 -0.1468
   90TCq2    O2 1370   4.644   4.294   1.472 -0.2081 -0.1948 -0.2006
   90TCq2    C2 1371   4.520   4.498   1.480  1.0624 -1.0026  1.0122
   90TCq2    C3 1372   4.421   4.563   1.540  0.2615  0.0455 -0.0706
   90TCq2    C4 1373   4.422   4.701   1.538 -0.4142  0.4725 -0.0128
   90TCq2    C5 1374   4.522   0.040   1.482 -0.1942  0.1802 -0.8745
   90TCq2    C6 1375   4.616   4.697   1.411  0.2743  0.1094 -0.5064
   90TCq2    C7 1376   4.630   4.558   1.429  0.6166 -0.0202  0.2283
   90TCq2    C8 1377   4.714   0.047   1.331  0.2783  0.1998  0.8636
   90TCq2    O4 1378   4.679   0.160   1.285 -0.7271  0.1555  0.1742
   90TCq2    C9 1379   4.322   0.048   1.612  0.3584 -0.3550 -0.2657
   90TCq2    O5 1380   4.239   4.710   1.685  0.2639 -0.7582 -0.0763
   90TCq2    O6 1381   4.345   0.171   1.631 -0.1699 -0.6820  0.3750
   90TCq2    H2 1382   4.335   4.511   1.582 -0.0599  0.0162 -0.7470
   90TCq2    H3 1383   4.514   0.148   1.477  4.2106  0.4863 -1.2034
   90TCq2    H4 1384   4.707   4.498   1.381 -0.1921 -1.7775  1.1168
   91TMC2    C1 1385   0.717   3.260  16.362  0.0496  0.3828 -0.3689
   91TMC2    C2 1386   0.793   3.286  16.477  0.4973  0.4531 -0.1656
   91TMC2    C3 1387   0.728   3.341  16.590 -0.0601  0.1448  0.3747
   91TMC2    C4 1388   0.584   3.290  16.361  0.3500  0.4688  0.1197
   91TMC2    C5 1389   0.520   3.329  16.473  0.1113 -0.1416  0.2965
   91TMC2    C6 1390   0.588   3.356  16.591  0.7094  0.5358  0.4434
   91TMC2     C 1391   0.746   3.136  16.302 -0.3080 -0.0077  0.7379
   91TMC2     O 1392   0.657   3.053  16.302  0.0576  0.0855 -0.2844
   91TMC2     H 1393   0.893   3.244  16.482  0.1967 -0.1874  0.5454
   91TMC2    H1 1394   0.526   3.271  16.271  1.0108  2.0717 -0.6284
   91TMC2    H2 1395   0.535   3.387  16.680 -1.9318 -0.4925 -0.7840
   91TMC2    C7 1396   0.373   3.358  16.465 -0.1957  0.1085  0.0995
   91TMC2    C8 1397   0.793   3.330  16.719  0.2537 -0.3546  0.1314
   91TMC2    O1 1398   0.329   3.375  16.580 -0.1156  0.1103 -0.2093
   91TMC2    O2 1399   0.744   3.274  16.819  0.2602  0.2402  0.2758
   91TMC2    O5 1400   0.884   3.424  16.716 -0.2936 -0.4511  0.1401
   91TMC2    H5 1401   0.914   3.440  16.624  1.2869  0.6489  0.8541
   92MPD2     C 1402   0.881   2.892  16.208  0.1324  0.1659  0.6128
   92MPD2    C1 1403   0.940   3.012  16.208 -0.4100 -0.0178 -0.3666
   92MPD2    C2 1404   1.064   3.028  16.147  0.4314  0.2895  0.5101
   92MPD2    C3 1405   1.133   2.915  16.104  0.2532  0.6478  0.4220
   92MPD2    C4 1406   1.072   2.791  16.108  0.0177  0.0644  0.1872
   92MPD2    C5 1407   0.942   2.789  16.153 -0.0958 -0.1335  1.2092
   92MPD2     H 1408   1.121   3.120  16.154 -1.0584  1.3139 -0.6368
   92MPD2    H1 1409   1.107   2.695  16.072  0.7826  1.6018 -3.1354
   92MPD2    H2 1410   0.781   2.880  16.247 -0.1399  1.5034  0.3401
   92MPD2    H3 1411   0.886   2.697  16.142 -0.3101  0.1932 -0.4188
   92MPD2     N 1412   1.262   2.931  16.041 -0.4522 -0.1453  0.0164
   92MPD2    H5 1413   1.300   3.025  16.036  1.1553 -0.6822  1.9420
   92MPD2    N1 1414   0.873   3.126  16.263  0.3358  0.4970  0.2134
   92MPD2    H7 1415   0.929   3.208  16.285  1.6534 -0.6684  1.1894
   93MPD2     C 1416   2.734   3.417  13.468  0.0747  0.4350 -0.1123
   93MPD2    C1 1417   2.685   3.376  13.591 -0.3439 -0.3355  0.0744
   93MPD2    C2 1418   2.554   3.324  13.603  0.2643 -0.0764 -0.4125
   93MPD2    C3 1419   2.485   3.293  13.487  0.4714 -0.2228  0.2887
   93MPD2    C4 1420   2.533   3.330  13.369  0.3073 -1.0673  0.2358
   93MPD2    C5 1421   2.663   3.382  13.359 -0.0131  1.0973 -0.7005
   93MPD2     H 1422   2.511   3.303  13.701 -0.3208 -0.9661 -0.8627
   93MPD2    H1 1423   2.488   3.297  13.275 -0.2212 -0.4702  0.2825
   93MPD2    H2 1424   2.830   3.466  13.462  0.5229 -0.1872  1.8071
   93MPD2    H3 1425   2.709   3.405  13.264  1.4445 -2.7034 -0.9110
   93MPD2     N 1426   2.349   3.248  13.480  0.0188  0.4584  0.3114
   93MPD2    H5 1427   2.303   3.260  13.391 -0.1599  2.5636  0.6887
   93MPD2    N1 1428   2.757   3.392  13.716 -0.3454 -0.0996 -0.3017
   93MPD2    H7 1429   2.705   3.370  13.800  0.7778 -0.6008  0.2723
   94TCq2    C1 1430   2.885   3.445  13.720  0.6724  0.7871  0.1603
   94TCq2    O2 1431   2.967   3.466  13.635  0.2353  0.2130 -0.7927
   94TCq2    C2 1432   2.927   3.473  13.855 -0.3051 -0.0989  0.9011
   94TCq2    C3 1433   2.840   3.555  13.924  0.3114  0.3673  0.2418
   94TCq2    C4 1434   2.887   3.650  14.020  0.0057 -0.8005  0.1222
   94TCq2    C5 1435   3.023   3.663  14.038 -0.0495  0.0573 -0.2113
   94TCq2    C6 1436   3.114   3.587  13.965  1.0832 -0.0160  0.5263
   94TCq2    C7 1437   3.064   3.489  13.879 -0.2637  0.0499 -0.8931
   94TCq2    C8 1438   3.257   3.600  13.989 -0.4281  0.1463 -0.1934
   94TCq2    O4 1439   3.329   3.530  13.915 -0.2694  1.0084 -0.0440
   94TCq2    C9 1440   2.789   3.727  14.095  0.5350  0.0951 -0.2641
   94TCq2    O5 1441   2.828   3.799  14.192  0.0280  0.0285 -0.9803
   94TCq2    O6 1442   2.668   3.696  14.074 -0.2820  0.3868  0.6122
   94TCq2    H2 1443   2.733   3.550  13.911  0.4042 -0.0366 -0.3397
   94TCq2    H3 1444   3.050   3.739  14.111  2.2268 -1.6527  0.7284
   94TCq2    H4 1445   3.138   3.431  13.826  1.3776  1.0196  0.3381
   95TMC2    C1 1446   2.718   0.596  16.306  0.0774 -0.1268 -0.2890
   95TMC2    C2 1447   2.646   0.489  16.361 -0.0607  0.0301 -0.4700
   95TMC2    C3 1448   2.598   0.513  16.483  0.6683  0.4424 -0.6175
   95TMC2    C4 1449   2.743   0.714  16.367  0.1991 -0.4378  0.7146
   95TMC2    C5 1450   2.692   0.726  16.491 -0.3832  0.3325 -0.0360
   95TMC2    C6 1451   2.621   0.630  16.554 -0.0998 -0.6090 -0.0936
   95TMC2     C 1452   2.775   0.582  16.173 -0.5994  0.8386  0.3067
   95TMC2     O 1453   2.858   0.664  16.152  0.2486  0.3667  0.0737
   95TMC2     H 1454   2.621   0.396  16.312  0.2351 -0.8638  1.0766
   95TMC2    H1 1455   2.800   0.793  16.319  0.7062 -1.3893 -0.2654
   95TMC2    H2 1456   2.578   0.640  16.653 -1.5228  0.0251 -0.7762
   95TMC2    C7 1457   2.716   0.850  16.561 -0.2696 -0.1042  0.4445
   95TMC2    C8 1458   2.540   0.415  16.574  0.2511  0.1639  0.0987
   95TMC2    O1 1459   2.761   0.839  16.673  0.4487  0.0516 -0.2972
   95TMC2    O2 1460   2.447   0.339  16.544 -0.3136  0.7668  0.3695
   95TMC2    O5 1461   2.649   0.385  16.650 -0.3397  0.1406  0.1620
   95TMC2    H5 1462   2.725   0.446  16.638 -0.6871 -0.1565 -3.5570
   96MPD2     C 1463   2.753   0.428  15.680 -0.0072 -0.6704  0.5344
   96MPD2    C1 1464   2.845   0.509  15.742  0.1325 -0.3391 -0.1168
   96MPD2    C2 1465   2.840   0.528  15.880  0.2100 -0.1097  0.0847
   96MPD2    C3 1466   2.742   0.464  15.957 -0.6425  0.1725 -0.0189
   96MPD2    C4 1467   2.652   0.385  15.891  0.3799 -0.1402 -0.3421
   96MPD2    C5 1468   2.655   0.364  15.757 -0.0865 -0.0416  0.2621
   96MPD2     H 1469   2.907   0.603  15.918 -0.8333  1.5032 -1.2345
   96MPD2    H1 1470   2.575   0.343  15.954  1.7249 -1.8546  0.1721
   96MPD2    H2 1471   2.748   0.405  15.574  0.3960  1.4074  0.0697
   96MPD2    H3 1472   2.583   0.299  15.709 -1.9750  0.2088  2.7411
   96MPD2     N 1473   2.722   0.484  16.098  0.3524 -0.5641  0.1770
   96MPD2    H5 1474   2.644   0.430  16.135  0.6575 -1.5939 -0.6871
   96MPD2    N1 1475   2.948   0.566  15.655  0.2678 -0.9042 -0.2948
   96MPD2    H7 1476   2.930   0.550  15.556  0.2156  1.5230 -0.6761
   97MPD2     C 1477   4.386   2.417   1.034 -0.5736  0.5276 -0.3175
   97MPD2    C1 1478   4.423   2.534   0.970 -0.0143  0.2479  0.2653
   97MPD2    C2 1479   4.388   2.548   0.835 -0.0168 -0.2811 -0.3638
   97MPD2    C3 1480   4.323   2.452   0.760  0.0552 -0.4333 -0.4381
   97MPD2    C4 1481   4.281   2.339   0.827 -0.0917  0.0536  0.5251
   97MPD2    C5 1482   4.304   2.333   0.965  0.1385 -0.1373 -0.3595
   97MPD2     H 1483   4.405   2.648   0.796 -1.4980 -0.2027 -0.8039
   97MPD2    H1 1484   4.219   2.265   0.777 -1.8510  0.5658  1.9571
   97MPD2    H2 1485   4.412   2.401   1.138  1.8482  0.3238 -0.9340
   97MPD2    H3 1486   4.268   2.249   1.023  1.3683  0.6433  1.5089
   97MPD2     N 1487   4.276   2.460   0.626 -0.4218  0.5327  0.2964
   97MPD2    H5 1488   4.237   2.373   0.591 -0.3204  1.0497 -1.0854
   97MPD2    N1 1489   4.472   2.641   1.047 -0.0554  0.2992 -0.3801
   97MPD2    H7 1490   4.506   2.619   1.139 -1.2540  0.7752  0.1840
   98TCq2    C1 1491   4.287   2.570   0.548  0.1340 -0.1402  0.0001
   98TCq2    O2 1492   4.319   2.680   0.583 -0.0713 -0.1849  0.1632
   98TCq2    C2 1493   4.301   2.539   0.402  0.5101  0.7753  0.8194
   98TCq2    C3 1494   4.287   2.411   0.349 -0.7303  0.1514 -0.2094
   98TCq2    C4 1495   4.342   2.376   0.229  0.2738 -0.7022  0.5085
   98TCq2    C5 1496   4.412   2.473   0.162  0.0293  0.3975 -0.3675
   98TCq2    C6 1497   4.423   2.600   0.207  0.1400 -0.0618  0.0542
   98TCq2    C7 1498   4.370   2.637   0.332  0.0837 -0.4203  0.0952
   98TCq2    C8 1499   4.528   2.691   0.157  0.4164  0.6789  0.1498
   98TCq2    O4 1500   4.575   2.777   0.233  0.1494  0.2655  0.0758
   98TCq2    C9 1501   4.324   2.240   0.184 -0.1232 -0.0398 -0.2793
   98TCq2    O5 1502   4.349   2.217   0.064  0.0433 -0.2729  0.2767
   98TCq2    O6 1503   4.284   2.159   0.271 -0.5265  0.2022  0.1471
   98TCq2    H2 1504   4.219   2.342   0.398 -0.0955  0.1583  0.6889
   98TCq2    H3 1505   4.466   2.444   0.073  0.5030  1.9097 -0.5632
   98TCq2    H4 1506   4.391   2.735   0.375  0.0526 -0.6775  0.6961
   99MPD2     C 1507   3.543   0.122   1.567  0.4959 -0.1844  0.7747
   99MPD2    C1 1508   3.501   4.720   1.586  0.0020 -0.2549  0.0181
   99MPD2    C2 1509   3.533   4.624   1.489 -0.0738 -0.3355  0.2908
   99MPD2    C3 1510   3.623   4.648   1.390 -0.0223 -0.3948 -0.2101
   99MPD2    C4 1511   3.662   0.055   1.377 -0.1723 -0.6131 -0.1520
   99MPD2    C5 1512   3.627   0.150   1.462  0.2845  0.2220  0.5854
   99MPD2     H 1513   3.488   4.529   1.515 -0.5705  0.2515  1.5818
   99MPD2    H1 1514   3.733   0.088   1.302  0.3047 -0.1639  0.4929
   99MPD2    H2 1515   3.507   0.200   1.633  1.8043  0.5701  0.6017
   99MPD2    H3 1516   3.656   0.254   1.449  0.9323  0.0211  0.4397
   99MPD2     N 1517   3.664   4.540   1.313  0.7493  0.3816 -0.4042
   99MPD2    H5 1518   3.634   4.451   1.352 -0.8396  0.0944 -2.2747
   99MPD2    N1 1519   3.415   4.687   1.685 -0.1680 -0.6160  0.1482
   99MPD2    H7 1520   3.387   4.589   1.683  1.7503 -1.1618 -0.1405
  100TCq2    C1 1521   3.387   0.034   1.799 -0.5664 -0.0544 -0.1819
  100TCq2    O2 1522   3.411   0.151   1.824  0.0777 -0.0364 -0.7321
  100TCq2    C2 1523   3.300   4.685   1.886 -0.0837 -1.0244  0.4149
  100TCq2    C3 1524   3.326   4.692   2.015  0.3120  1.0927  0.6831
  100TCq2    C4 1525   3.239   4.625   2.099 -0.5225  0.2708  0.1734
  100TCq2    C5 1526   3.135   4.557   2.048  0.1380 -0.4891 -1.0007
  100TCq2    C6 1527   3.105   4.553   1.918  0.1829 -0.7441 -0.1869
  100TCq2    C7 1528   3.195   4.616   1.828 -0.1772 -0.4214  0.1332
  100TCq2    C8 1529   2.975   4.494   1.875  0.0919  0.5557  0.0007
  100TCq2    O4 1530   2.893   4.471   1.964 -0.1453 -0.4052 -0.1679
  100TCq2    C9 1531   3.262   4.649   2.248  0.7370 -1.0243 -0.9510
  100TCq2    O5 1532   3.176   4.599   2.324 -0.1682  0.7928 -0.1061
  100TCq2    O6 1533   3.340   0.013   2.284 -0.5794  0.5392  0.3442
  100TCq2    H2 1534   3.419   0.016   2.041  0.8939  0.6890 -0.6232
  100TCq2    H3 1535   3.059   4.512   2.112 -1.7318  2.2119 -1.3175
  100TCq2    H4 1536   3.173   4.616   1.722 -0.7925 -0.4841  0.2578
  101MPD2     C 1537   4.446   0.927  12.653 -0.1943 -0.7613 -0.1358
  101MPD2    C1 1538   4.358   1.014  12.712 -0.0544 -0.1276 -0.1898
  101MPD2    C2 1539   4.268   0.964  12.810 -0.2422 -0.6989 -0.3827
  101MPD2    C3 1540   4.268   0.833  12.843 -0.3804  0.3465 -0.2402
  101MPD2    C4 1541   4.352   0.745  12.787 -0.3047 -0.5316 -1.0578
  101MPD2    C5 1542   4.435   0.796  12.689 -0.1475 -0.1123 -0.5030
  101MPD2     H 1543   4.186   1.023  12.850  0.3137 -1.2119  1.5339
  101MPD2    H1 1544   4.351   0.638  12.805 -1.5019 -0.6702 -1.9036
  101MPD2    H2 1545   4.519   0.960  12.580 -0.2522 -2.6248 -1.0620
  101MPD2    H3 1546   4.495   0.726  12.631  0.2981 -1.4289  1.5161
  101MPD2     N 1547   4.179   0.786  12.943 -0.2352 -0.0296 -0.0316
  101MPD2    H5 1548   4.167   0.686  12.944 -0.7984  0.0849  2.7056
  101MPD2    N1 1549   4.357   1.152  12.670  0.0629  0.3313 -0.3176
  101MPD2    H7 1550   4.408   1.182  12.588  3.0755 -0.8485  1.1224
  102TCq2    C1 1551   4.528   1.618  12.549  0.3276 -0.1440 -0.0278
  102TCq2    O2 1552   4.636   1.558  12.573 -0.5434  0.4263 -0.2507
  102TCq2    C2 1553   4.401   1.562  12.606 -0.3618 -0.5362  0.0170
  102TCq2    C3 1554   4.293   1.643  12.625 -0.2962 -0.2935  0.6591
  102TCq2    C4 1555   4.174   1.586  12.654  1.1094  0.1508  0.8870
  102TCq2    C5 1556   4.159   1.450  12.675 -0.0681  0.8276 -0.0560
  102TCq2    C6 1557   4.273   1.377  12.662 -0.1654 -0.2565 -0.1138
  102TCq2    C7 1558   4.400   1.427  12.634 -0.3044 -0.5302 -0.6282
  102TCq2    C8 1559   4.263   1.244  12.717 -0.1531  0.6352 -0.5114
  102TCq2    O4 1560   4.171   1.231  12.796 -0.3710  0.3181  0.7799
  102TCq2    C9 1561   4.062   1.673  12.679  1.0764 -0.0906 -0.0421
  102TCq2    O5 1562   4.079   1.791  12.636 -0.1168 -0.1038  0.1137
  102TCq2    O6 1563   3.950   1.617  12.682  0.0103  0.0525 -0.4029
  102TCq2    H2 1564   4.303   1.750  12.632  0.4631 -0.0324 -4.0740
  102TCq2    H3 1565   4.066   1.408  12.711  0.7189 -0.5371  0.3686
  102TCq2    H4 1566   4.489   1.366  12.622  0.4794  0.3877  0.4486
  103TMC2    C1 1567   2.533   1.368  11.961 -0.2713  0.1103  0.4675
  103TMC2    C2 1568   2.529   1.273  11.868  0.1827 -0.5568 -0.0348
  103TMC2    C3 1569   2.576   1.149  11.911 -0.0765  0.3691  0.4953
  103TMC2    C4 1570   2.562   1.346  12.092  0.2885  0.7597 -0.5537
  103TMC2    C5 1571   2.608   1.217  12.127 -0.2181 -1.1330  0.1555
  103TMC2    C6 1572   2.617   1.118  12.036  0.2450  0.1804  0.0711
  103TMC2     C 1573   2.476   1.498  11.926  0.6193  0.0462  0.0576
  103TMC2     O 1574   2.483   1.581  12.016 -0.0606 -0.9399  0.0295
  103TMC2     H 1575   2.514   1.290  11.762 -1.1061 -1.5832 -0.0049
  103TMC2    H1 1576   2.562   1.432  12.157  0.9072  0.5461 -0.2672
  103TMC2    H2 1577   2.628   1.014  12.063 -0.5354  0.1314  0.1936
  103TMC2    C7 1578   2.655   1.190  12.262  0.2539  0.5929 -0.8341
  103TMC2    C8 1579   2.594   1.044  11.821 -0.2803  0.7489 -0.6016
  103TMC2    O1 1580   2.654   1.291  12.333  0.1762  0.5189  0.2108
  103TMC2    O2 1581   2.640   0.934  11.846 -0.5087  0.1577  0.2357
  103TMC2    O5 1582   2.535   1.077  11.705 -0.1731  0.3927 -0.6997
  103TMC2    H5 1583   2.464   1.145  11.717 -0.1910  0.4096 -0.9011
  104MPD2     C 1584   2.359   1.615  11.598  0.2589  0.3547 -0.8784
  104MPD2    C1 1585   2.391   1.622  11.731 -0.0559 -0.5560 -0.3505
  104MPD2    C2 1586   2.370   1.744  11.800 -0.8547 -1.1307  0.6043
  104MPD2    C3 1587   2.334   1.860  11.732  0.5364  0.0413 -0.2638
  104MPD2    C4 1588   2.314   1.849  11.597  0.6602  0.2029  0.3912
  104MPD2    C5 1589   2.333   1.729  11.529  0.4654  0.6070  0.0298
  104MPD2     H 1590   2.392   1.756  11.905 -1.4360 -2.5325  0.8952
  104MPD2    H1 1591   2.307   1.937  11.536  0.8529 -0.6669 -0.8844
  104MPD2    H2 1592   2.361   1.521  11.544  0.4915  0.0818 -0.3959
  104MPD2    H3 1593   2.319   1.723  11.422  3.6499  0.0894 -0.3825
  104MPD2     N 1594   2.327   1.983  11.800 -0.4948 -0.3259  0.2026
  104MPD2    H5 1595   2.332   1.981  11.901 -0.8723 -2.4994  0.1715
  104MPD2    N1 1596   2.433   1.507  11.795 -0.4714 -0.1057 -0.0243
  104MPD2    H7 1597   2.419   1.419  11.747 -2.9202  0.2263  0.0772
  105MPD2     C 1598   4.216   0.325  17.626  0.2151 -0.3970 -0.7780
  105MPD2    C1 1599   4.179   0.460  17.616 -0.8661 -0.1572  0.2981
  105MPD2    C2 1600   4.118   0.531   0.015  0.1988 -0.0029  0.1145
  105MPD2    C3 1601   4.082   0.471   0.131  0.2065 -0.1813  0.1649
  105MPD2    C4 1602   4.131   0.343   0.149  0.2164  0.7787  0.1538
  105MPD2    C5 1603   4.196   0.276   0.046 -0.0541 -0.3840  0.4009
  105MPD2     H 1604   4.098   0.637   0.000 -0.7929 -0.0152  1.3232
  105MPD2    H1 1605   4.107   0.290   0.241  3.5053  1.0144  1.1363
  105MPD2    H2 1606   4.244   0.260  17.544  0.4007 -0.4593 -0.6655
  105MPD2    H3 1607   4.203   0.168   0.054  2.8383 -0.2437 -0.4431
  105MPD2     N 1608   4.011   0.549   0.221 -0.5068  0.0799  0.1347
  105MPD2    H5 1609   3.977   0.643   0.206  0.9852  0.8287  1.4990
  105MPD2    N1 1610   4.201   0.529  17.493  0.0334 -0.0501  0.6181
  105MPD2    H7 1611   4.156   0.620  17.490  0.6269  0.1830 -0.9648
  106TCq2    C1 1612   3.940   0.497   0.331 -0.3558 -0.2696  0.0204
  106TCq2    O2 1613   3.931   0.375   0.357 -0.0806 -0.3433 -0.6938
  106TCq2    C2 1614   3.833   0.591   0.364  1.0947  0.8146  0.4556
  106TCq2    C3 1615   3.809   0.715   0.312  0.4460  1.0459  0.5221
  106TCq2    C4 1616   3.717   0.800   0.369  0.4430 -0.0044  0.0705
  106TCq2    C5 1617   3.634   0.757   0.468 -0.1727 -0.2948 -1.2843
  106TCq2    C6 1618   3.649   0.622   0.507 -0.2640  0.1042  0.3425
  106TCq2    C7 1619   3.750   0.544   0.460 -0.0362  0.3595  1.0119
  106TCq2    C8 1620   3.583   0.563   0.629  0.2366 -0.1951  0.3637
  106TCq2    O4 1621   3.615   0.446   0.659  0.0952  0.4736  0.0744
  106TCq2    C9 1622   3.707   0.942   0.339  0.2118 -0.4665  0.2793
  106TCq2    O5 1623   3.618   1.004   0.401 -0.4678 -0.1915  0.0079
  106TCq2    O6 1624   3.793   0.988   0.265 -0.2421  0.5603 -0.1636
  106TCq2    H2 1625   3.871   0.762   0.237  0.5832  1.9244  1.1906
  106TCq2    H3 1626   3.561   0.817   0.520 -0.9796 -2.5080  0.1173
  106TCq2    H4 1627   3.760   0.440   0.490  1.2909 -0.1607 -1.2382
  107TMC2    C1 1628   4.670   4.558  11.475 -0.2676  0.2157 -0.2867
  107TMC2    C2 1629   0.027   4.657  11.441 -0.3042 -0.2967  0.6202
  107TMC2    C3 1630   0.028   4.692  11.301  0.3534  0.3935  0.4044
  107TMC2    C4 1631   4.584   4.505  11.384  0.4764 -0.0131 -0.1692
  107TMC2    C5 1632   4.579   4.554  11.254 -0.1672  0.3480 -0.4541
  107TMC2    C6 1633   4.678   4.639  11.208 -0.1925  0.3016 -0.4692
  107TMC2     C 1634   4.650   4.525  11.615 -0.0797  0.2120 -0.2766
  107TMC2     O 1635   4.538   4.480  11.636 -0.4802 -0.4162 -0.1424
  107TMC2     H 1636   0.107   4.693  11.505 -2.1715  2.9618  1.1258
  107TMC2    H1 1637   4.515   4.427  11.416 -1.3778  2.0589  0.9454
  107TMC2    H2 1638   4.691   4.675  11.106 -1.4428 -0.9016 -1.0659
  107TMC2    C7 1639   4.486   4.503  11.155  0.5253 -0.8153  0.2491
  107TMC2    C8 1640   0.117   0.073  11.267  0.1270 -0.2886  1.0859
  107TMC2    O1 1641   4.392   4.437  11.194  0.2453  0.2114  0.0241
  107TMC2    O2 1642   0.184   0.080  11.165 -0.1816  0.1893  0.5982
  107TMC2    O5 1643   0.033   0.175  11.312 -0.0819 -0.0067 -0.0108
  107TMC2    H5 1644   4.678   0.139  11.355  0.1618 -0.7895 -0.2069
  108MPD2     C 1645   0.141   4.621  11.896 -0.2488 -0.6262 -0.3989
  108MPD2    C1 1646   0.024   4.598  11.830  0.2641 -0.7154 -0.5950
  108MPD2    C2 1647   4.626   4.614  11.890  0.0338 -0.3233  0.0759
  108MPD2    C3 1648   4.624   4.645  12.023  0.1829 -0.4921  0.2594
  108MPD2    C4 1649   0.015   4.660  12.094  0.1967 -0.5001  0.4681
  108MPD2    C5 1650   0.138   4.657  12.026 -0.5936 -0.4005  0.6344
  108MPD2     H 1651   4.531   4.610  11.838 -0.7070  0.3581  1.3727
  108MPD2    H1 1652   0.004   4.683  12.199 -0.4322 -0.6306  0.4317
  108MPD2    H2 1653   0.241   4.605  11.859  0.8584 -0.3315  2.4801
  108MPD2    H3 1654   0.231   4.685  12.074 -0.8019  0.6907  0.3988
  108MPD2     N 1655   4.508   4.658  12.096 -0.2117 -0.2080  0.3136
  108MPD2    H5 1656   4.523   4.682  12.193 -0.1475 -1.4137  0.6014
  108MPD2    N1 1657   0.036   4.565  11.694 -0.0462 -0.0073  0.3859
  108MPD2    H7 1658   0.125   4.572  11.647 -0.3441  1.1862 -0.0026
  109MPD2     C 1659   4.102   2.113   1.890 -0.0193 -0.0383  0.0174
  109MPD2    C1 1660   4.162   2.076   1.776  0.0772  0.1312 -0.1025
  109MPD2    C2 1661   4.304   2.078   1.765 -0.1620 -0.4652  0.2229
  109MPD2    C3 1662   4.376   2.126   1.869 -0.2158 -0.6133 -0.1691
  109MPD2    C4 1663   4.314   2.159   1.990  0.4813 -1.0007 -0.2825
  109MPD2    C5 1664   4.178   2.156   1.996 -0.0745 -0.7190 -0.8394
  109MPD2     H 1665   4.359   2.055   1.675  1.1404  3.2246  0.0985
  109MPD2    H1 1666   4.370   2.184   2.080 -0.6181 -1.0912  0.4233
  109MPD2    H2 1667   3.994   2.121   1.891  0.3333  4.8364  1.7836
  109MPD2    H3 1668   4.127   2.188   2.086  2.3545  3.2459 -0.8694
  109MPD2     N 1669   4.517   2.115   1.858 -0.2852  0.3895 -0.6829
  109MPD2    H5 1670   4.553   2.111   1.763  0.5965 -0.0138 -0.3254
  109MPD2    N1 1671   4.088   2.046   1.659  0.0273 -0.3041  0.5047
  109MPD2    H7 1672   3.987   2.058   1.667  0.1669  0.7364  0.7832
  110TCq2    C1 1673   4.603   2.127   1.961  0.6842 -0.3870 -0.0947
  110TCq2    O2 1674   4.574   2.084   2.077  0.0047  0.5879 -0.1070
  110TCq2    C2 1675   0.017   2.156   1.935  0.6075 -0.0361 -0.3346
  110TCq2    C3 1676   0.113   2.107   2.016  0.5143  0.4024  0.3405
  110TCq2    C4 1677   0.237   2.163   2.007 -0.2521 -0.2691 -0.2733
  110TCq2    C5 1678   0.270   2.263   1.917 -0.0346  0.2046  0.5390
  110TCq2    C6 1679   0.176   2.297   1.822 -0.2695  0.6405 -0.5424
  110TCq2    C7 1680   0.043   2.245   1.832 -0.0576 -0.0615 -0.1385
  110TCq2    C8 1681   0.199   2.392   1.712 -0.5505 -0.4515 -0.2185
  110TCq2    O4 1682   0.132   2.379   1.609 -0.1411 -0.6120  0.3773
  110TCq2    C9 1683   0.342   2.121   2.100 -0.2899 -0.4466  0.4851
  110TCq2    O5 1684   0.309   2.032   2.182  0.5901 -0.7078  0.4242
  110TCq2    O6 1685   0.465   2.154   2.066  0.2772  0.4271  0.1826
  110TCq2    H2 1686   0.086   2.041   2.097 -0.5167 -0.8549 -1.0147
  110TCq2    H3 1687   0.370   2.302   1.902 -0.1091 -0.0220 -0.5325
  110TCq2    H4 1688   4.692   2.268   1.760 -1.9786  0.1144  1.9449
  111TMC2    C1 1689   0.514   2.466  11.525  0.1403  0.2807 -0.1576
  111TMC2    C2 1690   0.604   2.530  11.442  0.6713  0.0282 -0.3230
  111TMC2    C3 1691   0.737   2.544  11.482  0.3523 -0.6888  0.7179
  111TMC2    C4 1692   0.552   2.423  11.647 -0.2942  0.5922 -0.6912
  111TMC2    C5 1693   0.680   2.444  11.678 -0.2812  0.1992  0.3340
  111TMC2    C6 1694   0.777   2.496  11.599 -0.1426 -0.2103  0.1538
  111TMC2     C 1695   0.387   2.432  11.469 -0.5051 -0.3105 -0.6520
  111TMC2     O 1696   0.367   2.438  11.347  0.4868 -0.9783 -0.1566
  111TMC2     H 1697   0.578   2.582  11.350 -2.2549 -1.6932 -0.4554
  111TMC2    H1 1698   0.487   2.366  11.712  0.7002 -1.1477 -1.2236
  111TMC2    H2 1699   0.877   2.524  11.631  0.5884 -1.9487 -0.6437
  111TMC2    C7 1700   0.726   2.389  11.805 -0.6564  0.4648 -0.9652
  111TMC2    C8 1701   0.840   2.562  11.384  0.1051 -0.4739 -0.8523
  111TMC2    O1 1702   0.642   2.382  11.890 -0.5810  0.4173  0.3800
  111TMC2    O2 1703   0.955   2.588  11.416  0.5411 -0.2867  0.5171
  111TMC2    O5 1704   0.801   2.476  11.285 -0.2112  0.5334  0.1267
  111TMC2    H5 1705   0.711   2.436  11.287  0.2584 -0.4294  2.1619
  112MPD2     C 1706   4.617   2.298  11.504  0.1563 -0.1349 -0.7565
  112MPD2    C1 1707   4.691   2.345  11.398  0.2268  0.1288 -0.8417
  112MPD2    C2 1708   0.104   2.344  11.414 -0.2485  0.7374  0.1054
  112MPD2    C3 1709   0.161   2.349  11.538 -0.3821 -0.3554  0.2341
  112MPD2    C4 1710   0.081   2.327  11.647  0.0705 -0.0080  0.0375
  112MPD2    C5 1711   4.672   2.299  11.629  0.4402 -0.3630 -0.5763
  112MPD2     H 1712   0.161   2.360  11.323  1.9367  0.7690  1.4809
  112MPD2    H1 1713   0.129   2.314  11.744  1.2180 -0.5473 -0.6011
  112MPD2    H2 1714   4.513   2.267  11.506 -0.1007  0.8086  0.5837
  112MPD2    H3 1715   4.614   2.273  11.717  2.0627 -0.0647  0.5781
  112MPD2     N 1716   0.293   2.389  11.563 -0.6006 -0.3292 -0.6958
  112MPD2    H5 1717   0.310   2.395  11.663  0.9033 -1.2786 -0.8813
  112MPD2    N1 1718   4.641   2.350  11.260 -0.0185  0.1348 -0.5216
  112MPD2    H7 1719   4.700   2.378  11.183 -0.3284  2.0267 -0.0782
  113MPD2     C 1720   2.626   4.654   0.825  0.6071  0.3707  0.0941
  113MPD2    C1 1721   2.506   4.707   0.859  0.3113 -0.7036  0.5369
  113MPD2    C2 1722   2.403   4.718   0.768  0.1157  0.3617 -0.0555
  113MPD2    C3 1723   2.423   4.691   0.638  0.2527 -0.4480 -0.1557
  113MPD2    C4 1724   2.551   4.663   0.597  0.5412 -0.0585 -0.3272
  113MPD2    C5 1725   2.649   4.630   0.691  0.1205  0.0846 -0.3398
  113MPD2     H 1726   2.308   0.036   0.796 -1.1481 -1.3091 -1.7565
  113MPD2    H1 1727   2.587   4.659   0.495  0.5706 -1.8399 -0.2492
  113MPD2    H2 1728   2.713   4.647   0.890  1.9606  1.2444 -1.6441
  113MPD2    H3 1729   2.742   4.593   0.650  0.3677 -0.0554  0.3511
  113MPD2     N 1730   2.328   4.706   0.537  0.4788  0.0408  0.3899
  113MPD2    H5 1731   2.359   4.693   0.441 -0.5071 -1.0026  0.2128
  113MPD2    N1 1732   2.485   0.030   0.993 -0.1314  0.3766  0.4392
  113MPD2    H7 1733   2.394   0.069   1.012 -0.7325 -0.0522 -1.5005
  114TCq2    C1 1734   2.189   4.694   0.554  0.5679 -0.1207  0.0154
  114TCq2    O2 1735   2.113   4.720   0.644 -0.2281 -0.2078 -0.5003
  114TCq2    C2 1736   2.133   4.621   0.441 -0.5412 -0.1815 -0.1634
  114TCq2    C3 1737   2.025   4.669   0.361  0.8754  0.4383 -0.1544
  114TCq2    C4 1738   1.984   4.592   0.256  0.1811  0.9986 -0.1030
  114TCq2    C5 1739   2.038   4.465   0.238  0.8236  0.2339  0.3228
  114TCq2    C6 1740   2.135   4.425   0.328 -0.4760  0.1288  0.1343
  114TCq2    C7 1741   2.192   4.503   0.427  0.2291  0.3388 -0.4179
  114TCq2    C8 1742   2.183   4.291   0.314  0.0351 -0.6064 -0.0723
  114TCq2    O4 1743   2.217   4.243   0.204  0.6106 -0.2708  0.5820
  114TCq2    C9 1744   1.900   4.652   0.152 -0.2250 -0.1739 -0.3094
  114TCq2    O5 1745   1.887   4.591   0.041 -0.0384 -0.5852 -0.1130
  114TCq2    O6 1746   1.851   0.041   0.167 -0.8302 -0.2337  0.0677
  114TCq2    H2 1747   1.984   0.039   0.390  0.7747  1.1672 -2.7950
  114TCq2    H3 1748   2.004   4.410   0.151 -1.7843 -0.6299  1.8545
  114TCq2    H4 1749   2.272   4.474   0.493 -0.6483 -0.8831  0.0900
  115TMC2    C1 1750   3.562   2.583  17.604  0.2423  0.2430  0.1493
  115TMC2    C2 1751   3.680   2.579  17.530  0.2174  0.1758  0.0456
  115TMC2    C3 1752   3.749   2.694  17.521 -0.0383  0.4411 -0.2153
  115TMC2    C4 1753   3.508   2.693  17.664 -0.4195 -0.0735  0.2368
  115TMC2    C5 1754   3.585   2.805  17.654  0.4886  0.0405 -0.0007
  115TMC2    C6 1755   3.705   2.802  17.587 -0.1239  0.3611 -0.7631
  115TMC2     C 1756   3.488   2.465  17.599 -0.2667 -0.0025  0.6399
  115TMC2     O 1757   3.438   2.430  17.491 -0.3250 -0.7744 -0.5636
  115TMC2     H 1758   3.708   2.484  17.486  1.9258  0.4137  0.6348
  115TMC2    H1 1759   3.407   2.684  17.702 -0.7244 -1.9545 -1.0377
  115TMC2    H2 1760   3.771   2.889  17.580 -0.1088  0.5746  2.0864
  115TMC2    C7 1761   3.520   2.925  17.699  0.5618  0.3036 -0.0365
  115TMC2    C8 1762   3.892   2.677  17.518 -0.0548 -0.0114  0.1453
  115TMC2    O1 1763   3.411   2.921   0.043 -0.0505 -0.2253 -0.7377
  115TMC2    O2 1764   3.971   2.775  17.506  0.0152 -0.1555 -0.0901
  115TMC2    O5 1765   3.904   2.585  17.622  0.4705  0.9729  0.0745
  115TMC2    H5 1766   3.827   2.526  17.635  0.7922  0.1648 -1.6367
  116MPD2     C 1767   3.411   2.007   0.081  0.4427 -0.4096  0.7869
  116MPD2    C1 1768   3.356   2.059  17.671 -0.5286 -0.0604 -0.7261
  116MPD2    C2 1769   3.380   2.192  17.645 -0.2350 -0.4635  0.0274
  116MPD2    C3 1770   3.443   2.268   0.035 -0.1809  0.3818  0.1551
  116MPD2    C4 1771   3.481   2.218   0.156 -0.1711 -0.2351  0.0266
  116MPD2    C5 1772   3.465   2.083   0.185  0.1865  0.4257  0.8692
  116MPD2     H 1773   3.353   2.225  17.545 -0.3168 -0.2306  0.1264
  116MPD2    H1 1774   3.532   2.282   0.227 -0.7763  0.0256  0.2245
  116MPD2    H2 1775   3.403   1.901   0.103  1.2046 -0.3766  1.2133
  116MPD2    H3 1776   3.510   2.039   0.274 -2.1647 -0.0224  1.8418
  116MPD2     N 1777   3.496   2.399   0.012  0.3028 -0.1922  0.0575
  116MPD2    H5 1778   3.556   2.433   0.087  1.4570 -0.0632 -0.9239
  116MPD2    N1 1779   3.295   1.964  17.584  0.0546  0.0481  0.1202
  116MPD2    H7 1780   3.287   1.866  17.610 -1.5769  0.4265  1.0487
  117TMC2    C1 1781   1.839   3.833  13.919 -0.9199 -0.4126 -0.1037
  117TMC2    C2 1782   1.905   3.712  13.934  0.4449 -0.4927  0.5592
  117TMC2    C3 1783   2.034   3.705  13.900  0.7065  0.5493  0.3111
  117TMC2    C4 1784   1.905   3.942  13.866 -0.8471  0.4232 -0.4558
  117TMC2    C5 1785   2.040   3.922  13.841  0.2138 -0.5573 -0.6892
  117TMC2    C6 1786   2.109   3.810  13.855  0.4765 -0.3872  0.3139
  117TMC2     C 1787   1.697   3.828  13.936 -0.9590 -0.3946 -0.6619
  117TMC2     O 1788   1.651   3.714  13.942  0.2601  0.2744 -0.2596
  117TMC2     H 1789   1.858   3.632  13.990 -0.8857 -1.0551 -1.3458
  117TMC2    H1 1790   1.856   4.036  13.840 -1.2220  0.3373 -0.0709
  117TMC2    H2 1791   2.209   3.802  13.815  0.0052  1.9427 -1.3020
  117TMC2    C7 1792   2.129   4.037  13.851  0.0893 -0.7401 -0.2563
  117TMC2    C8 1793   2.097   3.569  13.897  0.5464 -1.3214 -0.5296
  117TMC2    O1 1794   2.228   4.039  13.778  0.2198  0.0483 -0.4327
  117TMC2    O2 1795   2.219   3.554  13.881  0.3416  0.2204 -0.9478
  117TMC2    O5 1796   2.001   3.475  13.875  0.7031  0.6527  0.3281
  117TMC2    H5 1797   2.036   3.385  13.894  2.2408  1.3268  0.7343
  118MPD2     C 1798   2.080   4.342  14.061 -0.5521  0.2838 -0.3967
  118MPD2    C1 1799   2.143   4.251  13.976  0.3087  0.4041 -0.5428
  118MPD2    C2 1800   2.272   4.285  13.933 -0.5109  0.0349 -0.5017
  118MPD2    C3 1801   2.340   4.404  13.961 -0.4482  1.1721 -0.0840
  118MPD2    C4 1802   2.276   4.495  14.042  0.4860  0.0136 -0.1932
  118MPD2    C5 1803   2.148   4.455  14.086  0.9622  0.1785 -0.3924
  118MPD2     H 1804   2.315   4.215  13.862  0.8521  0.7792 -0.3979
  118MPD2    H1 1805   2.316   4.595  14.050  2.0575 -0.7629  1.6365
  118MPD2    H2 1806   1.984   4.323  14.107  0.0706 -0.3076  0.6716
  118MPD2    H3 1807   2.093   4.520  14.153  1.6912  0.6363 -0.2337
  118MPD2     N 1808   2.476   4.434  13.911  0.2699 -0.8223 -0.2137
  118MPD2    H5 1809   2.521   4.517  13.947  1.7053 -1.2530 -1.0351
  118MPD2    N1 1810   2.083   4.132  13.942 -0.4131  0.6342 -0.1137
  118MPD2    H7 1811   1.998   4.120  13.996 -0.6220 -1.5825 -0.9551
  119MPD2     C 1812   0.425   0.975  12.932 -0.0177 -0.4382 -0.2541
  119MPD2    C1 1813   0.303   0.942  12.983  0.2291  0.1969 -0.3670
  119MPD2    C2 1814   0.226   0.850  12.913 -0.3862  0.0235 -0.3446
  119MPD2    C3 1815   0.270   0.790  12.798  0.4486  0.4886  0.4024
  119MPD2    C4 1816   0.398   0.824  12.751 -0.7044  0.2237 -0.6670
  119MPD2    C5 1817   0.471   0.923  12.814  0.3966 -0.5200 -0.4091
  119MPD2     H 1818   0.130   0.819  12.953  0.1057  0.4998  1.1995
  119MPD2    H1 1819   0.430   0.763  12.667  0.3317 -0.7274  0.4264
  119MPD2    H2 1820   0.484   1.049  12.985 -1.3821  0.7915 -0.4526
  119MPD2    H3 1821   0.571   0.946  12.782  0.3319  0.9072  0.4052
  119MPD2     N 1822   0.197   0.690  12.732 -0.1297 -0.5506 -0.1761
  119MPD2    H5 1823   0.240   0.638  12.656  1.5139 -1.0170  1.0697
  119MPD2    N1 1824   0.263   1.001  13.102  0.1271 -0.2614  0.3466
  119MPD2    H7 1825   0.337   1.038  13.161 -0.3409  1.3859 -0.1093
  120TCq2    C1 1826   0.074   0.632  12.764  0.0110 -0.0844  0.1668
  120TCq2    O2 1827   4.716   0.662  12.851 -0.2920  0.3056 -0.3115
  120TCq2    C2 1828   0.041   0.511  12.679 -0.2107 -0.5196 -0.0268
  120TCq2    C3 1829   0.138   0.444  12.613 -0.0810 -0.1753  0.6928
  120TCq2    C4 1830   0.123   0.315  12.570 -0.3327  0.9156  0.5770
  120TCq2    C5 1831   4.724   0.258  12.571 -0.3873 -0.5248  0.6202
  120TCq2    C6 1832   4.622   0.332  12.634 -0.0339  0.1985  0.0901
  120TCq2    C7 1833   4.643   0.454  12.697 -0.3509  0.0722  0.2104
  120TCq2    C8 1834   4.498   0.263  12.660 -0.2853 -0.2768 -0.1395
  120TCq2    O4 1835   4.446   0.202  12.570 -0.0247 -0.4170 -0.2910
  120TCq2    C9 1836   0.239   0.231  12.530 -0.0995 -0.1902  0.5456
  120TCq2    O5 1837   0.354   0.285  12.529 -0.4294 -0.3380 -0.4969
  120TCq2    O6 1838   0.216   0.123  12.469  0.4194  0.1364  0.5256
  120TCq2    H2 1839   0.239   0.484  12.610 -0.6345  1.1803  0.0242
  120TCq2    H3 1840   4.703   0.163  12.523  2.1936 -1.4231  1.2418
  120TCq2    H4 1841   4.561   0.502  12.748 -1.4742 -1.3706 -0.2597
  121TMC2    C1 1842   2.229   2.625  14.099  0.2501 -0.1028 -0.0835
  121TMC2    C2 1843   2.187   2.747  14.062  0.1620  0.1790  0.0305
  121TMC2    C3 1844   2.127   2.825  14.159  0.6150 -0.6690 -0.6375
  121TMC2    C4 1845   2.222   2.578  14.227 -0.6262  0.0595 -0.1828
  121TMC2    C5 1846   2.151   2.658  14.318 -0.5850 -0.1226  0.3917
  121TMC2    C6 1847   2.108   2.783  14.289 -0.1356 -0.1625 -0.2932
  121TMC2     C 1848   2.258   2.531  13.998  0.6375 -0.8160 -0.5704
  121TMC2     O 1849   2.296   2.421  14.031 -0.4539  0.1224 -0.0525
  121TMC2     H 1850   2.182   2.790  13.963  1.1929  0.5638  0.1509
  121TMC2    H1 1851   2.254   2.480  14.258 -0.3105 -0.2329 -1.4409
  121TMC2    H2 1852   2.059   2.844  14.364 -1.9100 -1.8160 -0.1062
  121TMC2    C7 1853   2.069   2.591  14.417  0.3246 -0.4522  0.2050
  121TMC2    C8 1854   2.115   2.966  14.126 -0.0884 -0.0230  0.2908
  121TMC2    O1 1855   2.102   2.483  14.461  0.2223 -0.7443 -0.3014
  121TMC2    O2 1856   2.179   3.022  14.037  0.5717  0.1478  0.6400
  121TMC2    O5 1857   1.999   3.013  14.175 -0.0376 -0.5216 -0.3865
  121TMC2    H5 1858   1.928   2.946  14.180 -1.1869  0.6983 -0.2070
  122MPD2     C 1859   2.311   2.381  13.747  0.6779 -0.0108 -0.2158
  122MPD2    C1 1860   2.270   2.514  13.753 -0.0650  0.1669  0.0761
  122MPD2    C2 1861   2.254   2.586  13.638 -0.2908  1.0541 -0.1755
  122MPD2    C3 1862   2.293   2.537  13.515  0.2288 -0.1870 -0.3152
  122MPD2    C4 1863   2.333   2.402  13.510  0.2748  0.4227  0.7533
  122MPD2    C5 1864   2.342   2.332  13.620 -0.4986  0.2498 -0.9830
  122MPD2     H 1865   2.219   2.687  13.653  0.6048  1.7051 -2.4987
  122MPD2    H1 1866   2.373   2.354  13.421 -0.9696  1.0148 -0.1255
  122MPD2    H2 1867   2.319   2.318  13.834 -0.2967  2.9066  1.9801
  122MPD2    H3 1868   2.375   2.229  13.611 -0.6302  0.0716  0.4763
  122MPD2     N 1869   2.316   2.611  13.409 -0.0148 -0.0529  0.0259
  122MPD2    H5 1870   2.334   2.560  13.323 -1.3934  0.4956 -0.5913
  122MPD2    N1 1871   2.237   2.578  13.873 -0.1086 -0.0055  0.1035
  122MPD2    H7 1872   2.194   2.670  13.863 -1.2694 -0.3766  1.8220
  123MPD2     C 1873   0.383   0.584   9.638  0.5291 -0.7665  0.1824
  123MPD2    C1 1874   0.342   0.453   9.615  0.0777  0.2945  0.0770
  123MPD2    C2 1875   0.426   0.354   9.592  0.5794  0.0214 -0.3802
  123MPD2    C3 1876   0.565   0.383   9.590 -0.5534 -0.1887 -0.6580
  123MPD2    C4 1877   0.612   0.507   9.638  0.5916 -0.3872 -0.0317
  123MPD2    C5 1878   0.519   0.607   9.661 -0.0701 -0.0552  0.1208
  123MPD2     H 1879   0.411   0.254   9.554 -1.9875  0.0485  0.5517
  123MPD2    H1 1880   0.716   0.535   9.653  0.5366 -0.9103  1.3175
  123MPD2    H2 1881   0.308   0.661   9.634  1.0425 -0.1913  1.6989
  123MPD2    H3 1882   0.557   0.705   9.688  1.1304 -0.6907  0.7500
  123MPD2     N 1883   0.651   0.283   9.534 -0.2213  0.2411 -0.1809
  123MPD2    H5 1884   0.611   0.195   9.502 -0.2706  1.1403 -2.6525
  123MPD2    N1 1885   0.203   0.425   9.617 -0.8201 -0.2093  0.8868
  123MPD2    H7 1886   0.142   0.501   9.645 -1.8738 -0.7069 -0.0472
  124TCq2    C1 1887   0.785   0.298   9.510  0.8154  0.8459 -0.4625
  124TCq2    O2 1888   0.865   0.370   9.568 -0.3572 -0.1558  0.0076
  124TCq2    C2 1889   0.843   0.204   9.415 -0.4533 -0.1197  0.3656
  124TCq2    C3 1890   0.977   0.184   9.408 -0.8539 -0.3280 -0.4233
  124TCq2    C4 1891   1.032   0.145   9.290  0.0247 -0.5114 -0.1250
  124TCq2    C5 1892   0.954   0.091   9.189 -0.1878 -0.1254  0.8601
  124TCq2    C6 1893   0.820   0.103   9.205  0.3783  0.5872  0.1270
  124TCq2    C7 1894   0.765   0.165   9.311 -0.1025 -0.5482  0.2562
  124TCq2    C8 1895   0.733   0.028   9.122 -1.1593 -0.1756  0.4771
  124TCq2    O4 1896   0.615   0.028   9.163  0.1594 -0.0132  0.1407
  124TCq2    C9 1897   1.175   0.132   9.281  0.6231  0.9380 -0.0126
  124TCq2    O5 1898   1.240   0.213   9.353  0.0642 -0.0787 -0.3614
  124TCq2    O6 1899   1.221   0.054   9.192  0.1702 -0.3312  0.2821
  124TCq2    H2 1900   1.043   0.214   9.488  0.1871  0.5603 -1.6212
  124TCq2    H3 1901   1.000   0.025   9.116  0.9810  1.2218  0.3780
  124TCq2    H4 1902   0.659   0.182   9.319  0.4619  3.1502 -0.3598
  125TMC2    C1 1903   1.211   2.249   9.607 -0.6761  0.7518  0.7666
  125TMC2    C2 1904   1.217   2.347   9.509  0.2076  0.6643  0.6586
  125TMC2    C3 1905   1.332   2.363   9.443  0.2795 -0.0298 -0.6305
  125TMC2    C4 1906   1.308   2.154   9.629 -0.8064 -0.5281 -0.5587
  125TMC2    C5 1907   1.427   2.182   9.560  0.0753 -0.2395  0.2889
  125TMC2    C6 1908   1.436   2.279   9.460  0.3005  1.2025  0.0121
  125TMC2     C 1909   1.108   2.269   9.710 -0.0638  0.7765 -0.0560
  125TMC2     O 1910   1.066   2.386   9.706  0.5519  0.2841  0.6659
  125TMC2     H 1911   1.150   2.428   9.482 -0.1943  0.2857  0.5289
  125TMC2    H1 1912   1.307   2.095   9.720 -1.3061  1.0697  0.4881
  125TMC2    H2 1913   1.519   2.274   9.391  0.7406  2.5811  0.4484
  125TMC2    C7 1914   1.537   2.093   9.596  0.4472  0.0445  0.8236
  125TMC2    C8 1915   1.330   2.460   9.328 -0.9324 -0.9493 -0.2372
  125TMC2    O1 1916   1.500   2.005   9.677 -0.1679 -0.0985  0.1051
  125TMC2    O2 1917   1.235   2.522   9.285 -0.0571  0.3044  0.2080
  125TMC2    O5 1918   1.455   2.517   9.319 -0.3542 -0.4761 -0.4056
  125TMC2    H5 1919   1.518   2.467   9.375 -0.5808 -1.2460 -0.8461
  126MPD1     C 1920   0.827   2.140  10.128 -0.1621  0.1025  0.9520
  126MPD1    C1 1921   0.878   2.025  10.070 -0.0391 -0.0164 -0.4025
  126MPD1    C2 1922   0.948   2.046   9.950  0.3896  0.2052  0.4840
  126MPD1    C3 1923   0.992   2.165   9.901  0.1649  0.0447 -0.2352
  126MPD1    C4 1924   0.952   2.275   9.972  0.3565 -0.5299 -0.0608
  126MPD1    C5 1925   0.852   2.262  10.066 -0.2728  0.5691 -1.1191
  126MPD1     H 1926   0.972   1.956   9.895  2.2792  0.3393  1.0753
  126MPD1    H1 1927   0.986   2.375   9.946 -0.6341 -0.9209 -2.8611
  126MPD1    H2 1928   0.767   2.149  10.218  0.2596 -3.3879  1.5695
  126MPD1    H3 1929   0.807   2.354  10.101 -1.2009  0.2083 -1.3687
  126MPD1     N 1930   1.074   2.162   9.781  0.1811 -0.8235 -0.5482
  126MPD1    H5 1931   1.106   2.071   9.751 -0.2553 -1.4245  0.7997
  126MPD1    N1 1932   0.822   1.902  10.108 -0.1531  0.3625  0.1114
  126MPD1    H6 1933   0.798   1.901  10.206  0.7043 -0.0275  0.3156
  126MPD1    H7 1934   0.885   1.823  10.093 -0.3130  0.6287 -2.0145
  127MPD2     C 1935   2.486   1.335  10.220 -0.2296 -0.0777  0.7698
  127MPD2    C1 1936   2.461   1.470  10.219  0.7906  0.6069  0.0178
  127MPD2    C2 1937   2.562   1.565  10.189 -0.3274 -0.5051  0.1489
  127MPD2    C3 1938   2.697   1.524  10.183  0.4171 -0.6822 -0.1134
  127MPD2    C4 1939   2.723   1.388  10.207 -0.2071 -0.9040  0.2595
  127MPD2    C5 1940   2.614   1.298  10.212  0.0505 -0.2810  0.2122
  127MPD2     H 1941   2.534   1.669  10.181  1.2603  0.1890  3.7357
  127MPD2    H1 1942   2.821   1.342  10.203  0.0233 -0.3205 -0.9002
  127MPD2    H2 1943   2.414   1.255  10.224  1.3930 -1.5605  0.6227
  127MPD2    H3 1944   2.636   1.194  10.229 -0.3203 -0.5102 -0.7481
  127MPD2     N 1945   2.797   1.625  10.169  0.3314  0.0194 -0.6021
  127MPD2    H5 1946   2.769   1.723  10.168  2.8490  0.7299 -0.4393
  127MPD2    N1 1947   2.324   1.498  10.239  0.1426 -0.7042  0.2014
  127MPD2    H7 1948   2.263   1.428  10.279 -0.6204 -0.0476  0.1771
  128TCq2    C1 1949   2.267   1.623  10.219 -0.3215  0.0787  0.7205
  128TCq2    O2 1950   2.323   1.717  10.165 -0.3380  0.1291 -0.3061
  128TCq2    C2 1951   2.139   1.648  10.283  0.5230  0.0316  0.0146
  128TCq2    C3 1952   2.103   1.775  10.299 -0.3503  0.2073  0.2472
  128TCq2    C4 1953   1.993   1.803  10.373 -0.9289  0.0749  0.5982
  128TCq2    C5 1954   1.926   1.702  10.437 -0.8705  0.3888 -0.0456
  128TCq2    C6 1955   1.946   1.574  10.399 -0.0786 -0.1105  0.5186
  128TCq2    C7 1956   2.059   1.541  10.326  0.0796  0.2096  0.2612
  128TCq2    C8 1957   1.858   1.467  10.452  0.4598  0.5709 -0.5935
  128TCq2    O4 1958   1.773   1.503  10.532  0.4100  0.3542  0.1628
  128TCq2    C9 1959   1.965   1.938  10.405 -0.8894 -0.1845 -0.2064
  128TCq2    O5 1960   2.035   2.019  10.342  0.4964 -0.2432  0.3962
  128TCq2    O6 1961   1.864   1.965  10.474 -0.5617 -0.5784 -0.5218
  128TCq2    H2 1962   2.167   1.857  10.268  4.7391 -3.3514  1.2949
  128TCq2    H3 1963   1.841   1.724  10.501  1.4296  0.0469  3.1507
  128TCq2    H4 1964   2.068   1.441  10.285  4.3987  0.4806  0.6407
  129MPD2     C 1965   4.372   1.890   1.048 -0.0160  0.0895  0.8203
  129MPD2    C1 1966   4.477   1.910   1.136 -0.3512 -0.0841  0.2907
  129MPD2    C2 1967   4.576   2.000   1.101  0.3804 -0.0404 -0.4484
  129MPD2    C3 1968   4.568   2.065   0.979 -0.2833  0.4608  0.2515
  129MPD2    C4 1969   4.467   2.039   0.892 -0.5170 -0.2386  0.3418
  129MPD2    C5 1970   4.371   1.951   0.927  0.1663 -0.0716 -0.3462
  129MPD2     H 1971   4.656   2.021   1.172 -0.9311 -0.0492  1.0279
  129MPD2    H1 1972   4.463   2.072   0.789  0.7467  1.4961  0.8562
  129MPD2    H2 1973   4.297   1.813   1.059 -1.8996  1.7980 -0.0921
  129MPD2    H3 1974   4.295   1.922   0.855  1.4553 -1.6817 -1.0486
  129MPD2     N 1975   4.668   2.149   0.934  0.0917 -0.1869 -0.7096
  129MPD2    H5 1976   4.665   2.180   0.838 -0.7278  0.6811 -0.4049
  129MPD2    N1 1977   4.499   1.839   1.257  0.3214 -0.3051 -0.1250
  129MPD2    H7 1978   4.582   1.860   1.311 -1.0939  0.5479  1.7313
  130TCq2    C1 1979   4.443   1.720   1.290 -0.1561  0.6046  0.1076
  130TCq2    O2 1980   4.357   1.652   1.234  0.2249 -0.4953  0.0863
  130TCq2    C2 1981   4.476   1.678   1.421  0.1213 -0.3517 -0.5735
  130TCq2    C3 1982   4.566   1.753   1.500 -0.5774 -0.2052 -0.0538
  130TCq2    C4 1983   4.550   1.766   1.628  0.2558  0.2888 -0.5101
  130TCq2    C5 1984   4.447   1.710   1.693 -0.0045 -0.1334  0.4343
  130TCq2    C6 1985   4.366   1.631   1.622  0.5815 -0.4330 -0.9843
  130TCq2    C7 1986   4.371   1.620   1.490  0.5486  0.2999  0.1605
  130TCq2    C8 1987   4.239   1.612   1.679 -0.0592  0.1872  0.5153
  130TCq2    O4 1988   4.167   1.523   1.639  0.0342  0.3796  0.0033
  130TCq2    C9 1989   4.652   1.841   1.703 -0.0127 -0.2860  0.0292
  130TCq2    O5 1990   4.651   1.822   1.824 -0.2617  0.1695 -0.8144
  130TCq2    O6 1991   0.009   1.914   1.640 -0.0709  0.4580  0.4537
  130TCq2    H2 1992   4.655   1.798   1.456 -1.1190  0.2268 -0.7054
  130TCq2    H3 1993   4.463   1.706   1.801  0.8885 -0.9631  0.2731
  130TCq2    H4 1994   4.295   1.564   1.437 -2.4260  1.5271  3.0989
  131MPD2     C 1995   4.374   1.033   9.463 -0.7362  0.4084  0.2307
  131MPD2    C1 1996   4.486   1.016   9.543 -0.2432  0.4883 -0.4013
  131MPD2    C2 1997   4.528   0.888   9.577  0.4519  0.2292 -0.8409
  131MPD2    C3 1998   4.450   0.780   9.541 -0.1215 -0.3886 -0.2833
  131MPD2    C4 1999   4.342   0.802   9.453 -0.3498 -0.1510 -0.7401
  131MPD2    C5 2000   4.310   0.925   9.415 -0.3472 -0.1214  1.1499
  131MPD2     H 2001   4.610   0.869   9.645  0.9763 -0.1794 -1.5917
  131MPD2    H1 2002   4.288   0.716   9.415  0.3138 -0.8932 -0.0064
  131MPD2    H2 2003   4.345   1.134   9.436 -2.6070 -0.4338 -0.8846
  131MPD2    H3 2004   4.231   0.934   9.342 -0.5776  0.4426  1.4662
  131MPD2     N 2005   4.503   0.653   9.578  0.6509  0.6989 -0.3925
  131MPD2    H5 2006   4.586   0.645   9.636  0.6223 -1.0305 -0.5702
  131MPD2    N1 2007   4.555   1.135   9.575  0.1095  0.7112 -0.1571
  131MPD2    H7 2008   4.506   1.221   9.556  2.1558  1.8071 -0.4935
  132TCq2    C1 2009   0.167   1.388   9.977  0.1123 -0.0126 -0.4144
  132TCq2    O2 2010   0.219   1.280   9.993  0.1188 -0.2388 -0.4678
  132TCq2    C2 2011   0.042   1.383   9.908 -0.0771  0.3449 -0.4033
  132TCq2    C3 2012   4.715   1.502   9.853  0.1850  0.3100  0.4826
  132TCq2    C4 2013   4.628   1.489   9.757  0.0449 -0.3459  0.0218
  132TCq2    C5 2014   4.589   1.368   9.700  0.3921  0.3217 -0.6635
  132TCq2    C6 2015   4.655   1.253   9.744 -0.0985  0.0087 -0.1305
  132TCq2    C7 2016   0.022   1.260   9.846  0.4211  0.1289 -0.0081
  132TCq2    C8 2017   4.661   1.136   9.661 -0.9915  0.5478  0.7913
  132TCq2    O4 2018   0.030   1.059   9.668  0.2496  0.5294  0.0757
  132TCq2    C9 2019   4.584   1.606   9.687  0.1731 -0.4490  0.6748
  132TCq2    O5 2020   4.531   1.586   9.576 -0.8591 -0.5554 -0.0821
  132TCq2    O6 2021   4.609   1.716   9.735  0.5572  0.4995 -0.7059
  132TCq2    H2 2022   0.013   1.602   9.887 -1.8297  0.1681  2.2895
  132TCq2    H3 2023   4.525   1.367   9.612 -0.7849  0.8852  0.1777
  132TCq2    H4 2024   0.074   1.170   9.878  0.2958 -0.2411 -0.8374
  133MPD2     C 2025   3.340   0.985   9.639 -0.2074  0.3539  0.0742
  133MPD2    C1 2026   3.292   1.095   9.575  0.6571  0.4152 -0.8281
  133MPD2    C2 2027   3.385   1.179   9.524 -0.0731 -0.0056 -0.8129
  133MPD2    C3 2028   3.525   1.155   9.543 -0.6442  0.7179  0.2536
  133MPD2    C4 2029   3.567   1.052   9.627  0.4426 -0.6045 -0.1751
  133MPD2    C5 2030   3.474   0.967   9.669 -0.5142 -0.1841  0.0984
  133MPD2     H 2031   3.355   1.253   9.451  1.2881  0.5760 -0.7830
  133MPD2    H1 2032   3.672   1.034   9.648  0.3381 -0.2145  0.7082
  133MPD2    H2 2033   3.271   0.907   9.672  2.4003 -1.4111  1.3392
  133MPD2    H3 2034   3.512   0.872   9.705  0.6698 -0.1991 -1.2124
  133MPD2     N 2035   3.624   1.235   9.483  0.3888 -0.1468  0.6552
  133MPD2    H5 2036   3.718   1.232   9.520  0.4665  2.4123  0.6457
  133MPD2    N1 2037   3.155   1.103   9.545  0.1885 -0.2091 -0.2748
  133MPD2    H7 2038   3.100   1.031   9.590 -0.6885  1.5687  1.4876
  134TCq2    C1 2039   3.090   1.212   9.492  0.1199  0.1920 -0.5470
  134TCq2    O2 2040   3.135   1.316   9.447 -0.2656  0.3579 -0.1082
  134TCq2    C2 2041   2.948   1.203   9.515 -1.1661 -0.7304 -0.1029
  134TCq2    C3 2042   2.898   1.081   9.554  0.2832  0.4625  0.0349
  134TCq2    C4 2043   2.762   1.065   9.550 -0.4833  0.9606 -0.2888
  134TCq2    C5 2044   2.673   1.161   9.502  0.2020 -0.1308 -0.3792
  134TCq2    C6 2045   2.724   1.280   9.471 -0.0372 -0.4687  0.2882
  134TCq2    C7 2046   2.863   1.301   9.474 -0.2316  0.3880  0.8446
  134TCq2    C8 2047   2.635   1.392   9.448 -0.4242 -0.4868  0.4076
  134TCq2    O4 2048   2.681   1.500   9.423  0.2624 -0.1742 -0.1493
  134TCq2    C9 2049   2.701   0.941   9.593  0.3729 -0.2857  0.1930
  134TCq2    O5 2050   2.773   0.857   9.652 -0.0581 -0.0706 -0.1654
  134TCq2    O6 2051   2.574   0.938   9.592 -0.1896 -0.5681 -0.6670
  134TCq2    H2 2052   2.957   0.996   9.586  0.4056  1.2304  1.8985
  134TCq2    H3 2053   2.570   1.130   9.489 -0.0694  1.1214 -1.2255
  134TCq2    H4 2054   2.908   1.398   9.456  0.4221  0.0975  0.9362
  135MPD2     C 2055   1.827   3.198   9.115  0.0348 -0.0874  0.8009
  135MPD2    C1 2056   1.738   3.107   9.160 -0.2094  0.0509  0.6477
  135MPD2    C2 2057   1.750   2.972   9.126 -0.9203  0.5526  0.1412
  135MPD2    C3 2058   1.867   2.930   9.067 -0.0540 -0.0078 -0.6022
  135MPD2    C4 2059   1.967   3.025   9.037 -0.2482  0.5518 -0.5068
  135MPD2    C5 2060   1.938   3.155   9.048  0.4251  0.2903  0.2044
  135MPD2     H 2061   1.668   2.907   9.155 -1.7586  1.6550  0.2490
  135MPD2    H1 2062   2.059   2.991   8.991 -1.2846 -1.5481 -1.0437
  135MPD2    H2 2063   1.807   3.304   9.122 -0.5763 -0.0943 -0.6746
  135MPD2    H3 2064   2.015   3.227   9.021  2.6405 -2.4580 -0.8334
  135MPD2     N 2065   1.905   2.794   9.045  0.8232 -0.0908 -0.2684
  135MPD2    H5 2066   1.998   2.784   9.005  0.8270 -0.5195 -0.1518
  135MPD2    N1 2067   1.629   3.143   9.248  0.7952  0.1455 -0.0323
  135MPD2    H7 2068   1.567   3.068   9.277  1.2615 -0.1848  0.0999
  136TCq2    C1 2069   1.589   3.273   9.290  0.1363 -0.7511  0.7300
  136TCq2    O2 2070   1.630   3.384   9.268 -0.1476 -0.6319 -0.3767
  136TCq2    C2 2071   1.466   3.257   9.367 -0.2079 -0.1155 -0.4684
  136TCq2    C3 2072   1.373   3.359   9.355 -0.8573 -0.5544 -0.2431
  136TCq2    C4 2073   1.276   3.377   9.448  0.2617  0.3568 -0.1539
  136TCq2    C5 2074   1.273   3.290   9.552  0.3803 -0.2732 -0.0428
  136TCq2    C6 2075   1.353   3.181   9.551 -0.5158  0.1581  0.3825
  136TCq2    C7 2076   1.459   3.167   9.468  0.0831  0.0043  0.8372
  136TCq2    C8 2077   1.336   3.069   9.639 -0.3676  0.2635 -0.2780
  136TCq2    O4 2078   1.435   3.002   9.665 -0.5901 -0.4017  0.5781
  136TCq2    C9 2079   1.184   3.492   9.436  0.1646  0.4023  0.1792
  136TCq2    O5 2080   1.075   3.480   9.500 -0.1666  0.6972  0.1030
  136TCq2    O6 2081   1.216   3.590   9.367 -0.5719  0.0842  0.2606
  136TCq2    H2 2082   1.393   3.427   9.274 -0.6127  0.0550  0.3351
  136TCq2    H3 2083   1.188   3.297   9.619  1.1560 -2.2295  1.1364
  136TCq2    H4 2084   1.524   3.081   9.469  1.0913  0.7551 -0.3843
  137MPD2     C 2085   1.384   1.586   9.886 -0.0881  0.0104  0.4186
  137MPD2    C1 2086   1.430   1.709   9.843  0.0842 -0.2641 -0.2923
  137MPD2    C2 2087   1.424   1.819   9.930 -0.1444  0.6287 -0.3991
  137MPD2    C3 2088   1.361   1.801  10.051  0.1674 -0.0047 -0.1548
  137MPD2    C4 2089   1.320   1.673  10.088  0.0714  0.4409  0.4548
  137MPD2    C5 2090   1.329   1.562  10.007 -0.1445  0.3499  0.8649
  137MPD2     H 2091   1.444   1.917   9.887  0.1651  0.3708 -0.8437
  137MPD2    H1 2092   1.274   1.670  10.186  0.1073 -0.1307  0.4539
  137MPD2    H2 2093   1.399   1.496   9.828 -0.7409 -0.7280  1.3831
  137MPD2    H3 2094   1.300   1.463  10.040 -0.9602  0.4609  0.4787
  137MPD2     N 2095   1.339   1.920  10.122  0.3739 -0.1001  0.1258
  137MPD2    H5 2096   1.388   2.004  10.094  1.6348 -0.7008  0.5530
  137MPD2    N1 2097   1.475   1.726   9.712  0.1362 -0.1487 -0.0577
  137MPD2    H7 2098   1.484   1.824   9.686 -2.5068  0.2367  0.5234
  138TCq2    C1 2099   1.501   1.625   9.614 -0.9688  0.6333 -0.7812
  138TCq2    O2 2100   1.510   1.507   9.640  0.2359  0.1555  0.1727
  138TCq2    C2 2101   1.521   1.672   9.477 -0.4653 -0.2519 -0.1032
  138TCq2    C3 2102   1.606   1.604   9.394 -0.4093 -0.5097 -0.3979
  138TCq2    C4 2103   1.640   1.664   9.282 -0.3798 -0.2928  0.6050
  138TCq2    C5 2104   1.575   1.779   9.238 -0.2549 -0.2919 -0.8736
  138TCq2    C6 2105   1.472   1.840   9.312  0.4014 -0.6421  0.1094
  138TCq2    C7 2106   1.455   1.784   9.440 -0.0829 -0.1689 -0.6589
  138TCq2    C8 2107   1.384   1.941   9.255 -0.2209 -0.6595  0.1977
  138TCq2    O4 2108   1.419   1.989   9.150 -0.4366 -0.6024  0.3566
  138TCq2    C9 2109   1.745   1.599   9.202 -0.6777  0.4029 -0.4505
  138TCq2    O5 2110   1.806   1.501   9.252  0.1467 -0.4122  0.2362
  138TCq2    O6 2111   1.773   1.645   9.093  1.0298  0.3610 -0.7074
  138TCq2    H2 2112   1.656   1.514   9.430 -0.7196 -0.5291 -0.0206
  138TCq2    H3 2113   1.603   1.814   9.140  1.6244  0.0529 -0.2219
  138TCq2    H4 2114   1.380   1.824   9.507  1.1605 -1.0419  1.2556
  139TMC2    C1 2115   1.616   0.299  13.200 -0.1923  0.0070  0.5171
  139TMC2    C2 2116   1.582   0.273  13.072 -0.4531  0.0697 -0.5922
  139TMC2    C3 2117   1.482   0.340  13.022  0.2343 -0.0209 -0.5672
  139TMC2    C4 2118   1.534   0.377  13.278  0.2895  0.2672 -0.3169
  139TMC2    C5 2119   1.436   0.447  13.220  0.9686  0.4435 -0.1465
  139TMC2    C6 2120   1.403   0.428  13.091 -0.0801  0.5053 -0.8562
  139TMC2     C 2121   1.714   0.211  13.268 -0.3962 -0.1763 -0.2468
  139TMC2     O 2122   1.755   0.106  13.223  0.0145  0.4779  0.4706
  139TMC2     H 2123   1.629   0.201  13.005 -1.9871 -1.6606  0.1673
  139TMC2    H1 2124   1.549   0.391  13.385 -2.2260 -1.2776  0.2616
  139TMC2    H2 2125   1.317   0.473  13.044  0.3864  1.2798 -0.9670
  139TMC2    C7 2126   1.361   0.556  13.281 -0.7435  0.2256  0.4723
  139TMC2    C8 2127   1.474   0.345  12.882  0.3704 -0.0968  0.2467
  139TMC2    O1 2128   1.261   0.597  13.226 -0.1143  0.2069  0.3895
  139TMC2    O2 2129   1.516   0.260  12.803 -0.0539  0.0322  0.1153
  139TMC2    O5 2130   1.462   0.473  12.859  0.8039 -0.2666  0.4676
  139TMC2    H5 2131   1.466   0.532  12.937 -2.6402 -0.9487  1.1248
  140MPD2     C 2132   1.881   0.294  13.582 -0.3867  0.0688 -0.1939
  140MPD2    C1 2133   1.861   0.226  13.465 -0.4026 -0.1260  0.3545
  140MPD2    C2 2134   1.936   0.115  13.446  0.4429 -0.3855 -0.3640
  140MPD2    C3 2135   2.021   0.067  13.544 -0.7109  0.4190  0.0347
  140MPD2    C4 2136   2.052   0.139  13.657 -0.2282 -0.4717 -0.2335
  140MPD2    C5 2137   1.977   0.252  13.673 -0.0013 -0.6309 -0.2966
  140MPD2     H 2138   1.927   0.061  13.353  1.4045 -1.0051 -0.1047
  140MPD2    H1 2139   2.090   0.101  13.751 -2.2185 -1.7990  0.0250
  140MPD2    H2 2140   1.829   0.386  13.604  0.2294  0.0028  1.5954
  140MPD2    H3 2141   2.006   0.318  13.754  0.3334 -1.0936 -0.0360
  140MPD2     N 2142   2.072   4.661  13.525  0.3417 -0.1784 -0.7261
  140MPD2    H5 2143   2.050   4.621  13.434 -0.2808  0.2911 -0.7829
  140MPD2    N1 2144   1.756   0.271  13.384  0.4430  0.0952 -0.3484
  140MPD2    H7 2145   1.711   0.357  13.412 -0.2159 -0.3531 -0.0106
  141TCq2    C1 2146   2.390   1.112  13.774 -0.1899  0.1477  0.2904
  141TCq2    O2 2147   2.497   1.085  13.730 -0.0657 -0.1107  0.2862
  141TCq2    C2 2148   2.370   1.118  13.919  0.2487  0.1765 -0.0821
  141TCq2    C3 2149   2.464   1.062  14.001 -0.6058  0.2947  0.0298
  141TCq2    C4 2150   2.472   1.103  14.133 -1.0186  0.5655 -0.3513
  141TCq2    C5 2151   2.390   1.205  14.183 -0.0429 -0.2658  0.1102
  141TCq2    C6 2152   2.299   1.255  14.092 -0.4597 -0.1939 -0.8597
  141TCq2    C7 2153   2.288   1.212  13.966  0.1924 -0.3452 -0.1253
  141TCq2    C8 2154   2.275   1.395  14.115  0.0819  0.5184  1.1345
  141TCq2    O4 2155   2.196   1.451  14.038  0.7737 -0.5238 -0.7786
  141TCq2    C9 2156   2.571   1.041  14.219  0.5789 -0.0560 -0.9200
  141TCq2    O5 2157   2.580   1.081  14.340  0.5120  0.0258 -0.2918
  141TCq2    O6 2158   2.628   0.946  14.161  0.2132  0.2195 -0.0960
  141TCq2    H2 2159   2.541   0.999  13.957 -1.5225 -1.8865  1.5179
  141TCq2    H3 2160   2.400   1.241  14.285  0.8481 -0.8351  0.2237
  141TCq2    H4 2161   2.224   1.266  13.898  0.6061  1.0318  0.5678
  142MPD2     C 2162   4.354   4.489   9.487  0.5250 -0.0168  0.5190
  142MPD2    C1 2163   4.363   4.359   9.442 -0.5426 -0.2864 -0.0061
  142MPD2    C2 2164   4.445   4.322   9.341  0.2341  0.0329  0.1671
  142MPD2    C3 2165   4.526   4.419   9.280  0.0893 -0.6086 -0.1795
  142MPD2    C4 2166   4.513   4.551   9.320 -0.4245 -0.5619 -0.3116
  142MPD2    C5 2167   4.428   4.582   9.425  0.3045  0.1344 -0.0811
  142MPD2     H 2168   4.453   4.219   9.309 -1.3625 -0.3248  0.8907
  142MPD2    H1 2169   4.564   4.636   9.276  2.0163 -1.8917 -0.0361
  142MPD2    H2 2170   4.302   4.523   9.575 -0.9815  1.9372 -1.1341
  142MPD2    H3 2171   4.424   4.681   9.467  0.5714  0.8941 -1.8308
  142MPD2     N 2172   4.621   4.404   9.180 -0.0019 -0.1613 -0.0125
  142MPD2    H5 2173   4.663   4.489   9.145 -2.1795  1.2760  0.7939
  142MPD2    N1 2174   4.300   4.266   9.528  0.0269 -0.2437 -0.0452
  142MPD2    H7 2175   4.267   4.308   9.615 -1.8006  0.5112 -1.0842
  143TCq2    C1 2176   4.649   4.290   9.108  0.0608 -0.0349 -0.3690
  143TCq2    O2 2177   4.602   4.182   9.123 -0.1569 -0.2016  0.0924
  143TCq2    C2 2178   0.011   4.311   8.993  0.0727  0.6627 -0.4945
  143TCq2    C3 2179   0.015   4.206   8.904  0.0305 -0.1384 -0.1848
  143TCq2    C4 2180   0.095   4.210   8.800  0.2409 -0.1558  0.2369
  143TCq2    C5 2181   0.187   4.312   8.790 -0.8487 -0.3535 -0.3664
  143TCq2    C6 2182   0.192   4.410   8.892 -1.0020  0.3116 -0.1865
  143TCq2    C7 2183   0.102   4.407   8.996  1.2244  0.2764  0.7013
  143TCq2    C8 2184   0.317   4.489   8.914  0.0315 -0.2191  0.5723
  143TCq2    O4 2185   0.314   4.551   9.018  0.1941 -0.0253  0.0950
  143TCq2    C9 2186   0.096   4.109   8.696 -1.0863  0.5211 -0.0881
  143TCq2    O5 2187   0.173   4.117   8.595  0.2915 -0.6529  0.0165
  143TCq2    O6 2188   0.025   4.008   8.719 -0.3239 -0.3104  0.6697
  143TCq2    H2 2189   4.670   4.125   8.911  0.5317 -0.3958  1.9092
  143TCq2    H3 2190   0.249   4.316   8.701  2.1905 -0.4996  1.7364
  143TCq2    H4 2191   0.108   4.483   9.074  1.2115  1.4931 -0.4904
  144MPD2     C 2192   2.370   3.600  17.679  0.1320  0.1485  0.2130
  144MPD2    C1 2193   2.422   3.477  17.662  0.9569 -0.5197 -0.6326
  144MPD2    C2 2194   2.525   3.436   0.041  0.5992 -0.4471  0.5020
  144MPD2    C3 2195   2.575   3.523   0.138 -0.2803 -0.3740  0.2596
  144MPD2    C4 2196   2.514   3.637   0.164 -0.1322  0.0655 -0.8728
  144MPD2    C5 2197   2.408   3.680   0.084 -0.7267  0.3433 -0.3037
  144MPD2     H 2198   2.548   3.331   0.035 -1.2162 -0.9424  2.4162
  144MPD2    H1 2199   2.555   3.701   0.242  2.3704 -2.4111 -0.1607
  144MPD2    H2 2200   2.283   3.632  17.624 -0.1768  2.0481  1.8123
  144MPD2    H3 2201   2.369   3.779   0.105 -1.2080 -0.7257  3.8225
  144MPD2     N 2202   2.687   3.497   0.218  0.4783 -0.4062 -0.3331
  144MPD2    H5 2203   2.718   3.573   0.278  2.1268 -1.7137  0.4605
  144MPD2    N1 2204   2.379   3.387  17.565 -0.0714 -0.4094 -0.5682
  144MPD2    H7 2205   2.419   3.294  17.563 -0.4037 -0.5044 -2.5986
  145TCq2    C1 2206   2.757   3.380   0.218 -0.4690  0.4256 -0.2301
  145TCq2    O2 2207   2.744   3.286   0.140 -0.1770  0.7248 -0.6770
  145TCq2    C2 2208   2.875   3.385   0.303 -0.1501 -0.4307  0.6378
  145TCq2    C3 2209   2.956   3.286   0.265  0.4328 -0.0436 -0.3883
  145TCq2    C4 2210   3.092   3.290   0.290  0.5364 -0.0880 -0.4871
  145TCq2    C5 2211   3.138   3.411   0.345  0.6831 -0.3287  0.3679
  145TCq2    C6 2212   3.053   3.515   0.373  0.6088  0.4453  0.4728
  145TCq2    C7 2213   2.920   3.500   0.366 -0.0684 -0.5133  0.4523
  145TCq2    C8 2214   3.119   3.635   0.423  0.2163  0.8956  0.3228
  145TCq2    O4 2215   3.242   3.642   0.407 -0.6993 -0.1133 -0.0889
  145TCq2    C9 2216   3.180   3.182   0.250  0.5918 -0.4107 -0.6890
  145TCq2    O5 2217   3.277   3.165   0.328 -0.5357  0.1267  0.1496
  145TCq2    O6 2218   3.135   3.093   0.171  1.0833  0.4906 -0.4504
  145TCq2    H2 2219   2.929   3.191   0.220 -1.3758  0.9151 -1.3164
  145TCq2    H3 2220   3.244   3.418   0.366  1.1718 -0.6554 -2.0492
  145TCq2    H4 2221   2.852   3.582   0.390  0.7081  0.2735 -0.0330
  146TMC2    C1 2222   4.245   2.475  12.151  0.6337  0.0019  0.5300
  146TMC2    C2 2223   4.204   2.478  12.016 -0.6443  0.3566  0.2795
  146TMC2    C3 2224   4.290   2.432  11.917  0.1072  0.2782 -0.0651
  146TMC2    C4 2225   4.372   2.428  12.179  0.5003 -0.2730  0.4281
  146TMC2    C5 2226   4.445   2.368  12.080 -0.6126  0.3088  0.1462
  146TMC2    C6 2227   4.409   2.374  11.949  0.8447  0.4991 -0.5595
  146TMC2     C 2228   4.176   2.549  12.252 -0.0388  0.3175  0.9262
  146TMC2     O 2229   4.088   2.620  12.207  0.0024 -0.0039  0.3694
  146TMC2     H 2230   4.103   2.506  11.992 -1.5752 -2.1274  1.2038
  146TMC2    H1 2231   4.403   2.427  12.283 -1.2792 -0.0844  0.9700
  146TMC2    H2 2232   4.473   2.327  11.875 -0.1371 -0.9881 -0.4446
  146TMC2    C7 2233   4.582   2.324  12.106  0.2497  0.9173 -0.1769
  146TMC2    C8 2234   4.234   2.407  11.783  0.2378 -0.3365  0.1100
  146TMC2    O1 2235   4.654   2.306  12.008  0.8063 -0.0899 -0.0096
  146TMC2    O2 2236   4.258   2.307  11.719  0.0759 -0.1344  0.6039
  146TMC2    O5 2237   4.143   2.498  11.750  0.5361  0.5656  0.5491
  146TMC2    H5 2238   4.156   2.584  11.795 -0.2666  0.9360  0.0691
  147MPD2     C 2239   0.279   2.231  12.388  0.0741 -0.8659  0.1153
  147MPD2    C1 2240   0.167   2.240  12.471  0.4480  0.1793  0.1696
  147MPD2    C2 2241   0.044   2.279  12.420 -0.0341 -0.2857 -0.5192
  147MPD2    C3 2242   0.034   2.295  12.281  0.0613 -0.4478 -0.0699
  147MPD2    C4 2243   0.151   2.280  12.199  0.3095 -0.4058 -0.2066
  147MPD2    C5 2244   0.269   2.250  12.251  0.1186  0.2382  0.7324
  147MPD2     H 2245   4.678   2.294  12.475 -0.9426  0.2103 -2.1734
  147MPD2    H1 2246   0.135   2.285  12.092  0.9385 -0.4910 -0.3028
  147MPD2    H2 2247   0.372   2.203  12.435  0.1354  0.5724  0.8307
  147MPD2    H3 2248   0.360   2.235  12.194 -0.0059  0.3590  0.5025
  147MPD2     N 2249   4.629   2.326  12.240  0.4872 -0.0170  0.3846
  147MPD2    H5 2250   4.560   2.330  12.314 -0.6761  0.6958 -0.7375
  147MPD2    N1 2251   0.195   2.230  12.616 -0.7175 -0.0761 -0.7697
  147MPD2    H7 2252   0.292   2.223  12.647 -0.5632  0.7871 -1.0323
  148MPD2     C 2253   4.653   1.735  10.610 -0.1169 -0.1412 -0.1589
  148MPD2    C1 2254   4.702   1.625  10.542 -0.2964 -0.2847  0.1338
  148MPD2    C2 2255   4.615   1.527  10.495 -0.6835 -0.9373 -0.3302
  148MPD2    C3 2256   4.477   1.534  10.510  0.1179 -0.2992 -0.2951
  148MPD2    C4 2257   4.425   1.649  10.576  0.4370 -0.3950  0.6142
  148MPD2    C5 2258   4.519   1.742  10.630  0.4589 -0.5677  0.2455
  148MPD2     H 2259   4.662   1.443  10.445  1.8852 -0.1982  0.8411
  148MPD2    H1 2260   4.323   1.680  10.591  1.2504  2.3208  0.5410
  148MPD2    H2 2261   4.721   1.812  10.645  1.1098 -0.2202 -2.3221
  148MPD2    H3 2262   4.483   1.829  10.684  3.1150  2.0482 -2.1826
  148MPD2     N 2263   4.384   1.446  10.448  0.0749  0.6361  0.3707
  148MPD2    H5 2264   4.290   1.482  10.437  0.3055  1.1911  0.1872
  148MPD2    N1 2265   0.109   1.606  10.500  0.0003  0.2167 -0.4246
  148MPD2    H7 2266   0.137   1.522  10.451  0.4171 -1.3921  2.5990
  149TCq2    C1 2267   0.209   1.701  10.515  0.0274 -1.0320  0.6716
  149TCq2    O2 2268   0.203   1.811  10.572 -0.3928 -0.1749  0.4124
  149TCq2    C2 2269   0.330   1.666  10.443 -0.0537  0.1657  0.1647
  149TCq2    C3 2270   0.438   1.676  10.527 -0.7261  0.5904  0.0464
  149TCq2    C4 2271   0.514   1.562  10.553 -0.1417  0.4300  0.6730
  149TCq2    C5 2272   0.502   1.448  10.477 -0.0304 -0.2334  0.0265
  149TCq2    C6 2273   0.399   1.443  10.389 -0.4293 -0.2337 -0.3771
  149TCq2    C7 2274   0.310   1.549  10.372  0.3640  0.2469  0.3091
  149TCq2    C8 2275   0.355   1.320  10.328 -0.8840 -0.3506 -0.0646
  149TCq2    O4 2276   0.231   1.311  10.311 -0.1238 -0.5125 -0.5554
  149TCq2    C9 2277   0.649   1.585  10.601  0.0365 -0.3075  0.2946
  149TCq2    O5 2278   0.698   1.702  10.610  0.5028  0.5696 -0.3156
  149TCq2    O6 2279   0.724   1.490  10.592 -0.0233 -0.1376 -0.7683
  149TCq2    H2 2280   0.450   1.771  10.577 -0.1833  1.0133 -0.8786
  149TCq2    H3 2281   0.571   1.366  10.494  1.4396  0.9144 -0.3968
  149TCq2    H4 2282   0.226   1.541  10.304 -1.3820  2.5447  2.2285
  150MPD2     C 2283   1.363   0.540  11.664 -0.3246 -0.4220 -0.6127
  150MPD2    C1 2284   1.382   0.642  11.568  0.1466 -0.6955 -0.2491
  150MPD2    C2 2285   1.506   0.702  11.559 -0.6262 -0.1703  0.0218
  150MPD2    C3 2286   1.604   0.678  11.651 -0.8149  0.3139 -0.3628
  150MPD2    C4 2287   1.573   0.592  11.756 -0.0859 -0.3087 -0.7036
  150MPD2    C5 2288   1.455   0.520  11.765  0.0529  0.4624 -0.2082
  150MPD2     H 2289   1.531   0.773  11.481  2.0247  0.7031  1.6695
  150MPD2    H1 2290   1.635   0.568  11.841 -0.5081  0.6942 -0.1131
  150MPD2    H2 2291   1.273   0.478  11.660  0.5264 -1.8158  1.6040
  150MPD2    H3 2292   1.436   0.450  11.845  2.5451  1.3191  1.1641
  150MPD2     N 2293   1.725   0.748  11.636 -0.7163  0.4947  0.0977
  150MPD2    H5 2294   1.718   0.814  11.558 -2.5666 -0.0460 -0.1978
  150MPD2    N1 2295   1.272   0.672  11.485 -0.5031 -0.0228 -0.4303
  150MPD2    H7 2296   1.184   0.629  11.512  0.4735 -1.3991  0.5474
  151TCq2    C1 2297   1.839   0.742  11.716  0.3965  0.4170 -0.2997
  151TCq2    O2 2298   1.864   0.673  11.814  0.1032  0.2950 -0.0276
  151TCq2    C2 2299   1.949   0.836  11.691 -0.2770  0.0737  0.8133
  151TCq2    C3 2300   1.978   0.890  11.570 -0.0435  0.1681 -0.7900
  151TCq2    C4 2301   2.092   0.967  11.569  0.3879 -0.1951 -0.3860
  151TCq2    C5 2302   2.164   0.999  11.672 -0.6416 -0.2367  0.6378
  151TCq2    C6 2303   2.132   0.947  11.793  0.6728  0.2843  0.6949
  151TCq2    C7 2304   2.021   0.868  11.802 -0.0505  0.2690  0.0788
  151TCq2    C8 2305   2.210   0.989  11.905  0.1113  0.7592 -0.2453
  151TCq2    O4 2306   2.271   1.099  11.892  0.6095  0.2818  0.0054
  151TCq2    C9 2307   2.132   1.025  11.443  0.4376  0.3053 -0.1429
  151TCq2    O5 2308   2.235   1.095  11.441 -0.0163  0.6104  0.0682
  151TCq2    O6 2309   2.073   0.991  11.337  0.5068 -0.6388 -0.3411
  151TCq2    H2 2310   1.916   0.862  11.486  1.5054 -0.9035 -1.5806
  151TCq2    H3 2311   2.248   1.066  11.659 -0.6064  0.0074  2.1238
  151TCq2    H4 2312   1.998   0.818  11.895  0.9972 -0.8397 -0.2588
  152MPD2     C 2313   1.029   0.073  12.501  0.4598 -0.1335  0.2442
  152MPD2    C1 2314   1.078   0.170  12.425  0.7225 -1.1298 -0.7142
  152MPD2    C2 2315   0.998   0.241  12.333 -0.2642 -0.3166 -1.0300
  152MPD2    C3 2316   0.864   0.207  12.319  0.3390  0.3072  0.0961
  152MPD2    C4 2317   0.817   0.102  12.396  0.0964 -0.3659 -0.7168
  152MPD2    C5 2318   0.896   0.043  12.488 -0.6901  0.4854  0.0236
  152MPD2     H 2319   1.031   0.313  12.260  0.5539 -2.5242 -2.8206
  152MPD2    H1 2320   0.720   0.056  12.378  1.4992 -2.6889 -2.2660
  152MPD2    H2 2321   1.091   0.015  12.568 -1.3798 -1.3470  0.9020
  152MPD2    H3 2322   0.872   4.676  12.540  0.1035  1.4463  2.0908
  152MPD2     N 2323   0.783   0.276  12.226  0.2158 -0.5296  0.2470
  152MPD2    H5 2324   0.829   0.353  12.179  1.1474 -0.3731  1.4096
  152MPD2    N1 2325   1.212   0.200  12.451  0.5419 -0.2323  0.4154
  152MPD2    H7 2326   1.262   0.132  12.508  2.2455  0.2990 -0.4683
  153TCq2    C1 2327   1.286   0.313  12.412  0.6236  0.2822 -1.4116
  153TCq2    O2 2328   1.243   0.422  12.371 -0.0969  0.1088 -0.2818
  153TCq2    C2 2329   1.415   0.311  12.478  0.0434  0.7632 -0.4708
  153TCq2    C3 2330   1.508   0.215  12.440 -0.1696  0.4838 -0.1490
  153TCq2    C4 2331   1.642   0.246  12.448 -0.1542  0.6083  0.3735
  153TCq2    C5 2332   1.682   0.368  12.508 -0.1174  0.2422  0.0518
  153TCq2    C6 2333   1.588   0.455  12.544 -0.6534  0.7321 -0.2758
  153TCq2    C7 2334   1.450   0.430  12.523 -0.5360  0.7829 -0.4996
  153TCq2    C8 2335   1.627   0.578  12.615 -0.6128 -0.5048 -0.4488
  153TCq2    O4 2336   1.549   0.676  12.605 -0.1027 -0.7007  0.2887
  153TCq2    C9 2337   1.747   0.156  12.409  0.4820 -0.3680 -0.0797
  153TCq2    O5 2338   1.704   0.043  12.369  0.0088  0.1082 -0.1385
  153TCq2    O6 2339   1.865   0.201  12.409  0.2997 -0.1288  0.1109
  153TCq2    H2 2340   1.479   0.129  12.382  3.1990  0.6058 -2.0258
  153TCq2    H3 2341   1.787   0.386  12.532 -0.3385  3.4775 -1.3401
  153TCq2    H4 2342   1.383   0.507  12.560  0.9409  1.5364  0.6423
  154MPD2     C 2343   2.508   0.293   0.360  0.1698 -0.1569 -0.2163
  154MPD2    C1 2344   2.477   0.301   0.495 -0.1132 -0.0942 -0.2304
  154MPD2    C2 2345   2.343   0.303   0.525 -0.3133 -0.4949  0.1011
  154MPD2    C3 2346   2.239   0.315   0.433 -0.5920 -0.6785  0.0341
  154MPD2    C4 2347   2.275   0.308   0.298 -0.2466  0.0943 -0.3423
  154MPD2    C5 2348   2.411   0.299   0.263 -0.2223 -0.6591  0.1550
  154MPD2     H 2349   2.311   0.316   0.627  1.6700  0.5369  0.5915
  154MPD2    H1 2350   2.197   0.302   0.223 -2.0289  0.8720  1.4552
  154MPD2    H2 2351   2.613   0.296   0.333  0.8308  1.0698  2.3946
  154MPD2    H3 2352   2.437   0.283   0.159 -1.2773 -1.3408  0.0028
  154MPD2     N 2353   2.105   0.310   0.475 -0.5431 -0.1222 -0.1320
  154MPD2    H5 2354   2.092   0.307   0.575  1.0069 -0.0077  0.0736
  154MPD2    N1 2355   2.581   0.309   0.589 -0.7579  0.6894  0.4749
  154MPD2    H7 2356   2.675   0.313   0.552 -1.3261  0.4164 -0.9947
  155TCq2    C1 2357   2.569   0.309   0.730  0.8538 -0.3385  0.4631
  155TCq2    O2 2358   2.469   0.313   0.802 -0.3509  0.3927  0.0206
  155TCq2    C2 2359   2.701   0.287   0.806 -0.2840 -0.5544  0.1164
  155TCq2    C3 2360   2.688   0.319   0.940  0.7150  1.0860  0.1775
  155TCq2    C4 2361   2.784   0.281   1.029  0.7764  0.5499  0.4188
  155TCq2    C5 2362   2.896   0.215   0.990  0.1236 -0.1626  0.2346
  155TCq2    C6 2363   2.904   0.182   0.856 -0.0145  1.0136 -0.1623
  155TCq2    C7 2364   2.807   0.210   0.761 -0.9466  0.0637 -0.2641
  155TCq2    C8 2365   3.022   0.111   0.804 -0.0448 -0.2330  0.0840
  155TCq2    O4 2366   3.015   0.052   0.699  0.0645  0.3325  0.0041
  155TCq2    C9 2367   2.766   0.313   1.170 -0.6965  0.2405 -0.1117
  155TCq2    O5 2368   2.662   0.369   1.214 -0.5768  0.0556 -0.2569
  155TCq2    O6 2369   2.851   0.258   1.246 -0.4440 -0.7872  0.0262
  155TCq2    H2 2370   2.609   0.385   0.975 -1.8386 -1.1782 -1.3411
  155TCq2    H3 2371   2.963   0.164   1.058 -1.0840 -1.3791  0.5187
  155TCq2    H4 2372   2.817   0.179   0.658  3.0074  2.6047 -0.6308
  156MPD2     C 2373   2.116   3.233  12.186 -0.2429 -0.0616 -0.4540
  156MPD2    C1 2374   2.043   3.227  12.075 -0.0615  0.2664 -0.2355
  156MPD2    C2 2375   1.934   3.314  12.071  0.6404  0.2655  0.4854
  156MPD2    C3 2376   1.901   3.413  12.167 -0.9560 -0.0685  0.2713
  156MPD2    C4 2377   1.980   3.415  12.282 -0.0617 -0.4512 -0.8399
  156MPD2    C5 2378   2.077   3.320  12.295  0.0673  0.9958 -1.1075
  156MPD2     H 2379   1.877   3.317  11.979  1.8907  1.7000 -0.2298
  156MPD2    H1 2380   1.974   3.496  12.353 -0.2638 -1.2265  0.0248
  156MPD2    H2 2381   2.207   3.174  12.192  0.5725  1.0916 -1.4495
  156MPD2    H3 2382   2.134   3.318  12.387 -1.8309  0.6126  0.0412
  156MPD2     N 2383   1.782   3.490  12.147  0.0679 -0.7580 -0.1702
  156MPD2    H5 2384   1.734   3.469  12.060  1.6155  3.2745 -1.9756
  156MPD2    N1 2385   2.063   3.129  11.975  0.7086 -0.3455  0.6411
  156MPD2    H7 2386   2.130   3.055  11.995 -0.6671 -1.8194 -0.1804
  157TCq2    C1 2387   1.982   3.097  11.864 -0.0605  0.2070  0.1717
  157TCq2    O2 2388   1.901   3.165  11.802  0.2268  0.3273  0.2076
  157TCq2    C2 2389   2.023   2.976  11.803 -0.3201 -0.4985  0.1618
  157TCq2    C3 2390   2.148   2.922  11.834 -0.2491 -0.2175  0.2512
  157TCq2    C4 2391   2.177   2.800  11.774 -0.0639 -0.9313 -0.1028
  157TCq2    C5 2392   2.091   2.744  11.673  0.3889 -0.0794 -0.4406
  157TCq2    C6 2393   1.977   2.809  11.641  0.0552  0.0078  0.1334
  157TCq2    C7 2394   1.942   2.924  11.700  0.1194  0.2495  0.2894
  157TCq2    C8 2395   1.877   2.754  11.549 -0.4087  0.2327  0.1538
  157TCq2    O4 2396   1.885   2.636  11.518  0.5275 -0.1249 -0.2465
  157TCq2    C9 2397   2.291   2.725  11.812 -0.2777  0.2465  0.0322
  157TCq2    O5 2398   2.367   2.683  11.718 -0.0921 -0.3457 -0.2265
  157TCq2    O6 2399   2.327   2.745  11.927  0.2836  0.1845 -0.3476
  157TCq2    H2 2400   2.221   2.955  11.906  0.0429  0.7090 -0.4808
  157TCq2    H3 2401   2.121   2.653  11.622  0.9326 -0.6201  0.8519
  157TCq2    H4 2402   1.845   2.972  11.691  0.7985  1.7964  1.1520
  158TMC2    C1 2403   2.193   1.560  13.079 -0.2382 -0.6631  0.4944
  158TMC2    C2 2404   2.281   1.545  12.972  0.1573  0.1239  1.3897
  158TMC2    C3 2405   2.219   1.537  12.852  0.0471 -0.1166  0.4130
  158TMC2    C4 2406   2.055   1.560  13.057  0.0893 -0.0607 -0.2520
  158TMC2    C5 2407   2.007   1.561  12.933  0.3393 -0.2735 -0.3217
  158TMC2    C6 2408   2.089   1.555  12.824 -0.4742 -0.4043 -0.5479
  158TMC2     C 2409   2.252   1.560  13.212 -0.0365  0.0271 -0.1496
  158TMC2     O 2410   2.372   1.584  13.214  0.2625 -0.3650 -0.1213
  158TMC2     H 2411   2.389   1.542  12.982  0.0611 -0.8035  2.2617
  158TMC2    H1 2412   1.990   1.572  13.143  2.0844  2.1442  0.9592
  158TMC2    H2 2413   2.050   1.504  12.737  1.4021 -0.9353 -1.0791
  158TMC2    C7 2414   1.869   1.579  12.904  0.0717  0.5975  0.5555
  158TMC2    C8 2415   2.303   1.540  12.736 -0.1096  0.0780 -0.2192
  158TMC2    O1 2416   1.847   1.629  12.795  0.3271 -0.0204 -0.7953
  158TMC2    O2 2417   2.423   1.540  12.765 -0.0475 -0.5256 -0.5734
  158TMC2    O5 2418   2.244   1.639  12.656 -1.0971 -0.2618 -0.4218
  158TMC2    H5 2419   2.148   1.659  12.655 -1.1797 -0.4021  3.2925
  159MPD2     C 2420   2.289   1.507  13.720 -1.3114 -0.6022 -0.4623
  159MPD2    C1 2421   2.157   1.480  13.694 -0.3313  0.5920  0.0691
  159MPD2    C2 2422   2.128   1.495  13.557  0.9292 -0.0551  0.1505
  159MPD2    C3 2423   2.214   1.532  13.457  0.1879 -0.0261  0.3324
  159MPD2    C4 2424   2.339   1.561  13.496  0.5322  0.5665  0.1604
  159MPD2    C5 2425   2.379   1.539  13.626 -0.7274 -0.2635  0.2175
  159MPD2     H 2426   2.030   1.466  13.520  0.9031  1.2894 -0.8832
  159MPD2    H1 2427   2.414   1.594  13.425 -1.7882  0.2166 -2.4867
  159MPD2    H2 2428   2.326   1.482  13.819 -1.2816  0.4363 -0.2117
  159MPD2    H3 2429   2.483   1.545  13.657 -0.3658  0.9720 -1.2825
  159MPD2     N 2430   2.177   1.531  13.321  0.4521 -0.0463  0.1316
  159MPD2    H5 2431   2.089   1.483  13.306  0.2978  0.3247 -0.1387
  159MPD2    N1 2432   2.071   1.437  13.803  0.8463  0.1906  0.0806
  159MPD2    H7 2433   2.117   1.444  13.893 -1.7300  1.8226  1.2862
  160TMC2    C1 2434   1.899   3.592   0.685 -0.1383  0.1339  0.2358
  160TMC2    C2 2435   2.004   3.504   0.682  0.2608 -0.0595 -0.3300
  160TMC2    C3 2436   2.096   3.526   0.583  0.2403  0.3992  0.0688
  160TMC2    C4 2437   1.893   3.695   0.601  1.0736  0.2554  0.3945
  160TMC2    C5 2438   1.989   3.712   0.504  0.5454  0.7675 -0.7236
  160TMC2    C6 2439   2.091   3.627   0.492 -1.1299 -0.2235 -0.0593
  160TMC2     C 2440   1.801   3.580   0.793 -0.1290  0.2257 -0.1931
  160TMC2     O 2441   1.796   3.475   0.856  0.7344  0.1386 -0.4651
  160TMC2     H 2442   2.006   3.420   0.750 -1.0219 -1.0982 -1.5822
  160TMC2    H1 2443   1.807   3.760   0.593  0.5464 -0.8998 -3.2905
  160TMC2    H2 2444   2.177   3.653   0.431 -1.5317  1.3737  0.0622
  160TMC2    C7 2445   1.960   3.813   0.403 -0.5575 -0.0087  0.3370
  160TMC2    C8 2446   2.224   3.461   0.601 -0.3771  0.1818 -0.0684
  160TMC2    O1 2447   2.013   3.800   0.291  0.4613  0.1845  0.6601
  160TMC2    O2 2448   2.327   3.521   0.571  0.4210 -0.3968 -0.3681
  160TMC2    O5 2449   2.216   3.352   0.679 -1.0279 -0.2212 -0.0491
  160TMC2    H5 2450   2.138   3.298   0.656 -1.2050 -0.7052  1.6417
  161MPD2     C 2451   1.607   3.622   1.015  0.3619 -0.0368  0.1816
  161MPD2    C1 2452   1.647   3.723   0.931 -0.0291  0.4566 -0.2730
  161MPD2    C2 2453   1.616   3.856   0.957 -0.1913 -0.0545  0.2048
  161MPD2    C3 2454   1.538   3.886   1.075 -0.3875 -0.9828  0.1242
  161MPD2    C4 2455   1.509   3.783   1.160  0.0578  0.1739  0.2389
  161MPD2    C5 2456   1.532   3.651   1.124  0.1518  0.4542  0.1676
  161MPD2     H 2457   1.653   3.934   0.892 -0.3577 -0.9060 -0.9136
  161MPD2    H1 2458   1.459   3.795   1.255  0.9291 -0.2470  0.7594
  161MPD2    H2 2459   1.624   3.516   1.000  0.3738  0.0474 -0.3845
  161MPD2    H3 2460   1.505   3.577   1.199  0.5296  1.5102  1.3459
  161MPD2     N 2461   1.495   4.019   1.111 -0.4658 -0.1688 -0.6587
  161MPD2    H5 2462   1.450   4.031   1.201 -1.5102  0.7189 -1.3046
  161MPD2    N1 2463   1.737   3.699   0.824 -0.0188 -0.4014  0.8533
  161MPD2    H7 2464   1.769   3.786   0.783 -0.2376 -0.8533 -0.2788
  162TMC2    C1 2465   4.034   0.840   1.008  0.2406 -0.6036  0.1273
  162TMC2    C2 2466   3.986   0.765   1.114  0.1825  0.3971 -0.1629
  162TMC2    C3 2467   3.887   0.817   1.191  0.1822  0.0517  0.6015
  162TMC2    C4 2468   3.978   0.968   0.989  0.2473 -0.9951  0.1629
  162TMC2    C5 2469   3.878   1.013   1.066  0.2808  0.1637 -0.7495
  162TMC2    C6 2470   3.830   0.942   1.170 -0.1087  0.1522 -0.3200
  162TMC2     C 2471   4.149   0.801   0.929 -0.2311  0.4066  0.3466
  162TMC2     O 2472   4.188   0.886   0.853 -0.1487 -0.0953 -0.5634
  162TMC2     H 2473   4.034   0.671   1.138 -1.7717 -0.0901  1.8491
  162TMC2    H1 2474   4.014   1.035   0.912 -0.0967 -0.0680  0.8069
  162TMC2    H2 2475   3.744   0.963   1.232  0.2078  1.5306 -0.3518
  162TMC2    C7 2476   3.847   1.149   1.050  0.3946 -0.3392 -0.0036
  162TMC2    C8 2477   3.896   0.787   1.335 -0.8485 -0.0011  0.6191
  162TMC2    O1 2478   3.855   1.198   0.937 -0.0005 -0.0048  0.1404
  162TMC2    O2 2479   3.795   0.788   1.406  0.1641 -1.3771  0.1546
  162TMC2    O5 2480   4.021   0.762   1.375 -0.2702 -0.5703  0.7971
  162TMC2    H5 2481   4.102   0.762   1.319 -2.8779 -2.0760 -2.9495
  163MPD2     C 2482   4.548   0.489   0.816  0.0189  0.6418 -0.0342
  163MPD2    C1 2483   4.507   0.610   0.761 -0.1034 -0.2659 -0.6344
  163MPD2    C2 2484   4.397   0.674   0.815  0.1550 -0.4625 -0.1243
  163MPD2    C3 2485   4.322   0.623   0.919 -0.4539 -0.0633 -0.1037
  163MPD2    C4 2486   4.360   0.494   0.964  0.3462 -0.3127  0.0855
  163MPD2    C5 2487   4.474   0.433   0.915 -0.8607  0.3236  0.1160
  163MPD2     H 2488   4.363   0.771   0.779  0.4018 -0.2072  0.3310
  163MPD2    H1 2489   4.318   0.454   1.056  1.1710  1.6939  1.3152
  163MPD2    H2 2490   4.636   0.433   0.788 -0.6552  0.0016 -0.8487
  163MPD2    H3 2491   4.506   0.335   0.948 -0.6145 -0.1529 -1.5388
  163MPD2     N 2492   4.208   0.684   0.974 -0.0656  0.0819  0.1216
  163MPD2    H5 2493   4.160   0.633   1.047 -1.2476  0.3536 -0.4681
  163MPD2    N1 2494   4.577   0.655   0.652  0.1254 -0.1191  0.1513
  163MPD2    H7 2495   4.637   0.589   0.604 -1.6527 -0.7795 -1.1705
  164TCq2    C1 2496   0.135   1.450  10.809 -0.3998  0.4070  0.5402
  164TCq2    O2 2497   0.016   1.424  10.787 -0.3583 -0.1355  0.3087
  164TCq2    C2 2498   0.164   1.591  10.843  0.5337  0.4193  0.1020
  164TCq2    C3 2499   0.292   1.644  10.846  0.7814  0.1653  0.1885
  164TCq2    C4 2500   0.303   1.777  10.883  0.3999 -0.5942  0.1004
  164TCq2    C5 2501   0.201   1.846  10.932  1.0739  0.2639  0.7969
  164TCq2    C6 2502   0.083   1.791  10.918 -0.0491  0.5093  0.9653
  164TCq2    C7 2503   0.055   1.663  10.875  0.4023  0.1552 -0.7428
  164TCq2    C8 2504   4.708   1.861  11.005 -0.0666  0.3012 -0.1752
  164TCq2    O4 2505   4.588   1.852  10.973  0.0400 -0.2089 -0.3471
  164TCq2    C9 2506   0.434   1.819  10.914 -0.0972 -0.6467  0.7483
  164TCq2    O5 2507   0.526   1.750  10.866 -0.4747 -0.1826  0.4841
  164TCq2    O6 2508   0.442   1.944  10.937  0.1280  0.7361  0.0457
  164TCq2    H2 2509   0.387   1.593  10.834  1.1973  0.7593  0.8579
  164TCq2    H3 2510   0.212   1.947  10.970  0.9759  0.1171  1.2201
  164TCq2    H4 2511   4.683   1.622  10.896  0.4218  0.1864 -0.5896
  165MPD2     C 2512   0.691   3.056   1.798 -0.5020 -0.0019  0.0104
  165MPD2    C1 2513   0.752   3.155   1.722 -1.1244 -0.0921 -0.3124
  165MPD2    C2 2514   0.887   3.170   1.727 -0.4874  0.4761 -0.1658
  165MPD2    C3 2515   0.970   3.081   1.784  0.2359  0.1895 -0.7204
  165MPD2    C4 2516   0.917   2.977   1.851  0.1086 -0.0371  0.2661
  165MPD2    C5 2517   0.781   2.963   1.852 -0.7141  0.6634  0.3192
  165MPD2     H 2518   0.918   3.254   1.666 -0.7746  0.2545 -0.6193
  165MPD2    H1 2519   0.977   2.897   1.893  0.4059  0.0591  0.0249
  165MPD2    H2 2520   0.589   3.020   1.792 -0.0862 -1.3739  1.0907
  165MPD2    H3 2521   0.742   2.876   1.903  0.7053 -2.2249 -3.4894
  165MPD2     N 2522   1.110   3.090   1.782 -0.3950  0.2961  0.5212
  165MPD2    H5 2523   1.162   3.015   1.825  1.9572  0.9038 -1.2754
  165MPD2    N1 2524   0.669   3.218   1.623 -0.0941  0.7849 -0.1698
  165MPD2    H7 2525   0.572   3.188   1.625 -0.1497  0.9164 -0.8533
  166TCq2    C1 2526   1.179   3.198   1.737  0.1931 -0.0603  0.3989
  166TCq2    O2 2527   1.134   3.310   1.715  0.3887 -0.3770 -0.0155
  166TCq2    C2 2528   1.323   3.176   1.708  0.2724 -0.6422  0.1604
  166TCq2    C3 2529   1.380   3.053   1.743 -0.3427  0.1793 -0.6771
  166TCq2    C4 2530   1.515   3.034   1.720  0.0562 -0.0943 -0.1842
  166TCq2    C5 2531   1.593   3.111   1.639 -0.6655 -0.5231 -0.1591
  166TCq2    C6 2532   1.529   3.225   1.608  0.2788  0.4873  0.2868
  166TCq2    C7 2533   1.399   3.261   1.638  0.1805  0.7413 -0.2145
  166TCq2    C8 2534   1.614   3.322   1.533 -0.1025 -0.0446  0.9219
  166TCq2    O4 2535   1.717   3.286   1.473  0.3197  0.3650  0.2834
  166TCq2    C9 2536   1.567   2.904   1.747  0.2429 -0.4311  0.1141
  166TCq2    O5 2537   1.488   2.831   1.810 -0.4327 -0.0050 -0.2522
  166TCq2    O6 2538   1.687   2.878   1.721 -0.5752 -0.2264  0.0169
  166TCq2    H2 2539   1.321   2.977   1.792 -0.5309  0.5376 -0.3413
  166TCq2    H3 2540   1.699   3.090   1.630 -0.5727  0.6379 -1.8532
  166TCq2    H4 2541   1.360   3.351   1.591  0.4786 -0.3898 -2.5968
  167TMC2    C1 2542   3.896   1.146  12.430  0.1301 -0.0507 -0.0263
  167TMC2    C2 2543   3.888   1.216  12.550  0.3417  0.1442 -0.2497
  167TMC2    C3 2544   3.911   1.145  12.666  0.1632  0.3463 -0.1727
  167TMC2    C4 2545   3.953   1.019  12.430  0.1645 -0.3328 -0.3742
  167TMC2    C5 2546   3.987   0.961  12.550 -0.2007  0.4351  0.3777
  167TMC2    C6 2547   3.968   1.018  12.667 -0.1002 -0.4001  0.2153
  167TMC2     C 2548   3.862   1.217  12.306  0.0393  0.5299  0.1360
  167TMC2     O 2549   3.893   1.334  12.302  0.3123 -0.6775  0.2082
  167TMC2     H 2550   3.842   1.314  12.558  0.1372 -0.0887  1.5976
  167TMC2    H1 2551   3.967   0.962  12.339 -1.8331 -0.1860 -0.7745
  167TMC2    H2 2552   3.985   0.955  12.754  1.6466  0.8759  0.7884
  167TMC2    C7 2553   4.028   0.825  12.548  0.6848 -0.6507  0.0852
  167TMC2    C8 2554   3.866   1.201  12.793  0.0403 -0.5304 -0.6185
  167TMC2    O1 2555   4.012   0.761  12.651 -0.6231  0.1445 -0.0043
  167TMC2    O2 2556   3.846   1.324  12.803  0.2349  0.2524  0.2313
  167TMC2    O5 2557   3.819   1.103  12.876 -0.4374 -0.4536  0.6294
  167TMC2    H5 2558   3.814   1.017  12.829  1.2755 -0.1946 -0.0292
  168MPD2     C 2559   3.771   1.278  12.022  0.3124 -0.4008 -1.0917
  168MPD2    C1 2560   3.797   1.155  12.079  0.1134 -0.3112  0.8178
  168MPD2    C2 2561   3.802   1.047  11.996  0.5223  0.3327  0.3949
  168MPD2    C3 2562   3.765   1.050  11.864 -0.1786 -0.3793  0.0553
  168MPD2    C4 2563   3.732   1.168  11.813 -0.3731  0.3551 -0.2759
  168MPD2    C5 2564   3.746   1.287  11.885 -0.1252 -0.5707  0.1547
  168MPD2     H 2565   3.828   0.954  12.045 -0.8435 -0.1514  0.2179
  168MPD2    H1 2566   3.720   1.186  11.707 -0.8439  1.9849  0.0510
  168MPD2    H2 2567   3.768   1.369  12.081  2.0123 -1.5855  0.8304
  168MPD2    H3 2568   3.740   1.384  11.837  0.8536  1.1081  3.4384
  168MPD2     N 2569   3.775   0.939  11.778  0.4843  0.2196  0.3605
  168MPD2    H5 2570   3.759   0.951  11.678 -2.0967 -0.9549  0.6483
  168MPD2    N1 2571   3.825   1.132  12.214 -0.5087  0.5116 -0.2601
  168MPD2    H7 2572   3.814   1.034  12.238  1.1334  0.8391  1.9034
  169MPD1     C 2573   2.170   3.904   9.272 -0.0028 -0.0794 -0.6033
  169MPD1    C1 2574   2.061   3.978   9.220  0.0181 -0.3935  0.4051
  169MPD1    C2 2575   2.066   4.112   9.226 -0.2540 -0.4578  0.0584
  169MPD1    C3 2576   2.182   4.181   9.265  0.0791 -0.7194  0.4634
  169MPD1    C4 2577   2.289   4.111   9.309  0.1596  0.1701 -0.0434
  169MPD1    C5 2578   2.280   3.971   9.314 -0.1181 -0.1862 -0.1489
  169MPD1     H 2579   1.983   4.170   9.189  1.6377  0.9836 -1.9813
  169MPD1    H1 2580   2.388   4.153   9.323  0.4773 -0.9195  0.9980
  169MPD1    H2 2581   2.164   3.797   9.290 -0.1580 -0.1075 -0.8201
  169MPD1    H3 2582   2.365   3.917   9.354  0.0626 -1.1093 -1.8111
  169MPD1     N 2583   2.187   4.320   9.245  0.9756  0.3162  0.1017
  169MPD1    H5 2584   2.103   4.350   9.197  0.3672 -0.0041  0.9644
  169MPD1    N1 2585   1.941   3.905   9.187 -0.5262 -0.1095  0.0277
  169MPD1    H6 2586   1.967   3.812   9.153  1.8272 -0.0065  1.5833
  169MPD1    H7 2587   1.876   3.951   9.124 -0.4913  0.3403  0.3272
  170MPD1     C 2588   0.794   2.929  12.918 -0.1495  0.5888 -0.3449
  170MPD1    C1 2589   0.668   2.887  12.967 -0.0604 -0.8687 -0.8639
  170MPD1    C2 2590   0.570   2.988  12.998 -0.2428 -0.3251  0.3961
  170MPD1    C3 2591   0.611   3.124  12.983  0.3355 -0.3185 -0.1708
  170MPD1    C4 2592   0.741   3.156  12.952  0.2723  0.2253  0.4198
  170MPD1    C5 2593   0.823   3.064  12.903 -0.2302  0.6614  0.7571
  170MPD1     H 2594   0.475   2.964  13.044 -1.1477  1.5312 -0.4921
  170MPD1    H1 2595   0.778   3.257  12.936  2.6381 -0.5949  0.6616
  170MPD1    H2 2596   0.874   2.862  12.890 -1.2841  0.0156 -2.2142
  170MPD1    H3 2597   0.917   3.098  12.861 -1.1351  0.7638 -1.2024
  170MPD1     N 2598   0.521   3.214  13.047 -0.2830 -0.2432  0.4471
  170MPD1    H5 2599   0.434   3.169  13.075 -0.1919 -1.3625 -1.0882
  170MPD1    N1 2600   0.638   2.751  12.960 -0.1850  0.0191 -0.0207
  170MPD1    H6 2601   0.719   2.692  12.977 -0.6891  0.1108  2.6492
  170MPD1    H7 2602   0.564   2.719  13.022  0.4930 -1.4657  0.0197
  171MPD1     C 2603   4.128   0.085  15.244 -0.7127  0.3484 -0.2945
  171MPD1    C1 2604   4.001   0.057  15.202  0.2113 -0.8890 -0.8796
  171MPD1    C2 2605   3.946   4.659  15.246  0.3601  0.1225 -0.2605
  171MPD1    C3 2606   4.021   4.564  15.306 -0.0358 -0.4455  0.2473
  171MPD1    C4 2607   4.153   4.599  15.335  0.2983 -0.1243 -0.3064
  171MPD1    C5 2608   4.201   4.721  15.307  0.0328  0.5610  0.2978
  171MPD1     H 2609   3.843   4.643  15.217 -0.2747  1.0438  1.5535
  171MPD1    H1 2610   4.225   4.528  15.375 -0.8962 -0.4966  1.1749
  171MPD1    H2 2611   4.167   0.179  15.207 -2.2895  1.0025 -0.2949
  171MPD1    H3 2612   4.305   0.014  15.330  0.0112 -0.3102  1.0488
  171MPD1     N 2613   3.969   4.437  15.330 -0.4647 -0.3361  0.1573
  171MPD1    H5 2614   4.031   4.371  15.376 -0.5730  0.2652  1.1637
  171MPD1    N1 2615   3.925   0.152  15.138 -0.1129  0.0923  0.1270
  171MPD1    H6 2616   3.970   0.227  15.087  2.0195 -1.2490  0.0670
  171MPD1    H7 2617   3.852   0.110  15.081 -0.2315  1.5409 -0.7983
  172MPD1     C 2618   2.590   2.850  17.487  0.0506 -0.8435 -0.4442
  172MPD1    C1 2619   2.597   2.946  17.388  0.0706  0.3875  0.7979
  172MPD1    C2 2620   2.648   3.068  17.427 -0.3973  0.0431 -0.2190
  172MPD1    C3 2621   2.717   3.081  17.544 -0.0361  0.8579  1.0005
  172MPD1    C4 2622   2.736   2.974  17.629  0.4125  0.2887  0.2679
  172MPD1    C5 2623   2.659   2.862  17.602  0.7357  0.0441  0.5758
  172MPD1     H 2624   2.632   3.159  17.370 -1.6596 -1.8257 -2.8897
  172MPD1    H1 2625   2.780   2.989   0.023  1.9121  3.1409 -0.8277
  172MPD1    H2 2626   2.530   2.762  17.467  0.0942 -1.3093  1.5038
  172MPD1    H3 2627   2.643   2.784  17.675  1.4160  0.4762  1.1958
  172MPD1     N 2628   2.779   3.198  17.584 -0.5178 -0.3534  0.3123
  172MPD1    H5 2629   2.842   3.188  17.663 -0.3574 -0.5906  0.1555
  172MPD1    N1 2630   2.515   2.923  17.273  0.1457  0.4428  0.2245
  172MPD1    H6 2631   2.543   2.974  17.189 -1.2295  0.0977 -0.4421
  172MPD1    H7 2632   2.523   2.825  17.246  0.1758  0.7065 -0.7305
  173MPD1     C 2633   4.529   3.781  13.914 -0.0212 -0.4658 -0.3937
  173MPD1    C1 2634   4.559   3.649  13.906  0.2127 -0.4933  0.3710
  173MPD1    C2 2635   4.508   3.559  14.000 -0.2394 -0.2238  0.4880
  173MPD1    C3 2636   4.409   3.610  14.086 -0.4827  0.3703  0.1303
  173MPD1    C4 2637   4.379   3.743  14.089  0.3625  0.3201 -0.7874
  173MPD1    C5 2638   4.434   3.828  13.996  0.1330 -0.0571 -0.2556
  173MPD1     H 2639   4.541   3.456  13.990  0.0455 -0.2636  1.7897
  173MPD1    H1 2640   4.292   3.767  14.148  2.1100 -0.4669  2.1019
  173MPD1    H2 2641   4.583   3.849  13.849 -0.2164  0.0313 -0.0384
  173MPD1    H3 2642   4.412   3.933  14.003 -0.8655 -0.0752 -2.9190
  173MPD1     N 2643   4.333   3.517  14.161  0.1371  0.7322  0.2683
  173MPD1    H5 2644   4.355   3.419  14.141 -1.9421 -0.2431  2.7511
  173MPD1    N1 2645   4.669   3.602  13.831 -0.9503  0.2342 -0.2792
  173MPD1    H6 2646   4.700   3.666  13.758  0.7574 -0.8249 -0.4830
  173MPD1    H7 2647   4.660   3.507  13.796 -0.7092 -0.3537  1.2317
  174MPD1     C 2648   4.226   2.753  13.901  0.4031  0.3515  0.3286
  174MPD1    C1 2649   4.099   2.801  13.925  0.1989  0.2237 -1.1019
  174MPD1    C2 2650   4.075   2.909  14.017 -1.0948 -0.4156 -0.4020
  174MPD1    C3 2651   4.185   2.973  14.067  0.3240  0.2903  0.5549
  174MPD1    C4 2652   4.312   2.931  14.031 -0.6587  0.0062  0.8076
  174MPD1    C5 2653   4.331   2.816  13.957 -0.7445 -0.5739  0.7657
  174MPD1     H 2654   3.972   2.940  14.030 -1.4967 -1.6146 -0.6878
  174MPD1    H1 2655   4.402   2.975  14.072  0.1464 -1.6042  0.7448
  174MPD1    H2 2656   4.236   2.662  13.843  1.0559  0.1303  0.7946
  174MPD1    H3 2657   4.430   2.783  13.928  0.2127  1.7737  1.3473
  174MPD1     N 2658   4.184   3.075  14.157  0.1811  0.2013 -0.0794
  174MPD1    H5 2659   4.271   3.126  14.167 -0.3192  1.0493 -0.0846
  174MPD1    N1 2660   3.994   2.724  13.881  0.6220 -0.1986  0.4411
  174MPD1    H6 2661   3.913   2.779  13.857  0.7488 -0.6023 -0.9168
  174MPD1    H7 2662   4.015   2.678  13.793  0.9549 -1.7142  1.2959
  175MPD1     C 2663   2.276   4.148  15.251  0.2711 -0.0134  0.0249
  175MPD1    C1 2664   2.269   4.084  15.369 -0.1469 -0.2038  0.1497
  175MPD1    C2 2665   2.308   4.160  15.478 -0.0639  0.3021  0.1248
  175MPD1    C3 2666   2.362   4.285  15.456  0.4622  1.0405 -0.0092
  175MPD1    C4 2667   2.390   4.335  15.329 -0.2298  0.3444 -0.3749
  175MPD1    C5 2668   2.342   4.265  15.223 -0.0407 -0.0043 -0.2665
  175MPD1     H 2669   2.312   4.135  15.583  2.1178  0.6655  0.1314
  175MPD1    H1 2670   2.437   4.428  15.300 -0.6405  0.1155 -1.7766
  175MPD1    H2 2671   2.240   4.092  15.166 -0.7149 -0.1120  0.5127
  175MPD1    H3 2672   2.358   4.300  15.122 -0.7242 -1.4134 -0.8578
  175MPD1     N 2673   2.406   4.368  15.559  0.0113  0.5515  0.0252
  175MPD1    H5 2674   2.472   4.442  15.535  0.0822  0.7899  0.9821
  175MPD1    N1 2675   2.199   3.960  15.389 -0.4388 -0.2052 -0.6882
  175MPD1    H6 2676   2.230   3.910  15.472 -0.8370  2.9184  1.3183
  175MPD1    H7 2677   2.215   3.894  15.313 -0.5729  0.2693 -1.1330
  176MPD1     C 2678   4.410   1.565  16.366 -0.0403  1.0775 -1.2656
  176MPD1    C1 2679   4.516   1.545  16.458 -0.5338 -0.2337 -0.8550
  176MPD1    C2 2680   4.487   1.562  16.590  0.5870  0.1460  1.0156
  176MPD1    C3 2681   4.358   1.587  16.625  0.3109 -0.5978  0.2381
  176MPD1    C4 2682   4.250   1.594  16.534  0.5901  0.1617  0.2611
  176MPD1    C5 2683   4.282   1.579  16.409  0.0991 -0.7807  0.0722
  176MPD1     H 2684   4.571   1.545  16.656  0.7812 -0.1724  0.6902
  176MPD1    H1 2685   4.146   1.610  16.563 -0.0043  0.0435 -1.8304
  176MPD1    H2 2686   4.436   1.560  16.261 -0.0384 -1.4374 -1.1332
  176MPD1    H3 2687   4.207   1.579  16.330 -0.2699 -2.0058  0.4240
  176MPD1     N 2688   4.333   1.605  16.762  0.3426  1.1132  0.0326
  176MPD1    H5 2689   4.417   1.608  16.819 -0.3161 -1.6266  1.1580
  176MPD1    N1 2690   4.644   1.523  16.413  0.0340 -0.4144  0.7168
  176MPD1    H6 2691   4.699   1.467  16.477  2.8895  0.5578 -0.8694
  176MPD1    H7 2692   4.645   1.475  16.323  3.0442  1.2619 -0.1598
  177MPD1     C 2693   3.251   2.056  10.918  0.2333  0.1440 -0.1592
  177MPD1    C1 2694   3.244   2.150  10.819  0.5014 -0.2136  0.5843
  177MPD1    C2 2695   3.256   2.128  10.688  0.0051 -0.5330  0.3195
  177MPD1    C3 2696   3.242   1.998  10.646  0.4143 -0.9319 -0.1103
  177MPD1    C4 2697   3.243   1.899  10.742  0.4755 -0.1735 -0.2343
  177MPD1    C5 2698   3.257   1.928  10.868  0.9567  0.1554 -0.9564
  177MPD1     H 2699   3.258   2.209  10.616  2.9536  0.7751  1.8535
  177MPD1    H1 2700   3.243   1.794  10.719  0.7410 -0.1352 -0.4084
  177MPD1    H2 2701   3.251   2.081  11.023  1.5797  1.0965 -0.3820
  177MPD1    H3 2702   3.244   1.846  10.938  0.0559  1.8864  0.9128
  177MPD1     N 2703   3.240   1.974  10.508 -0.1159  0.1693  0.4314
  177MPD1    H5 2704   3.231   2.054  10.447  0.3366 -1.1806 -1.4180
  177MPD1    N1 2705   3.223   2.283  10.865 -0.4666 -0.3661  0.0550
  177MPD1    H6 2706   3.158   2.273  10.943  0.8482  1.0389  1.3157
  177MPD1    H7 2707   3.169   2.341  10.800  1.3489  1.3509  0.1014
  178MPD1     C 2708   4.680   2.455   0.511 -0.0750  0.1583 -0.0208
  178MPD1    C1 2709   4.606   2.353   0.450 -0.3715  0.7155 -0.7381
  178MPD1    C2 2710   4.646   2.323   0.325  0.6617 -0.5461 -0.0049
  178MPD1    C3 2711   0.028   2.392   0.264 -0.0731  0.5010 -0.0810
  178MPD1    C4 2712   0.087   2.497   0.323  0.2243 -0.1367 -0.8700
  178MPD1    C5 2713   0.050   2.532   0.451  0.7026 -0.1083  0.2799
  178MPD1     H 2714   4.601   2.245   0.263 -0.7439  0.2034  0.0814
  178MPD1    H1 2715   0.158   2.552   0.263  1.1834  0.3889  0.7189
  178MPD1    H2 2716   4.638   2.475   0.609  3.3680  1.2316  1.2401
  178MPD1    H3 2717   0.100   2.609   0.508 -1.2674 -0.4031  2.4238
  178MPD1     N 2718   0.080   2.362   0.134  0.4524  0.2345  0.2957
  178MPD1    H5 2719   0.151   2.428   0.102 -0.6166  0.9171 -0.6493
  178MPD1    N1 2720   4.527   2.264   0.526  0.4732 -0.0951 -0.3313
  178MPD1    H6 2721   4.454   2.226   0.465  2.6147 -2.2261 -1.5375
  178MPD1    H7 2722   4.475   2.316   0.597 -1.7106 -0.1974 -1.8577
  179MPD1     C 2723   0.345   1.016  15.605 -0.3978 -0.1325  0.6144
  179MPD1    C1 2724   0.215   1.012  15.549 -0.7229  0.3784  0.4396
  179MPD1    C2 2725   0.130   0.905  15.566  0.0795 -0.6258 -0.6531
  179MPD1    C3 2726   0.188   0.787  15.617 -0.2041 -0.0578  0.2617
  179MPD1    C4 2727   0.324   0.784  15.656  0.2402 -0.2070  0.4182
  179MPD1    C5 2728   0.399   0.898  15.652 -0.3028  0.2188 -0.1935
  179MPD1     H 2729   0.029   0.903  15.527  0.9036 -0.8281 -2.8260
  179MPD1    H1 2730   0.369   0.693  15.695  0.2509 -0.0603  0.7485
  179MPD1    H2 2731   0.397   1.111  15.595 -1.1586  0.1645 -0.4878
  179MPD1    H3 2732   0.502   0.908  15.686 -0.3243 -1.2142  0.3114
  179MPD1     N 2733   0.118   0.664  15.629  0.2404 -0.1583 -0.0659
  179MPD1    H5 2734   0.159   0.573  15.651 -1.9346 -0.4027  3.0371
  179MPD1    N1 2735   0.157   1.130  15.499 -0.3325 -0.2438  0.1260
  179MPD1    H6 2736   0.220   1.204  15.468  0.8796 -1.3670 -0.1261
  179MPD1    H7 2737   0.076   1.122  15.438 -0.3628 -0.9075  0.2492
  180MPD1     C 2738   0.037   1.865  14.918  0.6694 -0.3054  0.6273
  180MPD1    C1 2739   0.059   1.867  14.782 -0.3486  0.1175 -0.2259
  180MPD1    C2 2740   4.702   1.944  14.694 -0.7193  0.5725 -0.2066
  180MPD1    C3 2741   4.583   2.002  14.740 -0.4924 -0.2691 -0.5500
  180MPD1    C4 2742   4.554   1.983  14.875  0.1259  0.7161  0.0476
  180MPD1    C5 2743   4.648   1.924  14.965 -0.2715 -0.6600 -0.1070
  180MPD1     H 2744   4.720   1.941  14.587 -2.9017  1.8775 -0.6065
  180MPD1    H1 2745   4.469   2.031  14.922  0.8085 -0.2185  2.2688
  180MPD1    H2 2746   0.109   1.823  14.988  0.3595 -0.3325  0.9283
  180MPD1    H3 2747   4.629   1.920  15.072  0.3815 -0.3965  0.0207
  180MPD1     N 2748   4.509   2.069  14.645 -0.1442  0.4040 -0.5726
  180MPD1    H5 2749   4.559   2.089  14.559 -0.8267  0.8716 -0.8641
  180MPD1    N1 2750   0.182   1.812  14.731 -0.8077 -0.1662  0.0507
  180MPD1    H6 2751   0.227   1.745  14.792 -0.3759  0.1798  0.1117
  180MPD1    H7 2752   0.166   1.771  14.639 -1.9879  1.4564 -0.4687
  181MPD1     C 2753   1.298   4.199   9.068  0.3753 -0.5122  0.1747
  181MPD1    C1 2754   1.287   4.140   9.189  0.7479  0.5241  0.2133
  181MPD1    C2 2755   1.400   4.134   9.270  0.0297  0.2472  0.0163
  181MPD1    C3 2756   1.516   4.207   9.227 -0.3012  0.5588 -0.2773
  181MPD1    C4 2757   1.520   4.281   9.112 -0.2124  0.1395  0.1495
  181MPD1    C5 2758   1.406   4.272   9.033  0.1078  0.0335  0.4436
  181MPD1     H 2759   1.397   4.080   9.364 -1.9988 -1.4319 -1.0057
  181MPD1    H1 2760   1.603   4.344   9.083 -0.5720  1.7213  2.6002
  181MPD1    H2 2761   1.223   4.197   8.990  1.9269  1.6627 -1.3970
  181MPD1    H3 2762   1.399   4.326   8.939 -2.8944 -0.3592  0.4218
  181MPD1     N 2763   1.634   4.222   9.302  0.7178 -0.2279 -0.0090
  181MPD1    H5 2764   1.701   4.284   9.259  0.1808  1.9493  2.3163
  181MPD1    N1 2765   1.178   4.053   9.208  0.3354  0.2595  0.0204
  181MPD1    H6 2766   1.099   4.104   9.168 -0.4210 -1.5536 -0.8296
  181MPD1    H7 2767   1.157   4.024   9.303  1.7580  0.7331  0.4804
  182MPD1     C 2768   3.444   2.618   1.086 -0.5330 -0.4501  0.6889
  182MPD1    C1 2769   3.359   2.704   1.151 -0.3244 -0.7932  0.2452
  182MPD1    C2 2770   3.222   2.705   1.121  0.2831 -0.2290  0.0832
  182MPD1    C3 2771   3.172   2.609   1.031 -0.4161 -0.3754 -0.2834
  182MPD1    C4 2772   3.258   2.515   0.975  0.5676  0.9224  0.6161
  182MPD1    C5 2773   3.388   2.530   0.997  0.2501 -0.0354  0.3131
  182MPD1     H 2774   3.160   2.782   1.165 -0.2226 -0.6851  0.1756
  182MPD1    H1 2775   3.222   2.438   0.908  0.8534  1.0848  0.2787
  182MPD1    H2 2776   3.551   2.620   1.103 -0.4375  1.1515 -0.1824
  182MPD1    H3 2777   3.453   2.460   0.947 -1.4807  0.9941 -3.3107
  182MPD1     N 2778   3.037   2.605   0.989  0.7085 -0.4925 -0.0593
  182MPD1    H5 2779   3.019   2.534   0.919 -0.5506 -1.4796  1.2708
  182MPD1    N1 2780   3.426   2.811   1.219  0.4781 -0.1698 -0.3638
  182MPD1    H6 2781   3.373   2.837   1.302 -3.8535 -0.9769 -2.8384
  182MPD1    H7 2782   3.514   2.775   1.254  2.1023  2.0767 -2.1640
  183MPD1     C 2783   3.124   2.495   9.035 -0.6870 -0.7816 -0.0851
  183MPD1    C1 2784   3.023   2.571   8.998  0.3013 -0.4950  0.5883
  183MPD1    C2 2785   2.987   2.679   9.077 -0.4607 -0.3280 -0.3328
  183MPD1    C3 2786   3.047   2.703   9.190 -1.1283 -0.4916  0.1156
  183MPD1    C4 2787   3.156   2.623   9.226  0.0643 -0.0890  0.3903
  183MPD1    C5 2788   3.195   2.515   9.152  0.2185 -0.0018 -0.3039
  183MPD1     H 2789   2.914   2.753   9.047  0.3197  0.9433  0.9556
  183MPD1    H1 2790   3.218   2.642   9.312  1.3663  1.9638 -1.0071
  183MPD1    H2 2791   3.157   2.422   8.962 -1.5987 -0.0946 -1.1790
  183MPD1    H3 2792   3.293   2.469   9.158  0.3489  0.6415  2.6152
  183MPD1     N 2793   3.008   2.824   9.256  0.2198 -0.0757 -0.4435
  183MPD1    H5 2794   2.942   2.872   9.196 -0.5436 -0.0543  0.4217
  183MPD1    N1 2795   2.962   2.553   8.872 -0.1198 -0.5517 -0.1230
  183MPD1    H6 2796   2.945   2.457   8.844 -0.7277  0.2355 -2.4154
  183MPD1    H7 2797   2.871   2.600   8.877  0.0095 -0.3452  0.3710
  184MPD1     C 2798   3.025   1.064   9.933  0.0127 -0.0275 -0.0938
  184MPD1    C1 2799   3.054   1.186   9.870 -0.7689 -0.4673  0.2830
  184MPD1    C2 2800   2.945   1.269   9.837  0.4038 -0.7351 -0.3710
  184MPD1    C3 2801   2.811   1.234   9.859 -0.1988  0.0912  0.2692
  184MPD1    C4 2802   2.785   1.108   9.910  0.8495 -0.1486 -0.8311
  184MPD1    C5 2803   2.893   1.027   9.947  0.0808  0.2483 -0.3929
  184MPD1     H 2804   2.963   1.370   9.802  0.7281 -1.3878 -2.1026
  184MPD1    H1 2805   2.678   1.094   9.918  0.9310 -1.0813 -1.3383
  184MPD1    H2 2806   3.095   0.987   9.963  0.9871  0.7961 -0.2702
  184MPD1    H3 2807   2.867   0.929   9.984  1.5159  0.7309  1.9353
  184MPD1     N 2808   2.702   1.317   9.831  0.6735  0.3726  0.1309
  184MPD1    H5 2809   2.614   1.266   9.840 -0.4353  1.8720 -2.2577
  184MPD1    N1 2810   3.189   1.230   9.858  0.6623 -0.0093 -0.4209
  184MPD1    H6 2811   3.250   1.154   9.887 -0.1117 -0.2229  0.6311
  184MPD1    H7 2812   3.203   1.257   9.761  1.3975 -4.2918 -1.5168
  185MPD1     C 2813   1.763   1.425  10.090 -0.0596  0.2156  0.2742
  185MPD1    C1 2814   1.848   1.319  10.073 -0.1552  0.0710 -0.2333
  185MPD1    C2 2815   1.974   1.348  10.011 -0.4499  0.3987  0.4953
  185MPD1    C3 2816   2.009   1.473   9.971  0.7878  0.8556  0.5155
  185MPD1    C4 2817   1.914   1.582   9.984 -0.5982 -0.1729 -0.7897
  185MPD1    C5 2818   1.795   1.554  10.043 -0.5536  0.3239  1.1736
  185MPD1     H 2819   2.037   1.263   9.990  0.0778  1.0741 -0.6996
  185MPD1    H1 2820   1.936   1.684   9.956  1.0407 -0.8401 -1.8725
  185MPD1    H2 2821   1.662   1.411  10.127  0.7383 -3.0763  1.2344
  185MPD1    H3 2822   1.721   1.633  10.054  1.5738  2.5412 -0.3875
  185MPD1     N 2823   2.126   1.508   9.908  0.1170  0.2602 -0.5500
  185MPD1    H5 2824   2.145   1.603   9.879  0.2262  0.4240  0.0594
  185MPD1    N1 2825   1.820   1.190  10.096 -0.3289 -0.4259  0.6373
  185MPD1    H6 2826   1.899   1.125  10.091 -0.0024 -0.0859  1.3906
  185MPD1    H7 2827   1.767   1.178  10.182  0.5506 -1.5076  1.0351
  186MPD1     C 2828   0.433   0.263  15.692  0.1775 -0.6068 -0.4679
  186MPD1    C1 2829   0.531   0.355  15.674  0.6293 -0.3268  0.7364
  186MPD1    C2 2830   0.523   0.465  15.751 -0.3590  0.0134 -0.1273
  186MPD1    C3 2831   0.427   0.482  15.855  0.0797 -0.3178  0.8859
  186MPD1    C4 2832   0.341   0.378  15.880  0.6218 -0.0198  0.2740
  186MPD1    C5 2833   0.343   0.269  15.797 -0.1089 -0.2772 -0.5441
  186MPD1     H 2834   0.595   0.546  15.738 -0.2265 -0.1929 -0.6651
  186MPD1    H1 2835   0.266   0.376  15.958 -0.1109  2.2689 -0.3757
  186MPD1    H2 2836   0.430   0.172  15.632 -3.0869 -0.2772 -0.7913
  186MPD1    H3 2837   0.272   0.188  15.807  0.6718 -0.6590  1.7809
  186MPD1     N 2838   0.408   0.597  15.942  0.1442 -0.6238  0.3487
  186MPD1    H5 2839   0.332   0.590  16.009 -0.2880  1.8709  0.1535
  186MPD1    N1 2840   0.608   0.358  15.558 -0.1510 -0.6872  0.0625
  186MPD1    H6 2841   0.636   0.267  15.523 -2.2332 -0.8630 -1.1801
  186MPD1    H7 2842   0.695   0.409  15.566  0.2407 -1.2754 -0.4866
  187MPD1     C 2843   4.217   3.109   0.508  0.1020  0.0807  0.7948
  187MPD1    C1 2844   4.170   2.990   0.461  0.2613  0.5156  0.2838
  187MPD1    C2 2845   4.201   2.968   0.325 -0.0288  0.0730  0.1896
  187MPD1    C3 2846   4.282   3.057   0.248  0.2289  0.1635  0.2792
  187MPD1    C4 2847   4.332   3.168   0.307 -0.1298  0.3156  0.6022
  187MPD1    C5 2848   4.294   3.195   0.437 -0.0139 -0.4859  0.4034
  187MPD1     H 2849   4.169   2.871   0.289 -0.3143  0.3594 -0.3325
  187MPD1    H1 2850   4.394   3.238   0.253  0.4674  0.9977  2.1671
  187MPD1    H2 2851   4.181   3.158   0.597 -0.7618  0.6806  0.1164
  187MPD1    H3 2852   4.311   3.293   0.478  0.1523  0.2673 -1.4508
  187MPD1     N 2853   4.325   3.026   0.111  0.6086  0.4670  0.5582
  187MPD1    H5 2854   4.387   3.093   0.065  0.6286 -0.8018 -1.2622
  187MPD1    N1 2855   4.080   2.907   0.534 -0.3223  0.3385  0.1084
  187MPD1    H6 2856   4.088   2.807   0.517 -1.3463  0.2603  0.1147
  187MPD1    H7 2857   4.088   2.911   0.636  1.5401 -0.7562  0.0116
  188MPD1     C 2858   4.416   3.293  10.275 -0.2335 -0.0127  0.8413
  188MPD1    C1 2859   4.409   3.263  10.139 -0.3704 -0.4563  0.3654
  188MPD1    C2 2860   4.392   3.139  10.089  0.0001  0.0909 -0.0377
  188MPD1    C3 2861   4.388   3.030  10.176  0.1922  0.1020  0.1221
  188MPD1    C4 2862   4.399   3.056  10.315 -0.1615 -0.4525 -0.4257
  188MPD1    C5 2863   4.417   3.184  10.364  0.6814 -1.1075 -1.1256
  188MPD1     H 2864   4.372   3.115   9.985  0.0697  0.7826 -0.2095
  188MPD1    H1 2865   4.399   2.970  10.380  0.7561  0.1564  0.3688
  188MPD1    H2 2866   4.434   3.395  10.308  5.8063 -0.8598  0.1843
  188MPD1    H3 2867   4.434   3.191  10.471  0.6447 -0.7705 -1.1413
  188MPD1     N 2868   4.364   2.894  10.129 -0.8236 -0.4211  0.8464
  188MPD1    H5 2869   4.368   2.829  10.207 -0.0175  0.2041  1.3311
  188MPD1    N1 2870   4.407   3.365  10.045  0.2900  0.3214  0.0761
  188MPD1    H6 2871   4.444   3.324   9.959 -0.2576  2.8177 -1.3537
  188MPD1    H7 2872   4.458   3.450  10.069  1.4129 -0.8063  1.6865
  189MPD1     C 2873   0.694   2.958   0.781  0.3413 -0.2288 -0.7648
  189MPD1    C1 2874   0.558   2.932   0.763  0.4363  0.4047 -0.6328
  189MPD1    C2 2875   0.486   2.995   0.661  0.4833  0.2165 -0.2360
  189MPD1    C3 2876   0.548   3.085   0.572 -0.1446 -0.9725 -0.2012
  189MPD1    C4 2877   0.678   3.124   0.607  0.3409  0.3033  0.0667
  189MPD1    C5 2878   0.741   3.068   0.715  0.1285 -0.3053 -0.1034
  189MPD1     H 2879   0.385   2.958   0.645  0.4475  1.2559 -2.5017
  189MPD1    H1 2880   0.725   3.208   0.558  3.0925 -2.7630 -2.5050
  189MPD1    H2 2881   0.753   2.924   0.865 -0.5134 -0.1265 -0.1163
  189MPD1    H3 2882   0.836   3.112   0.745  0.8640 -1.6486 -0.4860
  189MPD1     N 2883   0.473   3.139   0.467 -0.4640 -0.1972  0.4229
  189MPD1    H5 2884   0.378   3.105   0.468 -0.3877 -0.4082  0.5558
  189MPD1    N1 2885   0.506   2.826   0.836  0.5620  0.5419 -0.2507
  189MPD1    H6 2886   0.411   2.851   0.860  0.1065 -0.5383 -0.9073
  189MPD1    H7 2887   0.556   2.834   0.924 -0.2848 -0.2804  0.3008
  190MPD1     C 2888   4.262   1.621  15.103  0.2210 -0.3160 -0.1623
  190MPD1    C1 2889   4.200   1.666  15.215 -0.0869  0.2560  0.0837
  190MPD1    C2 2890   4.271   1.749  15.303 -0.4633 -0.1103  0.2577
  190MPD1    C3 2891   4.412   1.761  15.281 -0.1353 -0.1173 -0.0776
  190MPD1    C4 2892   4.467   1.709  15.173 -0.4175  0.3960 -0.4378
  190MPD1    C5 2893   4.397   1.635  15.085 -0.5387 -0.0768 -0.1538
  190MPD1     H 2894   4.228   1.798  15.389 -0.0775 -0.5857  0.7275
  190MPD1    H1 2895   4.572   1.723  15.147 -0.0725  0.9394  1.2299
  190MPD1    H2 2896   4.209   1.569  15.024  0.3557  0.8463 -1.0180
  190MPD1    H3 2897   4.450   1.598  14.997 -0.5565  0.1216 -0.2486
  190MPD1     N 2898   4.489   1.856  15.366  0.1190 -0.0049  0.1774
  190MPD1    H5 2899   4.445   1.905  15.443 -0.3315  0.0594 -0.1208
  190MPD1    N1 2900   4.059   1.634  15.239  0.5914 -0.1412 -0.2431
  190MPD1    H6 2901   4.016   1.600  15.153 -0.8456 -0.2418  0.5204
  190MPD1    H7 2902   4.047   1.557  15.304  1.2584  1.2071  1.4785
  191MPD1     C 2903   3.740   3.500  12.678  0.3208  0.6352  1.0139
  191MPD1    C1 2904   3.857   3.552  12.639 -0.1983 -0.2932 -0.4502
  191MPD1    C2 2905   3.863   3.687  12.604  0.1519  0.3280 -0.4782
  191MPD1    C3 2906   3.749   3.768  12.613 -0.4437  0.5215  0.0047
  191MPD1    C4 2907   3.628   3.704  12.654 -0.1568  0.5821 -0.2898
  191MPD1    C5 2908   3.633   3.575  12.695  0.3242  0.0725  0.6234
  191MPD1     H 2909   3.957   3.729  12.570 -0.1866  1.9103  0.5219
  191MPD1    H1 2910   3.535   3.760  12.650  0.5612  1.7308 -1.1428
  191MPD1    H2 2911   3.732   3.398  12.715  1.4495  0.3162  0.3934
  191MPD1    H3 2912   3.546   3.527  12.737  0.3252 -0.7774 -0.3740
  191MPD1     N 2913   3.756   3.896  12.559  0.1348  0.1195 -0.0276
  191MPD1    H5 2914   3.845   3.930  12.523  0.5964 -0.0728  0.9475
  191MPD1    N1 2915   3.979   3.490  12.670  0.2638  0.7057  0.3749
  191MPD1    H6 2916   3.977   3.389  12.657  2.1196  0.5021  1.6703
  191MPD1    H7 2917   4.058   3.529  12.619  1.0187 -1.5101 -0.1728
  192MPD1     C 2918   3.709   0.233  12.688  0.3528  0.5696 -0.1032
  192MPD1    C1 2919   3.731   0.138  12.787  0.4154  0.7358 -0.1962
  192MPD1    C2 2920   3.765   0.008  12.753 -0.1082 -0.5737  0.6547
  192MPD1    C3 2921   3.757   4.693  12.622  0.5596 -0.4277  0.5708
  192MPD1    C4 2922   3.710   0.062  12.526  0.2569  0.1800  0.0532
  192MPD1    C5 2923   3.699   0.197  12.558 -0.9220 -0.1189 -0.5922
  192MPD1     H 2924   3.781   4.659  12.830 -1.5163 -2.4508 -0.8614
  192MPD1    H1 2925   3.677   0.037  12.426 -0.6094 -1.0641  0.6449
  192MPD1    H2 2926   3.691   0.336  12.714  0.8452  0.4121  0.8425
  192MPD1    H3 2927   3.673   0.277  12.490 -3.9996  0.7688  1.6117
  192MPD1     N 2928   3.770   4.564  12.572  0.4670  0.0735  0.0535
  192MPD1    H5 2929   3.754   4.548  12.474 -0.3708 -1.3283  0.4270
  192MPD1    N1 2930   3.752   0.191  12.917 -0.0683  0.1714 -0.2162
  192MPD1    H6 2931   3.764   0.124  12.993 -1.4117  0.7198  0.4768
  192MPD1    H7 2932   3.686   0.265  12.940  0.3940  1.6710 -3.6628
  193MPD1     C 2933   3.453   3.760  16.096  0.4364  0.3284  0.4263
  193MPD1    C1 2934   3.439   3.890  16.133 -0.2254 -0.6646 -0.3065
  193MPD1    C2 2935   3.534   3.951  16.214 -0.1063  0.1949 -0.4984
  193MPD1    C3 2936   3.643   3.881  16.271 -0.3554  0.3948  0.1954
  193MPD1    C4 2937   3.650   3.746  16.246  0.1764 -0.5361 -1.1013
  193MPD1    C5 2938   3.560   3.684  16.158  0.4369 -0.3564 -0.0423
  193MPD1     H 2939   3.521   4.055  16.241 -2.1059 -0.1754 -0.0561
  193MPD1    H1 2940   3.723   3.682  16.294  0.1848  1.6212  1.7439
  193MPD1    H2 2941   3.394   3.717  16.016  1.1059 -0.7379  0.4994
  193MPD1    H3 2942   3.559   3.576  16.149 -2.4300 -0.1975 -1.5299
  193MPD1     N 2943   3.746   3.940  16.352  0.2315 -0.2514  0.0319
  193MPD1    H5 2944   3.830   3.889  16.379  2.4219  3.1044 -0.3688
  193MPD1    N1 2945   3.345   3.968  16.063  0.1377  0.0974  0.6365
  193MPD1    H6 2946   3.260   3.932  16.021  1.7278 -0.3905 -2.1077
  193MPD1    H7 2947   3.316   4.042  16.127  2.0218  0.8629  0.5880
  194MPD1     C 2948   2.589   1.786  17.060 -0.5849 -0.1722  0.4258
  194MPD1    C1 2949   2.453   1.780  17.025 -0.2710 -0.2471  0.1011
  194MPD1    C2 2950   2.388   1.658  17.029  0.3443  0.1005 -0.0052
  194MPD1    C3 2951   2.456   1.540  17.055 -0.2246  0.1579 -0.3439
  194MPD1    C4 2952   2.591   1.545  17.084 -0.5917  0.5237 -0.6127
  194MPD1    C5 2953   2.655   1.670  17.088  0.3813  0.0295  0.6065
  194MPD1     H 2954   2.280   1.654  17.017  0.3468  0.9221 -0.2691
  194MPD1    H1 2955   2.657   1.459  17.097 -1.1440  0.1196 -0.5125
  194MPD1    H2 2956   2.646   1.878  17.064 -2.0500  0.8142 -0.9906
  194MPD1    H3 2957   2.763   1.667  17.101  0.4820  0.5782 -0.1119
  194MPD1     N 2958   2.400   1.421  17.021  0.2660  0.3085 -0.1299
  194MPD1    H5 2959   2.464   1.344  17.036 -0.5271 -0.1247  1.0657
  194MPD1    N1 2960   2.385   1.899  17.043  0.0107  0.4048 -0.3075
  194MPD1    H6 2961   2.439   1.980  17.015 -0.7851  0.9852 -0.1501
  194MPD1    H7 2962   2.300   1.896  16.988  0.3054 -1.4213 -0.6836
  195MPD1     C 2963   3.718   3.033   0.295  0.4998  0.3459 -0.6970
  195MPD1    C1 2964   3.692   2.945   0.403  0.0459 -0.0230 -0.0786
  195MPD1    C2 2965   3.750   2.823   0.407  0.1178 -0.5064 -0.3322
  195MPD1    C3 2966   3.853   2.791   0.317 -0.7037  1.0094  0.4852
  195MPD1    C4 2967   3.891   2.885   0.221  0.4945  0.9077 -0.7301
  195MPD1    C5 2968   3.822   3.008   0.208 -1.0687 -0.5474  0.2075
  195MPD1     H 2969   3.704   2.749   0.471  0.3990 -0.0051  0.4376
  195MPD1    H1 2970   3.960   2.862   0.141 -0.5921 -1.4445 -0.9833
  195MPD1    H2 2971   3.672   3.131   0.284  1.6612  1.2230  2.3024
  195MPD1    H3 2972   3.851   3.078   0.130  0.1949 -2.8472 -1.3804
  195MPD1     N 2973   3.903   2.657   0.312  0.4642  0.0518 -0.1122
  195MPD1    H5 2974   3.985   2.651   0.252 -1.7228 -3.3035 -2.7812
  195MPD1    N1 2975   3.591   2.974   0.489 -0.7444  0.2017 -0.5781
  195MPD1    H6 2976   3.561   3.071   0.485 -1.7926 -0.1446 -1.1646
  195MPD1    H7 2977   3.613   2.949   0.585 -1.5939 -1.4323 -0.8112
  196MPD1     C 2978   3.969   1.869   0.857 -0.2911 -0.0867  0.1613
  196MPD1    C1 2979   4.010   1.966   0.769  0.6060  0.5176 -0.2700
  196MPD1    C2 2980   3.983   2.090   0.802 -0.1352  0.1866  1.1425
  196MPD1    C3 2981   3.956   2.133   0.933 -0.5843 -0.5715 -0.8757
  196MPD1    C4 2982   3.938   2.028   1.025  0.3571  0.3848 -0.1252
  196MPD1    C5 2983   3.938   1.900   0.984  0.5949 -0.4484  0.4926
  196MPD1     H 2984   4.003   2.163   0.725  1.1838  0.7054  1.9835
  196MPD1    H1 2985   3.916   2.043   1.130 -0.8026  0.4039 -0.3706
  196MPD1    H2 2986   3.964   1.768   0.818 -0.4943  0.0628 -0.2043
  196MPD1    H3 2987   3.920   1.821   1.056  1.6553 -0.6956  0.4915
  196MPD1     N 2988   3.949   2.264   0.977 -0.0765  0.6305 -0.4612
  196MPD1    H5 2989   3.955   2.274   1.078  0.0341  0.8338 -0.4893
  196MPD1    N1 2990   4.029   1.926   0.633  0.4477  0.3487 -0.3991
  196MPD1    H6 2991   4.088   1.843   0.641 -1.0465 -0.7426 -0.6293
  196MPD1    H7 2992   4.081   2.000   0.588  0.1622 -0.0455 -1.3705
  197MPD1     C 2993   2.414   3.973  17.020 -0.4305 -0.0109 -0.3364
  197MPD1    C1 2994   2.509   4.034  17.091 -0.2104  0.2112 -0.0542
  197MPD1    C2 2995   2.538   4.172  17.077  0.0511  0.4220  0.5398
  197MPD1    C3 2996   2.460   4.246  16.981  0.1686  0.1345  1.0408
  197MPD1    C4 2997   2.362   4.178  16.917  0.0768  0.2202  0.4152
  197MPD1    C5 2998   2.348   4.042  16.932 -0.5524 -0.8791 -0.3460
  197MPD1     H 2999   2.613   4.215  17.142  2.0410 -0.6455 -1.0549
  197MPD1    H1 3000   2.288   4.222  16.852 -1.4009 -0.8784  1.3496
  197MPD1    H2 3001   2.388   3.868  17.031  1.2924 -0.2482  1.4354
  197MPD1    H3 3002   2.267   3.991  16.882 -1.5194  0.1579  0.1638
  197MPD1     N 3003   2.463   4.388  16.966  0.7072  0.1289 -0.2953
  197MPD1    H5 3004   2.395   4.428  16.903  0.2218  1.7735  1.2724
  197MPD1    N1 3005   2.562   3.970  17.200  0.0326 -0.6426  0.7346
  197MPD1    H6 3006   2.658   3.998  17.221  0.6857 -1.7848 -0.6595
  197MPD1    H7 3007   2.564   3.868  17.196 -1.0987 -0.6028 -0.9115
  198MPD1     C 3008   3.855   3.534  15.491 -0.4223  0.1917 -0.1418
  198MPD1    C1 3009   3.931   3.600  15.586  0.3341  0.5160  0.6437
  198MPD1    C2 3010   4.033   3.526  15.642  0.0593 -0.6804  0.2373
  198MPD1    C3 3011   4.080   3.409  15.580  0.3830 -0.3788  0.3806
  198MPD1    C4 3012   4.004   3.360  15.480  0.2217  0.4256 -0.0659
  198MPD1    C5 3013   3.895   3.423  15.428  0.0964  0.2953  0.1591
  198MPD1     H 3014   4.097   3.569  15.718  0.0146 -0.5642  0.2091
  198MPD1    H1 3015   4.023   3.265  15.431  1.1527  1.0087 -0.8310
  198MPD1    H2 3016   3.778   3.599  15.450 -2.0268 -1.2082  0.6778
  198MPD1    H3 3017   3.837   3.366  15.357 -2.5798  2.3690  0.6865
  198MPD1     N 3018   4.191   3.348  15.643  0.6854 -0.0235 -0.4055
  198MPD1    H5 3019   4.221   3.390  15.730  2.6212  1.6261 -1.8472
  198MPD1    N1 3020   3.880   3.718  15.641  0.2578 -0.2257  0.3397
  198MPD1    H6 3021   3.834   3.771  15.567 -0.0401 -1.8114 -0.6039
  198MPD1    H7 3022   3.949   3.782  15.679 -0.3829 -0.4744  1.9332
  199MPD1     C 3023   1.425   3.761   9.733  0.5285  0.5658  0.0050
  199MPD1    C1 3024   1.510   3.866   9.742  0.4829  0.2791 -0.1263
  199MPD1    C2 3025   1.461   3.992   9.705 -0.7877  0.6478  0.4828
  199MPD1    C3 3026   1.327   4.002   9.671 -0.0826  0.5757  0.2370
  199MPD1    C4 3027   1.242   3.893   9.675 -0.0052 -0.1276  0.4541
  199MPD1    C5 3028   1.295   3.772   9.702  0.2983  0.0099 -0.4572
  199MPD1     H 3029   1.526   4.078   9.706  1.9959 -1.4872  0.7684
  199MPD1    H1 3030   1.136   3.899   9.650  0.6551 -0.2275 -2.4261
  199MPD1    H2 3031   1.461   3.660   9.749  1.5022  1.0419  0.8176
  199MPD1    H3 3032   1.231   3.685   9.701  2.7230 -1.7510 -1.6534
  199MPD1     N 3033   1.277   4.128   9.619  0.0835 -0.1140  0.2122
  199MPD1    H5 3034   1.196   4.116   9.559 -0.8226  4.7604  0.5132
  199MPD1    N1 3035   1.651   3.850   9.748  0.0412 -0.5487 -0.5807
  199MPD1    H6 3036   1.683   3.921   9.813 -1.7849  0.2531 -0.5592
  199MPD1    H7 3037   1.682   3.764   9.793  1.2080 -1.2350 -2.6969
  200MPD1     C 3038   4.444   4.539  13.487 -0.2157  0.4300  0.1633
  200MPD1    C1 3039   4.525   4.582  13.386 -0.2576 -0.6356  0.2723
  200MPD1    C2 3040   4.669   4.577  13.410  0.8714  0.1122 -0.1143
  200MPD1    C3 3041   0.002   4.513  13.523 -0.0401 -0.0099 -0.5385
  200MPD1    C4 3042   4.640   4.465  13.616  0.5305  0.6516  0.2771
  200MPD1    C5 3043   4.501   4.489  13.595 -1.0097  0.5663 -0.0526
  200MPD1     H 3044   0.007   4.630  13.341 -0.3988  0.7572 -0.7988
  200MPD1    H1 3045   4.675   4.415  13.706  2.0857 -1.7388 -1.6747
  200MPD1    H2 3046   4.337   4.557  13.489 -0.1760  0.6899  0.0033
  200MPD1    H3 3047   4.437   4.451  13.674 -2.0770  0.9247 -0.7522
  200MPD1     N 3048   0.146   4.509  13.531 -0.3344  0.2744 -0.2965
  200MPD1    H5 3049   0.207   4.547  13.459  0.3007  3.5180  1.9559
  200MPD1    N1 3050   4.476   4.663  13.283  0.0684  0.5364  0.5875
  200MPD1    H6 3051   4.377   4.641  13.270  0.2395  1.1349 -1.6393
  200MPD1    H7 3052   4.528   4.653  13.197 -0.1502 -1.0436  0.6429
  201MPD1     C 3053   4.362   3.499  12.959 -0.6501 -0.3026  0.1753
  201MPD1    C1 3054   4.357   3.408  13.057  0.2906 -0.4778 -0.1250
  201MPD1    C2 3055   4.285   3.296  13.039 -0.7145 -0.3196 -0.0481
  201MPD1    C3 3056   4.214   3.272  12.920 -0.7823  0.0873  0.1476
  201MPD1    C4 3057   4.225   3.365  12.824  0.4428 -0.1967 -0.2259
  201MPD1    C5 3058   4.299   3.475  12.840  0.2010  0.1567  0.4813
  201MPD1     H 3059   4.264   3.232  13.124  0.1944  2.1159  2.0379
  201MPD1    H1 3060   4.169   3.349  12.733  1.9790 -1.8666 -0.8896
  201MPD1    H2 3061   4.419   3.590  12.974  0.3693 -0.7738 -0.8073
  201MPD1    H3 3062   4.290   3.559  12.772  0.6474 -1.2254 -1.2953
  201MPD1     N 3063   4.119   3.164  12.916  0.0983  0.3143  0.2892
  201MPD1    H5 3064   4.118   3.104  12.998 -0.1813 -0.2094 -0.0976
  201MPD1    N1 3065   4.415   3.436  13.185 -0.4650 -0.0581  0.0096
  201MPD1    H6 3066   4.500   3.490  13.172 -0.3727 -0.1768  0.1266
  201MPD1    H7 3067   4.428   3.347  13.232  1.6441 -0.3537 -1.1252
  202MPD1     C 3068   4.227   3.291   9.183 -0.5664  0.3161 -0.2058
  202MPD1    C1 3069   4.240   3.156   9.222  0.4859  0.0651  0.2296
  202MPD1    C2 3070   4.166   3.123   9.343 -0.3621  0.0156 -0.3413
  202MPD1    C3 3071   4.121   3.224   9.431  0.8875 -0.4316 -0.1300
  202MPD1    C4 3072   4.130   3.356   9.392 -0.4516 -0.0792  0.0464
  202MPD1    C5 3073   4.178   3.385   9.264  0.3447 -0.5412 -0.3165
  202MPD1     H 3074   4.144   3.018   9.358  0.9385  0.0652  1.9474
  202MPD1    H1 3075   4.093   3.435   9.456  0.9202 -1.5549  2.6850
  202MPD1    H2 3076   4.280   3.341   9.103  1.1823  0.5618  1.1093
  202MPD1    H3 3077   4.189   3.488   9.232  0.2697  0.0639  1.5983
  202MPD1     N 3078   4.047   3.200   9.550  0.4505  0.1494 -0.3779
  202MPD1    H5 3079   4.021   3.279   9.608  0.5756 -1.3348  1.7052
  202MPD1    N1 3080   4.243   3.064   9.113  0.3075  0.2961  0.5188
  202MPD1    H6 3081   4.267   2.968   9.140 -0.2690 -0.1952 -0.7302
  202MPD1    H7 3082   4.305   3.090   9.037 -1.5054  0.6644 -0.8140
  203MPD1     C 3083   2.153   4.436  12.206 -0.1435 -0.3653  0.3616
  203MPD1    C1 3084   2.207   4.354  12.111  0.1898  0.0367  0.1393
  203MPD1    C2 3085   2.228   4.222  12.142  0.2854  0.3091 -0.1100
  203MPD1    C3 3086   2.217   4.175  12.273  0.4952  0.0811  0.5388
  203MPD1    C4 3087   2.177   4.262  12.370  0.5314  0.2194 -0.0679
  203MPD1    C5 3088   2.143   4.390  12.332 -0.4002 -0.1717 -0.1192
  203MPD1     H 3089   2.247   4.152  12.062 -0.1216 -1.0066  0.9484
  203MPD1    H1 3090   2.173   4.224  12.472 -1.3523 -2.3838 -1.0908
  203MPD1    H2 3091   2.128   4.540  12.188  0.0764 -0.0481  1.8423
  203MPD1    H3 3092   2.087   4.450  12.404 -0.8198 -0.0357 -0.5613
  203MPD1     N 3093   2.237   4.032  12.301  0.0010 -0.1460  0.1321
  203MPD1    H5 3094   2.248   3.974  12.218 -0.1154  0.6512 -0.4482
  203MPD1    N1 3095   2.195   4.394  11.979  0.0408 -0.0149  0.1563
  203MPD1    H6 3096   2.258   4.344  11.916 -2.6307 -3.2530  0.0840
  203MPD1    H7 3097   2.205   4.495  11.976  0.5408 -0.0330  1.0052
  204MPD1     C 3098   2.060   4.411  17.543 -0.1196 -0.0325  0.0696
  204MPD1    C1 3099   1.976   4.414  17.438  0.1893  0.2664  0.3950
  204MPD1    C2 3100   1.904   4.300  17.403 -0.0751  0.5584 -0.3792
  204MPD1    C3 3101   1.932   4.178  17.458 -0.0043  0.0782 -0.2567
  204MPD1    C4 3102   2.018   4.178  17.561 -0.2185  0.3026  0.0065
  204MPD1    C5 3103   2.087   4.293  17.596 -0.7913 -0.5218  0.2698
  204MPD1     H 3104   1.843   4.299  17.314 -1.0210 -1.2006  0.2888
  204MPD1    H1 3105   2.031   4.092  17.625 -1.7806  0.3853  0.4414
  204MPD1    H2 3106   2.118   4.498  17.571  0.7267 -1.0803  1.5388
  204MPD1    H3 3107   2.160   4.291  17.676  0.1210  0.3944 -0.5445
  204MPD1     N 3108   1.864   4.063  17.407 -0.0262  0.3508  0.1840
  204MPD1    H5 3109   1.782   4.080  17.349 -0.0274  0.1859  0.1357
  204MPD1    N1 3110   1.919   4.537  17.402  0.1061 -0.0902  0.2050
  204MPD1    H6 3111   1.973   4.620  17.423  0.3927 -0.1501 -0.2840
  204MPD1    H7 3112   1.885   4.538  17.307 -0.5175 -0.9076  0.4214
  205MPD1     C 3113   0.947   2.697  17.145  0.3259  0.6378  1.1325
  205MPD1    C1 3114   1.033   2.632  17.069 -0.1444 -0.2352  0.1700
  205MPD1    C2 3115   1.170   2.625  17.118 -0.2208 -0.1343 -0.3644
  205MPD1    C3 3116   1.213   2.696  17.229 -0.3169 -0.1368  0.3967
  205MPD1    C4 3117   1.115   2.760  17.302 -0.0686  0.4858 -0.3425
  205MPD1    C5 3118   0.986   2.770  17.254  0.3883 -0.0881  0.6587
  205MPD1     H 3119   1.231   2.557  17.060 -1.2341 -0.4283 -1.0898
  205MPD1    H1 3120   1.137   2.804  17.399  1.1681  1.0248 -0.8695
  205MPD1    H2 3121   0.842   2.689  17.123  0.3624  0.7302  0.9265
  205MPD1    H3 3122   0.910   2.827  17.306 -0.9538  1.2254 -2.7451
  205MPD1     N 3123   1.342   2.695  17.292  0.1738  0.1783  0.0348
  205MPD1    H5 3124   1.364   2.761  17.365 -1.6049 -0.6359  1.2887
  205MPD1    N1 3125   0.986   2.537  16.977 -0.3507  0.3523 -0.1653
  205MPD1    H6 3126   1.061   2.524  16.910  0.1186 -2.1932  0.8558
  205MPD1    H7 3127   0.908   2.577  16.924  0.5144  1.1558 -0.8236
  206MPD1     C 3128   2.353   1.761  16.466 -0.1317 -0.3034  0.0647
  206MPD1    C1 3129   2.296   1.672  16.558  0.1366  0.0521  0.5031
  206MPD1    C2 3130   2.172   1.623  16.519  0.2263 -0.2318 -0.4473
  206MPD1    C3 3131   2.093   1.671  16.415 -0.1210  1.1208 -0.1080
  206MPD1    C4 3132   2.160   1.764  16.334 -0.9195 -0.1500  0.0133
  206MPD1    C5 3133   2.289   1.804  16.353  0.1557 -0.4438 -0.1090
  206MPD1     H 3134   2.124   1.549  16.583  0.2575  0.2071  0.0805
  206MPD1    H1 3135   2.104   1.815  16.256 -0.6205  1.5749  0.9296
  206MPD1    H2 3136   2.441   1.819  16.490 -0.6502  0.2608  0.5807
  206MPD1    H3 3137   2.335   1.875  16.286 -1.2354  0.2233 -0.3482
  206MPD1     N 3138   1.961   1.639  16.384  0.6474 -0.4523  0.1509
  206MPD1    H5 3139   1.920   1.686  16.304 -0.1433  0.2200  0.9444
  206MPD1    N1 3140   2.363   1.610  16.663  0.3117  0.3332  0.5565
  206MPD1    H6 3141   2.308   1.556  16.730 -2.7669  1.1911 -1.2755
  206MPD1    H7 3142   2.430   1.664  16.718  1.0674 -0.2507  0.2112
  207MPD1     C 3143   3.442   3.759   9.449 -0.6807 -0.0396  0.8159
  207MPD1    C1 3144   3.503   3.699   9.557  0.0391  0.2745  0.7431
  207MPD1    C2 3145   3.625   3.755   9.586  0.9666  0.8375 -0.8347
  207MPD1    C3 3146   3.688   3.851   9.508 -0.5143  0.3833 -0.3408
  207MPD1    C4 3147   3.624   3.907   9.401  0.3750  0.4323  0.6288
  207MPD1    C5 3148   3.500   3.863   9.373  0.2662  0.7773  0.1389
  207MPD1     H 3149   3.665   3.702   9.672 -0.7661  1.1002  0.1430
  207MPD1    H1 3150   3.674   3.977   9.334 -0.0327 -1.6495 -1.8639
  207MPD1    H2 3151   3.341   3.727   9.426 -0.4225 -0.6141  0.4865
  207MPD1    H3 3152   3.441   3.908   9.295 -1.8668 -1.0587  0.6766
  207MPD1     N 3153   3.821   3.892   9.534  0.3014 -0.6456  0.1500
  207MPD1    H5 3154   3.854   3.971   9.479 -0.5077  0.4372  1.2127
  207MPD1    N1 3155   3.431   3.591   9.625 -0.3396  0.5145  0.2260
  207MPD1    H6 3156   3.463   3.581   9.721 -0.8172  2.7651  0.6225
  207MPD1    H7 3157   3.330   3.587   9.628 -0.3484  0.2848 -0.3067
  208MPD1     C 3158   3.415   2.898  17.212 -0.7576 -0.3972 -0.7370
  208MPD1    C1 3159   3.294   2.891  17.140  0.2860 -0.3046 -0.1343
  208MPD1    C2 3160   3.192   2.828  17.195  0.5278  0.2153  0.5933
  208MPD1    C3 3161   3.197   2.750  17.314  0.2525 -0.2187  0.1134
  208MPD1    C4 3162   3.321   2.740  17.374 -0.0770 -0.2348 -0.4395
  208MPD1    C5 3163   3.419   2.824  17.331 -0.3007  0.3933  0.8104
  208MPD1     H 3164   3.102   2.834  17.134 -1.1720 -1.8003  2.8752
  208MPD1    H1 3165   3.330   2.697  17.473  4.5334 -0.5197 -0.9836
  208MPD1    H2 3166   3.492   2.955  17.162  0.0211 -0.7117  0.1073
  208MPD1    H3 3167   3.507   2.830  17.393  1.6519 -3.5228 -1.5336
  208MPD1     N 3168   3.075   2.703  17.360  0.0968 -0.5513  0.2291
  208MPD1    H5 3169   2.991   2.725  17.308  0.8893 -2.1631 -1.7736
  208MPD1    N1 3170   3.273   2.979  17.030  0.1582 -0.9591 -0.2018
  208MPD1    H6 3171   3.360   2.981  16.977 -0.1075 -0.6481 -0.6274
  208MPD1    H7 3172   3.203   2.953  16.961  0.5414 -2.7014  0.0786
  209MPD1     C 3173   4.657   3.841  11.342 -0.1288 -0.0407  0.0958
  209MPD1    C1 3174   0.048   3.840  11.269  1.1764 -0.0833 -0.3900
  209MPD1    C2 3175   0.045   3.904  11.143 -0.7419  0.9332  0.0186
  209MPD1    C3 3176   4.660   3.960  11.093 -0.1136 -0.0649  0.0353
  209MPD1    C4 3177   4.537   3.949  11.163 -0.1209 -0.0690 -0.4913
  209MPD1    C5 3178   4.536   3.887  11.289 -0.6952 -0.3254 -0.2137
  209MPD1     H 3179   0.135   3.918  11.083 -0.3381  1.3062  0.7122
  209MPD1    H1 3180   4.438   3.979  11.128 -0.1758 -0.0337 -0.3074
  209MPD1    H2 3181   4.646   3.780  11.431 -1.4624 -0.6447 -0.4837
  209MPD1    H3 3182   4.440   3.887  11.341  0.1235 -0.2005  1.2967
  209MPD1     N 3183   4.663   4.018  10.961 -0.5172  0.2643 -0.6998
  209MPD1    H5 3184   0.024   4.023  10.909 -1.3003 -1.7962 -2.2233
  209MPD1    N1 3185   0.158   3.767  11.312 -0.4052 -0.1854 -0.1957
  209MPD1    H6 3186   0.170   3.677  11.266 -1.4833  0.0364 -0.9043
  209MPD1    H7 3187   0.173   3.754  11.412  0.0042 -3.4450 -0.6719
  210MPD1     C 3188   0.360   0.037  10.451 -0.0383  0.7492 -0.1054
  210MPD1    C1 3189   0.346   4.721  10.583  0.2195 -0.4133  0.0392
  210MPD1    C2 3190   0.249   4.624  10.607 -0.1122  0.1062  0.1604
  210MPD1    C3 3191   0.180   4.556  10.502  0.7037  0.5353  0.5743
  210MPD1    C4 3192   0.213   4.595  10.374  0.5995  0.0092  0.2532
  210MPD1    C5 3193   0.300   4.698  10.349 -0.3969  0.3906  0.3846
  210MPD1     H 3194   0.229   4.592  10.708 -0.4624  1.4454  0.5070
  210MPD1    H1 3195   0.172   4.528  10.299  0.1472 -1.8859  2.2077
  210MPD1    H2 3196   0.423   0.122  10.426  1.5367  0.0654  1.5856
  210MPD1    H3 3197   0.326   0.001  10.248  0.5301  0.2602  0.5806
  210MPD1     N 3198   0.099   4.444  10.526 -0.5667 -0.6595  0.4445
  210MPD1    H5 3199   0.067   4.393  10.444 -1.7626 -1.7844  1.6146
  210MPD1    N1 3200   0.402   0.062  10.692 -0.3823  0.0983 -0.5063
  210MPD1    H6 3201   0.492   0.105  10.670  0.4319 -1.2962  0.0869
  210MPD1    H7 3202   0.422   0.004  10.773  0.2064  0.3053 -0.5061
  211MPD1     C 3203   2.300   2.810  15.864  0.4168  0.0538  0.7419
  211MPD1    C1 3204   2.256   2.937  15.872 -0.5241  0.2111 -0.2558
  211MPD1    C2 3205   2.121   2.955  15.849  0.4929 -0.5969  0.3837
  211MPD1    C3 3206   2.029   2.851  15.837 -0.6043 -0.7116  0.3234
  211MPD1    C4 3207   2.080   2.715  15.837  0.5818 -0.0874  0.3549
  211MPD1    C5 3208   2.213   2.706  15.863 -0.1375 -0.2734  0.3035
  211MPD1     H 3209   2.076   3.054  15.852 -0.6341 -1.0324 -2.6061
  211MPD1    H1 3210   2.016   2.629  15.820 -0.2364  1.2304 -3.1855
  211MPD1    H2 3211   2.407   2.793  15.861  0.2592 -0.8855  0.4356
  211MPD1    H3 3212   2.254   2.606  15.863 -0.6044 -0.4593 -1.8883
  211MPD1     N 3213   1.892   2.884  15.814  0.3945  0.0091 -0.0716
  211MPD1    H5 3214   1.880   2.983  15.798  0.4000  0.4042  2.3777
  211MPD1    N1 3215   2.357   3.037  15.869 -0.2217 -0.1833  0.8071
  211MPD1    H6 3216   2.327   3.125  15.910 -1.5804 -0.5336  0.5529
  211MPD1    H7 3217   2.445   3.005  15.907 -0.7563 -2.8288 -0.2134
  212MPD1     C 3218   1.175   1.833  16.425  0.8280 -0.1933 -0.5947
  212MPD1    C1 3219   1.107   1.869  16.542 -0.1670 -0.1001 -0.2998
  212MPD1    C2 3220   1.023   1.771  16.593 -0.1868 -0.9661  0.1652
  212MPD1    C3 3221   1.009   1.645  16.544  0.3319 -0.3393  0.1171
  212MPD1    C4 3222   1.078   1.617  16.424  0.5487  0.1794 -0.2966
  212MPD1    C5 3223   1.167   1.705  16.373  0.0236  0.5903  0.2426
  212MPD1     H 3224   0.955   1.804  16.671 -1.7540 -0.0878 -1.6018
  212MPD1    H1 3225   1.078   1.516  16.385  0.2007  0.0788 -0.0301
  212MPD1    H2 3226   1.249   1.896  16.377  1.7388 -0.4487  0.4794
  212MPD1    H3 3227   1.232   1.676  16.291 -0.4970  0.7869 -0.2494
  212MPD1     N 3228   0.927   1.549  16.597  0.2447 -0.9077 -0.0335
  212MPD1    H5 3229   0.925   1.458  16.552  1.5051 -0.4928 -0.9260
  212MPD1    N1 3230   1.106   2.010  16.581 -0.0948  0.4949  0.1132
  212MPD1    H6 3231   1.197   2.056  16.572 -1.0379  2.4074  0.4882
  212MPD1    H7 3232   1.080   2.021  16.679  0.8290 -2.4612  0.7148
  213MPD1     C 3233   4.363   2.433  15.817  0.2135 -0.3714 -0.0267
  213MPD1    C1 3234   4.252   2.343  15.817  0.1627 -0.0138 -0.4469
  213MPD1    C2 3235   4.171   2.354  15.705 -0.4224  0.3879  0.2250
  213MPD1    C3 3236   4.177   2.457  15.608  0.0569  0.7965 -0.5194
  213MPD1    C4 3237   4.277   2.553  15.625  0.1482 -0.1125  0.2360
  213MPD1    C5 3238   4.374   2.530  15.721 -0.7080  0.4764 -0.5522
  213MPD1     H 3239   4.111   2.266  15.684  1.1549 -0.4969 -0.6020
  213MPD1    H1 3240   4.297   2.636  15.558  1.4700 -0.3165  0.3832
  213MPD1    H2 3241   4.451   2.410  15.876  2.1412 -0.2857 -2.8392
  213MPD1    H3 3242   4.460   2.595  15.729 -0.6539  0.4110 -0.6045
  213MPD1     N 3243   4.090   2.468  15.496  0.4065  0.5408  0.8834
  213MPD1    H5 3244   4.000   2.420  15.499  0.7636 -0.3174 -1.5888
  213MPD1    N1 3245   4.270   2.221  15.881 -0.0531  0.0532  0.1432
  213MPD1    H6 3246   4.181   2.174  15.894 -1.2569  1.9765 -0.9316
  213MPD1    H7 3247   4.306   2.234  15.975 -2.2714  3.9081  0.4987
  214MPD1     C 3248   3.559   2.136  14.719  0.2931  0.9293  0.5872
  214MPD1    C1 3249   3.688   2.113  14.760 -0.2472 -0.3186  0.6288
  214MPD1    C2 3250   3.738   2.200  14.854  0.2893  0.1443  0.5963
  214MPD1    C3 3251   3.669   2.312  14.895 -1.0397  0.6282 -0.1937
  214MPD1    C4 3252   3.552   2.344  14.842  0.2793 -0.0923 -0.0938
  214MPD1    C5 3253   3.498   2.254  14.759  0.0210 -0.1371  0.5783
  214MPD1     H 3254   3.829   2.171  14.904  1.6719  1.2119 -1.2851
  214MPD1    H1 3255   3.499   2.436  14.867  1.7240  0.2005  1.9053
  214MPD1    H2 3256   3.508   2.074  14.646  1.4992  1.4738 -0.7308
  214MPD1    H3 3257   3.391   2.264  14.742  0.3207  2.6930  0.3125
  214MPD1     N 3258   3.720   2.404  14.990 -0.0873 -0.7791  1.0183
  214MPD1    H5 3259   3.664   2.487  15.002  1.1913  0.4700 -1.8702
  214MPD1    N1 3260   3.762   1.995  14.729 -0.0650 -0.4067 -0.0436
  214MPD1    H6 3261   3.729   1.953  14.642 -0.4075  0.5719 -0.3790
  214MPD1    H7 3262   3.864   2.000  14.720 -0.3360  2.3630 -1.6966
  215MPD1     C 3263   3.778   3.144  10.422 -0.0019  0.1419  0.0418
  215MPD1    C1 3264   3.762   3.257  10.350  0.3924 -0.3505 -0.0444
  215MPD1    C2 3265   3.845   3.367  10.367  0.2259  0.2488 -0.1869
  215MPD1    C3 3266   3.949   3.366  10.452  0.4076  0.4171 -0.5473
  215MPD1    C4 3267   3.979   3.246  10.518 -0.1500 -0.4385  0.1221
  215MPD1    C5 3268   3.895   3.137  10.505  0.0575  0.5140  0.9117
  215MPD1     H 3269   3.823   3.453  10.305 -0.2564 -1.2068 -2.0557
  215MPD1    H1 3270   4.054   3.244  10.597 -1.2214 -1.0730  1.1229
  215MPD1    H2 3271   3.715   3.056  10.414 -1.6581  1.4739 -1.3207
  215MPD1    H3 3272   3.921   3.051  10.566 -4.8856 -0.4198  1.7223
  215MPD1     N 3273   4.019   3.487  10.458  0.2378  0.0527  0.1349
  215MPD1    H5 3274   3.965   3.569  10.434  1.2723  0.9674  0.8969
  215MPD1    N1 3275   3.648   3.273  10.275  0.0417 -0.0176  0.2117
  215MPD1    H6 3276   3.652   3.333  10.193  0.4226 -0.4006 -0.0492
  215MPD1    H7 3277   3.601   3.184  10.259 -1.2117  0.8847 -1.0788
  216MPD1     C 3278   1.332   1.311  16.186 -0.4857 -0.2168 -0.4864
  216MPD1    C1 3279   1.321   1.173  16.196  0.5501  0.0686  0.7226
  216MPD1    C2 3280   1.279   1.114  16.309 -0.6607  0.1838  1.5230
  216MPD1    C3 3281   1.269   1.184  16.426  0.4029  0.4250  0.3074
  216MPD1    C4 3282   1.287   1.324  16.414 -0.5843 -0.7499 -0.1217
  216MPD1    C5 3283   1.323   1.386  16.298 -1.1831  0.3436 -0.6534
  216MPD1     H 3284   1.255   1.008  16.318 -0.9039 -0.0450 -1.8725
  216MPD1    H1 3285   1.282   1.385  16.503  1.1076  0.3122 -0.7581
  216MPD1    H2 3286   1.349   1.361  16.092 -0.0911 -2.5708 -1.6851
  216MPD1    H3 3287   1.346   1.491  16.311  2.0217 -0.0383 -3.0343
  216MPD1     N 3288   1.222   1.120  16.540  0.2117 -0.4158 -0.4543
  216MPD1    H5 3289   1.203   1.022  16.522 -0.7081 -0.0748 -1.4081
  216MPD1    N1 3290   1.328   1.097  16.080  0.3735  0.3994 -0.2554
  216MPD1    H6 3291   1.361   1.002  16.087  2.2904  1.1367  0.6317
  216MPD1    H7 3292   1.384   1.147  16.010 -0.0412  1.5182  0.2047
  217MPD1     C 3293   1.466   2.190   8.536  0.1393 -0.5749  0.1068
  217MPD1    C1 3294   1.501   2.101   8.636  0.2802  0.2209  0.4890
  217MPD1    C2 3295   1.601   2.138   8.723  0.6309 -0.3443  0.1335
  217MPD1    C3 3296   1.650   2.270   8.720 -0.1529 -0.4215  0.1266
  217MPD1    C4 3297   1.621   2.342   8.609  0.1419  0.1873  0.3729
  217MPD1    C5 3298   1.534   2.303   8.513 -0.8203 -0.0496  0.6271
  217MPD1     H 3299   1.622   2.072   8.806  0.4025  1.0436  1.2854
  217MPD1    H1 3300   1.657   2.444   8.599  0.0140  0.3252  1.2517
  217MPD1    H2 3301   1.391   2.169   8.460 -0.9947 -2.7248  1.7952
  217MPD1    H3 3302   1.504   2.377   8.440  0.8048  0.1535  0.1496
  217MPD1     N 3303   1.745   2.333   8.801  0.0831 -0.0472  0.3826
  217MPD1    H5 3304   1.755   2.434   8.798 -1.0416  0.0697  0.3024
  217MPD1    N1 3305   1.461   1.970   8.624 -0.2169  0.2370 -0.6325
  217MPD1    H6 3306   1.362   1.975   8.599 -0.9926 -1.8957  2.0183
  217MPD1    H7 3307   1.476   1.919   8.710  1.2710  0.7759 -0.5721
  218MPD1     C 3308   3.124   3.474  12.679  0.5312  0.8536  1.1183
  218MPD1    C1 3309   3.222   3.387  12.657  0.0374 -0.3921  0.3366
  218MPD1    C2 3310   3.329   3.420  12.577 -0.9529 -0.4770  0.1112
  218MPD1    C3 3311   3.333   3.544  12.511 -0.5235  0.6309 -0.2511
  218MPD1    C4 3312   3.228   3.633  12.529  0.3476  0.2199 -0.9860
  218MPD1    C5 3313   3.124   3.598  12.609  0.5647  0.2738  0.1583
  218MPD1     H 3314   3.406   3.348  12.550 -0.0455 -0.4166  2.5325
  218MPD1    H1 3315   3.226   3.733  12.487  1.1881 -1.1447 -4.3597
  218MPD1    H2 3316   3.036   3.455  12.739 -0.5328 -0.3485 -0.8402
  218MPD1    H3 3317   3.044   3.669  12.626  0.2931 -0.1446  0.6542
  218MPD1     N 3318   3.449   3.574  12.427 -0.2850 -0.0685 -0.0183
  218MPD1    H5 3319   3.513   3.495  12.424 -0.9141 -0.5696 -0.3252
  218MPD1    N1 3320   3.209   3.253  12.711 -0.2274 -0.7827 -0.3424
  218MPD1    H6 3321   3.292   3.199  12.734 -0.4991 -0.9325  0.2683
  218MPD1    H7 3322   3.139   3.256  12.784 -2.8534 -0.0595 -2.8716
  219MPD1     C 3323   3.524   3.970  11.531 -0.0492  0.3662 -0.6244
  219MPD1    C1 3324   3.657   3.947  11.555 -0.0033 -0.2917  0.5837
  219MPD1    C2 3325   3.694   3.903  11.684  0.6669 -0.0261  0.0513
  219MPD1    C3 3326   3.592   3.871  11.772  0.5871 -0.3863 -0.2940
  219MPD1    C4 3327   3.457   3.879  11.735  0.5350  0.2437 -0.1256
  219MPD1    C5 3328   3.427   3.931  11.614  0.1294 -0.4958  0.5744
  219MPD1     H 3329   3.799   3.892  11.710  0.1234 -2.9864  0.9892
  219MPD1    H1 3330   3.375   3.872  11.805 -0.2614 -3.5611 -1.4446
  219MPD1    H2 3331   3.481   4.010  11.439  0.2034  1.4930 -0.2579
  219MPD1    H3 3332   3.325   3.964  11.595  0.5870  0.5685 -0.0065
  219MPD1     N 3333   3.612   3.821  11.904  0.3897  0.3753  0.0643
  219MPD1    H5 3334   3.539   3.776  11.958  0.7077  0.2823  0.4179
  219MPD1    N1 3335   3.758   3.985  11.465  0.1062 -0.7888  0.2011
  219MPD1    H6 3336   3.844   3.941  11.498  0.3824  0.2421  0.8522
  219MPD1    H7 3337   3.749   3.951  11.370  1.7370 -0.5765 -0.0274
  220MPD1     C 3338   3.376   4.642   9.170 -0.2425  0.4753 -0.4173
  220MPD1    C1 3339   3.438   4.692   9.281 -0.5831  0.4310  0.2503
  220MPD1    C2 3340   3.473   4.597   9.377  0.4513 -0.2306 -0.6036
  220MPD1    C3 3341   3.450   4.454   9.359 -0.0586 -0.5375 -0.5906
  220MPD1    C4 3342   3.385   4.413   9.252 -0.5453  0.1442 -0.1080
  220MPD1    C5 3343   3.349   4.505   9.161 -0.3668 -0.3317  0.3052
  220MPD1     H 3344   3.528   4.633   9.462 -2.6316  0.4797  1.1101
  220MPD1    H1 3345   3.360   4.310   9.230  0.1541 -0.2501  0.9460
  220MPD1    H2 3346   3.351   4.710   9.089  2.7312 -0.2874 -1.9602
  220MPD1    H3 3347   3.295   4.472   9.073  0.1680 -3.2725  1.0909
  220MPD1     N 3348   3.487   4.362   9.459 -0.4080 -0.1337  0.1322
  220MPD1    H5 3349   3.553   4.388   9.532 -0.6308 -1.8617  0.9459
  220MPD1    N1 3350   3.483   0.101   9.282  0.3387  0.3890  0.1241
  220MPD1    H6 3351   3.488   0.142   9.375 -2.6902 -1.0522  0.9187
  220MPD1    H7 3352   3.448   0.164   9.210  0.5372  1.5306  1.0229
  221MPD1     C 3353   2.199   2.431  16.740  0.4157 -0.5910  0.2140
  221MPD1    C1 3354   2.198   2.523  16.635  0.0892 -0.2421  0.8627
  221MPD1    C2 3355   2.076   2.532  16.581  0.5903 -0.4760  0.0224
  221MPD1    C3 3356   1.960   2.487  16.630  1.0198 -0.1722  0.1348
  221MPD1    C4 3357   1.963   2.406  16.740 -0.0730  0.1452 -0.3543
  221MPD1    C5 3358   2.084   2.368  16.786 -0.3626  0.9482 -0.1000
  221MPD1     H 3359   2.055   2.597  16.496  2.8828 -1.6746 -1.4736
  221MPD1    H1 3360   1.881   2.342  16.772 -0.3414  0.7360  0.1374
  221MPD1    H2 3361   2.283   2.411  16.806  1.2062 -0.2356 -0.6824
  221MPD1    H3 3362   2.073   2.300  16.870  1.1346  0.7535 -0.0788
  221MPD1     N 3363   1.846   2.513  16.549 -0.7429 -0.1168 -0.6251
  221MPD1    H5 3364   1.869   2.562  16.463  2.5175  0.5502  0.6216
  221MPD1    N1 3365   2.316   2.571  16.568 -0.7166  0.1193 -0.1065
  221MPD1    H6 3366   2.296   2.648  16.505 -0.8120  0.2293  0.0604
  221MPD1    H7 3367   2.391   2.601  16.630 -2.1130  0.8184  1.2366
  222MPD1     C 3368   0.537   1.117  17.675  0.1651  0.3321  0.2935
  222MPD1    C1 3369   0.598   1.131  17.556 -0.4157 -0.2312  0.1297
  222MPD1    C2 3370   0.626   1.254  17.504 -0.2451 -0.0758  0.8347
  222MPD1    C3 3371   0.591   1.373  17.576  1.2265  0.2181  0.2896
  222MPD1    C4 3372   0.516   1.354  17.685  0.7114  0.0894  0.2451
  222MPD1    C5 3373   0.502   1.226   0.040 -0.2053  0.5066 -0.0210
  222MPD1     H 3374   0.674   1.277  17.409 -2.2282  0.5588 -0.0060
  222MPD1    H1 3375   0.481   1.436   0.043  1.3419  1.2233 -0.9045
  222MPD1    H2 3376   0.519   1.019   0.013 -0.4442  0.8312  1.1754
  222MPD1    H3 3377   0.457   1.207   0.137 -1.8772  0.9129 -0.7080
  222MPD1     N 3378   0.608   1.507  17.524  0.0760 -0.3620  0.0818
  222MPD1    H5 3379   0.567   1.578  17.584  0.0092  0.2554 -0.7045
  222MPD1    N1 3380   0.629   1.022  17.473 -0.5272  0.1035 -0.2727
  222MPD1    H6 3381   0.657   0.939  17.525 -0.7866 -0.5672 -1.1931
  222MPD1    H7 3382   0.688   1.030  17.391  2.4280 -2.7664  1.6087
  223MPD1     C 3383   0.383   2.094   0.286  0.8944  0.1460  0.5393
  223MPD1    C1 3384   0.513   2.130   0.251  0.1959  0.0146  0.1166
  223MPD1    C2 3385   0.561   2.104   0.120 -0.3471 -0.6911  0.5274
  223MPD1    C3 3386   0.480   2.040   0.026 -0.5008  0.4415  0.3638
  223MPD1    C4 3387   0.351   2.004   0.064 -0.3197 -0.1054 -0.5672
  223MPD1    C5 3388   0.307   2.024   0.191  0.7846 -0.1720 -0.4138
  223MPD1     H 3389   0.659   2.137   0.089  0.0699 -2.1750  0.2834
  223MPD1    H1 3390   0.286   1.943   0.002  0.9944  0.0623 -2.1173
  223MPD1    H2 3391   0.342   2.115   0.384 -1.3696  0.6950 -0.5330
  223MPD1    H3 3392   0.201   2.005   0.205  0.5619  2.0302  0.8739
  223MPD1     N 3393   0.540   1.996  17.607 -0.1002  0.4859  0.8233
  223MPD1    H5 3394   0.637   2.026  17.595 -0.0599  0.1114  0.2222
  223MPD1    N1 3395   0.595   2.176   0.359 -0.3417  0.5186 -0.6778
  223MPD1    H6 3396   0.562   2.261   0.405 -2.2149 -0.3078 -0.4646
  223MPD1    H7 3397   0.687   2.208   0.331 -0.1667  0.4374 -0.1998
  224MPD1     C 3398   2.173   3.147   8.601  0.2719  0.3506 -0.2751
  224MPD1    C1 3399   2.133   3.268   8.651 -0.3594 -0.0967 -0.1012
  224MPD1    C2 3400   2.183   3.304   8.776  0.2530  0.0244 -0.7846
  224MPD1    C3 3401   2.252   3.214   8.852  0.4977  0.1792 -0.3419
  224MPD1    C4 3402   2.284   3.088   8.804  0.6548  0.6853 -0.2874
  224MPD1    C5 3403   2.244   3.060   8.678  0.3605  0.6005 -0.0318
  224MPD1     H 3404   2.161   3.403   8.813 -0.0584  0.6221 -2.5541
  224MPD1    H1 3405   2.344   3.019   8.862 -0.4987 -0.3098 -0.2909
  224MPD1    H2 3406   2.149   3.118   8.499  1.0375  0.0623 -0.3723
  224MPD1    H3 3407   2.268   2.963   8.637 -0.0209 -0.5144  2.4080
  224MPD1     N 3408   2.284   3.231   8.989 -0.1109 -1.0707  0.5299
  224MPD1    H5 3409   2.338   3.160   9.038  0.8796 -1.1892 -0.7343
  224MPD1    N1 3410   2.073   3.359   8.565 -0.5661  0.1339 -0.2273
  224MPD1    H6 3411   2.038   3.310   8.483  0.3510 -0.9239  0.0095
  224MPD1    H7 3412   2.009   3.422   8.613  0.6615  0.5275  0.8924
  225MPD1     C 3413   3.398   4.373  12.732  0.4815  0.2682  0.7011
  225MPD1    C1 3414   3.324   4.273  12.678  0.0733  0.5919  0.2040
  225MPD1    C2 3415   3.268   4.294  12.555 -0.3875  0.1462  0.9849
  225MPD1    C3 3416   3.292   4.404  12.480  1.4367  0.1944 -0.6240
  225MPD1    C4 3417   3.371   4.500  12.538  0.3926  0.4343  0.3625
  225MPD1    C5 3418   3.416   4.486  12.667  0.3084 -0.2360  0.5356
  225MPD1     H 3419   3.212   4.213  12.511 -1.2922  0.1339  2.1494
  225MPD1    H1 3420   3.407   4.584  12.479  0.4973  0.0189 -0.1763
  225MPD1    H2 3421   3.449   4.371  12.827  3.6640 -1.0122 -1.0518
  225MPD1    H3 3422   3.473   4.564  12.716  0.5822  0.9751 -1.6714
  225MPD1     N 3423   3.245   4.415  12.346 -0.2716  0.3149  0.5688
  225MPD1    H5 3424   3.278   4.493  12.290  0.4214 -1.2460 -1.2158
  225MPD1    N1 3425   3.286   4.165  12.761  0.4728  0.0325 -0.2847
  225MPD1    H6 3426   3.351   4.144  12.836  0.0727  1.8790  0.5861
  225MPD1    H7 3427   3.274   4.085  12.699  0.5756 -0.4490  0.3224
  226MPD1     C 3428   2.645   4.549   9.080  0.0968 -0.1812  0.1767
  226MPD1    C1 3429   2.552   4.545   8.980 -0.4850  0.3085  0.0296
  226MPD1    C2 3430   2.482   4.427   8.953 -0.8262  0.2698  0.5157
  226MPD1    C3 3431   2.510   4.308   9.022 -0.1705  0.0170  0.1184
  226MPD1    C4 3432   2.608   4.315   9.124 -0.4868 -0.3568 -0.1545
  226MPD1    C5 3433   2.679   4.434   9.144  0.1077 -0.4461  0.3991
  226MPD1     H 3434   2.413   4.442   8.870  0.9755 -1.4849 -1.2994
  226MPD1    H1 3435   2.654   4.226   9.167 -1.5677  0.1276  2.0149
  226MPD1    H2 3436   2.700   4.639   9.103 -1.0085  0.4991  0.1729
  226MPD1    H3 3437   2.755   4.440   9.220  2.3396 -3.1546 -1.5973
  226MPD1     N 3438   2.448   4.188   8.971  0.4173  0.0994  0.4159
  226MPD1    H5 3439   2.382   4.197   8.895 -0.1963 -0.1530  0.9219
  226MPD1    N1 3440   2.516   4.669   8.929 -0.4798 -0.4010  0.5886
  226MPD1    H6 3441   2.597   0.004   8.932 -2.0295  1.6514  1.2237
  226MPD1    H7 3442   2.477   4.666   8.835 -0.8589 -1.2377  0.7686
  227MPD1     C 3443   1.600   3.789   8.639  0.4917  0.4016 -0.5309
  227MPD1    C1 3444   1.640   3.689   8.727 -0.1346  0.6243  0.3400
  227MPD1    C2 3445   1.766   3.701   8.777  0.0219  1.7504 -0.1802
  227MPD1    C3 3446   1.843   3.816   8.756  0.9103 -0.1908  0.0323
  227MPD1    C4 3447   1.794   3.912   8.675 -0.0415  0.0645  0.5453
  227MPD1    C5 3448   1.669   3.902   8.624 -1.0334 -0.2301  0.7064
  227MPD1     H 3449   1.816   3.620   8.829  2.1804  2.2674 -1.4554
  227MPD1    H1 3450   1.857   3.996   8.649  0.3086 -0.5600 -0.6012
  227MPD1    H2 3451   1.501   3.803   8.597  1.1726 -0.8595 -2.5253
  227MPD1    H3 3452   1.629   3.975   8.555 -2.8057 -1.5370  0.3614
  227MPD1     N 3453   1.970   3.820   8.818 -0.1972 -0.1808 -0.8326
  227MPD1    H5 3454   1.986   3.746   8.886 -0.4158  0.2591 -0.3058
  227MPD1    N1 3455   1.568   3.567   8.728 -0.2283  0.1861  0.5005
  227MPD1    H6 3456   1.469   3.586   8.713  0.3086  2.6560  0.1269
  227MPD1    H7 3457   1.568   3.514   8.815  1.2015  1.5393  1.3148
  228MPD1     C 3458   0.938   2.299  13.058 -0.2409 -0.1204  0.5880
  228MPD1    C1 3459   0.871   2.394  12.977 -0.4461  0.0287 -0.0075
  228MPD1    C2 3460   0.735   2.383  12.972 -0.0557 -0.5330  0.2910
  228MPD1    C3 3461   0.666   2.268  13.014  0.0473 -0.0067 -0.0617
  228MPD1    C4 3462   0.735   2.171  13.079  0.4475 -0.3937  0.4651
  228MPD1    C5 3463   0.868   2.194  13.106 -0.0075 -0.2512  0.4240
  228MPD1     H 3464   0.675   2.466  12.936 -1.7675 -1.8759  0.0563
  228MPD1    H1 3465   0.697   2.073  13.105  1.0282  0.3499  4.2038
  228MPD1    H2 3466   1.044   2.309  13.077 -0.2979 -1.4230  1.5823
  228MPD1    H3 3467   0.922   2.116  13.157  1.4415  1.6610  1.8250
  228MPD1     N 3468   0.530   2.254  12.983 -0.6698  0.5260  0.0668
  228MPD1    H5 3469   0.483   2.328  12.931 -1.5108 -0.8663 -1.1586
  228MPD1    N1 3470   0.938   2.511  12.929  0.0619 -0.0421  0.1594
  228MPD1    H6 3471   0.891   2.547  12.845  0.5692 -0.2208 -0.2008
  228MPD1    H7 3472   1.034   2.492  12.901  0.3089  0.4173  0.7107
  229MPD1     C 3473   4.327   0.565  14.811  0.9910  0.1184  0.1228
  229MPD1    C1 3474   4.414   0.651  14.746  0.0174  0.8476  0.6719
  229MPD1    C2 3475   4.552   0.638  14.774 -0.1179 -0.5567 -0.7166
  229MPD1    C3 3476   4.600   0.527  14.845 -0.6410  0.0542 -0.6597
  229MPD1    C4 3477   4.511   0.441  14.914 -0.2677  0.4590 -0.0478
  229MPD1    C5 3478   4.379   0.469  14.899  0.1810 -0.0368  0.2607
  229MPD1     H 3479   4.623   0.703  14.724 -1.7572  1.8346  0.0183
  229MPD1    H1 3480   4.555   0.364  14.976 -1.9679 -0.9938 -0.6094
  229MPD1    H2 3481   4.219   0.571  14.801  0.8979  2.5543  2.6164
  229MPD1    H3 3482   4.307   0.409  14.953  0.5433  1.0967  2.0210
  229MPD1     N 3483   0.015   0.517  14.878  0.1067 -0.8399  0.1344
  229MPD1    H5 3484   0.035   0.440  14.941  1.1457 -1.3043 -0.7580
  229MPD1    N1 3485   4.366   0.750  14.664  0.7521  0.6142 -0.3399
  229MPD1    H6 3486   4.267   0.727  14.654  1.0485 -1.1286  0.7891
  229MPD1    H7 3487   4.417   0.745  14.577 -0.0657  0.6990 -0.8232
  230MPD1     C 3488   0.647   4.692  15.405  0.0686 -0.2228 -1.2516
  230MPD1    C1 3489   0.737   0.032  15.322  0.1305 -0.1149 -0.3112
  230MPD1    C2 3490   0.693   0.140  15.253 -0.2355 -0.7741 -0.2967
  230MPD1    C3 3491   0.553   0.168  15.247  0.2561 -0.1040 -0.6024
  230MPD1    C4 3492   0.462   0.098  15.329 -0.1858  0.3055  0.0496
  230MPD1    C5 3493   0.510   4.724  15.408 -0.2436  0.2330  0.6679
  230MPD1     H 3494   0.762   0.192  15.187 -0.8528  0.7554  0.2669
  230MPD1    H1 3495   0.359   0.127  15.340 -0.1668 -0.6722  2.9290
  230MPD1    H2 3496   0.683   4.606  15.461 -0.0277 -0.6422 -1.8325
  230MPD1    H3 3497   0.451   4.675  15.485 -2.2595  1.4624 -0.0952
  230MPD1     N 3498   0.516   0.277  15.168 -0.4456 -0.0745 -0.0733
  230MPD1    H5 3499   0.590   0.318  15.111  1.9527 -0.0347  3.0774
  230MPD1    N1 3500   0.875   0.007  15.323  0.7041  0.2715 -0.2766
  230MPD1    H6 3501   0.895   4.639  15.359  3.7965  1.7474  1.8619
  230MPD1    H7 3502   0.918   0.013  15.232 -0.4059 -0.9441 -0.8912
  231MPD1     C 3503   2.860   2.510  15.504  0.3330  0.2860 -0.6574
  231MPD1    C1 3504   2.808   2.559  15.383  0.5981 -0.2414  0.1408
  231MPD1    C2 3505   2.898   2.641  15.318  0.6849 -0.1241 -0.4230
  231MPD1    C3 3506   3.035   2.633  15.348  0.3753  0.5629  0.2402
  231MPD1    C4 3507   3.081   2.560  15.455  0.5508 -0.1510  0.5816
  231MPD1    C5 3508   2.991   2.512  15.543 -0.9062  0.1424  0.2489
  231MPD1     H 3509   2.864   2.703  15.236  1.8069  0.5364 -0.3919
  231MPD1    H1 3510   3.184   2.564  15.487 -0.0835  2.9259  2.2991
  231MPD1    H2 3511   2.794   2.466  15.578 -0.4008  2.1903 -0.1855
  231MPD1    H3 3512   3.031   2.475  15.637 -0.6651 -0.1286  0.0380
  231MPD1     N 3513   3.121   2.698  15.264 -0.1391  0.0353  0.4206
  231MPD1    H5 3514   3.084   2.731  15.175  1.7831 -2.9364 -1.4823
  231MPD1    N1 3515   2.666   2.573  15.358  0.5906 -0.3423  0.2702
  231MPD1    H6 3516   2.615   2.489  15.383  0.4899 -0.1487  0.7086
  231MPD1    H7 3517   2.655   2.576  15.257  1.1709  1.8440  0.2654
  232MPD1     C 3518   0.531   4.278  17.227 -0.2174 -0.0123 -0.0569
  232MPD1    C1 3519   0.583   4.263  17.347 -0.3953  0.6509 -0.0562
  232MPD1    C2 3520   0.560   4.360  17.444  0.2875  1.0732  0.3870
  232MPD1    C3 3521   0.472   4.468  17.417  0.5303  0.2712  0.2857
  232MPD1    C4 3522   0.416   4.484  17.293  0.3614 -0.4465  0.1013
  232MPD1    C5 3523   0.448   4.387  17.200  0.5646  0.4596 -0.3604
  232MPD1     H 3524   0.607   4.366  17.542  0.7716 -0.5641  0.2433
  232MPD1    H1 3525   0.355   4.568  17.261 -0.7819 -1.7169 -1.0745
  232MPD1    H2 3526   0.552   4.210  17.145 -0.2425  0.0306 -0.0989
  232MPD1    H3 3527   0.414   4.394  17.097 -2.1629  2.1838  0.6728
  232MPD1     N 3528   0.445   4.561  17.521  0.2088 -0.6771  0.1666
  232MPD1    H5 3529   0.483   4.538  17.613  0.1744  1.5091  0.7074
  232MPD1    N1 3530   0.672   4.158  17.374 -0.2669  0.6862 -0.4120
  232MPD1    H6 3531   0.691   4.138  17.472 -1.0745 -0.4695 -0.4923
  232MPD1    H7 3532   0.645   4.069  17.333 -0.4873  0.9465 -0.8416
  233MPD1     C 3533   1.112   3.385   1.340 -0.3599  0.2320 -0.2600
  233MPD1    C1 3534   1.213   3.423   1.253  0.1666  0.3342  0.1243
  233MPD1    C2 3535   1.326   3.340   1.239  0.3258 -0.3687 -0.0884
  233MPD1    C3 3536   1.331   3.209   1.292  0.0419 -0.8559 -0.3465
  233MPD1    C4 3537   1.219   3.177   1.374 -0.5811  0.3873  0.2982
  233MPD1    C5 3538   1.112   3.260   1.394 -0.3228  0.2348  0.3426
  233MPD1     H 3539   1.406   3.367   1.171  0.8045  1.8311  1.3656
  233MPD1    H1 3540   1.206   3.080   1.421  0.4346  0.4594  0.7275
  233MPD1    H2 3541   1.022   3.445   1.351  0.1058  0.8072  0.5032
  233MPD1    H3 3542   1.028   3.231   1.456 -0.3996  0.8543  0.5258
  233MPD1     N 3543   1.434   3.108   1.267  0.2118 -0.0468  0.0977
  233MPD1    H5 3544   1.427   3.013   1.303  2.2045 -0.1182  0.2921
  233MPD1    N1 3545   1.203   3.546   1.183 -0.4913 -0.0376 -0.8566
  233MPD1    H6 3546   1.232   3.541   1.085 -0.0500 -0.3102 -0.7118
  233MPD1    H7 3547   1.108   3.584   1.182 -0.0137  1.1714  0.0912
  234MPD1     C 3548   3.292   1.891   9.922  0.1971 -0.5099 -0.5229
  234MPD1    C1 3549   3.310   2.023   9.942 -0.4764  0.0711  0.1619
  234MPD1    C2 3550   3.261   2.121   9.850  0.1989  0.3827  0.2064
  234MPD1    C3 3551   3.168   2.079   9.756  0.4771 -0.3126  1.2009
  234MPD1    C4 3552   3.138   1.947   9.747 -0.2305 -0.5057 -0.5172
  234MPD1    C5 3553   3.204   1.853   9.825  0.2008 -0.3028 -0.4384
  234MPD1     H 3554   3.293   2.224   9.847 -0.0878  0.5110  1.5287
  234MPD1    H1 3555   3.062   1.915   9.675 -0.8912  0.2194 -0.1442
  234MPD1    H2 3556   3.346   1.811   9.973  1.5950  0.6761 -0.1189
  234MPD1    H3 3557   3.184   1.748   9.804 -1.8079  0.3075 -1.6055
  234MPD1     N 3558   3.111   2.177   9.669  0.2156 -0.2809  0.5363
  234MPD1    H5 3559   3.136   2.275   9.682  0.1764  0.0861 -2.1528
  234MPD1    N1 3560   3.416   2.062  10.022 -0.0949 -0.8016  0.1854
  234MPD1    H6 3561   3.409   2.154  10.066  0.9722 -1.5130  1.8368
  234MPD1    H7 3562   3.443   1.995  10.094 -2.8735 -0.2323  1.7664
  235MPD1     C 3563   4.047   4.608   9.976 -0.3865  0.2531 -0.3395
  235MPD1    C1 3564   4.007   4.658   9.856 -0.0861  0.6681  0.6063
  235MPD1    C2 3565   4.109   4.722   9.778 -0.2294 -0.4356 -0.1454
  235MPD1    C3 3566   4.237   0.016   9.823 -0.2941  0.2323  0.0088
  235MPD1    C4 3567   4.279   4.697   9.944 -0.6296  0.0322  0.7827
  235MPD1    C5 3568   4.180   4.634  10.018  1.2154  0.1491 -0.4220
  235MPD1     H 3569   4.078   0.018   9.677  1.5198  1.7081 -0.2174
  235MPD1    H1 3570   4.378   4.708   9.987 -0.0943  2.8466 -1.2472
  235MPD1    H2 3571   3.977   4.558  10.042  2.0660 -0.3437  1.8004
  235MPD1    H3 3572   4.212   4.611  10.119  1.8162 -0.1868 -0.6958
  235MPD1     N 3573   4.333   0.075   9.741 -0.3870  0.0670  0.0340
  235MPD1    H5 3574   4.298   0.108   9.652  0.5202  1.6852  0.2829
  235MPD1    N1 3575   3.897   4.595   9.803 -0.5795 -0.5782 -0.5509
  235MPD1    H6 3576   3.820   4.599   9.870 -0.7015  1.9553 -0.8388
  235MPD1    H7 3577   3.853   4.651   9.730  0.5614  0.6791 -0.2732
  236MPD1     C 3578   3.847   1.694   9.825 -0.0727  0.4335 -0.9482
  236MPD1    C1 3579   3.862   1.562   9.791 -0.0139 -0.1826  0.2300
  236MPD1    C2 3580   3.924   1.476   9.880 -0.7021  0.2187  0.1020
  236MPD1    C3 3581   3.983   1.522  10.004 -0.0515  0.5422 -0.1987
  236MPD1    C4 3582   3.985   1.657  10.025 -0.0482  0.1994 -0.3538
  236MPD1    C5 3583   3.913   1.739   9.936  0.9317  0.7616  0.3823
  236MPD1     H 3584   3.924   1.370   9.860  0.3738 -0.1903  2.3329
  236MPD1    H1 3585   4.012   1.693  10.124 -0.2813 -0.3756 -0.0829
  236MPD1    H2 3586   3.786   1.765   9.770 -1.9349 -0.7751 -0.4145
  236MPD1    H3 3587   3.899   1.843   9.963 -0.9336  0.2608  1.3400
  236MPD1     N 3588   4.055   1.437  10.099  0.1918  0.4515 -0.6470
  236MPD1    H5 3589   4.102   1.487  10.174  0.7769 -2.1262  0.7418
  236MPD1    N1 3590   3.791   1.511   9.687 -0.1515 -0.3483  0.1467
  236MPD1    H6 3591   3.691   1.526   9.697  0.2071  2.1600  0.0404
  236MPD1    H7 3592   3.814   1.412   9.685 -2.8509 -0.9782  2.4312
  237MPD1     C 3593   3.408   4.467  15.810  0.1223 -0.0776  0.4556
  237MPD1    C1 3594   3.451   4.435  15.681 -0.7693 -0.1834 -0.0203
  237MPD1    C2 3595   3.416   4.311  15.630  0.1164 -0.5655 -0.6139
  237MPD1    C3 3596   3.332   4.218  15.697 -1.1666  0.2456 -0.3492
  237MPD1    C4 3597   3.284   4.256  15.822 -0.6688 -0.2947 -0.4699
  237MPD1    C5 3598   3.320   4.379  15.873  0.4955 -0.3094  0.1191
  237MPD1     H 3599   3.465   4.282  15.538  2.5076 -2.3108  1.2190
  237MPD1    H1 3600   3.212   4.197  15.876  2.0203 -3.9351 -0.8261
  237MPD1    H2 3601   3.415   4.560  15.866  2.9825 -1.3607  2.2138
  237MPD1    H3 3602   3.278   4.401  15.971 -0.3361  1.0404 -0.5466
  237MPD1     N 3603   3.286   4.096  15.641 -0.3135 -0.1728 -0.3168
  237MPD1    H5 3604   3.211   4.048  15.689 -0.3843  1.2479  1.0261
  237MPD1    N1 3605   3.542   4.515  15.606  0.5602 -0.3123 -0.0616
  237MPD1    H6 3606   3.546   4.611  15.637  2.2397 -0.6129  0.6863
  237MPD1    H7 3607   3.537   4.511  15.505  0.3510  0.8522 -0.0910
  238MPD1     C 3608   0.671   1.776  14.746  0.0978  0.2998 -0.2007
  238MPD1    C1 3609   0.696   1.860  14.637 -0.6302 -0.6028  0.5863
  238MPD1    C2 3610   0.626   1.977  14.627  0.0509  0.5929 -0.2446
  238MPD1    C3 3611   0.519   1.996  14.714 -0.6340 -0.5146  0.0163
  238MPD1    C4 3612   0.489   1.911  14.814  0.0077 -0.8424  0.6626
  238MPD1    C5 3613   0.565   1.801  14.829 -0.8654 -0.6176  0.4148
  238MPD1     H 3614   0.633   2.045  14.543 -2.4191 -0.2078 -1.0948
  238MPD1    H1 3615   0.415   1.939  14.889 -0.8113 -0.3181 -0.3483
  238MPD1    H2 3616   0.725   1.685  14.768 -0.1145  0.5689  1.4714
  238MPD1    H3 3617   0.532   1.729  14.903 -0.5125  0.3124  1.4708
  238MPD1     N 3618   0.422   2.100  14.710 -0.0990 -0.1938  0.1348
  238MPD1    H5 3619   0.351   2.095  14.783  2.0930 -0.2232  2.2567
  238MPD1    N1 3620   0.805   1.831  14.555 -0.5842  1.1268  0.1980
  238MPD1    H6 3621   0.798   1.873  14.463 -1.1222 -0.6280 -0.5424
  238MPD1    H7 3622   0.840   1.736  14.553 -1.7236  0.7056  0.3891
  239MPD1     C 3623   0.778   3.540  14.840 -0.3592 -0.0181  0.6677
  239MPD1    C1 3624   0.831   3.468  14.739  0.2180 -0.9312  0.2805
  239MPD1    C2 3625   0.790   3.491  14.610 -0.0751  0.1467  0.4339
  239MPD1    C3 3626   0.682   3.573  14.584 -0.0795 -0.1817 -0.0255
  239MPD1    C4 3627   0.615   3.626  14.693  0.2591 -0.3441 -0.3073
  239MPD1    C5 3628   0.663   3.611  14.817  0.1661  0.3036  0.2323
  239MPD1     H 3629   0.841   3.456  14.521 -0.1426  3.2382 -0.8207
  239MPD1    H1 3630   0.538   3.700  14.674 -0.2434 -0.1923  2.2947
  239MPD1    H2 3631   0.827   3.532  14.937 -0.0628  2.4816  0.7317
  239MPD1    H3 3632   0.628   3.670  14.900  1.2658  0.1471  0.8143
  239MPD1     N 3633   0.636   3.596  14.450 -0.4016  0.0588  0.5087
  239MPD1    H5 3634   0.561   3.663  14.438 -0.2947  0.0977  0.0574
  239MPD1    N1 3635   0.958   3.408  14.759  0.7088 -0.2803 -0.0767
  239MPD1    H6 3636   0.969   3.378  14.855  4.3413 -0.1395 -0.4771
  239MPD1    H7 3637   0.981   3.340  14.687  1.1183 -0.9033  0.6521
  240MPD1     C 3638   0.265   3.175  14.275 -0.0305  0.4982  0.1064
  240MPD1    C1 3639   0.151   3.212  14.342 -0.9758 -0.1579  0.0475
  240MPD1    C2 3640   0.108   3.131  14.440  0.1506  0.0224  0.1594
  240MPD1    C3 3641   0.171   3.018  14.471 -0.3232  0.1436 -0.1705
  240MPD1    C4 3642   0.287   2.974  14.410  0.2416 -0.0952  0.4676
  240MPD1    C5 3643   0.332   3.064  14.318  0.7561 -0.1092 -0.1693
  240MPD1     H 3644   0.009   3.142  14.484  0.4313 -1.8650  1.2360
  240MPD1    H1 3645   0.323   2.872  14.417 -2.2841 -1.0353 -0.3329
  240MPD1    H2 3646   0.296   3.235  14.190 -0.4827  2.7009  1.5070
  240MPD1    H3 3647   0.405   3.034  14.244  1.1155  1.2791 -0.3657
  240MPD1     N 3648   0.114   2.940  14.572  0.5939  0.1114  0.1752
  240MPD1    H5 3649   0.026   2.974  14.610  1.1272  0.3628  1.2061
  240MPD1    N1 3650   0.067   3.309  14.294 -0.3017  0.0459 -0.6377
  240MPD1    H6 3651   4.721   3.336  14.361 -0.9311 -0.5222 -1.0909
  240MPD1    H7 3652   0.114   3.387  14.249 -0.5969  1.3811  1.3977
  241MPD1     C 3653   0.005   2.640  15.546  0.3834  0.1442 -0.3344
  241MPD1    C1 3654   0.050   2.745  15.474  0.3844  0.6789 -0.0247
  241MPD1    C2 3655   0.023   2.753  15.342  0.4696 -0.2914 -0.4387
  241MPD1    C3 3656   4.673   2.656  15.274 -0.0768  0.9564 -0.7809
  241MPD1    C4 3657   4.620   2.553  15.354 -0.1020  0.9953 -0.3656
  241MPD1    C5 3658   4.652   2.548  15.488  0.2895  0.2389 -0.0587
  241MPD1     H 3659   0.064   2.838  15.289 -0.9567 -0.9168 -2.5591
  241MPD1    H1 3660   4.548   2.482  15.315 -0.8604  1.7451 -0.3311
  241MPD1    H2 3661   0.040   2.613  15.645 -1.7885 -2.7793 -0.3552
  241MPD1    H3 3662   4.618   2.464  15.547  2.6869  0.3353  1.4775
  241MPD1     N 3663   4.664   2.654  15.138  0.4718 -0.4691 -0.3051
  241MPD1    H5 3664   4.596   2.589  15.101 -0.1126  0.2091 -0.4228
  241MPD1    N1 3665   0.129   2.846  15.525  0.3348  0.3732  1.1204
  241MPD1    H6 3666   0.105   2.940  15.493  0.8829  0.8798  2.1904
  241MPD1    H7 3667   0.112   2.854  15.625  1.7183  1.8251  1.2340
  242MPD1     C 3668   4.412   1.689  15.845  0.0731  0.2584  0.0261
  242MPD1    C1 3669   4.297   1.690  15.769 -0.3089 -0.2761  0.7169
  242MPD1    C2 3670   4.297   1.623  15.645 -0.6991  0.2280  0.1298
  242MPD1    C3 3671   4.417   1.560  15.602 -0.4461 -0.1557 -0.0097
  242MPD1    C4 3672   4.535   1.573  15.683 -0.3901 -0.5313 -0.4683
  242MPD1    C5 3673   4.531   1.646  15.798 -0.4296 -0.3804 -0.8319
  242MPD1     H 3674   4.204   1.617  15.589  0.3620 -0.6205 -1.5175
  242MPD1    H1 3675   4.624   1.517  15.656 -0.8202 -1.1894 -0.5250
  242MPD1    H2 3676   4.425   1.746  15.937  2.0483  0.8733 -0.6315
  242MPD1    H3 3677   4.624   1.658  15.853 -0.9596 -0.6738  0.1294
  242MPD1     N 3678   4.424   1.472  15.492  0.2698  0.1952  0.5605
  242MPD1    H5 3679   4.517   1.451  15.458 -0.1433 -0.4139 -0.2000
  242MPD1    N1 3680   4.187   1.770  15.820  0.0263  1.0517  0.3101
  242MPD1    H6 3681   4.178   1.772  15.921 -1.1858 -0.2244  0.2263
  242MPD1    H7 3682   4.097   1.743  15.783  1.0527  0.3201 -1.6707
  243MPD1     C 3683   1.483   3.752  17.470  0.2474 -0.3490  0.0502
  243MPD1    C1 3684   1.415   3.859  17.409  0.2932  0.8996  0.2311
  243MPD1    C2 3685   1.372   3.835  17.280 -0.0056  0.2997 -0.9632
  243MPD1    C3 3686   1.370   3.706  17.224  0.3231  0.2741  0.2176
  243MPD1    C4 3687   1.418   3.602  17.300  0.7594 -0.1291 -0.0108
  243MPD1    C5 3688   1.477   3.624  17.419 -0.0478 -0.3475  0.0872
  243MPD1     H 3689   1.318   3.914  17.229 -1.8441  0.9714  2.0299
  243MPD1    H1 3690   1.418   3.500  17.263 -0.6401  0.4093 -1.5019
  243MPD1    H2 3691   1.525   3.770  17.569  0.4087 -1.7778  0.2461
  243MPD1    H3 3692   1.519   3.543  17.477 -0.1298 -0.0895  0.5002
  243MPD1     N 3693   1.303   3.695  17.102 -0.2120 -0.2538 -0.2006
  243MPD1    H5 3694   1.290   3.782  17.051  1.3557  0.4028  0.5304
  243MPD1    N1 3695   1.409   3.982  17.479  0.5704 -0.1425 -1.1990
  243MPD1    H6 3696   1.421   3.982  17.580 -2.4517 -2.2161 -0.8418
  243MPD1    H7 3697   1.325   4.039  17.467  0.0627 -0.0603  2.5138
  244MPD1     C 3698   1.302   2.879  16.551 -0.2844 -0.1106 -0.4467
  244MPD1    C1 3699   1.387   2.926  16.651  0.0174 -0.6760 -0.5138
  244MPD1    C2 3700   1.353   3.054  16.694 -0.0716  0.3701 -0.5953
  244MPD1    C3 3701   1.253   3.130  16.643 -0.3281 -0.0923  0.5415
  244MPD1    C4 3702   1.166   3.073  16.564  0.0716 -0.4011 -0.3134
  244MPD1    C5 3703   1.194   2.951  16.515 -0.1586 -0.6787 -0.6452
  244MPD1     H 3704   1.431   3.100  16.754 -1.4979 -0.0217  1.5590
  244MPD1    H1 3705   1.086   3.130  16.517  1.3646  1.1678 -0.5955
  244MPD1    H2 3706   1.308   2.779  16.511 -1.5285  0.1770 -1.3727
  244MPD1    H3 3707   1.118   2.916  16.446  1.5416 -0.7023 -2.5149
  244MPD1     N 3708   1.245   3.262  16.690  0.1117  0.4830 -0.3452
  244MPD1    H5 3709   1.311   3.283  16.763 -0.6907  0.0692  0.4952
  244MPD1    N1 3710   1.500   2.854  16.691  0.0102 -0.4388  0.2971
  244MPD1    H6 3711   1.519   2.852  16.791  1.6083 -3.1400 -0.0639
  244MPD1    H7 3712   1.490   2.756  16.668 -1.9820 -0.5843  1.7389
  245MPD1     C 3713   3.069   0.483  13.166  1.0364 -0.1423 -0.6707
  245MPD1    C1 3714   3.070   0.519  13.298 -0.3877 -0.0568  0.0460
  245MPD1    C2 3715   3.171   0.608  13.334 -0.0270  0.3233  0.0951
  245MPD1    C3 3716   3.240   0.686  13.242  0.0432  0.7518  0.6949
  245MPD1    C4 3717   3.220   0.661  13.107  0.6463  0.8237 -0.4218
  245MPD1    C5 3718   3.147   0.549  13.071 -0.5280 -0.6762 -0.4070
  245MPD1     H 3719   3.182   0.626  13.440  0.1371  1.0041 -0.0376
  245MPD1    H1 3720   3.286   0.695  13.029  0.9661  0.6680 -0.2212
  245MPD1    H2 3721   2.995   0.409  13.136  0.4381 -0.1273  0.7918
  245MPD1    H3 3722   3.142   0.519  12.967  1.3563  1.3285 -1.1035
  245MPD1     N 3723   3.331   0.777  13.298 -0.0456  0.1974  0.0843
  245MPD1    H5 3724   3.342   0.778  13.399  0.1318  5.4426 -0.0124
  245MPD1    N1 3725   2.997   0.438  13.385 -0.2374  0.7051 -0.6692
  245MPD1    H6 3726   2.899   0.431  13.360  0.3316 -2.0647 -2.0780
  245MPD1    H7 3727   2.996   0.472  13.481  1.2410  0.1269 -0.4445
  246MPD1     C 3728   2.166   1.595   9.410  0.7794 -0.2687 -0.9272
  246MPD1    C1 3729   2.150   1.461   9.455 -0.5857 -0.2422 -1.2287
  246MPD1    C2 3730   2.258   1.384   9.459 -0.0725  0.2499 -0.4709
  246MPD1    C3 3731   2.388   1.432   9.436 -0.4946  0.4111  0.3178
  246MPD1    C4 3732   2.400   1.560   9.404  0.0623 -0.7266 -0.0129
  246MPD1    C5 3733   2.290   1.638   9.382  0.1851 -0.0769  0.1824
  246MPD1     H 3734   2.248   1.278   9.480 -0.7958  0.1946 -1.0952
  246MPD1    H1 3735   2.494   1.613   9.416  0.2992 -1.3445  0.7875
  246MPD1    H2 3736   2.082   1.664   9.415  0.9257 -0.1948  0.6420
  246MPD1    H3 3737   2.309   1.745   9.370  1.0010 -0.0888  1.3472
  246MPD1     N 3738   2.503   1.346   9.448 -0.1304 -0.8683  0.7252
  246MPD1    H5 3739   2.485   1.247   9.463  2.3735 -1.5080 -0.5048
  246MPD1    N1 3740   2.029   1.403   9.456 -0.6827  0.1570 -0.3362
  246MPD1    H6 3741   2.020   1.320   9.513 -0.8796  2.3863  2.8862
  246MPD1    H7 3742   1.951   1.463   9.484 -0.9472 -0.0791 -0.5765
  247MPD1     C 3743   2.706   1.356  16.593  0.4127 -0.1037  0.8992
  247MPD1    C1 3744   2.765   1.270  16.683 -0.7859 -0.3648 -0.1921
  247MPD1    C2 3745   2.762   1.137  16.651 -0.1501 -0.1277 -0.0820
  247MPD1    C3 3746   2.715   1.096  16.526  0.3547  0.5541  0.1878
  247MPD1    C4 3747   2.686   1.184  16.427 -0.1023  0.1388  0.7154
  247MPD1    C5 3748   2.670   1.319  16.466  0.7229  0.2400 -0.6497
  247MPD1     H 3749   2.789   1.064  16.726  0.5075  0.9523  0.7332
  247MPD1    H1 3750   2.664   1.160  16.324  1.3335  1.0528  0.1843
  247MPD1    H2 3751   2.688   1.457  16.629  1.5146  0.4264 -0.0187
  247MPD1    H3 3752   2.637   1.395  16.396 -2.2220 -0.1088  0.3559
  247MPD1     N 3753   2.695   0.963  16.485  0.0398 -0.1484 -0.3385
  247MPD1    H5 3754   2.659   0.959  16.391 -1.0418 -0.9140  0.1021
  247MPD1    N1 3755   2.801   1.317  16.810 -0.2047  0.0226 -0.0414
  247MPD1    H6 3756   2.824   1.416  16.821  1.9033 -0.2259 -2.3300
  247MPD1    H7 3757   2.886   1.273  16.846  0.5756 -0.2228 -2.2358
  248MPD1     C 3758   3.504   4.666   0.887 -0.3625 -0.2623  0.4345
  248MPD1    C1 3759   3.487   0.054   0.967 -0.4541  0.3508 -0.3493
  248MPD1    C2 3760   3.367   0.117   0.944  0.2029 -0.1629 -0.6257
  248MPD1    C3 3761   3.255   0.069   0.878 -0.2135  0.1707 -0.9189
  248MPD1    C4 3762   3.276   4.677   0.809 -0.5854 -0.7772  0.5305
  248MPD1    C5 3763   3.400   4.619   0.813 -1.1750 -0.8036  0.5685
  248MPD1     H 3764   3.356   0.213   0.994 -1.8780 -0.3277 -0.7421
  248MPD1    H1 3765   3.200   4.616   0.762 -1.8460 -0.0312  1.5999
  248MPD1    H2 3766   3.593   4.604   0.892 -0.1312  0.2289  2.2125
  248MPD1    H3 3767   3.417   4.523   0.765 -0.9630 -1.9793  3.0292
  248MPD1     N 3768   3.129   0.136   0.883  0.1896 -0.2034 -0.2197
  248MPD1    H5 3769   3.117   0.196   0.964  2.7786  0.2461 -0.1708
  248MPD1    N1 3770   3.592   0.108   1.039  0.1476  1.1741 -0.4902
  248MPD1    H6 3771   3.568   0.169   1.117  1.7224 -0.1912  1.0950
  248MPD1    H7 3772   3.657   0.033   1.064 -1.1251  0.9630  2.2217
  249MPD1     C 3773   0.127   3.798  10.438  0.3399  0.8305 -0.2494
  249MPD1    C1 3774   0.118   3.917  10.374  0.4114  0.4410  0.0248
  249MPD1    C2 3775   0.052   3.917  10.250  0.0716  0.6652  0.0355
  249MPD1    C3 3776   0.002   3.805  10.187  0.2395 -0.0489  0.4218
  249MPD1    C4 3777   0.016   3.684  10.261 -0.6990  0.0449 -0.7668
  249MPD1    C5 3778   0.072   3.688  10.385  0.3571  0.4435 -0.1093
  249MPD1     H 3779   0.032   4.013  10.205 -2.7593  0.0761  0.0440
  249MPD1    H1 3780   4.694   3.592  10.231 -2.3449  0.7700 -0.3828
  249MPD1    H2 3781   0.179   3.787  10.532  1.4404  1.0049 -0.8370
  249MPD1    H3 3782   0.073   3.602  10.451 -1.0929 -0.8974 -1.8237
  249MPD1     N 3783   4.657   3.819  10.067 -0.0095 -0.1346  0.3264
  249MPD1    H5 3784   4.649   3.911  10.026  1.1774  0.1545  0.7412
  249MPD1    N1 3785   0.150   4.037  10.442 -0.0917  0.1199  0.0835
  249MPD1    H6 3786   0.092   4.051  10.524 -0.5064 -1.7910  0.1036
  249MPD1    H7 3787   0.145   4.121  10.384  0.9785 -0.3513 -0.6998
  250MPD2     C 3788   1.486   4.183  12.398  0.5850  0.9284  0.5442
  250MPD2    C1 3789   1.394   4.199  12.499  0.7025  0.2828  0.4974
  250MPD2    C2 3790   1.266   4.164  12.475  0.1971 -0.6504  0.1954
  250MPD2    C3 3791   1.220   4.130  12.350  0.2161 -0.3379  0.5956
  250MPD2    C4 3792   1.317   4.112  12.250 -0.8867 -0.3810  0.8308
  250MPD2    C5 3793   1.448   4.141  12.274  0.0382 -0.3793  0.2588
  250MPD2     H 3794   1.200   4.151  12.560 -0.5067  0.2550 -0.2007
  250MPD2    H1 3795   1.286   4.093  12.148 -0.1546  1.2781  0.2856
  250MPD2    H2 3796   1.592   4.205  12.409  0.2132  2.3626  1.1653
  250MPD2    H3 3797   1.516   4.154  12.190  1.5686 -2.2333  1.2029
  250MPD2     N 3798   1.085   4.095  12.318  0.4252  0.4239  0.4694
  250MPD2    H5 3799   1.076   4.067  12.221  1.7379  0.3190  0.3868
  250MPD2    N1 3800   1.443   4.258  12.621  0.2318 -0.1796 -0.3664
  250MPD2    H7 3801   1.541   4.282  12.624  0.7949 -2.7118  1.7060
  251TMC3    C1 3802   1.431   4.397  12.813  0.2779 -0.4256 -0.1953
  251TMC3    C2 3803   1.362   4.490  12.874 -0.8909 -0.1887  0.5284
  251TMC3    C3 3804   1.430   4.575  12.965  0.3329 -0.0304 -0.1781
  251TMC3    C4 3805   1.564   4.368  12.842  0.6599 -0.4952  0.6121
  251TMC3    C5 3806   1.623   4.458  12.929  0.2601 -0.1401 -0.1512
  251TMC3    C6 3807   1.562   4.561  12.984  0.1907 -0.3634 -0.3396
  251TMC3     C 3808   1.361   4.302  12.723 -0.2468  1.4771  0.5355
  251TMC3     O 3809   1.243   4.289  12.744 -0.2179 -0.7421 -0.3212
  251TMC3     H 3810   1.259   4.518  12.857 -0.1367  1.7047 -0.9014
  251TMC3    H1 3811   1.606   4.271  12.817  0.7650 -0.3602  0.2734
  251TMC3    H2 3812   1.610   4.634  13.048 -2.3428  0.3990  0.6844
  251TMC3    C7 3813   1.762   4.451  12.931 -0.2108  0.3709 -0.4313
  251TMC3    C8 3814   1.377   4.702  13.001  0.2270  0.2092 -0.3526
  251TMC3    O1 3815   1.813   4.338  12.922  0.0379 -0.1612  0.6820
  251TMC3    O2 3816   1.405   0.028  13.107  0.6027  0.3516 -0.6972
  252TMC3    C1 3817   2.268   4.540   9.229  0.3090 -0.3289 -0.7283
  252TMC3    C2 3818   2.372   4.629   9.254 -0.1217 -0.0266  0.1112
  252TMC3    C3 3819   2.346   0.025   9.196  0.3554  0.1373  0.4319
  252TMC3    C4 3820   2.162   4.565   9.140 -0.3394 -0.2862 -0.6001
  252TMC3    C5 3821   2.159   4.689   9.080 -0.3735  0.0961  0.2793
  252TMC3    C6 3822   2.253   0.055   9.108  0.5415  0.0584  0.2350
  252TMC3     C 3823   2.287   4.410   9.286  0.2270 -0.5311  0.5425
  252TMC3     O 3824   2.384   4.389   9.360 -0.2935  0.8612  0.3355
  252TMC3     H 3825   2.466   4.613   9.304  0.3712  2.3223 -0.0632
  252TMC3    H1 3826   2.091   4.487   9.116 -1.0174  0.5781 -1.4217
  252TMC3    H2 3827   2.255   0.144   9.046  1.7444 -0.3006 -0.2385
  252TMC3    C7 3828   2.032   0.026   9.042  0.0335 -0.1489 -0.1492
  252TMC3    C8 3829   2.447   0.124   9.218  0.0826  0.4256  0.0875
  252TMC3    O1 3830   2.038   0.134   8.985 -0.4758 -0.3626  0.1354
  252TMC3    O2 3831   2.454   0.224   9.149  0.2441 -0.2130  0.6211
  253MPD2     C 3832   2.725   3.817  15.582 -0.2100  0.0053  0.3341
  253MPD2    C1 3833   2.624   3.786  15.497  0.3906 -0.4680 -0.0790
  253MPD2    C2 3834   2.502   3.749  15.556  0.7867 -0.0423  0.2210
  253MPD2    C3 3835   2.485   3.752  15.692  0.5002 -0.1855  1.0097
  253MPD2    C4 3836   2.593   3.772  15.777  0.5072 -0.4117  0.7714
  253MPD2    C5 3837   2.711   3.805  15.719 -0.4496 -0.3065 -0.0738
  253MPD2     H 3838   2.429   3.719  15.481  3.6533 -1.4078 -2.0050
  253MPD2    H1 3839   2.570   3.770  15.883  0.9371 -0.7343  0.8580
  253MPD2    H2 3840   2.818   3.853  15.540  1.3076 -2.0858  1.9184
  253MPD2    H3 3841   2.799   3.819  15.780 -0.6784  0.3239  0.1059
  253MPD2     N 3842   2.362   3.736  15.760  0.2738 -0.0243 -0.2864
  253MPD2    H5 3843   2.361   3.741  15.861 -0.6591  0.6421 -0.3248
  253MPD2    N1 3844   2.620   3.804  15.358  0.2792  0.4054 -0.6202
  253MPD2    H7 3845   2.530   3.780  15.316  1.6793 -1.8447 -2.3271
  254TMC3    C1 3846   2.135   3.731  15.787  0.5293 -0.1110 -0.0116
  254TMC3    C2 3847   2.034   3.820  15.768 -0.0822  0.1044  0.3213
  254TMC3    C3 3848   1.941   3.827  15.863  0.5069 -0.3411 -0.0282
  254TMC3    C4 3849   2.134   3.638  15.883  0.5244  0.2019 -0.2387
  254TMC3    C5 3850   2.030   3.639  15.972  0.5355 -0.6684  0.0428
  254TMC3    C6 3851   1.929   3.730  15.962  0.2047 -0.1854  0.7142
  254TMC3     C 3852   2.248   3.738  15.694  0.0711 -0.2634  0.5893
  254TMC3     O 3853   2.228   3.771  15.579 -0.2662  0.1270  0.2868
  254TMC3     H 3854   2.043   3.896  15.691  1.5745 -0.7689 -0.3367
  254TMC3    H1 3855   2.216   3.568  15.896  0.4731  0.1869 -0.0042
  254TMC3    H2 3856   1.843   3.718  16.027 -0.9063 -0.5626 -0.8370
  254TMC3    C7 3857   2.047   3.549  16.094  0.1915 -0.4606 -0.5100
  254TMC3    C8 3858   1.850   3.937  15.874 -0.1200  0.3411  0.3217
  254TMC3    O1 3859   2.157   3.490  16.097 -0.8596 -0.2730  0.0745
  254TMC3    O2 3860   1.761   3.920  15.959 -0.4388 -0.0157  0.1270
  255MPD2     C 3861   0.526   2.535  10.451  0.3420 -0.1760  0.3940
  255MPD2    C1 3862   0.629   2.614  10.414 -0.5602 -0.3107 -0.0495
  255MPD2    C2 3863   0.751   2.563  10.393  0.6361  0.2282  0.5240
  255MPD2    C3 3864   0.783   2.432  10.427 -0.0425  0.4116  0.8527
  255MPD2    C4 3865   0.685   2.356  10.490 -0.2688 -0.0379 -0.3661
  255MPD2    C5 3866   0.559   2.413  10.503  0.0056  0.0666  0.5532
  255MPD2     H 3867   0.821   2.632  10.348 -0.3972  0.4813 -0.7025
  255MPD2    H1 3868   0.696   2.252  10.518  0.4465  0.7696  2.3401
  255MPD2    H2 3869   0.419   2.550  10.450  0.7278  2.2546 -2.2355
  255MPD2    H3 3870   0.490   2.349  10.557  0.5579 -1.5262 -0.6415
  255MPD2     N 3871   0.912   2.385  10.397 -0.0080 -0.9705  0.0695
  255MPD2    H5 3872   0.964   2.444  10.331  0.2882  0.4898  1.6072
  255MPD2    N1 3873   0.590   2.739  10.367  0.8694  0.1619 -0.0625
  255MPD2    H7 3874   0.492   2.759  10.354  1.0407  0.8349 -0.3460
  256TMC3    C1 3875   0.617   2.960  10.296 -0.6865 -0.3391 -0.6680
  256TMC3    C2 3876   0.716   3.042  10.238 -0.0319 -0.0243 -0.0143
  256TMC3    C3 3877   0.700   3.104  10.120 -0.1503  0.1102  0.9996
  256TMC3    C4 3878   0.505   2.940  10.221  0.4402 -0.3633 -0.0659
  256TMC3    C5 3879   0.492   2.989  10.093 -0.5042 -0.0154 -1.0302
  256TMC3    C6 3880   0.584   3.078  10.046 -0.1591 -0.2306 -0.2405
  256TMC3     C 3881   0.683   2.840  10.346  0.1315  0.8510  0.8036
  256TMC3     O 3882   0.808   2.843  10.356 -0.6554  0.5409 -0.4252
  256TMC3     H 3883   0.808   3.058  10.292  0.7710 -1.6291 -0.9137
  256TMC3    H1 3884   0.425   2.876  10.256 -0.6833 -0.8236 -3.4805
  256TMC3    H2 3885   0.583   3.111   9.943 -0.8469  1.1250  0.2069
  256TMC3    C7 3886   0.474   2.873  10.006 -0.4910  0.3278 -0.0869
  256TMC3    C8 3887   0.814   3.125  10.032  0.2339 -0.9967 -0.1932
  256TMC3    O1 3888   0.510   2.768  10.060 -0.0450  0.6307 -0.3540
  256TMC3    O2 3889   0.797   3.196   9.936  0.2206 -0.1841  0.0072
  257MPD2     C 3890   0.284   4.190  12.903 -0.4530  0.0561 -0.2523
  257MPD2    C1 3891   0.236   4.089  12.820  0.0582  0.5248  0.6414
  257MPD2    C2 3892   0.230   3.959  12.871 -1.1433  0.3669 -0.9320
  257MPD2    C3 3893   0.267   3.930  13.008 -0.6452  0.1597 -0.4878
  257MPD2    C4 3894   0.308   4.038  13.093 -0.5668  0.0369 -0.6556
  257MPD2    C5 3895   0.308   4.166  13.040 -0.0350 -0.3291  0.2854
  257MPD2     H 3896   0.204   3.874  12.809  1.9836 -1.5015  0.3345
  257MPD2    H1 3897   0.352   4.032  13.192  0.4160  0.5938 -1.0499
  257MPD2    H2 3898   0.290   4.290  12.861 -0.0978  1.3031  2.7556
  257MPD2    H3 3899   0.345   4.249  13.099 -1.5224  0.8687 -0.4854
  257MPD2     N 3900   0.283   3.795  13.047  0.5660  0.0586 -0.5124
  257MPD2    H5 3901   0.283   3.730  12.969  0.1506  0.4858 -0.8704
  257MPD2    N1 3902   0.217   4.130  12.691 -0.5285 -0.1783 -0.2208
  257MPD2    H7 3903   0.231   4.226  12.663 -0.6583  0.1668  0.8908
  258TMC3    C1 3904   0.313   3.616  13.197 -0.0113 -0.5866 -0.2054
  258TMC3    C2 3905   0.399   3.548  13.104 -0.6197  0.4002 -0.7660
  258TMC3    C3 3906   0.424   3.414  13.130  0.6852  0.1252 -0.1512
  258TMC3    C4 3907   0.252   3.548  13.305  1.0143  0.4277 -0.0972
  258TMC3    C5 3908   0.276   3.419  13.328  0.2435  0.4278  0.5948
  258TMC3    C6 3909   0.367   3.354  13.243 -0.1748  0.2936  0.2029
  258TMC3     C 3910   0.288   3.757  13.181 -0.6115  0.0790  0.2169
  258TMC3     O 3911   0.226   3.806  13.276  0.1161 -0.4321 -0.1131
  258TMC3     H 3912   0.446   3.606  13.026  0.8488 -2.8144 -2.3040
  258TMC3    H1 3913   0.217   3.611  13.386  2.4704 -0.5380  1.2698
  258TMC3    H2 3914   0.391   3.251  13.267 -0.9845  0.2473  0.7985
  258TMC3    C7 3915   0.241   3.371  13.456 -0.6637  0.1494  0.5704
  258TMC3    C8 3916   0.530   3.348  13.051  0.3891  0.0637  0.0318
  258TMC3    O1 3917   0.138   3.409  13.507  0.5605 -0.4728  0.0978
  258TMC3    O2 3918   0.611   3.420  12.990  0.0063  0.4465 -0.8078
  259MPD2     C 3919   3.565   0.793   0.989 -0.0215 -0.0481 -1.1387
  259MPD2    C1 3920   3.610   0.674   1.046 -0.3108  0.7187 -0.4513
  259MPD2    C2 3921   3.717   0.606   0.987 -0.9951 -0.2463  0.5513
  259MPD2    C3 3922   3.778   0.661   0.875 -0.9115 -0.0747  0.5212
  259MPD2    C4 3923   3.734   0.783   0.824 -0.1657  0.2570 -0.3019
  259MPD2    C5 3924   3.625   0.842   0.877 -0.1044  0.6382  0.2876
  259MPD2     H 3925   3.756   0.518   1.038 -1.1459 -0.1631  0.8142
  259MPD2    H1 3926   3.779   0.839   0.743 -0.1580  0.7598  0.0487
  259MPD2    H2 3927   3.480   0.849   1.026  1.0500  0.4253  0.6174
  259MPD2    H3 3928   3.587   0.925   0.819  0.2536  0.2606 -0.4903
  259MPD2     N 3929   3.889   0.590   0.821  0.1836  0.3023 -0.6199
  259MPD2    H5 3930   3.928   0.521   0.884 -2.7042 -0.8238 -0.0769
  259MPD2    N1 3931   3.546   0.635   1.166  0.5785  0.5004 -1.2910
  259MPD2    H7 3932   3.494   0.707   1.215  0.2006 -1.1789  0.7972
  260TMC3    C1 3933   4.057   0.522   0.680  0.1330 -0.3859 -0.1795
  260TMC3    C2 3934   4.162   0.559   0.600  0.9597  0.0060  0.0513
  260TMC3    C3 3935   4.241   0.463   0.538  0.0815 -0.4789  0.2720
  260TMC3    C4 3936   4.026   0.389   0.691 -0.2664 -0.3557  0.2419
  260TMC3    C5 3937   4.109   0.293   0.640  0.0633  0.1970 -0.0982
  260TMC3    C6 3938   4.212   0.331   0.556 -0.3330  0.6394  0.4608
  260TMC3     C 3939   3.960   0.629   0.708 -0.0116 -0.2419  0.3796
  260TMC3     O 3940   3.979   0.738   0.661 -0.3726 -0.4084 -0.3461
  260TMC3     H 3941   4.176   0.665   0.583  4.5227 -0.1142  2.2578
  260TMC3    H1 3942   3.932   0.370   0.742  0.6123 -0.5553  1.7903
  260TMC3    H2 3943   4.284   0.255   0.528 -1.1037  0.9466 -2.3873
  260TMC3    C7 3944   4.053   0.162   0.600 -0.8177 -0.1591 -0.4608
  260TMC3    C8 3945   4.325   0.504   0.429  0.3995 -0.4181  0.0038
  260TMC3    O1 3946   4.114   0.095   0.520 -0.7161 -0.1802  0.4168
  260TMC3    O2 3947   4.325   0.624   0.394  0.3878 -0.0999 -0.1470
  261MPD2     C 3948   0.682   3.986  11.724 -0.1833 -0.2142  0.1175
  261MPD2    C1 3949   0.790   4.042  11.788 -0.6179 -0.3806  0.1050
  261MPD2    C2 3950   0.879   4.128  11.716  0.0783 -0.5791 -0.7782
  261MPD2    C3 3951   0.844   4.161  11.587 -0.3592  0.7308 -0.3923
  261MPD2    C4 3952   0.732   4.106  11.520 -0.3717  0.5278  0.2174
  261MPD2    C5 3953   0.659   4.012  11.594 -0.1446 -0.6672 -0.3005
  261MPD2     H 3954   0.961   4.179  11.766  0.2613 -1.2738 -0.3723
  261MPD2    H1 3955   0.704   4.136  11.420  0.4148  0.3629 -0.0494
  261MPD2    H2 3956   0.613   3.917  11.771 -1.0323  0.3065 -0.3698
  261MPD2    H3 3957   0.571   3.966  11.550 -0.7923  1.4367 -1.1729
  261MPD2     N 3958   0.933   4.240  11.518  0.0784 -0.3685  0.6457
  261MPD2    H5 3959   1.003   4.295  11.568 -1.1319 -0.2333  2.2112
  261MPD2    N1 3960   0.813   4.015  11.923  0.6248  0.5011  0.3420
  261MPD2    H7 3961   0.905   4.043  11.956  0.3153  1.0120  0.7711
  262TMC3    C1 3962   1.054   4.323  11.343 -0.6320  0.2477 -0.4221
  262TMC3    C2 3963   1.007   4.451  11.352  0.3508 -0.2893 -0.3827
  262TMC3    C3 3964   1.043   4.536  11.250 -0.0385  0.0500  0.0450
  262TMC3    C4 3965   1.122   4.274  11.235  0.2369 -0.3127  0.0865
  262TMC3    C5 3966   1.152   4.371  11.139  0.9927  0.3017  0.3363
  262TMC3    C6 3967   1.124   4.500  11.153 -0.7156  0.7426 -0.6006
  262TMC3     C 3968   0.957   4.224  11.383  0.1476 -0.8796 -0.1855
  262TMC3     O 3969   0.901   4.145  11.309 -0.1337  0.6635 -0.3648
  262TMC3     H 3970   0.924   4.469  11.420 -1.2877 -0.7312 -2.2726
  262TMC3    H1 3971   1.145   4.169  11.222 -1.2829 -0.7887  1.3063
  262TMC3    H2 3972   1.160   4.568  11.077 -1.5722  1.1710 -0.6248
  262TMC3    C7 3973   1.241   4.337  11.020  0.3055 -0.1726  0.3008
  262TMC3    C8 3974   0.997   4.669  11.249 -0.4778  0.0646  0.1127
  262TMC3    O1 3975   1.302   4.429  10.970  0.4308  0.2296  0.5859
  262TMC3    O2 3976   1.032   0.018  11.160  0.3048 -0.1658  0.0096
  263MPD2     C 3977   2.092   3.699  11.344  0.3748 -0.2722 -0.2485
  263MPD2    C1 3978   2.176   3.659  11.243 -0.0346 -0.2447  0.0303
  263MPD2    C2 3979   2.117   3.621  11.120 -0.3237 -0.2288  0.2761
  263MPD2    C3 3980   1.980   3.630  11.092 -0.3961  0.7820  0.5478
  263MPD2    C4 3981   1.906   3.692  11.193 -0.0402  0.0665  0.2893
  263MPD2    C5 3982   1.963   3.724  11.312 -0.2708  0.0912  0.6965
  263MPD2     H 3983   2.184   3.568  11.053 -0.6505 -1.8059  1.1836
  263MPD2    H1 3984   1.797   3.693  11.190  0.0278  2.5856 -0.9439
  263MPD2    H2 3985   2.120   3.718  11.447  1.5000 -0.0375 -0.6020
  263MPD2    H3 3986   1.900   3.767  11.389 -1.3292 -1.1409  0.5285
  263MPD2     N 3987   1.926   3.570  10.978 -0.2689 -0.2083 -0.3449
  263MPD2    H5 3988   1.986   3.543  10.901  0.3737  1.7151 -0.5374
  263MPD2    N1 3989   2.313   3.637  11.279  0.1809 -0.5645 -0.4860
  263MPD2    H7 3990   2.336   3.680  11.368  0.7755  0.4403 -1.1310
  264TMC3    C1 3991   1.762   3.546  10.802  0.2323 -0.4763  0.3744
  264TMC3    C2 3992   1.673   3.631  10.749  0.4324  0.4303 -0.2780
  264TMC3    C3 3993   1.668   3.649  10.614  0.5362 -0.4860  0.5008
  264TMC3    C4 3994   1.844   3.465  10.731 -0.2841 -0.4951 -0.1514
  264TMC3    C5 3995   1.835   3.487  10.593  0.3557 -0.1181  0.4101
  264TMC3    C6 3996   1.742   3.567  10.533 -0.2394 -0.1608 -0.6189
  264TMC3     C 3997   1.796   3.582  10.940 -0.2915  0.0683  0.2094
  264TMC3     O 3998   1.700   3.635  11.002  0.2581 -0.2065 -0.1921
  264TMC3     H 3999   1.604   3.682  10.814 -0.7797 -3.0069  1.1452
  264TMC3    H1 4000   1.913   3.395  10.775  0.0591  0.0307  0.1456
  264TMC3    H2 4001   1.747   3.583  10.426  0.3940  3.3394 -0.0776
  264TMC3    C7 4002   1.957   3.487  10.523 -0.1105  0.2029  0.2147
  264TMC3    C8 4003   1.679   3.787  10.577 -0.4267  0.2671  0.5556
  264TMC3    O1 4004   1.983   3.589  10.461  0.1163  0.0183 -0.5456
  264TMC3    O2 4005   1.749   3.813  10.480 -0.6145 -0.5514 -0.4948
  265MPD2     C 4006   3.745   3.693  15.097 -0.0950 -0.3724  0.2711
  265MPD2    C1 4007   3.839   3.794  15.101 -0.7098  0.0221 -0.2565
  265MPD2    C2 4008   3.956   3.791  15.023  0.5528 -0.1893 -0.0540
  265MPD2    C3 4009   3.974   3.687  14.940  0.1028  0.2323  0.6002
  265MPD2    C4 4010   3.874   3.590  14.929  0.1755 -0.2298 -0.1501
  265MPD2    C5 4011   3.762   3.595  15.007  0.1246  0.1213 -0.4829
  265MPD2     H 4012   4.026   3.874  15.025  1.2768 -0.7746 -1.2258
  265MPD2    H1 4013   3.872   3.509  14.857 -1.3579 -0.0955 -0.2551
  265MPD2    H2 4014   3.655   3.697  15.158  0.2487  0.5818  0.7242
  265MPD2    H3 4015   3.679   3.528  14.989 -0.1352 -0.1555  1.7599
  265MPD2     N 4016   4.090   3.659  14.866  0.1846 -0.2116 -0.0635
  265MPD2    H5 4017   4.088   3.567  14.824 -0.7032 -0.0081 -0.4664
  265MPD2    N1 4018   3.821   3.913  15.177 -0.2769 -0.8124  0.3361
  265MPD2    H7 4019   3.889   3.988  15.176  1.0663 -2.0515  0.1930
  266TMC3    C1 4020   3.733   4.051  15.352 -0.0503 -0.4598  0.0533
  266TMC3    C2 4021   3.735   4.046  15.485 -0.1564  0.5822  0.1165
  266TMC3    C3 4022   3.790   4.154  15.555  0.7514 -0.2043  0.1438
  266TMC3    C4 4023   3.772   4.165  15.282  0.1926  0.1627 -0.4237
  266TMC3    C5 4024   3.840   4.262  15.347 -0.0376  0.0953  0.2151
  266TMC3    C6 4025   3.847   4.265  15.485 -0.8024  0.3935 -0.4376
  266TMC3     C 4026   3.728   3.927  15.273 -0.5935  0.0584 -0.0580
  266TMC3     O 4027   3.680   3.834  15.336 -0.2607  0.6116  0.2806
  266TMC3     H 4028   3.712   3.955  15.540 -1.5073  1.0630  0.3459
  266TMC3    H1 4029   3.778   4.169  15.174 -0.6565  1.0355 -0.4394
  266TMC3    H2 4030   3.889   4.351  15.537 -0.0976  0.9225 -1.8946
  266TMC3    C7 4031   3.856   4.390  15.287  0.1881  0.7202  0.2604
  266TMC3    C8 4032   3.863   4.113  15.676  0.4800  0.3968 -0.2902
  266TMC3    O1 4033   3.783   4.413  15.191  0.2619  0.6698 -0.4780
  266TMC3    O2 4034   3.881   3.996  15.683  0.2749 -0.3010  0.6098
  267MPD2     C 4035   1.091   1.202  17.609 -0.0896  0.8546 -0.1787
  267MPD2    C1 4036   1.186   1.114  17.573  0.5348 -0.6207  0.4086
  267MPD2    C2 4037   1.179   1.060  17.445 -0.7200 -0.3458  0.4821
  267MPD2    C3 4038   1.082   1.113  17.352 -0.7436  0.2398 -0.5794
  267MPD2    C4 4039   0.994   1.207  17.393  0.5480 -0.0583  0.6267
  267MPD2    C5 4040   0.993   1.246  17.520  0.4421 -0.0014  0.2263
  267MPD2     H 4041   1.243   0.978  17.415  1.4258  1.1857  0.8315
  267MPD2    H1 4042   0.916   1.246  17.328  0.5702  0.5304  0.9540
  267MPD2    H2 4043   1.087   1.231   0.009 -0.2716  1.7876 -0.4410
  267MPD2    H3 4044   0.908   1.305  17.553 -0.2644 -0.4811 -0.7462
  267MPD2     N 4045   1.088   1.065  17.214 -0.3530  0.1447 -0.4209
  267MPD2    H5 4046   1.173   1.013  17.196 -1.6083 -1.6670 -1.1771
  267MPD2    N1 4047   1.279   1.059  17.663  0.0473  0.0372 -0.5789
  267MPD2    H7 4048   1.264   1.077   0.058 -2.8875 -0.8651 -0.8433
  268TMC3    C1 4049   1.482   0.943   0.020 -0.2193 -0.1913 -0.0357
  268TMC3    C2 4050   1.619   0.961   0.005  0.6290 -0.0230 -0.0385
  268TMC3    C3 4051   1.715   0.870   0.009  0.6944 -0.2860  0.0206
  268TMC3    C4 4052   1.438   0.827   0.078 -0.1230 -0.0108  0.5359
  268TMC3    C5 4053   1.535   0.728   0.085 -0.2691  0.0160  1.0273
  268TMC3    C6 4054   1.665   0.745   0.037  0.9251  0.4711  0.6457
  268TMC3     C 4055   1.393   0.992  17.617  0.3404  0.8205  0.0316
  268TMC3     O 4056   1.460   1.019  17.519  0.7250 -0.2104  0.3800
  268TMC3     H 4057   1.643   1.058  17.669 -1.5739 -0.0361 -1.3495
  268TMC3    H1 4058   1.331   0.812   0.093 -0.2529 -1.4181 -1.7579
  268TMC3    H2 4059   1.740   0.667   0.037  0.3297 -0.1118 -1.3571
  268TMC3    C7 4060   1.513   0.607   0.157 -0.1044  0.4904  0.6116
  268TMC3    C8 4061   1.830   0.882  17.627 -0.0133  0.5319 -0.1947
  268TMC3    O1 4062   1.593   0.515   0.148  0.2901  0.1096 -0.1658
  268TMC3    O2 4063   1.821   0.977  17.547  0.3037 -0.2636  0.7520
  269MPD2     C 4064   1.964   4.340  15.409 -0.8694 -0.3214 -0.6930
  269MPD2    C1 4065   1.826   4.364  15.402 -0.2431  0.1324 -0.1200
  269MPD2    C2 4066   1.782   4.483  15.350 -0.2380  0.3748 -0.0944
  269MPD2    C3 4067   1.870   4.580  15.309  0.6290  0.0810 -0.1443
  269MPD2    C4 4068   2.003   4.555  15.318  0.4186 -0.3226 -0.2507
  269MPD2    C5 4069   2.050   4.440  15.379  0.0136 -0.1304  0.3212
  269MPD2     H 4070   1.677   4.509  15.341 -0.8385 -1.4762  1.5171
  269MPD2    H1 4071   2.078   4.632  15.303 -0.7633  0.3764 -2.6120
  269MPD2    H2 4072   1.997   4.245  15.450 -0.3842  0.3675  0.5032
  269MPD2    H3 4073   2.154   4.427  15.407  0.4500  0.9421 -0.8254
  269MPD2     N 4074   1.822   4.708  15.275 -0.2507 -0.1883  0.7404
  269MPD2    H5 4075   1.725   0.008  15.286 -0.5930 -1.3750  0.4841
  269MPD2    N1 4076   1.746   4.249  15.444 -0.0671 -0.1817 -0.4370
  269MPD2    H7 4077   1.788   4.161  15.473  0.7062 -0.6492 -3.0169
  270TMC3    C1 4078   1.553   4.110  15.484  1.1278 -0.2849  0.4048
  270TMC3    C2 4079   1.425   4.081  15.447 -0.0929 -0.2968 -0.4910
  270TMC3    C3 4080   1.374   3.963  15.492 -0.1374 -0.2467 -0.2442
  270TMC3    C4 4081   1.624   4.020  15.562  0.2883 -0.3728  0.1003
  270TMC3    C5 4082   1.566   3.905  15.614  0.6430 -0.3193  0.1287
  270TMC3    C6 4083   1.436   3.875  15.577  0.1172  0.1974  0.0045
  270TMC3     C 4084   1.609   4.237  15.441 -0.3663 -0.2300 -0.1232
  270TMC3     O 4085   1.529   4.324  15.404  0.4181 -0.0403 -0.3642
  270TMC3     H 4086   1.379   4.146  15.374  0.0204  0.2330 -0.0898
  270TMC3    H1 4087   1.709   4.052  15.621 -0.5912  2.2361 -0.0665
  270TMC3    H2 4088   1.379   3.789  15.609  1.7953  0.1248  2.8014
  270TMC3    C7 4089   1.667   3.792  15.625 -0.0187  0.8767 -0.2900
  270TMC3    C8 4090   1.273   3.903  15.404  1.2365 -0.5374  0.0650
  270TMC3    O1 4091   1.775   3.803  15.572  0.6379  0.5514 -0.0164
  270TMC3    O2 4092   1.167   3.875  15.452 -0.0348  0.4613 -0.2145
  271MPD2     C 4093   0.730   4.017  13.783  0.3661  0.2457  0.4932
  271MPD2    C1 4094   0.680   4.002  13.911  0.2986 -0.0837 -1.2172
  271MPD2    C2 4095   0.550   4.043  13.937  0.0278 -0.2651 -0.4278
  271MPD2    C3 4096   0.467   4.088  13.831 -0.8371  0.1358 -0.4206
  271MPD2    C4 4097   0.522   4.108  13.708 -0.3190  0.2318 -0.2555
  271MPD2    C5 4098   0.650   4.066  13.683 -0.3980 -0.5590 -0.7492
  271MPD2     H 4099   0.515   4.051  14.039 -1.2168 -0.4095 -0.8468
  271MPD2    H1 4100   0.467   4.135  13.618  0.9274  0.0413 -1.0688
  271MPD2    H2 4101   0.827   3.982  13.751 -0.1343 -2.2662  1.6873
  271MPD2    H3 4102   0.694   4.071  13.584 -0.2837 -0.1628 -0.6783
  271MPD2     N 4103   0.328   4.118  13.843  0.1865  0.3853 -0.2613
  271MPD2    H5 4104   0.278   4.118  13.755 -1.2020 -0.3530  0.5222
  271MPD2    N1 4105   0.763   3.956  14.020  0.1579 -0.2741 -0.0381
  271MPD2    H7 4106   0.719   3.951  14.112 -2.0339  1.6126 -0.9976
  272TMC3    C1 4107   0.922   3.832  14.129  0.6608  0.1547 -0.6928
  272TMC3    C2 4108   1.009   3.726  14.124 -0.0294  0.4885 -0.4400
  272TMC3    C3 4109   1.068   3.687  14.244  0.1108 -0.0631  0.1185
  272TMC3    C4 4110   0.891   3.897  14.246 -0.1760  0.4742 -0.5399
  272TMC3    C5 4111   0.934   3.833  14.360  0.0590  0.2511 -0.2397
  272TMC3    C6 4112   1.023   3.728  14.364 -0.1887  0.6530  0.3375
  272TMC3     C 4113   0.879   3.886  14.003 -0.1031 -0.6839 -0.5847
  272TMC3     O 4114   0.929   3.841  13.901 -0.0835 -0.0304 -0.0730
  272TMC3     H 4115   1.057   3.694  14.032  0.5071 -2.2389  0.8090
  272TMC3    H1 4116   0.829   3.986  14.246  0.5783  0.9934  0.4263
  272TMC3    H2 4117   1.056   3.682  14.456  0.9005 -0.6156 -0.6913
  272TMC3    C7 4118   0.898   3.898  14.484 -0.5765  0.6903 -0.1852
  272TMC3    C8 4119   1.207   3.637  14.235  0.6309  0.1735  0.5657
  272TMC3    O1 4120   0.781   3.938  14.498  0.1442 -0.2845 -0.6187
  272TMC3    O2 4121   1.250   3.643  14.120 -0.2123 -0.1143  0.7057
  273MPD2     C 4122   2.708   1.983  11.769 -0.2664 -0.2298  1.0485
  273MPD2    C1 4123   2.723   2.124  11.774  0.2297  0.2160 -0.6626
  273MPD2    C2 4124   2.701   2.199  11.659 -1.1167 -0.3029  0.5895
  273MPD2    C3 4125   2.659   2.138  11.542  0.0912  0.4546 -0.5403
  273MPD2    C4 4126   2.636   2.005  11.546 -0.1875 -0.7144  0.3579
  273MPD2    C5 4127   2.652   1.928  11.661 -0.0990  0.3728 -0.1876
  273MPD2     H 4128   2.693   2.307  11.655 -1.8897 -0.3783  0.0542
  273MPD2    H1 4129   2.567   1.962  11.475 -1.7071  1.9781  0.2044
  273MPD2    H2 4130   2.724   1.932  11.864  0.8803  0.6224  1.3142
  273MPD2    H3 4131   2.607   1.829  11.665  4.0281 -1.4122  1.4690
  273MPD2     N 4132   2.653   2.211  11.418 -0.4128 -0.3794  0.6572
  273MPD2    H5 4133   2.595   2.166  11.347 -0.3094 -0.3742  0.5691
  273MPD2    N1 4134   2.773   2.180  11.895 -0.2129 -0.5098 -0.1485
  273MPD2    H7 4135   2.797   2.113  11.967  1.2827  2.0170  1.7084
  274TMC3    C1 4136   2.673   2.402  11.286 -0.2582  0.2901 -0.1302
  274TMC3    C2 4137   2.554   2.386  11.222 -0.5091  0.0415 -0.0710
  274TMC3    C3 4138   2.513   2.477  11.131  0.6169  0.4216 -0.8101
  274TMC3    C4 4139   2.751   2.511  11.256 -0.6033  0.1840  0.0471
  274TMC3    C5 4140   2.705   2.606  11.177 -0.8185 -0.5372  0.3294
  274TMC3    C6 4141   2.587   2.586  11.103  0.3230 -0.1463 -0.3264
  274TMC3     C 4142   2.712   2.336  11.407  0.6323  0.8820  0.3918
  274TMC3     O 4143   2.791   2.390  11.483 -0.3140  0.0206 -0.0241
  274TMC3     H 4144   2.495   2.298  11.245 -1.1488  1.1446  2.5097
  274TMC3    H1 4145   2.842   2.518  11.316 -0.8961  2.5518  0.2167
  274TMC3    H2 4146   2.549   2.663  11.038  1.6352  1.2157  0.5155
  274TMC3    C7 4147   2.738   2.744  11.210 -0.0276 -0.0581 -0.8407
  274TMC3    C8 4148   2.375   2.465  11.075 -0.4227  1.0582  0.3516
  274TMC3    O1 4149   2.669   2.828  11.158 -0.1222 -0.2045  0.7131
  274TMC3    O2 4150   2.348   2.553  10.999 -0.3544  0.0719  0.2082
  275MPD2     C 4151   2.326   0.150  14.282 -0.1281  0.8454 -0.5689
  275MPD2    C1 4152   2.237   0.173  14.380 -0.4301 -0.8765  0.9793
  275MPD2    C2 4153   2.102   0.167  14.364  0.4708 -0.0965  0.3373
  275MPD2    C3 4154   2.054   0.140  14.235 -0.9813  0.4185 -1.1382
  275MPD2    C4 4155   2.140   0.111  14.129 -0.7561 -0.0749  0.2898
  275MPD2    C5 4156   2.279   0.119  14.153  0.2945  1.2098  0.3320
  275MPD2     H 4157   2.037   0.184  14.449 -1.2717 -0.0762 -0.9904
  275MPD2    H1 4158   2.114   0.092  14.025 -1.1772 -0.1116  0.4037
  275MPD2    H2 4159   2.430   0.168  14.305 -0.3191  2.4578 -0.9949
  275MPD2    H3 4160   2.349   0.105  14.071  1.9076  1.1777  1.7064
  275MPD2     N 4161   1.915   0.154  14.205 -0.5797  0.2691  0.2215
  275MPD2    H5 4162   1.881   0.121  14.115  1.1162 -1.0782  0.0800
  275MPD2    N1 4163   2.274   0.186  14.519  1.1849 -0.2725  0.2716
  275MPD2    H7 4164   2.199   0.157  14.581 -0.6918  2.7448 -0.5633
  276TMC3    C1 4165   2.407   0.226  14.706  0.2777 -0.7075  0.5357
  276TMC3    C2 4166   2.381   0.110  14.768  0.5207 -0.3770  0.2855
  276TMC3    C3 4167   2.426   0.096  14.899 -0.6639  0.3136  0.0495
  276TMC3    C4 4168   2.462   0.331  14.770 -0.1127  0.3662 -0.4897
  276TMC3    C5 4169   2.504   0.313  14.898 -0.1911  0.5409 -0.0184
  276TMC3    C6 4170   2.487   0.194  14.973  0.0482  1.2253  0.2109
  276TMC3     C 4171   2.396   0.231  14.562 -0.2793 -0.0638  0.8692
  276TMC3     O 4172   2.477   0.306  14.505 -0.3200 -0.3976 -0.4406
  276TMC3     H 4173   2.361   0.018  14.714  0.7412 -1.0022  1.2575
  276TMC3    H1 4174   2.487   0.416  14.708 -0.1414  0.0194 -0.9762
  276TMC3    H2 4175   2.508   0.190  15.079 -0.0007  3.8120  0.3271
  276TMC3    C7 4176   2.592   0.408  14.960 -0.7525 -0.3954  0.7779
  276TMC3    C8 4177   2.464   4.688  14.927 -0.0720 -0.6275  0.0032
  276TMC3    O1 4178   2.654   0.357  15.047  0.0978 -0.1445 -0.3690
  276TMC3    O2 4179   2.413   4.592  14.871 -0.2220  0.6431 -0.4146
  277MPD2     C 4180   4.369   3.843  13.346  0.0832  0.6843  0.4622
  277MPD2    C1 4181   4.229   3.845  13.361 -0.2175  0.4465 -0.1315
  277MPD2    C2 4182   4.183   3.787  13.481 -0.2672 -0.2251  0.6257
  277MPD2    C3 4183   4.266   3.716  13.560 -0.3615  0.6140  1.0672
  277MPD2    C4 4184   4.398   3.709  13.533 -0.6076 -0.0618 -0.1993
  277MPD2    C5 4185   4.448   3.782  13.431  0.0168  0.0846 -0.0874
  277MPD2     H 4186   4.077   3.796  13.503 -0.2815 -0.1325  0.5192
  277MPD2    H1 4187   4.473   3.663  13.597  0.0330  1.8598  0.4290
  277MPD2    H2 4188   4.421   3.868  13.254  0.8219 -0.6833  0.4942
  277MPD2    H3 4189   4.553   3.783  13.406  0.3411 -0.6826  1.2530
  277MPD2     N 4190   4.208   3.663  13.672 -0.0674 -0.3034  0.4614
  277MPD2    H5 4191   4.118   3.699  13.703 -1.1396 -1.0217 -1.7708
  277MPD2    N1 4192   4.160   3.908  13.254 -0.2589  0.4274 -0.0589
  277MPD2    H7 4193   4.215   3.931  13.172  2.0509 -0.4022  1.2734
  278TMC3    C1 4194   4.175   3.500  13.845  0.3710  0.0022 -0.4418
  278TMC3    C2 4195   4.125   3.377  13.825 -1.6424 -0.0248  0.9599
  278TMC3    C3 4196   4.017   3.334  13.899 -0.4499 -0.1658  0.4916
  278TMC3    C4 4197   4.113   3.585  13.928  0.7716  0.1121 -0.4689
  278TMC3    C5 4198   4.003   3.544  14.000 -0.1566  0.1169 -0.3215
  278TMC3    C6 4199   3.956   3.418  13.990  0.6616 -0.3685  0.0829
  278TMC3     C 4200   4.255   3.550  13.733 -0.4785  0.1712  0.3159
  278TMC3     O 4201   4.336   3.475  13.683 -0.0156 -0.2929 -0.5878
  278TMC3     H 4202   4.173   3.314  13.751  0.6134  3.0238 -0.1741
  278TMC3    H1 4203   4.153   3.685  13.930 -3.1539  1.6402  2.8385
  278TMC3    H2 4204   3.863   3.384  14.035  0.1210  2.2935  0.9823
  278TMC3    C7 4205   3.915   3.644  14.054 -0.6090 -0.8757  0.6482
  278TMC3    C8 4206   3.943   3.214  13.853 -0.2081  0.1031  0.5680
  278TMC3    O1 4207   3.963   3.752  14.077 -0.3093  0.2127  0.5171
  278TMC3    O2 4208   3.852   3.180  13.929  0.2091  0.1716 -0.1233
  279MPD2     C 4209   3.380   3.231  17.392  0.4479 -0.6466  0.2140
  279MPD2    C1 4210   3.337   3.352  17.443 -0.2540 -0.4999  0.2124
  279MPD2    C2 4211   3.364   3.469  17.372  0.2847 -0.4718 -0.5292
  279MPD2    C3 4212   3.445   3.467  17.260 -0.2939  0.6666 -0.2953
  279MPD2    C4 4213   3.487   3.349  17.215 -0.4928  0.7531  0.9615
  279MPD2    C5 4214   3.465   3.233  17.279 -0.1691 -0.3162 -0.3686
  279MPD2     H 4215   3.324   3.562  17.411 -1.4299 -1.3884 -0.0888
  279MPD2    H1 4216   3.548   3.339  17.126 -1.8336 -1.7325  0.3176
  279MPD2    H2 4217   3.340   3.141  17.438  0.9157 -0.7286  0.4560
  279MPD2    H3 4218   3.506   3.146  17.230 -0.7025 -0.5381 -0.4281
  279MPD2     N 4219   3.469   3.581  17.184 -0.0227  0.3460  0.1205
  279MPD2    H5 4220   3.519   3.570  17.096 -0.9291 -0.0612 -0.3359
  279MPD2    N1 4221   3.246   3.346  17.546  0.0447 -0.1050  0.0065
  279MPD2    H7 4222   3.226   3.251  17.575  0.3670  0.1894  1.1987
  280TMC3    C1 4223   3.070   3.446  17.671  0.3175 -0.1218 -0.3540
  280TMC3    C2 4224   2.986   3.353  17.605 -0.4409  0.1759  0.3123
  280TMC3    C3 4225   2.861   3.405  17.576 -0.9628  0.1489  0.4470
  280TMC3    C4 4226   3.030   3.569  17.703  0.7949  0.4654  0.4087
  280TMC3    C5 4227   2.904   3.616  17.665 -0.4995 -0.6163 -0.2442
  280TMC3    C6 4228   2.814   3.533  17.600 -0.3036  0.1455  0.5586
  280TMC3     C 4229   3.203   3.464  17.607 -0.3078 -0.0317 -0.4191
  280TMC3     O 4230   3.260   3.566  17.625  0.2326  0.3865 -0.1096
  280TMC3     H 4231   3.022   3.253  17.584  0.9512  0.6135  0.5599
  280TMC3    H1 4232   3.098   3.644   0.038  0.7080 -0.1721  1.7459
  280TMC3    H2 4233   2.709   3.556  17.598  0.3089  2.6279 -1.8088
  280TMC3    C7 4234   2.857   3.744   0.012 -0.0148 -0.6114  0.1957
  280TMC3    C8 4235   2.760   3.320  17.521 -0.3458  0.1254  0.1234
  280TMC3    O1 4236   2.907   3.779   0.118  0.2410  0.8206 -0.4859
  280TMC3    O2 4237   2.660   3.377  17.478 -0.1907  0.2262 -0.4788
  281TMC3    C1 4238   2.188   4.456  13.571 -0.1364  0.2943  0.9157
  281TMC3    C2 4239   2.236   4.432  13.450 -0.4309 -0.0601 -0.6346
  281TMC3    C3 4240   2.202   4.321  13.380 -0.2592  0.6209 -0.1050
  281TMC3    C4 4241   2.104   4.367  13.628 -0.9659  0.0705 -0.4075
  281TMC3    C5 4242   2.068   4.256  13.559 -0.2380  0.7269 -0.1563
  281TMC3    C6 4243   2.126   4.223  13.439  0.2040  0.0760  0.2863
  281TMC3     C 4244   2.147   4.587  13.620  0.0008 -0.3786 -0.2941
  281TMC3     O 4245   2.158   4.610  13.738  0.6560 -0.3305 -0.2909
  281TMC3     H 4246   2.297   4.508  13.402  0.3290  1.2473  2.3885
  281TMC3    H1 4247   2.044   4.399  13.712  1.2338 -1.6510  1.8147
  281TMC3    H2 4248   2.126   4.127  13.390 -0.5706  1.2522 -2.0367
  281TMC3    C7 4249   1.943   4.189  13.585 -0.1352  0.4780  0.4135
  281TMC3    C8 4250   2.174   4.343  13.234 -0.1291  0.2306  0.1986
  281TMC3    O1 4251   1.846   4.249  13.633 -0.4417  0.4243  0.3474
  281TMC3    O2 4252   2.089   4.267  13.197 -0.2155 -0.1865  0.3122
  282MPD2     C 4253   4.186   0.890  15.174  0.8625  0.3008  0.2183
  282MPD2    C1 4254   4.061   0.939  15.187 -0.6002 -0.0473  0.8519
  282MPD2    C2 4255   3.968   0.932  15.082 -0.2186 -0.0425  0.6703
  282MPD2    C3 4256   4.008   0.883  14.956 -0.3605 -0.3815  0.0618
  282MPD2    C4 4257   4.131   0.823  14.956  0.4678 -0.0890  1.5866
  282MPD2    C5 4258   4.224   0.832  15.059 -0.2254 -0.1968 -0.3644
  282MPD2     H 4259   3.871   0.978  15.096  0.8538  2.6205 -0.6912
  282MPD2    H1 4260   4.162   0.766  14.869  1.2945 -0.6979  2.2832
  282MPD2    H2 4261   4.256   0.889  15.257  0.1573 -0.3298  0.8092
  282MPD2    H3 4262   4.323   0.789  15.060 -0.0384  0.2210 -0.7201
  282MPD2     N 4263   3.913   0.875  14.848 -0.0583 -0.1388  0.1269
  282MPD2    H5 4264   3.818   0.911  14.858 -0.5794 -1.0347 -1.6135
  282MPD2    N1 4265   4.021   0.992  15.307 -0.1337 -0.0274  0.5220
  282MPD2    H7 4266   3.922   0.994  15.329  0.2984  1.3993  2.3539
  283TMC3    C1 4267   4.027   1.062  15.533 -0.0831  0.5061 -0.2970
  283TMC3    C2 4268   4.032   1.179  15.605 -0.8268  0.3030  0.5537
  283TMC3    C3 4269   3.956   1.188  15.718 -0.0686  0.4588  0.2002
  283TMC3    C4 4270   3.941   0.958  15.566  0.4785 -0.2480  0.6424
  283TMC3    C5 4271   3.872   0.977  15.683 -0.4514  0.2872 -0.5378
  283TMC3    C6 4272   3.877   1.084  15.762  0.6152 -0.1539  0.3780
  283TMC3     C 4273   4.104   1.037  15.412  0.3744  0.4025 -0.2257
  283TMC3     O 4274   4.228   1.068  15.408 -0.0398  0.6063  0.5698
  283TMC3     H 4275   4.106   1.250  15.571  0.5577  0.0354  2.9829
  283TMC3    H1 4276   3.944   0.864  15.511 -1.0698 -0.5159  1.0361
  283TMC3    H2 4277   3.809   1.093  15.846  1.7901  0.5545  1.2535
  283TMC3    C7 4278   3.781   0.873  15.734  0.0189  0.1368  1.0376
  283TMC3    C8 4279   3.932   1.316  15.766 -0.3897  0.3966  0.1616
  283TMC3    O1 4280   3.717   0.901  15.836  0.1345  0.3731 -0.5925
  283TMC3    O2 4281   3.887   1.319  15.880 -0.4717 -0.6723 -0.0428
  284MPD2     C 4282   1.904   0.319  11.778 -0.5837 -0.3423  0.3695
  284MPD2    C1 4283   1.996   0.296  11.680 -0.7069  0.2485 -0.0237
  284MPD2    C2 4284   2.126   0.283  11.712  0.0479 -0.6212  0.1200
  284MPD2    C3 4285   2.170   0.295  11.841  0.3284 -0.1129  0.0798
  284MPD2    C4 4286   2.075   0.311  11.943 -0.4477 -0.8238  0.2410
  284MPD2    C5 4287   1.940   0.316  11.909 -0.0453  0.4327  0.3306
  284MPD2     H 4288   2.203   0.283  11.635  1.4379  1.6464  1.4854
  284MPD2    H1 4289   2.092   0.314  12.050 -2.8589 -1.1318  0.6413
  284MPD2    H2 4290   1.803   0.341  11.746 -1.0751 -1.0881  1.3908
  284MPD2    H3 4291   1.866   0.343  11.983  0.3924 -3.2305  2.1170
  284MPD2     N 4292   2.307   0.283  11.869  0.4479 -0.0470 -0.0221
  284MPD2    H5 4293   2.368   0.242  11.799 -1.8972  0.3869 -2.3253
  284MPD2    N1 4294   1.950   0.306  11.546  0.3482  0.5942  0.0087
  284MPD2    H7 4295   1.852   0.332  11.536  0.4652  0.9384 -0.2306
  285TMC3    C1 4296   1.945   0.299  11.324 -0.0846  0.1758  0.1057
  285TMC3    C2 4297   1.979   0.227  11.213 -0.4347  0.1378 -0.2773
  285TMC3    C3 4298   2.015   0.298  11.099 -0.5995  0.0141  1.1224
  285TMC3    C4 4299   1.935   0.437  11.313 -0.1064  0.5006 -0.5366
  285TMC3    C5 4300   2.005   0.498  11.212  0.3221  0.4613 -0.1631
  285TMC3    C6 4301   2.030   0.436  11.093  0.2083  0.4403 -0.6277
  285TMC3     C 4302   2.025   0.268  11.435 -0.9718  0.0446 -0.1850
  285TMC3     O 4303   2.146   0.255  11.417  0.0655  0.5922 -0.0117
  285TMC3     H 4304   1.961   0.120  11.213  0.2008  0.0240  1.1725
  285TMC3    H1 4305   1.904   0.498  11.397  0.8412  2.4213 -1.5785
  285TMC3    H2 4306   2.072   0.495  11.012  1.7352  2.7898  1.9157
  285TMC3    C7 4307   2.103   0.598  11.259 -0.0557  1.0901  0.5275
  285TMC3    C8 4308   2.065   0.220  10.992  0.4184 -0.2839 -0.0935
  285TMC3    O1 4309   2.142   0.681  11.178 -0.4220  0.0650  0.0478
  285TMC3    O2 4310   2.102   0.107  11.024 -0.4688  0.1892  0.1944
  286MPD2     C 4311   2.623   3.560   1.297  0.0393 -0.4359  0.2031
  286MPD2    C1 4312   2.601   3.512   1.171  0.5948  0.2170 -0.2619
  286MPD2    C2 4313   2.684   3.413   1.120  0.2473  0.6079  0.1731
  286MPD2    C3 4314   2.794   3.378   1.193  0.1006 -0.6670  0.2961
  286MPD2    C4 4315   2.823   3.439   1.311  0.1851 -0.7963 -0.0957
  286MPD2    C5 4316   2.735   3.525   1.363  0.7390  0.2323  0.2647
  286MPD2     H 4317   2.671   3.391   1.014  1.5591 -0.1301  0.1625
  286MPD2    H1 4318   2.908   3.423   1.376 -0.7410 -1.8115  0.8633
  286MPD2    H2 4319   2.555   3.638   1.331 -0.0791 -0.7713  0.7405
  286MPD2    H3 4320   2.769   3.583   1.448 -2.5702 -0.9958  2.4095
  286MPD2     N 4321   2.891   3.279   1.149  0.3159  0.6089 -0.0658
  286MPD2    H5 4322   2.987   3.294   1.178  0.1743  1.2005  0.1069
  286MPD2    N1 4323   2.486   3.543   1.090 -0.4111  0.2362 -0.3013
  286MPD2    H7 4324   2.469   3.494   1.003 -0.9766 -1.4542  0.7611
  287TMC3    C1 4325   2.989   3.121   1.005 -0.8770  0.6983  0.0659
  287TMC3    C2 4326   2.988   3.029   0.902  0.8162  0.0975 -0.4883
  287TMC3    C3 4327   3.101   2.994   0.842 -0.0298  0.2042 -0.4970
  287TMC3    C4 4328   3.101   3.184   1.045  0.1285  0.2862 -0.1276
  287TMC3    C5 4329   3.217   3.140   0.987 -0.4834 -0.1112 -0.5196
  287TMC3    C6 4330   3.218   3.059   0.875  0.3711  0.6822 -0.1981
  287TMC3     C 4331   2.869   3.192   1.044 -0.2059  0.0629 -0.1160
  287TMC3     O 4332   2.765   3.167   0.988 -0.1335 -0.3396 -0.2758
  287TMC3     H 4333   2.891   2.982   0.890  0.9453 -0.0659 -0.9009
  287TMC3    H1 4334   3.117   3.237   1.139 -1.0477  3.2322 -1.6084
  287TMC3    H2 4335   3.314   3.043   0.825  0.2219  0.6783 -0.4872
  287TMC3    C7 4336   3.340   3.203   1.046  0.0863  0.4525 -0.2684
  287TMC3    C8 4337   3.099   2.877   0.751 -0.0934 -0.0847 -0.0275
  287TMC3    O1 4338   3.329   3.303   1.116  0.2617 -0.0779 -0.4797
  287TMC3    O2 4339   2.990   2.850   0.700  0.6718 -0.4173  0.5215
  288TMC3    C1 4340   4.105   3.227  14.318  0.2267  0.1713  0.6794
  288TMC3    C2 4341   4.057   3.219  14.445 -0.0753  0.3901  0.5586
  288TMC3    C3 4342   4.087   3.328  14.522  0.8019  0.0349  0.6780
  288TMC3    C4 4343   4.181   3.321  14.261  0.4641 -0.2141  0.3371
  288TMC3    C5 4344   4.216   3.417  14.344 -0.3702  0.2185  0.2407
  288TMC3    C6 4345   4.168   3.431  14.471  0.0013  0.1280 -0.1658
  288TMC3     C 4346   4.079   3.106  14.241  0.3133  0.6962 -0.2436
  288TMC3     O 4347   3.981   3.038  14.260 -0.2470 -0.2364  0.7264
  288TMC3     H 4348   3.989   3.140  14.473  0.4871 -0.1687  0.3392
  288TMC3    H1 4349   4.195   3.326  14.154  0.6531  0.5162  0.3976
  288TMC3    H2 4350   4.198   3.521  14.524  0.6020 -0.3542  0.3102
  288TMC3    C7 4351   4.267   3.540  14.282 -0.1089  0.8555 -0.0855
  288TMC3    C8 4352   4.039   3.337  14.659 -0.8505 -0.3543  0.3524
  288TMC3    O1 4353   4.268   3.642  14.338 -0.1260 -0.3209 -0.6068
  288TMC3    O2 4354   4.064   3.441  14.718 -0.4955 -0.5911  0.0086
  289MPD2     C 4355   4.185   2.408  14.835  0.2994 -0.3957 -0.3146
  289MPD2    C1 4356   4.238   2.494  14.743 -0.2585 -0.9072  0.2601
  289MPD2    C2 4357   4.161   2.523  14.626 -0.1325  0.0711  0.2093
  289MPD2    C3 4358   4.041   2.459  14.604 -0.3006  0.0413 -0.2341
  289MPD2    C4 4359   3.988   2.370  14.694 -0.4120  0.5796  0.0748
  289MPD2    C5 4360   4.063   2.342  14.805 -0.1574  0.4950  0.1559
  289MPD2     H 4361   4.205   2.592  14.554 -2.4303  0.7152 -0.5605
  289MPD2    H1 4362   3.889   2.328  14.681  1.0197 -3.7246  3.0391
  289MPD2    H2 4363   4.244   2.379  14.921  0.2470 -1.3299 -0.5867
  289MPD2    H3 4364   4.017   2.274  14.877 -1.1194  1.8677  0.8272
  289MPD2     N 4365   3.957   2.494  14.496  0.3930 -0.4734  0.3380
  289MPD2    H5 4366   3.869   2.445  14.485  0.3963 -0.3299 -0.3138
  289MPD2    N1 4367   4.364   2.557  14.774  0.0361 -0.3575 -0.5453
  289MPD2    H7 4368   4.399   2.539  14.867 -1.7369  2.8390  0.7301
  290TMC3    C1 4369   3.869   2.616  14.321 -0.6964  0.0812  0.9125
  290TMC3    C2 4370   3.855   2.736  14.253  0.4225  0.3927  0.4323
  290TMC3    C3 4371   3.785   2.739  14.131 -0.2700 -0.1736 -0.0076
  290TMC3    C4 4372   3.821   2.500  14.268 -0.2337 -0.5521  0.4303
  290TMC3    C5 4373   3.748   2.503  14.147 -0.4495 -0.0063 -0.4440
  290TMC3    C6 4374   3.739   2.621  14.081 -0.0809 -0.5266 -0.2242
  290TMC3     C 4375   3.967   2.605  14.420 -0.8649  0.2456  0.6389
  290TMC3     O 4376   4.042   2.703  14.430 -0.4863  0.4173 -0.5874
  290TMC3     H 4377   3.913   2.819  14.291 -0.0397  1.1428 -0.5043
  290TMC3    H1 4378   3.838   2.405  14.318  1.1365 -1.2053 -1.2699
  290TMC3    H2 4379   3.669   2.632  13.999  0.3690 -1.9390 -0.7804
  290TMC3    C7 4380   3.643   2.405  14.126  0.3984  0.0234  0.4458
  290TMC3    C8 4381   3.714   2.857  14.084  0.6518  0.5280  0.2639
  290TMC3    O1 4382   3.577   2.420  14.023  0.2020  0.1028  0.2950
  290TMC3    O2 4383   3.626   2.834  14.001 -0.5371  0.0019 -0.0502
  291MPD2     C 4384   3.360   2.164   0.755 -0.2105  0.6367  0.5423
  291MPD2    C1 4385   3.368   2.123   0.626  0.1431  0.9445 -0.7485
  291MPD2    C2 4386   3.495   2.132   0.574 -0.8884  0.2094  0.1391
  291MPD2    C3 4387   3.601   2.196   0.642 -0.1635 -0.5824  0.3215
  291MPD2    C4 4388   3.575   2.268   0.762 -0.4398 -0.2670 -0.1154
  291MPD2    C5 4389   3.455   2.234   0.820 -0.1055 -1.0139  0.3092
  291MPD2     H 4390   3.503   2.085   0.477  2.2272 -0.6758  0.8360
  291MPD2    H1 4391   3.646   2.330   0.816  0.0588  0.1476 -1.2533
  291MPD2    H2 4392   3.267   2.145   0.808  0.1217 -1.0075  0.5196
  291MPD2    H3 4393   3.441   2.272   0.921  1.4769 -2.0575  0.9239
  291MPD2     N 4394   3.729   2.212   0.587  0.3058 -0.0184  0.0262
  291MPD2    H5 4395   3.792   2.274   0.636  1.0257 -0.8332  0.1218
  291MPD2    N1 4396   3.262   2.074   0.548 -0.3069 -0.1105  0.4204
  291MPD2    H7 4397   3.288   2.051   0.452  1.7710  0.0018  0.9610
  292TMC3    C1 4398   3.064   1.959   0.493  0.1089 -0.3126  0.0192
  292TMC3    C2 4399   2.954   1.906   0.543 -0.9341  0.1354 -0.6057
  292TMC3    C3 4400   2.870   1.835   0.463  0.7615  0.2276  0.5391
  292TMC3    C4 4401   3.112   1.931   0.363 -0.5519 -0.2790  0.4677
  292TMC3    C5 4402   3.019   1.869   0.281  0.0167 -0.2999 -0.4875
  292TMC3    C6 4403   2.898   1.823   0.329  0.1481  0.0134  0.4876
  292TMC3     C 4404   3.140   2.031   0.596 -0.2323 -0.6549 -0.7352
  292TMC3     O 4405   3.095   2.046   0.708  0.2927  0.2777 -0.4398
  292TMC3     H 4406   2.926   1.932   0.644 -2.0256  0.0574 -0.8861
  292TMC3    H1 4407   3.209   1.957   0.322 -0.5277 -0.2291  0.5564
  292TMC3    H2 4408   2.838   1.758   0.266  0.7636 -0.4116  0.3315
  292TMC3    C7 4409   3.070   1.811   0.156  0.2344 -0.2646  0.0318
  292TMC3    C8 4410   2.736   1.818   0.515 -1.0165 -0.2407  0.4951
  292TMC3    O1 4411   3.190   1.782   0.153 -0.1121  0.8714 -0.0756
  292TMC3    O2 4412   2.725   1.835   0.638 -0.4085  0.6797 -0.0499
  293MPD2     C 4413   0.445   4.052  12.328  0.3214 -0.7873  0.4324
  293MPD2    C1 4414   0.419   3.943  12.410 -0.1819 -0.4588  0.1621
  293MPD2    C2 4415   0.462   3.934  12.543  0.3356 -0.0469  0.1894
  293MPD2    C3 4416   0.531   4.047  12.594 -0.0671  0.0948 -0.2160
  293MPD2    C4 4417   0.552   4.156  12.513  0.3132  0.6824  0.0953
  293MPD2    C5 4418   0.514   4.155  12.376 -0.2732 -0.4352  0.1798
  293MPD2     H 4419   0.450   3.844  12.602 -1.0215  0.6397  0.9638
  293MPD2    H1 4420   0.611   4.241  12.545  0.2167  0.6812  0.2749
  293MPD2    H2 4421   0.422   4.046  12.222 -0.3440 -1.7331  0.6325
  293MPD2    H3 4422   0.543   4.237  12.312 -2.9387 -0.2629 -0.8036
  293MPD2     N 4423   0.563   4.039  12.730 -0.1604  0.3396  0.0254
  293MPD2    H5 4424   0.523   3.957  12.775  2.0001 -1.1433 -0.7274
  293MPD2    N1 4425   0.324   3.850  12.350 -0.4638 -0.0768  0.3088
  293MPD2    H7 4426   0.277   3.883  12.267 -1.2986 -2.7192 -0.2742
  294TMC3    C1 4427   0.134   3.718  12.375 -0.0158 -0.5609 -0.5104
  294TMC3    C2 4428   0.094   3.596  12.420  0.2055 -0.4264 -0.6698
  294TMC3    C3 4429   4.701   3.555  12.365 -0.0463  0.2291 -0.6780
  294TMC3    C4 4430   0.064   3.800  12.291 -0.6101  0.2377 -0.4495
  294TMC3    C5 4431   4.663   3.762  12.262  0.8912 -0.2877  0.4689
  294TMC3    C6 4432   4.623   3.632  12.286  0.2437  0.4841  0.3836
  294TMC3     C 4433   0.265   3.752  12.421 -0.5438  0.4169 -0.1598
  294TMC3     O 4434   0.294   3.699  12.527 -0.2179  0.0431  0.1730
  294TMC3     H 4435   0.156   3.533  12.482 -2.2496 -1.3560  0.8394
  294TMC3    H1 4436   0.105   3.899  12.274  0.6116 -0.5369 -2.0707
  294TMC3    H2 4437   4.529   3.585  12.257 -0.9112  0.5680  3.8722
  294TMC3    C7 4438   4.576   3.836  12.169 -0.1669  0.6566  0.3066
  294TMC3    C8 4439   4.692   3.410  12.355 -0.5513  0.7977 -0.4488
  294TMC3    O1 4440   4.458   3.818  12.176 -0.6398 -0.3605  0.7257
  294TMC3    O2 4441   4.712   3.345  12.460  0.0760 -0.2325 -0.0051
  295MPD2     C 4442   0.923   2.114   0.893  0.7413 -0.2650 -1.4290
  295MPD2    C1 4443   0.881   2.211   0.803  0.5447 -0.6290 -0.7487
  295MPD2    C2 4444   0.757   2.266   0.825 -0.4792 -0.5746 -1.1045
  295MPD2    C3 4445   0.680   2.230   0.938 -0.2725  0.5354 -0.1613
  295MPD2    C4 4446   0.725   2.135   1.018  0.3027  0.3533  0.1818
  295MPD2    C5 4447   0.842   2.073   0.989 -0.0365 -0.5330  0.0048
  295MPD2     H 4448   0.732   2.349   0.759  0.0173  0.8571  0.5036
  295MPD2    H1 4449   0.664   2.086   1.093 -1.4245 -1.4370 -2.3831
  295MPD2    H2 4450   1.024   2.077   0.897  1.8196  2.5506 -2.4754
  295MPD2    H3 4451   0.863   1.983   1.046  3.1748  0.5674  0.5655
  295MPD2     N 4452   0.552   2.285   0.957  0.0900  0.1579 -0.4565
  295MPD2    H5 4453   0.504   2.245   1.036  1.0205  0.1445  0.1094
  295MPD2    N1 4454   0.961   2.265   0.700 -0.3339 -0.0438 -0.1119
  295MPD2    H7 4455   0.918   2.339   0.645  0.3060  0.8114  0.5292
  296TMC3    C1 4456   0.349   2.385   0.896  0.5161  0.1896  0.2266
  296TMC3    C2 4457   0.288   2.491   0.837 -0.4783  0.2039  0.0027
  296TMC3    C3 4458   0.151   2.500   0.848 -0.1039 -0.1258  0.5388
  296TMC3    C4 4459   0.269   2.279   0.950 -0.1227  0.0518 -0.6347
  296TMC3    C5 4460   0.132   2.288   0.940  0.4831  0.4120 -0.3508
  296TMC3    C6 4461   0.072   2.394   0.885  0.1199 -0.0199 -0.2309
  296TMC3     C 4462   0.489   2.370   0.869  0.1023  0.3295 -0.1854
  296TMC3     O 4463   0.533   2.439   0.783  0.4018  0.2446 -0.4613
  296TMC3     H 4464   0.344   2.577   0.802 -1.9028  0.2945 -2.0542
  296TMC3    H1 4465   0.312   2.196   1.005 -0.2591 -0.8541 -1.9108
  296TMC3    H2 4466   4.690   2.402   0.888  0.0604 -1.3967  0.9009
  296TMC3    C7 4467   0.053   2.182   1.005  0.0040  0.4529  0.3488
  296TMC3    C8 4468   0.096   2.634   0.836 -0.6694 -0.3951 -0.5640
  296TMC3    O1 4469   0.108   2.124   1.097  0.7186 -0.0558  0.1904
  296TMC3    O2 4470   4.709   2.648   0.784 -0.0511  0.5028 -0.8252
  297MPD2     C 4471   2.867   4.400  16.083  0.7299  0.9870 -0.4577
  297MPD2    C1 4472   2.861   4.505  15.995 -0.6550  0.6280  0.3510
  297MPD2    C2 4473   2.961   4.603  16.005 -1.0342 -0.1246  0.0093
  297MPD2    C3 4474   3.065   4.591  16.098 -0.8071  0.1770  0.0937
  297MPD2    C4 4475   3.066   4.487  16.184  0.1738 -0.3770 -0.7119
  297MPD2    C5 4476   2.976   4.388  16.171 -0.5469 -0.2565  0.1059
  297MPD2     H 4477   2.970   4.693  15.946  0.3260 -0.4561 -0.2932
  297MPD2    H1 4478   3.134   4.480  16.268 -0.3400  3.3576  0.0222
  297MPD2    H2 4479   2.786   4.328  16.089 -0.1427  2.0540  0.7322
  297MPD2    H3 4480   2.973   4.312  16.247 -1.3664 -0.0113  0.3162
  297MPD2     N 4481   3.158   4.696  16.110  0.4107  0.2472 -0.4129
  297MPD2    H5 4482   3.161   0.046  16.042  0.2165  0.9160  0.3322
  297MPD2    N1 4483   2.747   4.519  15.912  0.0791 -0.0433 -0.2076
  297MPD2    H7 4484   2.693   4.433  15.913 -1.6615  1.0541  0.1675
  298TMC3    C1 4485   2.562   4.625  15.828  0.2148  0.7273 -0.3787
  298TMC3    C2 4486   2.530   4.509  15.766  0.1849 -0.5346 -0.0417
  298TMC3    C3 4487   2.397   4.476  15.766 -0.0292  0.1463  0.5822
  298TMC3    C4 4488   2.473   4.718  15.879  0.6745 -0.4396 -0.6180
  298TMC3    C5 4489   2.343   4.680  15.875  0.2646 -0.0417 -0.8449
  298TMC3    C6 4490   2.306   4.554  15.829 -0.5091  0.5822 -0.0708
  298TMC3     C 4491   2.702   4.640  15.864 -0.7733 -0.0030 -0.0670
  298TMC3     O 4492   2.754   0.023  15.864 -1.0104 -0.2900 -0.3550
  298TMC3     H 4493   2.596   4.443  15.711  1.6112 -0.0657  1.1251
  298TMC3    H1 4494   2.501   0.083  15.931 -0.6935 -0.4066  0.0507
  298TMC3    H2 4495   2.201   4.526  15.832 -0.3121  0.0892  2.9320
  298TMC3    C7 4496   2.245   0.042  15.938 -0.0043  0.7000  0.7756
  298TMC3    C8 4497   2.358   4.362  15.692  0.6028  0.1057 -0.1307
  298TMC3    O1 4498   2.278   0.121  16.022  0.3671 -0.6692 -0.5846
  298TMC3    O2 4499   2.263   4.298  15.739  0.5451 -0.5966 -0.1836
  299MPD2     C 4500   3.734   4.151  10.422 -1.0153  0.1469 -0.2852
  299MPD2    C1 4501   3.739   4.273  10.359 -0.3535 -0.0992 -0.7894
  299MPD2    C2 4502   3.647   4.295  10.260 -0.2824  0.3946 -0.3639
  299MPD2    C3 4503   3.551   4.199  10.226  0.1162 -0.0008 -0.1729
  299MPD2    C4 4504   3.547   4.082  10.302  0.0573  0.4888 -0.7068
  299MPD2    C5 4505   3.641   4.053  10.392  0.3236 -0.1525 -0.3709
  299MPD2     H 4506   3.651   4.392  10.211  2.1034  0.0871 -0.7778
  299MPD2    H1 4507   3.480   4.003  10.271  0.1947 -0.1462  0.6225
  299MPD2    H2 4508   3.808   4.119  10.495  0.8968  1.5733 -1.6183
  299MPD2    H3 4509   3.639   3.957  10.441 -0.5498  0.4865  0.8439
  299MPD2     N 4510   3.455   4.205  10.116 -0.7571  0.0620  0.3814
  299MPD2    H5 4511   3.384   4.132  10.120 -1.7318  0.9863 -0.0642
  299MPD2    N1 4512   3.839   4.364  10.400  0.0310 -0.3074  0.2493
  299MPD2    H7 4513   3.882   4.335  10.487  0.9863 -0.4038 -0.2480
  300TMC3    C1 4514   3.314   4.297   9.962  0.5955 -0.4722  0.5699
  300TMC3    C2 4515   3.281   4.406   9.882 -0.4422 -0.5408  0.0807
  300TMC3    C3 4516   3.147   4.432   9.861 -0.1051 -0.6644  0.3010
  300TMC3    C4 4517   3.218   4.210  10.016 -0.7589 -0.0315  0.1690
  300TMC3    C5 4518   3.088   4.243   9.974  0.2238  0.3100  0.1415
  300TMC3    C6 4519   3.047   4.358   9.910  0.0020  0.5045  0.0721
  300TMC3     C 4520   3.443   4.309  10.023  0.0509 -0.9472  0.1254
  300TMC3     O 4521   3.521   4.403   9.998 -0.0449 -0.2644  0.6766
  300TMC3     H 4522   3.352   4.485   9.865 -0.8738 -0.1029  0.3098
  300TMC3    H1 4523   3.237   4.131  10.087 -2.3120 -0.4566  0.1127
  300TMC3    H2 4524   2.942   4.381   9.895  0.1272  0.1713 -1.3187
  300TMC3    C7 4525   2.983   4.147  10.014 -0.5311  0.1855  0.7425
  300TMC3    C8 4526   3.124   4.571   9.827  0.5791 -0.0286 -0.5666
  300TMC3    O1 4527   3.016   4.025  10.017 -0.2452  0.1653  0.5393
  300TMC3    O2 4528   3.037   4.634   9.894 -0.2463 -0.4322 -0.0665
  301MPD2     C 4529   0.729   4.581   1.386  0.1467 -0.4168 -0.2855
  301MPD2    C1 4530   0.814   4.671   1.335  1.2032  1.0065  0.3132
  301MPD2    C2 4531   0.932   4.620   1.281 -0.1015  0.0888 -0.2952
  301MPD2    C3 4532   0.954   4.489   1.265  0.4944 -0.0432  0.0373
  301MPD2    C4 4533   0.861   4.397   1.304 -0.3733 -0.1074 -0.5232
  301MPD2    C5 4534   0.746   4.441   1.363  0.0201 -0.0011 -0.3593
  301MPD2     H 4535   1.003   4.692   1.242 -1.3657  0.7448 -1.3902
  301MPD2    H1 4536   0.875   4.290   1.291  0.2494  0.1455 -1.9128
  301MPD2    H2 4537   0.639   4.615   1.436 -0.5109 -2.6177  0.0297
  301MPD2    H3 4538   0.674   4.368   1.398 -2.0442  1.6922 -1.0532
  301MPD2     N 4539   1.072   4.462   1.194 -0.0864  0.2816  0.2770
  301MPD2    H5 4540   1.137   4.539   1.185 -3.9923  3.4720 -0.6793
  301MPD2    N1 4541   0.786   0.088   1.334 -0.0633 -0.3402 -0.2763
  301MPD2    H7 4542   0.863   0.143   1.296 -0.1065  0.5487  0.9126
  302TMC3    C1 4543   1.253   4.341   1.100  0.4051 -0.7275 -0.2220
  302TMC3    C2 4544   1.346   4.251   1.147  0.5994  0.5785  0.6554
  302TMC3    C3 4545   1.471   4.248   1.097  0.1666  0.5908  0.6146
  302TMC3    C4 4546   1.279   4.446   1.026  0.3803  0.6305 -0.1334
  302TMC3    C5 4547   1.409   4.454   0.986 -0.6199 -0.6119 -0.9086
  302TMC3    C6 4548   1.502   4.355   1.020 -0.2261  0.3533  0.5458
  302TMC3     C 4549   1.122   4.336   1.162  0.1860  0.0949 -0.2445
  302TMC3     O 4550   1.070   4.233   1.199  0.2236  0.0627 -0.1217
  302TMC3     H 4551   1.315   4.165   1.205  1.1663 -0.4639 -0.5784
  302TMC3    H1 4552   1.200   4.517   1.006 -0.0211  0.3222  0.3393
  302TMC3    H2 4553   1.605   4.371   0.989 -0.1448  0.2952  0.7901
  302TMC3    C7 4554   1.439   4.500   0.851 -0.2509 -0.4548  0.7300
  302TMC3    C8 4555   1.529   4.131   1.044  0.7038  0.1459  0.8440
  302TMC3    O1 4556   1.530   4.453   0.784  0.3973 -0.1290  0.6388
  302TMC3    O2 4557   1.593   4.144   0.939  0.4477 -0.4042 -0.0708
  303MPD2     C 4558   0.696   4.555  10.272 -0.1778 -0.2917  0.3159
  303MPD2    C1 4559   0.587   4.480  10.307 -0.1174  0.5872  0.3347
  303MPD2    C2 4560   0.507   4.434  10.212 -0.0302 -0.0404 -0.0014
  303MPD2    C3 4561   0.526   4.468  10.077 -0.5424 -0.4427 -0.2902
  303MPD2    C4 4562   0.638   4.546  10.051  0.1445 -0.1334  0.2530
  303MPD2    C5 4563   0.720   4.601  10.148  0.1157  0.2219  0.3163
  303MPD2     H 4564   0.423   4.371  10.237  1.2284 -0.6111  2.7164
  303MPD2    H1 4565   0.667   4.584   9.954 -3.5725 -0.2902 -0.9081
  303MPD2    H2 4566   0.768   4.581  10.349  0.2547 -1.5237  0.3281
  303MPD2    H3 4567   0.801   4.668  10.121 -1.2195  0.3232 -3.3647
  303MPD2     N 4568   0.442   4.428   9.972  0.3614 -0.0710  0.1917
  303MPD2    H5 4569   0.478   4.448   9.880  0.2515  0.6911  0.3162
  303MPD2    N1 4570   0.584   4.443  10.443  0.4759  0.6725  0.0955
  303MPD2    H7 4571   0.653   4.492  10.499 -0.4218  0.3702  1.4649
  304TMC3    C1 4572   0.562   4.322  10.634 -0.1640 -0.0459  0.3203
  304TMC3    C2 4573   0.471   4.302  10.735 -0.5662 -0.0152 -0.0699
  304TMC3    C3 4574   0.507   4.209  10.832  0.1875 -1.2484  0.1019
  304TMC3    C4 4575   0.680   4.242  10.616 -0.4257  0.2271 -0.9487
  304TMC3    C5 4576   0.711   4.158  10.721 -0.2204  0.4808  0.3112
  304TMC3    C6 4577   0.628   4.145  10.829  0.1944  0.0461  0.4935
  304TMC3     C 4578   0.507   4.349  10.503  0.0360 -0.5974 -0.0250
  304TMC3     O 4579   0.429   4.270  10.456 -0.1617  0.0352 -0.0720
  304TMC3     H 4580   0.373   4.345  10.721 -0.0996  0.4766 -1.8802
  304TMC3    H1 4581   0.736   4.259  10.525  1.3893  0.5511  0.2074
  304TMC3    H2 4582   0.637   4.073  10.910  1.6203  0.0568  0.3390
  304TMC3    C7 4583   0.768   4.028  10.683  0.0942  0.3509 -0.0747
  304TMC3    C8 4584   0.402   4.114  10.855 -0.5117  0.2087 -0.5805
  304TMC3    O1 4585   0.725   3.932  10.739 -0.2905  0.1100  0.1499
  304TMC3    O2 4586   0.298   4.152  10.904  0.3594 -0.6103  0.3589
  305MPD2     C 4587   3.848   1.294  13.769  0.1041 -0.0785 -0.3163
  305MPD2    C1 4588   3.859   1.157  13.784 -0.1295 -0.8506 -0.5645
  305MPD2    C2 4589   3.863   1.073  13.675  0.1949 -0.1880 -0.3608
  305MPD2    C3 4590   3.853   1.123  13.550  0.9955 -0.2478 -0.4000
  305MPD2    C4 4591   3.829   1.258  13.533  0.2276 -0.3600  0.3091
  305MPD2    C5 4592   3.832   1.337  13.641 -0.3276 -0.6060  0.0035
  305MPD2     H 4593   3.873   0.967  13.693 -0.2455  0.3071  2.8626
  305MPD2    H1 4594   3.809   1.298  13.434  1.8631 -2.7742 -1.0064
  305MPD2    H2 4595   3.847   1.358  13.857 -0.4056 -0.0510 -0.3459
  305MPD2    H3 4596   3.826   1.444  13.626  0.8380 -0.5209  0.1153
  305MPD2     N 4597   3.856   1.051  13.428 -0.0159  0.3195  1.1762
  305MPD2    H5 4598   3.860   1.098  13.338  1.8818 -0.6413  0.7464
  305MPD2    N1 4599   3.870   1.111  13.918 -0.5410 -0.2057 -0.7066
  305MPD2    H7 4600   3.868   1.181  13.992  1.5906 -0.5233 -0.3492
  306TMC3    C1 4601   3.939   0.981  14.092  0.2501 -0.3288  0.1384
  306TMC3    C2 4602   4.020   0.877  14.109  0.7045 -0.0294  0.6317
  306TMC3    C3 4603   4.056   0.855  14.238  0.1086 -0.1093  0.5353
  306TMC3    C4 4604   3.895   1.064  14.193 -0.0068  0.3262  0.2341
  306TMC3    C5 4605   3.939   1.038  14.317  0.1829 -0.2243  0.3258
  306TMC3    C6 4606   4.017   0.929  14.344 -0.0357  0.1492 -0.1209
  306TMC3     C 4607   3.904   0.986  13.950  0.2017 -0.0560  0.6275
  306TMC3     O 4608   3.933   0.892  13.884 -0.0894 -0.3104  0.3621
  306TMC3     H 4609   4.057   0.807  14.035  0.4543  0.7677 -0.2458
  306TMC3    H1 4610   3.828   1.148  14.178 -1.2613 -1.2160 -2.7348
  306TMC3    H2 4611   4.044   0.903  14.446  0.4908  1.1842  0.0044
  306TMC3    C7 4612   3.875   1.107  14.422  0.3707  0.1868 -0.3517
  306TMC3    C8 4613   4.139   0.743  14.260  0.3542  0.1714  0.2807
  306TMC3    O1 4614   3.766   1.143  14.396 -0.1851  0.5791  0.8803
  306TMC3    O2 4615   4.250   0.738  14.211  0.6185 -0.1876  0.0849
  307MPD2     C 4616   1.282   2.947   0.973 -0.5886  0.1547  0.3639
  307MPD2    C1 4617   1.287   3.077   0.935 -0.0278 -0.0341 -0.1871
  307MPD2    C2 4618   1.167   3.153   0.934  0.2855  0.7494  0.2817
  307MPD2    C3 4619   1.051   3.098   0.989 -0.5465 -0.0054  0.4128
  307MPD2    C4 4620   1.048   2.963   1.017  0.0855  0.8546 -1.2177
  307MPD2    C5 4621   1.163   2.897   1.027  0.3236 -0.2567 -0.0690
  307MPD2     H 4622   1.167   3.259   0.910 -0.2463  0.6028 -0.3774
  307MPD2    H1 4623   0.960   2.909   1.050  0.1150  1.0175 -0.8718
  307MPD2    H2 4624   1.362   2.874   0.979 -0.9495 -0.2313  0.5049
  307MPD2    H3 4625   1.164   2.794   1.061 -1.5026 -0.1001  0.4649
  307MPD2     N 4626   0.936   3.185   1.004  0.4144  0.2931 -0.2102
  307MPD2    H5 4627   0.942   3.270   0.949 -0.5126 -0.4121 -1.4013
  307MPD2    N1 4628   1.405   3.137   0.880 -0.0829 -0.0410  0.1200
  307MPD2    H7 4629   1.407   3.237   0.863  1.3786  0.0027  0.4948
  308TMC3    C1 4630   0.609   3.402   0.918  0.6558 -0.7786 -1.0219
  308TMC3    C2 4631   0.687   3.514   0.938  0.0016 -0.1777  1.1591
  308TMC3    C3 4632   0.798   3.500   1.027 -0.2161 -0.2254 -0.1984
  308TMC3    C4 4633   0.635   3.281   0.988 -0.4552  0.0533  0.0171
  308TMC3    C5 4634   0.737   3.277   1.074 -0.3740  0.4783 -0.5257
  308TMC3    C6 4635   0.814   3.387   1.098 -0.4976  0.1605  0.0751
  308TMC3     C 4636   0.487   3.417   0.841 -0.2517  0.4605 -0.1542
  308TMC3     O 4637   0.386   3.362   0.882 -0.3524 -0.3592  0.5085
  308TMC3     H 4638   0.670   3.614   0.898  2.4437 -1.3981 -2.8890
  308TMC3    H1 4639   0.582   3.189   0.962  0.4461 -0.0434 -1.5276
  308TMC3    H2 4640   0.891   3.394   1.175  0.4540 -2.3295 -0.6366
  308TMC3    C7 4641   0.820   3.154   1.075  0.0037 -0.1219 -0.2017
  308TMC3    C8 4642   0.880   3.616   1.049 -0.5488  0.3833 -0.5328
  308TMC3    O1 4643   0.780   3.047   1.113  0.4778 -0.0457 -0.7345
  308TMC3    O2 4644   0.954   3.618   1.147  0.4873 -0.3256  0.4487
  309MPD2     C 4645   0.801   3.975  16.443  0.4595  0.0230  0.3516
  309MPD2    C1 4646   0.702   3.976  16.351 -0.2633  0.9207 -0.1357
  309MPD2    C2 4647   0.584   4.031  16.385  0.5554 -0.7753  0.3831
  309MPD2    C3 4648   0.558   4.076  16.519 -0.0581  0.4833 -0.3152
  309MPD2    C4 4649   0.665   4.078  16.604 -0.0998 -0.3555 -0.5388
  309MPD2    C5 4650   0.786   4.032  16.566  0.3205  0.4066  0.1524
  309MPD2     H 4651   0.507   4.033  16.308 -1.0877  0.8502  2.0876
  309MPD2    H1 4652   0.665   4.115  16.706 -0.2390 -0.1756 -0.6050
  309MPD2    H2 4653   0.899   3.941  16.414  0.3097  0.3712 -0.5565
  309MPD2    H3 4654   0.862   4.036  16.643  0.4839  1.9066 -0.0769
  309MPD2     N 4655   0.432   4.132  16.557 -0.4247 -0.5804 -0.2788
  309MPD2    H5 4656   0.367   4.138  16.479 -1.0259  1.7598  0.3944
  309MPD2    N1 4657   0.720   3.938  16.215  0.0061  0.2369 -0.1962
  309MPD2    H7 4658   0.648   3.968  16.151  1.7259 -0.2617 -2.3748
  310TMC3    C1 4659   0.832   3.848  16.016 -0.1711 -0.2047  0.2649
  310TMC3    C2 4660   0.793   3.951  15.933  1.0621 -0.5039 -0.5307
  310TMC3    C3 4661   0.829   3.929  15.796  0.0925 -0.5472 -0.2824
  310TMC3    C4 4662   0.909   3.744  15.977 -0.9359  0.8635 -0.6289
  310TMC3    C5 4663   0.948   3.732  15.846 -0.1653  0.3371  0.0852
  310TMC3    C6 4664   0.911   3.826  15.754  0.4832  0.6758  0.4610
  310TMC3     C 4665   0.824   3.866  16.162 -0.4764  0.0081  0.2227
  310TMC3     O 4666   0.918   3.814  16.218 -0.7077  0.6446  0.0340
  310TMC3     H 4667   0.728   4.029  15.969  0.7472 -0.9108 -0.2218
  310TMC3    H1 4668   0.917   3.658  16.042  1.8099 -1.6094 -4.1977
  310TMC3    H2 4669   0.939   3.809  15.651 -0.3114  2.1914 -0.0080
  310TMC3    C7 4670   1.060   3.644  15.826  0.6196  0.2799  0.2604
  310TMC3    C8 4671   0.770   4.009  15.682  0.9144 -0.2794 -0.6184
  310TMC3    O1 4672   1.099   3.575  15.921 -0.3038  0.4870 -0.1245
  310TMC3    O2 4673   0.808   3.988  15.569  0.7924 -0.5360  0.2132
  311MPD2     C 4674   3.084   0.454  12.610 -0.3806  0.2474  0.2239
  311MPD2    C1 4675   3.099   0.566  12.691 -0.4692 -0.0224  0.1113
  311MPD2    C2 4676   2.982   0.599  12.766 -0.1871  0.1334 -0.6201
  311MPD2    C3 4677   2.878   0.507  12.783  0.3744  0.8457 -0.4544
  311MPD2    C4 4678   2.892   0.390  12.718 -0.1237 -0.0673 -0.1865
  311MPD2    C5 4679   2.986   0.370  12.626  0.4053  0.0501  0.6627
  311MPD2     H 4680   2.978   0.675  12.842  0.4262  2.0182 -2.4826
  311MPD2    H1 4681   2.833   0.299  12.727  1.9017 -1.4094 -0.5755
  311MPD2    H2 4682   3.168   0.427  12.547  0.1852 -0.2493  1.1851
  311MPD2    H3 4683   2.989   0.273  12.578  0.6502 -0.1175  1.0176
  311MPD2     N 4684   2.772   0.544  12.860 -0.0850  0.3776  0.2458
  311MPD2    H5 4685   2.770   0.639  12.895 -0.0395  0.9560 -1.3121
  311MPD2    N1 4686   3.213   0.655  12.690  0.2832 -0.3947  0.2463
  311MPD2    H7 4687   3.201   0.748  12.729 -1.1016 -0.0479 -1.0224
  312TMC3    C1 4688   2.555   0.531  12.948  0.7141 -0.6349 -0.4799
  312TMC3    C2 4689   2.427   0.513  12.903 -0.3374 -0.1272  0.2485
  312TMC3    C3 4690   2.336   0.591  12.964 -0.0986  0.4558  0.5827
  312TMC3    C4 4691   2.596   0.611  13.052 -0.5224 -0.3133  0.1002
  312TMC3    C5 4692   2.500   0.692  13.109  0.2861  0.2470 -0.3444
  312TMC3    C6 4693   2.370   0.681  13.063 -0.6318  0.5049 -0.2544
  312TMC3     C 4694   2.665   0.463  12.876  0.6079 -0.6629 -0.2557
  312TMC3     O 4695   2.626   0.376  12.803 -0.3267 -0.2180 -0.0321
  312TMC3     H 4696   2.398   0.452  12.818  0.1061  0.2498 -0.1738
  312TMC3    H1 4697   2.702   0.607  13.074 -0.4137  1.4041 -0.1199
  312TMC3    H2 4698   2.291   0.726  13.122 -0.1108  0.3441  0.5685
  312TMC3    C7 4699   2.527   0.772  13.224  0.6462  0.0205 -0.1925
  312TMC3    C8 4700   2.209   0.588  12.904 -0.2603  0.4975  0.4006
  312TMC3    O1 4701   2.455   0.872  13.240 -0.5433 -0.0001 -0.5241
  312TMC3    O2 4702   2.184   0.497  12.824 -0.0882  0.5088 -0.5661
  313MPD2     C 4703   2.295   0.742  10.589  0.2037  0.1240  0.4254
  313MPD2    C1 4704   2.337   0.615  10.624  0.2815 -0.4771 -0.3069
  313MPD2    C2 4705   2.370   0.526  10.523  0.6923  0.3283 -0.3802
  313MPD2    C3 4706   2.358   0.551  10.389 -0.1024  0.3365  0.2321
  313MPD2    C4 4707   2.317   0.677  10.350 -0.4410 -0.0651  0.6643
  313MPD2    C5 4708   2.291   0.772  10.451 -0.1207  0.0277 -0.4768
  313MPD2     H 4709   2.413   0.433  10.557  1.9439  1.2732  0.6202
  313MPD2    H1 4710   2.306   0.713  10.248  2.2318 -0.3671  0.2517
  313MPD2    H2 4711   2.263   0.812  10.665 -1.3373  0.6992 -0.7528
  313MPD2    H3 4712   2.267   0.876  10.433 -1.8822 -0.5313 -1.4330
  313MPD2     N 4713   2.385   0.452  10.293 -0.2009 -0.1574 -0.0046
  313MPD2    H5 4714   2.416   0.366  10.337 -1.5364 -0.9520 -0.6369
  313MPD2    N1 4715   2.373   0.578  10.757 -0.7518  0.1189 -0.4050
  313MPD2    H7 4716   2.421   0.492  10.781  0.3277  1.2282  1.4123
  314TMC3    C1 4717   2.386   0.574  10.981 -0.5908  0.5385 -0.0130
  314TMC3    C2 4718   2.468   0.633  11.071 -0.4448  0.1698 -0.1153
  314TMC3    C3 4719   2.584   0.571  11.110 -0.8566  0.2586  0.4462
  314TMC3    C4 4720   2.412   0.446  10.943  0.1754 -0.3512 -0.0142
  314TMC3    C5 4721   2.522   0.380  10.987 -0.4368 -0.0195 -0.4778
  314TMC3    C6 4722   2.617   0.440  11.068 -0.0267 -0.1729 -0.8227
  314TMC3     C 4723   2.336   0.648  10.869 -0.0123  0.0938 -0.5080
  314TMC3     O 4724   2.303   0.767  10.890 -0.4669  0.1076  0.2742
  314TMC3     H 4725   2.451   0.738  11.088  0.6543  0.2372  0.5671
  314TMC3    H1 4726   2.334   0.383  10.901  1.7554  0.2728 -3.9030
  314TMC3    H2 4727   2.716   0.401  11.085  1.0058  2.0414 -1.8501
  314TMC3    C7 4728   2.550   0.271  10.897  0.1267 -0.3833 -0.1385
  314TMC3    C8 4729   2.682   0.669  11.136 -0.2714 -0.5200  0.1107
  314TMC3    O1 4730   2.523   0.159  10.940  0.4019 -0.0213 -0.4962
  314TMC3    O2 4731   2.684   0.762  11.057 -0.4428 -0.4267  0.3200
  315MPD2     C 4732   1.988   3.673  16.974  0.3634 -0.4904  0.5212
  315MPD2    C1 4733   2.046   3.667  17.097  0.2457 -0.4790  0.4018
  315MPD2    C2 4734   2.085   3.782  17.162  0.1151  0.9082  0.0245
  315MPD2    C3 4735   2.056   3.904  17.109  0.1154  0.4993  0.0969
  315MPD2    C4 4736   1.987   3.909  16.990 -0.1633 -0.1068  0.4902
  315MPD2    C5 4737   1.956   3.794  16.927  0.5729  0.0808 -0.1816
  315MPD2     H 4738   2.138   3.780  17.256  2.4930  0.3435 -1.3261
  315MPD2    H1 4739   1.967   3.999  16.933  1.8896  0.7337  1.0772
  315MPD2    H2 4740   1.959   3.580  16.927  0.4776 -1.3093  2.1050
  315MPD2    H3 4741   1.891   3.780  16.842 -1.4678 -0.6639  1.4875
  315MPD2     N 4742   2.107   4.020  17.172 -0.0448 -0.0440  0.0619
  315MPD2    H5 4743   2.174   4.000  17.246  1.7231  1.8606 -1.0200
  315MPD2    N1 4744   2.098   3.547  17.151 -0.5640  0.2833 -1.0166
  315MPD2    H7 4745   2.145   3.559  17.240 -0.8418 -0.6663 -0.7452
  316TMC3    C1 4746   2.172   4.243  17.190  0.0543 -0.4475  0.3394
  316TMC3    C2 4747   2.273   4.200  17.273 -0.0465 -0.2985 -0.0007
  316TMC3    C3 4748   2.331   4.296  17.345 -1.0375 -0.6547 -0.0484
  316TMC3    C4 4749   2.153   4.378  17.158 -0.2293 -0.1354 -0.4025
  316TMC3    C5 4750   2.240   4.463  17.213  0.3863  0.6904  0.7070
  316TMC3    C6 4751   2.327   4.426  17.314  0.4285 -0.1307  0.0714
  316TMC3     C 4752   2.080   4.150  17.130  0.3279 -0.3856  0.6126
  316TMC3     O 4753   2.005   4.182  17.038  0.3762  0.2069 -0.6395
  316TMC3     H 4754   2.279   4.099  17.311 -0.7725 -0.5070 -0.4519
  316TMC3    H1 4755   2.072   4.408  17.093 -0.5983 -1.0668 -0.3742
  316TMC3    H2 4756   2.369   4.506  17.374  3.1418 -0.1674 -1.8014
  316TMC3    C7 4757   2.224   4.604  17.192 -0.9287 -0.3246  0.0664
  316TMC3    C8 4758   2.405   4.268  17.465 -0.5581 -0.6087 -0.2345
  316TMC3    O1 4759   2.277   4.672  17.277  0.1262  0.8685 -0.1819
  316TMC3    O2 4760   2.405   4.352  17.553 -0.6461  0.0672 -0.6116
  317MPD2     C 4761   4.097   2.731  12.470 -0.1387 -0.2368  0.2602
  317MPD2    C1 4762   4.173   2.617  12.489  0.5705  0.0341  0.0067
  317MPD2    C2 4763   4.212   2.593  12.622 -0.0875  0.1605  0.0426
  317MPD2    C3 4764   4.186   2.678  12.725  0.3762 -0.5925 -0.2058
  317MPD2    C4 4765   4.121   2.798  12.692 -0.0575 -0.3281 -0.4005
  317MPD2    C5 4766   4.084   2.818  12.564  0.1941  0.5890  0.2637
  317MPD2     H 4767   4.279   2.511  12.643  1.1894  1.1622 -0.1077
  317MPD2    H1 4768   4.095   2.870  12.769  0.6520 -1.0984  0.5748
  317MPD2    H2 4769   4.083   2.769  12.369 -0.2275 -0.7774  0.0724
  317MPD2    H3 4770   4.031   2.909  12.539 -4.4872 -2.1070  0.3813
  317MPD2     N 4771   4.223   2.635  12.855 -0.5094  0.2868  0.3880
  317MPD2    H5 4772   4.260   2.541  12.870  2.8873  1.7245  1.1139
  317MPD2    N1 4773   4.216   2.527  12.381 -0.2496  0.2445 -0.4822
  317MPD2    H7 4774   4.272   2.449  12.412  1.5504  2.0282  0.7168
  318TMC3    C1 4775   4.251   2.635  13.089  0.1468  0.6109 -0.1405
  318TMC3    C2 4776   4.191   2.511  13.094  0.3584  0.2380  0.3006
  318TMC3    C3 4777   4.252   2.406  13.165  0.3332  0.0664  0.1585
  318TMC3    C4 4778   4.375   2.660  13.136 -0.5913 -0.2182 -0.9180
  318TMC3    C5 4779   4.435   2.551  13.194 -0.5567  0.1878  0.7182
  318TMC3    C6 4780   4.383   2.424  13.212  0.3800  0.1809 -0.1440
  318TMC3     C 4781   4.217   2.714  12.967 -0.0135  0.8749 -0.5310
  318TMC3     O 4782   4.206   2.835  12.987 -0.6015 -0.4928 -0.3140
  318TMC3     H 4783   4.085   2.508  13.070  0.5118  0.3451 -0.4044
  318TMC3    H1 4784   4.430   2.753  13.124 -0.5170 -0.2226 -0.6062
  318TMC3    H2 4785   4.438   2.340  13.254  1.5106  1.4391  0.9070
  318TMC3    C7 4786   4.552   2.589  13.277 -0.0776  0.7483  1.3840
  318TMC3    C8 4787   4.201   2.275  13.168 -0.2263  1.0013 -0.6806
  318TMC3    O1 4788   4.587   2.707  13.275 -0.0867  0.4626  0.0782
  318TMC3    O2 4789   4.266   2.195  13.232 -0.6024 -0.2423  0.1717
  319MPD2     C 4790   0.521   3.694  16.299 -0.3954  0.2605  0.2408
  319MPD2    C1 4791   0.432   3.718  16.403 -0.4235  0.3051  1.0228
  319MPD2    C2 4792   0.296   3.724  16.374  0.0448  0.1771  0.1071
  319MPD2    C3 4793   0.245   3.697  16.245 -0.6707  0.2747  0.3886
  319MPD2    C4 4794   0.333   3.666  16.147 -0.3003 -0.3360 -0.7999
  319MPD2    C5 4795   0.466   3.661  16.176 -0.0516 -0.1066  0.1365
  319MPD2     H 4796   0.230   3.744  16.457  0.4843 -0.7661  0.6807
  319MPD2    H1 4797   0.300   3.655  16.044 -0.6800 -0.0329 -0.7088
  319MPD2    H2 4798   0.629   3.699  16.300 -0.2784 -2.3008  0.5971
  319MPD2    H3 4799   0.537   3.636  16.099 -1.1747 -0.4198 -0.8086
  319MPD2     N 4800   0.105   3.693  16.213  0.0809  0.9251  0.0929
  319MPD2    H5 4801   0.081   3.682  16.115 -1.8514 -0.8454  0.7612
  319MPD2    N1 4802   0.474   3.713  16.538  0.1023 -0.4336 -1.2561
  319MPD2    H7 4803   0.408   3.753  16.604  1.6685  0.5825 -0.3038
  320TMC3    C1 4804   4.607   3.707  16.238  0.5912 -0.1526  0.1001
  320TMC3    C2 4805   4.593   3.805  16.144 -0.0240  0.8397 -0.0246
  320TMC3    C3 4806   4.469   3.850  16.122 -0.2699  0.7109  0.1634
  320TMC3    C4 4807   4.501   3.661  16.310 -0.8608 -0.0059  0.5381
  320TMC3    C5 4808   4.380   3.710  16.283 -0.5146  0.3456  0.0500
  320TMC3    C6 4809   4.355   3.790  16.173  0.1372  0.0968  0.6537
  320TMC3     C 4810   0.008   3.688  16.306 -0.1070  0.6155 -0.5200
  320TMC3     O 4811   0.012   3.662  16.424 -0.3487  0.3012  0.6468
  320TMC3     H 4812   4.680   3.846  16.093  0.0891  0.0002 -0.5008
  320TMC3    H1 4813   4.523   3.587  16.386  3.2588  1.9393  1.2410
  320TMC3    H2 4814   4.260   3.837  16.151  0.6983  0.4024 -1.0697
  320TMC3    C7 4815   4.275   3.614  16.298 -0.1640  0.3827 -0.1647
  320TMC3    C8 4816   4.451   3.925  16.009 -0.4730 -0.0831  0.3114
  320TMC3    O1 4817   4.230   3.565  16.198  0.2770 -0.4177  0.5488
  320TMC3    O2 4818   4.547   3.997  15.978  0.0388  0.6176  0.1279
  321TMC3    C1 4819   0.586   3.691  16.734  0.2690 -0.2409 -0.5078
  321TMC3    C2 4820   0.474   3.635  16.790 -0.1537 -0.0677  0.4569
  321TMC3    C3 4821   0.467   3.640  16.919 -0.7572  0.3754  0.0811
  321TMC3    C4 4822   0.691   3.734  16.807 -0.1202  0.5514 -0.2029
  321TMC3    C5 4823   0.680   3.743  16.943 -0.8558  0.6429  0.0884
  321TMC3    C6 4824   0.564   3.702  16.995 -0.2227  0.4707  0.7233
  321TMC3     C 4825   0.593   3.675  16.593  0.7645 -0.3021  0.1572
  321TMC3     O 4826   0.694   3.638  16.542 -0.5834  0.3719 -0.2517
  321TMC3     H 4827   0.395   3.581  16.738  0.6389 -0.0496 -0.7673
  321TMC3    H1 4828   0.781   3.773  16.759 -0.0092 -0.7315 -1.0273
  321TMC3    H2 4829   0.554   3.711  17.102 -1.8022 -0.1973  0.6283
  321TMC3    C7 4830   0.789   3.698  17.022  0.0227  0.7149 -0.1449
  321TMC3    C8 4831   0.417   3.505  16.972  0.1457  0.1232 -0.1583
  321TMC3    O1 4832   0.790   3.578  17.051  0.2041  0.0919 -0.6380
  321TMC3    O2 4833   0.317   3.448  16.925  0.4058  0.7825 -0.1007
  322MPD2     C 4834   4.001   0.436  13.371  0.9388  0.5404 -0.0953
  322MPD2    C1 4835   3.964   0.375  13.487 -0.3213  0.1089 -0.5092
  322MPD2    C2 4836   3.906   0.250  13.478 -0.5677  0.2837 -0.7354
  322MPD2    C3 4837   3.867   0.199  13.357 -0.0282  0.5448  0.5244
  322MPD2    C4 4838   3.895   0.267  13.242 -0.0196  0.1842 -0.2811
  322MPD2    C5 4839   3.960   0.387  13.253 -0.7231  0.4741  0.0308
  322MPD2     H 4840   3.878   0.195  13.568  1.0146 -2.0478 -1.6597
  322MPD2    H1 4841   3.857   0.237  13.145 -2.3022 -0.3878  0.7797
  322MPD2    H2 4842   4.054   0.530  13.373  1.4216  0.2975 -1.6047
  322MPD2    H3 4843   3.983   0.445  13.164  0.2275 -0.5092 -0.3720
  322MPD2     N 4844   3.820   0.064  13.364 -0.4092  0.4845 -0.1093
  322MPD2    H5 4845   3.835   0.018  13.453  0.1417 -0.4468 -0.6819
  322MPD2    N1 4846   4.017   0.429  13.605  0.1019  0.1426  0.2171
  322MPD2    H7 4847   4.091   0.498  13.599  0.3422 -0.2638 -1.4674
  323TMC3    C1 4848   4.103   0.430  13.826 -0.6479  0.2106  0.4378
  323TMC3    C2 4849   4.175   0.540  13.787  0.1255  0.0369  0.1820
  323TMC3    C3 4850   4.272   0.591  13.873 -0.2240  0.6338 -0.2544
  323TMC3    C4 4851   4.137   0.365  13.945 -0.2924  0.3237  0.0584
  323TMC3    C5 4852   4.250   0.403  14.017 -0.2029 -0.5426  0.5163
  323TMC3    C6 4853   4.314   0.524  13.991 -0.3667 -0.1966 -0.0386
  323TMC3     C 4854   4.011   0.365  13.729  0.3341  0.2744 -0.5415
  323TMC3     O 4855   3.958   0.257  13.761  0.2511  0.6529 -0.2695
  323TMC3     H 4856   4.137   0.604  13.708 -1.8287 -1.8671 -0.4031
  323TMC3    H1 4857   4.077   0.281  13.979  1.5384 -0.5454  1.1907
  323TMC3    H2 4858   4.394   0.565  14.051 -1.4188 -0.4917  1.5860
  323TMC3    C7 4859   4.331   0.301  14.082 -0.2421  0.1126 -0.2120
  323TMC3    C8 4860   4.343   0.709  13.845 -0.5996 -0.4503  0.5247
  323TMC3    O1 4861   4.278   0.194  14.121 -0.0534  1.3971 -0.5612
  323TMC3    O2 4862   4.339   0.734  13.729 -0.1886  0.2613  0.1135
  324MPD2     C 4863   0.852   1.293  14.139  0.3680  0.4799 -0.1228
  324MPD2    C1 4864   0.841   1.429  14.125  0.7518  1.1862 -0.6699
  324MPD2    C2 4865   0.734   1.480  14.054  1.2611  0.4861  0.1171
  324MPD2    C3 4866   0.627   1.399  14.010  0.4650  0.8450  0.3669
  324MPD2    C4 4867   0.635   1.260  14.037 -0.0887  0.1325  0.1781
  324MPD2    C5 4868   0.752   1.206  14.093 -0.0518  0.3711 -0.0677
  324MPD2     H 4869   0.732   1.588  14.054  0.8347  0.4608 -2.1802
  324MPD2    H1 4870   0.565   1.194  13.987 -0.1868  0.2838  0.1152
  324MPD2    H2 4871   0.933   1.238  14.187  0.4304  0.5194 -0.1825
  324MPD2    H3 4872   0.775   1.100  14.097  0.1506  0.2690 -3.7945
  324MPD2     N 4873   0.515   1.447  13.944 -0.6625 -0.1852  0.3311
  324MPD2    H5 4874   0.443   1.376  13.934  3.3311 -3.7698 -2.9820
  324MPD2    N1 4875   0.942   1.515  14.178  0.3364  0.1639  0.6814
  324MPD2    H7 4876   0.925   1.614  14.158 -1.3722 -0.5008 -1.2187
  325TMC3    C1 4877   0.355   1.616  13.901  0.7830 -0.1269  0.1901
  325TMC3    C2 4878   0.248   1.527  13.883 -0.3694  0.1181 -0.2834
  325TMC3    C3 4879   0.123   1.583  13.873 -0.6750 -0.6952  0.7390
  325TMC3    C4 4880   0.330   1.747  13.921  0.0047  0.2129  0.1863
  325TMC3    C5 4881   0.202   1.795  13.922  0.3508  0.1430  0.2343
  325TMC3    C6 4882   0.097   1.716  13.897  0.3526  0.2316 -0.4557
  325TMC3     C 4883   0.496   1.574  13.899 -0.9915 -0.3706 -0.0021
  325TMC3     O 4884   0.572   1.664  13.867 -0.2266  0.4053 -0.2177
  325TMC3     H 4885   0.259   1.420  13.869 -1.2370 -0.0618  0.4305
  325TMC3    H1 4886   0.407   1.820  13.945  0.5702 -0.7269  1.1983
  325TMC3    H2 4887   4.725   1.763  13.883  0.3860 -0.1549 -1.9727
  325TMC3    C7 4888   0.197   1.939  13.933  0.4011  0.4873  0.9088
  325TMC3    C8 4889   0.010   1.489  13.840 -0.3994  1.2360 -0.1590
  325TMC3    O1 4890   0.297   2.003  13.906  0.5439 -0.5228  0.4426
  325TMC3    O2 4891   0.040   1.384  13.783 -0.6105  0.0322  0.1070
  326MPD2     C 4892   2.050   3.214  10.951 -0.1896 -0.4260 -0.5128
  326MPD2    C1 4893   2.051   3.083  10.909  0.2922 -0.2517 -0.7575
  326MPD2    C2 4894   2.178   3.031  10.873  0.2494  0.2880  0.2960
  326MPD2    C3 4895   2.289   3.105  10.858 -0.3844  0.3610  0.5432
  326MPD2    C4 4896   2.284   3.238  10.894 -0.2403  0.3240 -1.4712
  326MPD2    C5 4897   2.168   3.290  10.946  0.1420  0.1190  0.0843
  326MPD2     H 4898   2.169   2.931  10.831 -2.4478  0.3578  0.7168
  326MPD2    H1 4899   2.373   3.298  10.884 -0.3492  0.8901  0.7869
  326MPD2    H2 4900   1.968   3.255  11.010 -0.8604 -2.2591 -0.1593
  326MPD2    H3 4901   2.173   3.393  10.978 -2.2647  0.5236 -0.9084
  326MPD2     N 4902   2.411   3.058  10.804 -0.1401  0.5836 -0.6193
  326MPD2    H5 4903   2.488   3.123  10.791 -1.8918  2.5941 -0.9557
  326MPD2    N1 4904   1.940   3.000  10.902  0.4829 -0.0793  0.1494
  326MPD2    H7 4905   1.957   2.904  10.875  1.9855  0.2557 -0.0625
  327TMC3    C1 4906   1.723   2.926  10.891  0.0090 -0.6338 -0.1877
  327TMC3    C2 4907   1.625   2.939  10.797  0.3535 -0.6486  0.2468
  327TMC3    C3 4908   1.564   2.820  10.751 -0.7081 -0.6497  0.2916
  327TMC3    C4 4909   1.762   2.804  10.941  0.4164 -0.8236  0.5172
  327TMC3    C5 4910   1.693   2.692  10.901 -0.2030  0.1859 -0.5208
  327TMC3    C6 4911   1.602   2.693  10.801  0.0887  0.4640  0.1002
  327TMC3     C 4912   1.808   3.040  10.912 -0.5392  0.0120  0.3483
  327TMC3     O 4913   1.761   3.150  10.907 -1.0102 -0.2535 -0.0557
  327TMC3     H 4914   1.614   3.040  10.759  1.2475 -0.6773 -0.0736
  327TMC3    H1 4915   1.816   2.798  11.035  1.1197  0.0518  0.1706
  327TMC3    H2 4916   1.550   2.605  10.765  1.0183  0.8075 -2.1105
  327TMC3    C7 4917   1.739   2.563  10.948 -0.9150  0.3862 -0.4600
  327TMC3    C8 4918   1.535   2.833  10.606 -0.8896 -0.2172  0.2138
  327TMC3    O1 4919   1.659   2.473  10.958  0.2378  0.1049  0.0747
  327TMC3    O2 4920   1.495   2.941  10.570  0.0766  0.7541  0.1802
  328MPD2     C 4921   4.515   2.276  17.260 -0.4259 -0.5310  0.6558
  328MPD2    C1 4922   4.455   2.229  17.142  0.0623 -0.4887 -0.2680
  328MPD2    C2 4923   4.392   2.317  17.059  0.1169  0.5233  0.3804
  328MPD2    C3 4924   4.410   2.451  17.081 -0.0513 -0.0453  0.1846
  328MPD2    C4 4925   4.485   2.495  17.182 -0.2824 -0.2272 -0.6926
  328MPD2    C5 4926   4.541   2.409  17.259  0.4270 -0.1552  0.7805
  328MPD2     H 4927   4.332   2.279  16.977 -0.4412  0.5383  0.7776
  328MPD2    H1 4928   4.507   2.600  17.172 -0.4987 -0.3090 -2.0488
  328MPD2    H2 4929   4.555   2.217  17.341  1.6387  0.4565  0.3501
  328MPD2    H3 4930   4.607   2.446  17.338  2.5991  0.7929 -1.4814
  328MPD2     N 4931   4.370   2.547  16.994  0.2474  0.3869  0.3879
  328MPD2    H5 4932   4.394   2.644  17.015  0.1472  0.3837  0.5196
  328MPD2    N1 4933   4.444   2.089  17.130  0.1461  0.2694  0.4555
  328MPD2    H7 4934   4.455   2.030  17.212  1.7893 -1.1446 -0.7869
  329TMC3    C1 4935   4.337   1.889  17.045 -0.2195  0.3405 -0.6728
  329TMC3    C2 4936   4.247   1.885  17.150 -0.1397  0.2062 -0.2449
  329TMC3    C3 4937   4.147   1.793  17.139 -0.3811  0.4441  0.3243
  329TMC3    C4 4938   4.335   1.806  16.941 -0.6265 -0.1887  0.1968
  329TMC3    C5 4939   4.241   1.706  16.944 -0.1432 -0.3977  0.2294
  329TMC3    C6 4940   4.133   1.715  17.029 -0.9190  0.4190 -0.1327
  329TMC3     C 4941   4.394   2.026  17.018  0.0874 -0.4627  0.6160
  329TMC3     O 4942   4.386   2.074  16.904 -0.0558  0.1134 -0.0236
  329TMC3     H 4943   4.237   1.970  17.217  1.5473  0.7164 -0.6573
  329TMC3    H1 4944   4.405   1.825  16.860 -1.3613 -0.0400 -0.4012
  329TMC3    H2 4945   4.056   1.643  17.003 -0.3126 -0.5944  0.9121
  329TMC3    C7 4946   4.215   1.643  16.821 -0.2017  0.3678 -0.3879
  329TMC3    C8 4947   4.015   1.848  17.190 -0.1274 -0.8117 -0.3072
  329TMC3    O1 4948   4.104   1.663  16.774 -0.8101 -0.6012 -0.4975
  329TMC3    O2 4949   3.936   1.869  17.094 -0.0853  0.7194  0.9027
  330TMC3    C1 4950   3.012   1.960  10.184  0.6351 -0.5676  0.3369
  330TMC3    C2 4951   2.958   1.838  10.146  0.5025 -0.5429 -0.6378
  330TMC3    C3 4952   3.004   1.731  10.211 -0.9407 -0.4248 -0.1762
  330TMC3    C4 4953   3.119   1.962  10.271  0.2008 -0.8573  0.2838
  330TMC3    C5 4954   3.176   1.849  10.319  0.4389 -0.1439  0.5650
  330TMC3    C6 4955   3.124   1.726  10.285 -0.9681 -0.6979  0.0633
  330TMC3     C 4956   2.957   2.082  10.130 -0.1001  0.0451 -1.4220
  330TMC3     O 4957   2.977   2.179  10.199  0.1839 -0.0683  0.7205
  330TMC3     H 4958   2.865   1.838  10.091 -0.2562 -0.7188  0.6627
  330TMC3    H1 4959   3.156   2.059  10.300 -1.5697 -0.6499  1.8656
  330TMC3    H2 4960   3.159   1.634  10.330 -0.1720 -0.9969 -1.1594
  330TMC3    C7 4961   3.234   1.850  10.448 -0.1868  0.1501 -0.4108
  330TMC3    C8 4962   2.928   1.609  10.194 -0.1854 -0.1802 -0.1539
  330TMC3    O1 4963   3.271   1.743  10.501  0.1387  0.1104  0.4136
  330TMC3    O2 4964   2.984   1.508  10.233  0.2140  0.1317  0.1638
  331MPD2     C 4965   0.110   0.814  12.432  0.0334  0.1415 -0.7051
  331MPD2    C1 4966   0.239   0.828  12.383 -0.3391 -0.0870  0.2133
  331MPD2    C2 4967   0.280   0.733  12.281  0.1365  0.3526  0.5060
  331MPD2    C3 4968   0.200   0.618  12.259  0.5548  0.2351 -0.2599
  331MPD2    C4 4969   0.075   0.610  12.319  0.5431  0.2060 -0.6116
  331MPD2    C5 4970   0.026   0.711  12.403  0.0452  0.7267 -0.0667
  331MPD2     H 4971   0.374   0.741  12.229  0.5825 -1.0676  1.1012
  331MPD2    H1 4972   0.025   0.514  12.310 -0.8318  1.0455 -1.7845
  331MPD2    H2 4973   0.072   0.880  12.508  0.3364 -1.1785  0.5887
  331MPD2    H3 4974   4.658   0.703  12.456 -0.6592  0.1063 -1.4137
  331MPD2     N 4975   0.244   0.520  12.173  0.9510 -0.1478 -0.2218
  331MPD2    H5 4976   0.216   0.424  12.186  0.0289  0.3361  1.3789
  331MPD2    N1 4977   0.324   0.930  12.415  0.1912 -0.1850 -0.5861
  331MPD2    H7 4978   0.289   1.013  12.462  0.6850 -1.6632  2.3942
  332TMC3    C1 4979   0.407   0.448  12.012  0.9276 -0.1261 -0.6148
  332TMC3    C2 4980   0.479   0.488  11.903  0.4991 -0.4490 -0.0436
  332TMC3    C3 4981   0.612   0.454  11.893 -0.0343 -0.0820 -0.0144
  332TMC3    C4 4982   0.465   0.369  12.107  0.8213 -0.1355 -0.5296
  332TMC3    C5 4983   0.602   0.345  12.104  0.5948 -0.2433 -0.2522
  332TMC3    C6 4984   0.673   0.385  11.994 -0.0861  0.4253  0.0296
  332TMC3     C 4985   0.340   0.557  12.076 -0.6919 -0.2431  0.1466
  332TMC3     O 4986   0.340   0.670  12.020  0.2949 -0.1319  0.9238
  332TMC3     H 4987   0.425   0.545  11.829  1.3825 -0.4152 -0.6664
  332TMC3    H1 4988   0.407   0.334  12.192  1.1169 -1.0278 -0.6947
  332TMC3    H2 4989   0.778   0.360  11.982 -0.3212 -0.7519  0.4808
  332TMC3    C7 4990   0.650   0.254  12.207 -0.2846 -0.3492  0.4986
  332TMC3    C8 4991   0.691   0.518  11.787  0.0583 -0.4941 -0.1851
  332TMC3    O1 4992   0.567   0.181  12.262 -0.1186 -0.3852 -0.2892
  332TMC3    O2 4993   0.807   0.472  11.778 -0.3070 -0.1360  0.6924
  333MPD2     C 4994   0.668   1.045  10.974  0.0763  0.4052  0.0362
  333MPD2    C1 4995   0.768   0.961  10.933 -0.1010  0.3799  0.1406
  333MPD2    C2 4996   0.740   0.833  10.931  0.0909  0.1374  0.5084
  333MPD2    C3 4997   0.611   0.780  10.962  0.6263 -0.1630 -0.3204
  333MPD2    C4 4998   0.508   0.866  10.997 -0.3365 -0.1050  0.8906
  333MPD2    C5 4999   0.542   0.994  11.004  0.2894 -0.3534 -0.5047
  333MPD2     H 5000   0.808   0.758  10.893 -1.3231 -2.2194  2.6273
  333MPD2    H1 5001   0.405   0.841  11.020 -1.8803  0.9770 -4.8100
  333MPD2    H2 5002   0.664   1.152  10.987 -0.8855  0.1645  1.7243
  333MPD2    H3 5003   0.476   1.077  11.025  0.6405 -0.2503  0.1652
  333MPD2     N 5004   0.601   0.640  10.958  0.5262 -0.0548  0.3098
  333MPD2    H5 5005   0.681   0.589  10.922  0.9012 -0.4978  1.7495
  333MPD2    N1 5006   0.898   1.012  10.906 -0.0959  0.0704 -0.4335
  333MPD2    H7 5007   0.917   1.111  10.921  0.8570  0.0797 -1.7007
  334TMC3    C1 5008   1.131   1.021  10.833 -0.8265 -0.3309 -0.3126
  334TMC3    C2 5009   1.244   0.947  10.835 -0.0844 -0.0498 -0.3688
  334TMC3    C3 5010   1.359   1.016  10.811 -0.1985 -0.2742  0.5892
  334TMC3    C4 5011   1.115   1.159  10.828 -0.5716 -0.4556  0.1057
  334TMC3    C5 5012   1.237   1.219  10.819 -0.1986 -0.2626  0.1914
  334TMC3    C6 5013   1.357   1.156  10.807  0.3980  0.2970  0.6494
  334TMC3     C 5014   1.009   0.943  10.862  0.1948 -0.5324 -0.0466
  334TMC3     O 5015   1.021   0.821  10.864  0.1913 -0.3335  0.3360
  334TMC3     H 5016   1.247   0.840  10.848 -0.6232 -0.1695 -1.2066
  334TMC3    H1 5017   1.021   1.214  10.825 -0.1726  0.1980 -0.4546
  334TMC3    H2 5018   1.448   1.209  10.783  0.6066  0.1487  1.1194
  334TMC3    C7 5019   1.231   1.352  10.761  0.2950 -0.0859  0.1363
  334TMC3    C8 5020   1.486   0.944  10.825 -0.1980 -0.0820  0.2409
  334TMC3    O1 5021   1.153   1.438  10.799 -0.3720 -0.8008 -0.0991
  334TMC3    O2 5022   1.470   0.821  10.812  0.1218 -0.0990 -0.6797
  335TMC3    C1 5023   0.147   2.235  17.651  0.0648  0.4165 -0.8654
  335TMC3    C2 5024   0.104   2.162  17.540 -0.2800 -0.1449 -0.0848
  335TMC3    C3 5025   0.187   2.174  17.434  0.2208 -0.6215 -0.3982
  335TMC3    C4 5026   0.268   2.303  17.658 -0.6319 -0.5945  0.4454
  335TMC3    C5 5027   0.341   2.308  17.542  0.5710  0.3583  0.8155
  335TMC3    C6 5028   0.302   2.241  17.429  0.4475  0.1536  0.5554
  335TMC3     C 5029   0.052   2.249   0.054 -0.5553 -0.2536 -0.1612
  335TMC3     O 5030   4.698   2.159   0.067 -0.0064 -0.5650 -0.4329
  335TMC3     H 5031   0.011   2.108  17.529 -1.6346  1.4666  3.4930
  335TMC3    H1 5032   0.307   2.349   0.044  1.7105 -0.7207 -0.4986
  335TMC3    H2 5033   0.363   2.252  17.340  0.5732 -0.0010  0.6223
  335TMC3    C7 5034   0.481   2.354  17.542  0.7500 -0.8459 -1.1833
  335TMC3    C8 5035   0.143   2.143  17.300  0.1069  0.4117 -0.3490
  335TMC3    O1 5036   0.551   2.326  17.444 -0.0282  0.2747 -0.4171
  335TMC3    O2 5037   0.169   2.227  17.214 -0.0864  0.2364 -0.4576
  336MPD2     C 5038   0.146   0.095  16.065 -0.1026 -0.5984  0.6097
  336MPD2    C1 5039   0.087   0.039  15.961  0.1282 -0.1558  0.2998
  336MPD2    C2 5040   0.088   4.627  15.948  0.5174  0.3459  0.3587
  336MPD2    C3 5041   0.144   4.547  16.046  0.5923 -0.0227 -0.4319
  336MPD2    C4 5042   0.201   4.611  16.150 -0.7665 -0.1479  0.8783
  336MPD2    C5 5043   0.209   0.018  16.157  0.0110 -0.1123  0.0331
  336MPD2     H 5044   0.022   4.586  15.872 -0.6745 -1.3812  2.3319
  336MPD2    H1 5045   0.258   4.560  16.228  1.3249 -1.4860 -1.5437
  336MPD2    H2 5046   0.148   0.200  16.091 -1.8459 -0.3618 -0.2024
  336MPD2    H3 5047   0.259   0.065  16.241  0.5653 -0.4980 -0.0873
  336MPD2     N 5048   0.139   4.408  16.048 -0.0377 -0.1371 -0.0623
  336MPD2    H5 5049   0.163   4.357  16.133  0.0175  1.2260  0.7315
  336MPD2    N1 5050   0.019   0.112  15.861  0.3156  0.2381 -0.2809
  336MPD2    H7 5051   4.711   0.062  15.779 -2.3021  1.8541 -0.1910
  337TMC3    C1 5052   4.685   0.298  15.727  0.1799 -0.0029  0.5209
  337TMC3    C2 5053   4.556   0.265  15.695 -0.8200  0.5661  0.4668
  337TMC3    C3 5054   4.479   0.363  15.641 -0.4231 -0.4913  0.3659
  337TMC3    C4 5055   0.002   0.426  15.712  0.0346  0.4089  0.4285
  337TMC3    C5 5056   4.643   0.521  15.661 -0.4480  0.1764  0.1700
  337TMC3    C6 5057   4.518   0.490  15.622 -0.1315 -0.9274  0.1856
  337TMC3     C 5058   0.008   0.248  15.854  0.0451  0.6196  0.1991
  337TMC3     O 5059   0.013   0.330  15.947  0.1262  0.5770 -0.1934
  337TMC3     H 5060   4.505   0.172  15.719  1.7086 -0.9109  0.0682
  337TMC3    H1 5061   0.102   0.450  15.745 -0.0093 -0.2853  1.0559
  337TMC3    H2 5062   4.458   0.567  15.574  0.9100 -0.7630 -0.8613
  337TMC3    C7 5063   4.703   0.651  15.615  0.3157  0.0858  1.0423
  337TMC3    C8 5064   4.344   0.325  15.603  0.7726 -0.2151 -0.3660
  337TMC3    O1 5065   4.621   0.736  15.572  0.2236 -0.6324 -0.4656
  337TMC3    O2 5066   4.293   0.237  15.673 -0.1564  0.1523  0.3778
  338MPD2     C 5067   0.825   4.301   0.315 -0.1508 -0.1159 -0.3554
  338MPD2    C1 5068   0.731   4.226   0.380  0.1731  0.4625  0.1986
  338MPD2    C2 5069   0.741   4.203   0.515 -0.3354  0.3929  0.3435
  338MPD2    C3 5070   0.844   4.265   0.585  0.2310 -0.2462 -0.1121
  338MPD2    C4 5071   0.933   4.342   0.522  0.4179  0.0837  0.6070
  338MPD2    C5 5072   0.923   4.360   0.386  0.0040 -0.0296 -0.3643
  338MPD2     H 5073   0.672   4.136   0.567 -0.7892 -0.0119 -0.7837
  338MPD2    H1 5074   1.019   4.384   0.572  1.0287 -0.4506  0.0035
  338MPD2    H2 5075   0.821   4.325   0.210  0.5279 -1.6854 -0.7396
  338MPD2    H3 5076   0.991   4.433   0.343 -0.1729 -0.2681 -1.0403
  338MPD2     N 5077   0.845   4.248   0.724  0.0533  0.4336 -0.3011
  338MPD2    H5 5078   0.768   4.186   0.750  1.0252 -1.1661 -1.2657
  338MPD2    N1 5079   0.628   4.156   0.310 -0.1795 -0.4769  0.0595
  338MPD2    H7 5080   0.577   4.094   0.373 -0.0125  1.1240  1.7693
  339TMC3    C1 5081   0.840   4.311   0.939  0.3765 -0.3830  0.3368
  339TMC3    C2 5082   0.803   4.435   0.977 -0.9509  0.2260  0.0737
  339TMC3    C3 5083   0.673   4.457   1.011 -0.0773 -0.0565 -0.6898
  339TMC3    C4 5084   0.752   4.206   0.938 -0.0304 -0.3109  0.5070
  339TMC3    C5 5085   0.623   4.231   0.953  0.5809 -0.3488  0.0161
  339TMC3    C6 5086   0.577   4.355   0.994 -0.1449 -1.0618 -0.7886
  339TMC3     C 5087   0.910   4.329   0.815 -0.0891  0.9866  0.5059
  339TMC3     O 5088   0.982   4.427   0.790  0.1941 -0.0316  0.3379
  339TMC3     H 5089   0.872   4.519   0.976 -1.1398  0.3854  0.3522
  339TMC3    H1 5090   0.799   4.109   0.931  0.6500  0.1476 -1.4330
  339TMC3    H2 5091   0.476   4.391   0.987  0.0459 -0.5113 -0.6725
  339TMC3    C7 5092   0.550   4.162   0.850 -0.1145  0.2518 -0.1143
  339TMC3    C8 5093   0.630   4.594   1.037  0.0151 -0.5588  0.1631
  339TMC3    O1 5094   0.588   4.048   0.828  0.1604 -0.3478  0.4716
  339TMC3    O2 5095   0.704   4.688   0.996 -0.3188 -0.6754  0.0272
  340MPD2     C 5096   0.550   2.689   9.536 -0.7706  0.7239 -0.6381
  340MPD2    C1 5097   0.547   2.628   9.656 -0.0039 -0.2667  0.0037
  340MPD2    C2 5098   0.515   2.698   9.770 -0.2411 -0.1469 -0.7004
  340MPD2    C3 5099   0.496   2.832   9.764  0.5970  0.6284 -0.4779
  340MPD2    C4 5100   0.503   2.887   9.634 -0.0435 -0.0247 -0.3430
  340MPD2    C5 5101   0.521   2.819   9.525 -0.0986  0.4080 -0.1567
  340MPD2     H 5102   0.502   2.650   9.866 -2.7516 -1.2565 -1.6172
  340MPD2    H1 5103   0.479   2.992   9.627 -1.1774 -0.2003  1.0173
  340MPD2    H2 5104   0.569   2.629   9.448 -2.0681 -0.1188 -0.3401
  340MPD2    H3 5105   0.514   2.868   9.428 -0.9815 -1.4649 -1.0390
  340MPD2     N 5106   0.463   2.913   9.876  0.3999  0.7250 -0.4380
  340MPD2    H5 5107   0.441   3.011   9.861  0.7015  1.0736  1.4257
  340MPD2    N1 5108   0.569   2.488   9.659  0.2717  0.4690 -0.2903
  340MPD2    H7 5109   0.602   2.457   9.568 -1.0569 -0.7988 -0.3308
  341TMC3    C1 5110   0.581   2.269   9.737 -0.3178  0.3032 -0.3806
  341TMC3    C2 5111   0.533   2.180   9.828 -0.7336 -0.6182  0.0886
  341TMC3    C3 5112   0.577   2.047   9.821 -0.0521  0.1208 -0.2145
  341TMC3    C4 5113   0.686   2.237   9.659 -0.0426 -0.3170  0.3392
  341TMC3    C5 5114   0.726   2.105   9.648  0.7494  0.8708  0.5324
  341TMC3    C6 5115   0.682   2.007   9.741 -0.0198 -0.6260  0.2599
  341TMC3     C 5116   0.549   2.406   9.764 -0.6189  0.2357  0.2015
  341TMC3     O 5117   0.534   2.436   9.881  0.3077  0.8031  0.0696
  341TMC3     H 5118   0.461   2.209   9.904 -0.0899  0.0184  0.4546
  341TMC3    H1 5119   0.744   2.318   9.617 -0.5761 -0.2239 -0.2164
  341TMC3    H2 5120   0.711   1.902   9.734  0.3721 -0.4090 -1.5303
  341TMC3    C7 5121   0.835   2.075   9.564 -0.4770 -0.1493  0.6141
  341TMC3    C8 5122   0.495   1.942   9.880  0.2085  0.1072  0.8513
  341TMC3    O1 5123   0.876   1.959   9.578  0.2434  0.0169  0.1206
  341TMC3    O2 5124   0.381   1.971   9.917  0.2463  0.6063  0.0459
  342MPD2     C 5125   3.064   0.457  17.555 -0.1690  0.3119  0.4570
  342MPD2    C1 5126   3.173   0.461  17.467 -0.7215  0.0314  0.3930
  342MPD2    C2 5127   3.253   0.572  17.463  0.8408  0.6881  0.4405
  342MPD2    C3 5128   3.200   0.690  17.519  0.0401 -0.5014  0.1147
  342MPD2    C4 5129   3.091   0.690  17.607  0.1971  0.2854  0.2550
  342MPD2    C5 5130   3.031   0.569  17.630  0.3934 -0.2112  0.1509
  342MPD2     H 5131   3.338   0.572  17.396 -1.1757 -1.7410 -2.1278
  342MPD2    H1 5132   3.051   0.779  17.654 -1.3322 -0.7886  0.9808
  342MPD2    H2 5133   3.009   0.365  17.565  0.1598 -0.0859 -1.4189
  342MPD2    H3 5134   2.950   0.572  17.702  0.4241  1.1637  0.1373
  342MPD2     N 5135   3.255   0.822  17.487  0.4198  0.2316 -0.1892
  342MPD2    H5 5136   3.205   0.900  17.529  0.1415 -0.6451  1.1002
  342MPD2    N1 5137   3.209   0.358  17.374 -0.1350 -0.4023 -0.2817
  342MPD2    H7 5138   3.286   0.374  17.309 -0.5012  1.6405 -0.2033
  343TMC3    C1 5139   3.202   0.167  17.249  0.4356 -0.7277 -0.1356
  343TMC3    C2 5140   3.339   0.166  17.224 -0.0371 -0.7573  0.1750
  343TMC3    C3 5141   3.381   0.081  17.125  0.1766 -0.3385 -0.2821
  343TMC3    C4 5142   3.113   0.084  17.179  0.5205 -0.7475  0.2740
  343TMC3    C5 5143   3.165   0.007  17.083 -0.0936 -0.2219  0.0163
  343TMC3    C6 5144   3.302   4.724  17.052 -0.4449 -0.3260  0.1204
  343TMC3     C 5145   3.144   0.238  17.359 -0.1913 -0.9880  0.6683
  343TMC3     O 5146   3.050   0.182  17.413  0.0685  0.3162 -0.0252
  343TMC3     H 5147   3.408   0.228  17.281  0.0868  0.0078 -0.7862
  343TMC3    H1 5148   3.006   0.098  17.196  0.3439 -1.7109 -0.0543
  343TMC3    H2 5149   3.330   4.665  16.965 -0.2610  1.4805 -1.0714
  343TMC3    C7 5150   3.075   4.659  16.999 -0.0762 -0.2990 -0.7383
  343TMC3    C8 5151   3.525   0.047  17.135 -0.4740  0.3115 -0.0078
  343TMC3    O1 5152   2.980   4.606  17.054 -0.2841 -0.4837 -0.5199
  343TMC3    O2 5153   3.590   0.121  17.205  0.0890  0.4712 -0.0884
  344MPD2     C 5154   4.434   0.180  10.784 -0.4661 -0.0869 -0.5428
  344MPD2    C1 5155   4.372   0.167  10.661 -0.3628  0.3265  0.1085
  344MPD2    C2 5156   4.403   0.262  10.564  0.0327  0.2254  0.6032
  344MPD2    C3 5157   4.508   0.348  10.578  1.2942 -0.1101  0.1874
  344MPD2    C4 5158   4.573   0.353  10.702  0.3443  0.4816 -0.1999
  344MPD2    C5 5159   4.532   0.271  10.803 -0.7643  0.3968 -0.5331
  344MPD2     H 5160   4.345   0.264  10.472  2.7578  0.5664 -1.0954
  344MPD2    H1 5161   4.654   0.425  10.711  1.7027 -1.0679  0.0535
  344MPD2    H2 5162   4.398   0.118  10.866  2.9115 -1.9815 -0.4691
  344MPD2    H3 5163   4.597   0.295  10.886 -1.0499  1.0885 -0.5124
  344MPD2     N 5164   4.553   0.445  10.478 -0.3022 -0.4717  0.0130
  344MPD2    H5 5165   4.638   0.500  10.488 -0.7896  0.7009 -2.2679
  344MPD2    N1 5166   4.276   0.065  10.648 -0.0529  0.4193 -0.2367
  344MPD2    H7 5167   4.254   0.025  10.738  2.5486 -1.6059 -0.5031
  345TMC3    C1 5168   4.569   0.544  10.271  0.0064 -0.6359  0.3975
  345TMC3    C2 5169   4.703   0.572  10.291 -0.9684 -0.6667 -0.3887
  345TMC3    C3 5170   0.037   0.670  10.218  0.2186  0.7493 -0.1237
  345TMC3    C4 5171   4.500   0.611  10.175  0.2172 -0.8691 -0.4930
  345TMC3    C5 5172   4.569   0.699  10.092 -0.2471  0.1256  0.8254
  345TMC3    C6 5173   4.699   0.729  10.114 -0.4118 -0.1757 -0.1457
  345TMC3     C 5174   4.490   0.464  10.362  0.4534  0.1597  0.2853
  345TMC3     O 5175   4.385   0.419  10.323  0.0380  0.1119  0.5970
  345TMC3     H 5176   0.032   0.518  10.367  0.6537 -0.5536 -1.4772
  345TMC3    H1 5177   4.392   0.601  10.173  0.2275 -1.2102  0.7655
  345TMC3    H2 5178   0.035   0.786  10.045 -0.8354  1.5544  0.9002
  345TMC3    C7 5179   4.507   0.809  10.025 -0.0998  0.1496  0.1394
  345TMC3    C8 5180   0.176   0.703  10.240  0.3041  0.0672 -0.7639
  345TMC3    O1 5181   4.563   0.919  10.036  0.0673  0.2104 -0.4700
  345TMC3    O2 5182   0.246   0.614  10.278 -0.2659 -0.2108  0.2960
  346MPD2     C 5183   3.768   1.852  14.045  0.2358  0.0750 -0.5315
  346MPD2    C1 5184   3.818   1.964  13.984 -0.1798 -0.4514 -0.2680
  346MPD2    C2 5185   3.904   2.050  14.057  0.4485 -0.6526 -0.5195
  346MPD2    C3 5186   3.919   2.040  14.191 -0.8114  0.3608  0.2118
  346MPD2    C4 5187   3.863   1.927  14.253  0.4708  0.0318 -0.0438
  346MPD2    C5 5188   3.789   1.837  14.176 -0.0731 -0.3834 -0.1609
  346MPD2     H 5189   3.940   2.142  14.013  0.2835 -0.4658 -0.2652
  346MPD2    H1 5190   3.846   1.901  14.357  0.5874 -0.4376 -0.1411
  346MPD2    H2 5191   3.705   1.778  13.996 -0.0585  1.2274 -1.8837
  346MPD2    H3 5192   3.747   1.745  14.216  0.2222  0.0326  1.0865
  346MPD2     N 5193   3.991   2.133  14.260 -0.2079  0.6989  0.1943
  346MPD2    H5 5194   4.052   2.194  14.205 -1.1638 -0.4298 -2.1449
  346MPD2    N1 5195   3.814   1.983  13.845 -0.2344 -0.4230 -0.6403
  346MPD2    H7 5196   3.848   2.073  13.811  1.9124 -1.4398 -1.1618
  347TMC3    C1 5197   4.145   2.189  14.428  0.2361 -0.0170 -0.2099
  347TMC3    C2 5198   4.216   2.253  14.336  0.4683  0.1178  0.2056
  347TMC3    C3 5199   4.351   2.261  14.357  0.1801  0.6054 -0.3905
  347TMC3    C4 5200   4.193   2.159  14.552  0.3822 -0.0741 -0.3166
  347TMC3    C5 5201   4.327   2.191  14.576 -0.2603 -0.3151 -0.1070
  347TMC3    C6 5202   4.410   2.237  14.476  0.4503  0.0071  0.5364
  347TMC3     C 5203   4.018   2.125  14.393  0.0801 -0.0428  0.7056
  347TMC3     O 5204   3.943   2.081  14.480  0.1293 -0.0452  0.1281
  347TMC3     H 5205   4.179   2.260  14.234  2.0931  1.9177 -0.2626
  347TMC3    H1 5206   4.135   2.096  14.618  2.6531 -0.8045  0.9695
  347TMC3    H2 5207   4.513   2.266  14.494 -0.5215  3.9369 -0.1998
  347TMC3    C7 5208   4.383   2.120  14.683  0.2453  0.5605 -0.8338
  347TMC3    C8 5209   4.431   2.208  14.248  0.1747  0.2248 -0.1808
  347TMC3    O1 5210   4.313   2.098  14.779  0.3333 -0.3038 -0.0558
  347TMC3    O2 5211   4.386   2.106  14.194  0.0580 -0.3654  0.3421
  348MPD2     C 5212   3.571   1.605  12.106 -0.3141  0.3798 -0.2108
  348MPD2    C1 5213   3.463   1.554  12.031 -0.1941  0.3148  0.8454
  348MPD2    C2 5214   3.425   1.631  11.922 -0.1942 -0.5467 -0.4349
  348MPD2    C3 5215   3.477   1.759  11.895  0.1881  0.1100 -0.4770
  348MPD2    C4 5216   3.581   1.808  11.975 -0.3973 -0.3618 -0.5366
  348MPD2    C5 5217   3.632   1.728  12.077  0.1603  0.3365  0.2621
  348MPD2     H 5218   3.341   1.606  11.858  0.7697  1.5788 -2.5201
  348MPD2    H1 5219   3.640   1.899  11.964  0.7646 -0.8657  1.5384
  348MPD2    H2 5220   3.614   1.547  12.187  0.0943 -2.5152 -2.4964
  348MPD2    H3 5221   3.716   1.753  12.141  0.6855  0.4513 -0.4827
  348MPD2     N 5222   3.425   1.829  11.785  0.2029 -0.9034 -0.5279
  348MPD2    H5 5223   3.351   1.779  11.737  0.7253 -0.6899 -1.5495
  348MPD2    N1 5224   3.388   1.441  12.063  0.2876 -0.1805 -0.4081
  348MPD2    H7 5225   3.302   1.428  12.011 -0.3461 -0.2539  0.6684
  349TMC3    C1 5226   3.316   1.250  12.178 -0.5479  1.0203  0.4947
  349TMC3    C2 5227   3.359   1.126  12.220 -0.0815  0.4136  0.0797
  349TMC3    C3 5228   3.255   1.035  12.239 -0.0751 -0.0418 -0.8292
  349TMC3    C4 5229   3.191   1.291  12.160  0.3870 -0.0989 -0.2501
  349TMC3    C5 5230   3.088   1.196  12.178  0.5981  0.3904 -1.4432
  349TMC3    C6 5231   3.123   1.068  12.215  0.1809  0.1115  0.4662
  349TMC3     C 5232   3.421   1.343  12.153  0.4238  0.2182  0.5690
  349TMC3     O 5233   3.530   1.313  12.194  0.2053  0.7325 -0.0626
  349TMC3     H 5234   3.463   1.103  12.239 -0.0747 -0.5940 -1.1839
  349TMC3    H1 5235   3.164   1.394  12.141  0.5223 -0.3407 -1.7485
  349TMC3    H2 5236   3.050   0.988  12.219 -0.0674  0.3302  0.3271
  349TMC3    C7 5237   2.986   1.216  12.075  0.0679  0.1469  0.1727
  349TMC3    C8 5238   3.278   0.897  12.262 -0.6668  0.4855 -0.0583
  349TMC3    O1 5239   2.932   1.115  12.024 -0.6935  0.6953 -0.4733
  349TMC3    O2 5240   3.199   0.846  12.345  0.2536  0.2695  0.2236
  350MPD2     C 5241   2.117   0.043   9.457  0.2828 -0.3586 -0.5811
  350MPD2    C1 5242   2.154   4.675   9.546 -0.4198  0.0367 -0.0766
  350MPD2    C2 5243   2.247   4.702   9.645 -0.0429 -0.4075  0.0113
  350MPD2    C3 5244   2.300   0.101   9.649 -0.1192 -0.3593  0.1447
  350MPD2    C4 5245   2.270   0.196   9.554  0.0099  0.3468 -0.2150
  350MPD2    C5 5246   2.177   0.162   9.457  0.0928 -0.3975 -0.4680
  350MPD2     H 5247   2.276   4.617   9.707  3.1700 -0.1269 -1.1008
  350MPD2    H1 5248   2.310   0.296   9.556  1.7224 -0.3610  0.8591
  350MPD2    H2 5249   2.037   0.025   9.387 -1.2718 -0.4436  1.2288
  350MPD2    H3 5250   2.142   0.234   9.384 -1.8592 -1.1645 -0.2620
  350MPD2     N 5251   2.382   0.123   9.759 -0.7184 -0.2933  0.3725
  350MPD2    H5 5252   2.380   0.054   9.833 -0.5415  1.4358  1.9690
  350MPD2    N1 5253   2.092   4.548   9.552  0.4230 -0.1220 -0.0318
  350MPD2    H7 5254   2.117   4.489   9.630  1.0097  0.7607  0.4404
  351TMC3    C1 5255   1.955   4.355   9.503 -0.3051 -0.4358  0.1519
  351TMC3    C2 5256   2.029   4.263   9.568 -0.3497 -0.4344  0.0075
  351TMC3    C3 5257   1.984   4.139   9.593 -0.7180 -0.4225 -0.3838
  351TMC3    C4 5258   1.830   4.318   9.455 -0.5691 -0.2558 -0.2026
  351TMC3    C5 5259   1.788   4.193   9.480  0.1008  0.1235  0.5144
  351TMC3    C6 5260   1.862   4.099   9.547  0.2504  0.0299  0.7315
  351TMC3     C 5261   1.999   4.490   9.467  0.5887  0.3373 -0.8430
  351TMC3     O 5262   1.945   4.539   9.368 -0.2277  0.1111  0.0590
  351TMC3     H 5263   2.129   4.299   9.591 -0.8333  0.4794  0.6681
  351TMC3    H1 5264   1.767   4.399   9.419  0.2654  0.7189  0.5226
  351TMC3    H2 5265   1.819   4.003   9.574 -2.5132  1.1896  0.4093
  351TMC3    C7 5266   1.667   4.151   9.417  0.8490  0.7018 -0.3110
  351TMC3    C8 5267   2.070   4.026   9.627 -0.0536  0.3788 -0.1248
  351TMC3    O1 5268   1.622   4.045   9.447  0.4379 -0.3346 -0.0679
  351TMC3    O2 5269   2.026   3.916   9.612  0.0845  0.1721  0.0810
  352MPD2     C 5270   4.598   0.520   1.324  0.4172 -0.6199 -0.9698
  352MPD2    C1 5271   4.677   0.593   1.240  0.1761  0.5194  0.8645
  352MPD2    C2 5272   0.088   0.588   1.245 -0.6606  0.1674  0.0960
  352MPD2    C3 5273   0.149   0.494   1.324  0.1247 -0.3550 -0.3713
  352MPD2    C4 5274   0.073   0.431   1.422  0.4143 -0.2035  0.3893
  352MPD2    C5 5275   4.662   0.448   1.421  0.2656  0.1145 -0.2094
  352MPD2     H 5276   0.152   0.655   1.189 -1.0011 -0.0445 -0.5436
  352MPD2    H1 5277   0.112   0.353   1.486  0.8104  0.3088  0.7676
  352MPD2    H2 5278   4.490   0.519   1.332  0.3537  0.0413 -1.8545
  352MPD2    H3 5279   4.602   0.390   1.490  0.3370 -0.0946 -0.3241
  352MPD2     N 5280   0.284   0.465   1.327  0.0436  0.2034 -0.1388
  352MPD2    H5 5281   0.309   0.399   1.401  2.2635  2.2384  0.9474
  352MPD2    N1 5282   4.601   0.683   1.159 -0.7320 -0.1566 -0.0822
  352MPD2    H7 5283   4.500   0.689   1.165 -0.7249  0.7759 -0.8837
  353TMC3    C1 5284   0.523   0.473   1.260 -0.0667  0.1838 -0.1855
  353TMC3    C2 5285   0.544   0.351   1.324  0.1626  0.0863  0.0033
  353TMC3    C3 5286   0.663   0.287   1.305 -0.4679  0.7068  0.1672
  353TMC3    C4 5287   0.615   0.517   1.174 -0.3940 -0.0790 -0.3229
  353TMC3    C5 5288   0.736   0.455   1.155 -0.0535  0.0344  0.5864
  353TMC3    C6 5289   0.757   0.341   1.222 -0.0862  0.3154 -0.2767
  353TMC3     C 5290   0.383   0.533   1.254 -0.5536 -0.2167  0.1853
  353TMC3     O 5291   0.368   0.629   1.179  0.0001  0.6342 -0.0026
  353TMC3     H 5292   0.464   0.300   1.376  2.4256 -1.4423  1.9370
  353TMC3    H1 5293   0.594   0.599   1.106 -0.6660  0.7862  0.8043
  353TMC3    H2 5294   0.843   0.285   1.186 -0.6860 -1.3801  0.9568
  353TMC3    C7 5295   0.802   0.461   1.031  0.5395 -0.4975  0.4972
  353TMC3    C8 5296   0.661   0.145   1.350 -0.7115  0.1503 -0.2609
  353TMC3    O1 5297   0.826   0.356   0.971  0.4832 -0.3602  0.5234
  353TMC3    O2 5298   0.560   0.099   1.402 -0.4628  0.1083  0.3221
  354TMC3    C1 5299   2.340   2.808  13.278  0.5750  0.4408 -0.1986
  354TMC3    C2 5300   2.304   2.937  13.267  0.2419 -0.6321 -0.2774
  354TMC3    C3 5301   2.303   2.993  13.140  0.2386  0.9390  0.3551
  354TMC3    C4 5302   2.376   2.727  13.170  0.4311  0.3287  0.9581
  354TMC3    C5 5303   2.381   2.790  13.051 -0.1706 -0.1180 -0.0576
  354TMC3    C6 5304   2.335   2.916  13.028 -0.3053 -0.0481 -0.1624
  354TMC3     C 5305   2.337   2.750  13.412 -0.6136  0.3996  0.0386
  354TMC3     O 5306   2.339   2.839  13.497 -0.2647  0.8684  0.3747
  354TMC3     H 5307   2.271   2.997  13.350 -0.3047  0.8870 -1.5939
  354TMC3    H1 5308   2.447   2.647  13.192  0.4852  0.0663 -0.1162
  354TMC3    H2 5309   2.334   2.958  12.928 -3.7991  0.1214 -0.0694
  354TMC3    C7 5310   2.426   2.708  12.942 -0.2348  0.0575  0.8844
  354TMC3    C8 5311   2.275   3.134  13.135  0.0005 -0.4441  0.0521
  354TMC3    O1 5312   2.438   2.586  12.957  0.0432  0.5236 -0.1930
  354TMC3    O2 5313   2.235   3.186  13.238  0.2183  0.4807  0.0741
  355MPD2     C 5314   2.036   3.838  10.680  0.0104  0.3323 -0.2102
  355MPD2    C1 5315   2.167   3.831  10.634  0.1515 -0.6645 -0.4846
  355MPD2    C2 5316   2.268   3.829  10.728 -0.9900 -0.1398  0.7175
  355MPD2    C3 5317   2.244   3.855  10.864  0.0586 -0.2775 -0.3543
  355MPD2    C4 5318   2.114   3.863  10.905  0.4248  0.4601 -0.2762
  355MPD2    C5 5319   2.010   3.850  10.813 -0.2914 -0.6464  0.4221
  355MPD2     H 5320   2.366   3.813  10.685 -1.2949  0.5065 -0.2125
  355MPD2    H1 5321   2.102   3.887  11.010  0.0311 -0.1109 -0.1929
  355MPD2    H2 5322   1.960   3.841  10.603 -1.3309 -1.9400  1.0649
  355MPD2    H3 5323   1.906   3.851  10.842 -0.5295 -0.8015 -0.4240
  355MPD2     N 5324   2.353   3.871  10.954  0.1064  0.3292  0.1284
  355MPD2    H5 5325   2.331   3.913  11.044 -2.2544  1.5090 -1.0104
  355MPD2    N1 5326   2.183   3.809  10.494 -0.1989  0.3614  0.4805
  355MPD2    H7 5327   2.101   3.773  10.444  0.3279  0.3367 -0.3728
  356TMC3    C1 5328   2.573   3.942  10.992  0.1052 -0.0853 -0.4139
  356TMC3    C2 5329   2.678   3.997  10.932  0.5180  0.4033  0.4490
  356TMC3    C3 5330   2.762   4.066  11.013 -0.5731  0.7558 -0.4521
  356TMC3    C4 5331   2.550   3.946  11.126 -0.6499  0.8441 -0.4493
  356TMC3    C5 5332   2.655   3.992  11.201 -0.1285  0.0217 -0.3433
  356TMC3    C6 5333   2.761   4.060  11.153 -0.6278 -0.5726  0.2464
  356TMC3     C 5334   2.484   3.859  10.916 -0.3892  0.5788  0.8528
  356TMC3     O 5335   2.533   3.786  10.834  0.2090 -0.0228 -0.2935
  356TMC3     H 5336   2.671   4.019  10.826 -0.5357  1.0931  0.6667
  356TMC3    H1 5337   2.476   3.881  11.169 -0.5920  1.0232 -0.0804
  356TMC3    H2 5338   2.855   4.086  11.201 -0.4057  0.3981 -0.7234
  356TMC3    C7 5339   2.642   3.956  11.344  0.4955  0.1733  0.5843
  356TMC3    C8 5340   2.864   4.133  10.940 -0.3413 -0.0176  0.4196
  356TMC3    O1 5341   2.547   3.890  11.379  0.7066 -0.3763  0.3096
  356TMC3    O2 5342   2.865   4.112  10.820  0.1808 -0.1579  0.7872
  357MPD2     C 5343   2.461   3.161   1.142 -0.2066  0.1671  0.1446
  357MPD2    C1 5344   2.418   3.038   1.097  0.9513  0.2595  0.0397
  357MPD2    C2 5345   2.284   3.010   1.104 -0.5693 -0.3759 -0.4120
  357MPD2    C3 5346   2.186   3.091   1.160  0.7625 -0.0823 -0.2752
  357MPD2    C4 5347   2.236   3.210   1.219  0.4708 -0.4631 -0.1097
  357MPD2    C5 5348   2.371   3.238   1.214  0.2073 -0.6559 -0.3369
  357MPD2     H 5349   2.255   2.908   1.079  1.0327 -0.6758 -1.0045
  357MPD2    H1 5350   2.163   3.280   1.257 -0.6604 -3.0580  2.4962
  357MPD2    H2 5351   2.566   3.187   1.148  0.2704 -1.2203 -2.4746
  357MPD2    H3 5352   2.405   3.329   1.260 -2.2678 -0.2929  0.7563
  357MPD2     N 5353   2.053   3.070   1.149 -0.5938 -0.1926  0.2402
  357MPD2    H5 5354   1.997   3.127   1.211 -0.9019 -1.6460  1.3076
  357MPD2    N1 5355   2.514   2.948   1.039  0.0027  0.2205 -0.2874
  357MPD2    H7 5356   2.612   2.968   1.052 -0.3458  0.1143  2.5411
  358TMC3    C1 5357   2.589   2.761   0.919 -0.1230  0.2740 -0.0193
  358TMC3    C2 5358   2.572   2.680   0.812  0.6060 -0.1735 -0.0313
  358TMC3    C3 5359   2.679   2.599   0.776  0.5809 -0.1890  0.2401
  358TMC3    C4 5360   2.703   2.758   0.991  0.3129  0.8216 -0.5763
  358TMC3    C5 5361   2.808   2.676   0.947 -0.1938 -0.5994  0.3318
  358TMC3    C6 5362   2.802   2.609   0.827 -0.2429  0.1632  0.2619
  358TMC3     C 5363   2.480   2.843   0.959  0.0727  0.0417 -0.3327
  358TMC3     O 5364   2.370   2.815   0.907 -0.3059 -0.0229  0.1977
  358TMC3     H 5365   2.481   2.690   0.754  0.8164  3.2515  0.1908
  358TMC3    H1 5366   2.717   2.814   1.083 -0.3273 -1.4617  0.9157
  358TMC3    H2 5367   2.881   2.541   0.799 -0.6622 -1.1199  2.1891
  358TMC3    C7 5368   2.935   2.690   1.025  0.3181 -0.1065  0.3057
  358TMC3    C8 5369   2.673   2.556   0.637 -0.8008 -0.1782  0.3592
  358TMC3    O1 5370   2.944   2.787   1.099  0.2452  0.0031 -0.1759
  358TMC3    O2 5371   2.778   2.548   0.570  0.0830 -0.2803  1.1344
  359MPD2     C 5372   2.695   2.009  12.575 -0.7131  0.1511 -0.1639
  359MPD2    C1 5373   2.638   2.038  12.450  0.5357 -0.2795 -0.1052
  359MPD2    C2 5374   2.543   1.958  12.405 -0.3424 -0.6285 -0.1544
  359MPD2    C3 5375   2.503   1.844  12.476 -0.0988 -0.5354 -0.5329
  359MPD2    C4 5376   2.559   1.815  12.599  0.3250  0.2628  0.6578
  359MPD2    C5 5377   2.653   1.904  12.654  0.3057 -0.0207 -0.7112
  359MPD2     H 5378   2.494   1.966  12.309 -1.8172  1.0706  0.7386
  359MPD2    H1 5379   2.518   1.729  12.650  2.0390  0.5307  2.4959
  359MPD2    H2 5380   2.771   2.071  12.621  0.9476 -1.7574 -0.3247
  359MPD2    H3 5381   2.689   1.892  12.756  0.4830  1.0205 -0.6548
  359MPD2     N 5382   2.410   1.747  12.421  0.3377 -0.1421  0.0248
  359MPD2    H5 5383   2.395   1.670  12.486  2.2580 -1.2561 -0.8467
  359MPD2    N1 5384   2.670   2.149  12.367  0.5778 -0.3740  0.5096
  359MPD2    H7 5385   2.623   2.162  12.278  1.2119 -1.8349 -0.0464
  360TMC3    C1 5386   2.818   2.312  12.284 -1.0489 -0.4023  0.1426
  360TMC3    C2 5387   2.862   2.442  12.308 -0.0534  0.4795 -0.6161
  360TMC3    C3 5388   2.914   2.512  12.201  0.3883 -0.1814  0.4050
  360TMC3    C4 5389   2.803   2.270  12.153 -0.2741  0.7814 -0.1833
  360TMC3    C5 5390   2.845   2.344  12.048 -0.2984  0.2139 -0.5893
  360TMC3    C6 5391   2.900   2.466  12.075  0.2150  0.3977  0.0904
  360TMC3     C 5392   2.778   2.229  12.396 -0.1358 -0.1455 -0.5153
  360TMC3     O 5393   2.826   2.258  12.503  0.2122 -0.2410  0.8550
  360TMC3     H 5394   2.879   2.477  12.409 -0.4758  1.6650 -0.9472
  360TMC3    H1 5395   2.763   2.170  12.141  1.1294  0.0300  1.4743
  360TMC3    H2 5396   2.912   2.535  11.992  2.3144  2.2035  1.9176
  360TMC3    C7 5397   2.791   2.317  11.914  0.2868  0.7718 -0.3599
  360TMC3    C8 5398   3.037   2.600  12.223 -0.4048  0.4395  0.9283
  360TMC3    O1 5399   2.776   2.411  11.835  0.3278  0.2684  0.6280
  360TMC3    O2 5400   3.049   2.654  12.334 -0.5443  0.1317  0.4278
  361MPD2     C 5401   4.283   1.183  16.333 -0.6843 -0.7297 -0.8487
  361MPD2    C1 5402   4.215   1.133  16.446  0.3381 -0.6816 -0.8529
  361MPD2    C2 5403   4.272   1.036  16.524 -0.2541 -0.9866 -0.4744
  361MPD2    C3 5404   4.389   0.981  16.483  0.0144  0.2764  0.7855
  361MPD2    C4 5405   4.444   1.014  16.362 -0.0606  0.6131 -0.2478
  361MPD2    C5 5406   4.399   1.123  16.293 -0.6198 -0.0905  0.0123
  361MPD2     H 5407   4.229   0.989  16.612 -0.3015 -0.6722 -0.3308
  361MPD2    H1 5408   4.526   0.963  16.314 -2.6891 -0.1738 -3.9056
  361MPD2    H2 5409   4.254   1.278  16.289  3.2636 -0.8880 -3.8209
  361MPD2    H3 5410   4.455   1.168  16.212 -1.8485  0.0935 -0.7322
  361MPD2     N 5411   4.442   0.871  16.555 -0.2593 -0.2652  0.1831
  361MPD2    H5 5412   4.514   0.811  16.517  0.5813  1.2221 -0.5608
  361MPD2    N1 5413   4.099   1.197  16.499  0.0188 -0.8569  0.1849
  361MPD2    H7 5414   4.057   1.152  16.580 -1.0602  0.6785  0.4736
  362TMC3    C1 5415   3.916   1.331  16.526  0.1397  0.0081 -0.1278
  362TMC3    C2 5416   3.941   1.348  16.659 -0.2989  0.6514 -0.1390
  362TMC3    C3 5417   3.872   1.441  16.733 -0.5850  0.1732 -0.4150
  362TMC3    C4 5418   3.816   1.404  16.469 -1.1920  0.2197 -0.1021
  362TMC3    C5 5419   3.738   1.484  16.546  0.9111 -0.7695 -0.0754
  362TMC3    C6 5420   3.768   1.503  16.677 -0.3500  0.5353 -0.7127
  362TMC3     C 5421   4.024   1.296  16.441 -0.1942 -0.4504 -0.3110
  362TMC3     O 5422   4.026   1.319  16.319  0.2150  0.5967  0.8462
  362TMC3     H 5423   4.023   1.293  16.705  1.0705  1.9264 -1.0616
  362TMC3    H1 5424   3.803   1.396  16.361  1.5148  0.0411 -0.4036
  362TMC3    H2 5425   3.715   1.583  16.728  0.8154  1.1998 -0.5423
  362TMC3    C7 5426   3.691   1.599  16.471  0.2859  0.1683  0.1062
  362TMC3    C8 5427   3.894   1.427  16.876 -0.1348  0.3234 -0.8420
  362TMC3    O1 5428   3.733   1.711  16.502 -0.7477 -0.0779  0.6833
  362TMC3    O2 5429   3.998   1.379  16.920  0.3546  0.0456  0.3121
  363TMC3    C1 5430   3.019   3.025   9.385  0.6069  0.3004  0.9874
  363TMC3    C2 5431   3.076   3.091   9.490  0.1120 -0.4989  1.2240
  363TMC3    C3 5432   3.028   3.213   9.528  0.0480 -0.4165 -0.3306
  363TMC3    C4 5433   2.920   3.074   9.309  0.0225  0.0016 -0.4676
  363TMC3    C5 5434   2.889   3.202   9.346  1.1303 -0.6546 -0.8072
  363TMC3    C6 5435   2.938   3.277   9.452 -0.2287  0.2629 -0.1128
  363TMC3     C 5436   3.063   2.887   9.364 -0.5417  0.6140  0.3032
  363TMC3     O 5437   3.130   2.839   9.453  0.4389 -0.0811  0.0675
  363TMC3     H 5438   3.160   3.050   9.544  2.5221  1.5154 -1.0221
  363TMC3    H1 5439   2.860   3.009   9.245 -0.9494  2.0658 -1.6568
  363TMC3    H2 5440   2.915   3.381   9.470  1.9666  0.3245  2.4560
  363TMC3    C7 5441   2.788   3.271   9.262  0.0683 -0.1499 -0.8037
  363TMC3    C8 5442   3.087   3.292   9.638  0.4842  0.5379 -0.4343
  363TMC3    O1 5443   2.734   3.372   9.307  0.2280  0.1289  0.6555
  363TMC3    O2 5444   3.012   3.371   9.697  0.0593 -0.0105 -0.0144
  364MPD2     C 5445   1.613   2.697  10.112  0.0578 -0.3491  0.3734
  364MPD2    C1 5446   1.566   2.815  10.162 -0.4221 -0.1454  0.2051
  364MPD2    C2 5447   1.574   2.831  10.301  0.0591 -0.0948  0.2425
  364MPD2    C3 5448   1.607   2.728  10.389  0.4995  0.1129 -0.0149
  364MPD2    C4 5449   1.657   2.615  10.327 -1.0157 -0.2966 -0.5236
  364MPD2    C5 5450   1.647   2.595  10.190  0.1711 -0.2976 -0.3518
  364MPD2     H 5451   1.551   2.927  10.347  1.1681  1.2831 -2.0715
  364MPD2    H1 5452   1.677   2.526  10.386  0.0472 -0.1570 -0.6803
  364MPD2    H2 5453   1.600   2.681  10.005  0.3156  1.5283  0.0593
  364MPD2    H3 5454   1.671   2.501  10.142  0.7999  0.8510 -2.2827
  364MPD2     N 5455   1.587   2.729  10.533 -0.0833  0.2231 -0.4048
  364MPD2    H5 5456   1.627   2.649  10.581 -0.8152  1.0224  1.5337
  364MPD2    N1 5457   1.533   2.920  10.073 -0.6514 -0.0776 -0.1597
  364MPD2    H7 5458   1.554   2.908   9.974 -0.1198 -2.6220  0.2622
  365TMC3    C1 5459   1.451   3.121  10.009  0.1564  0.6740  0.3138
  365TMC3    C2 5460   1.547   3.128   9.909  0.0924 -0.5608 -0.9439
  365TMC3    C3 5461   1.570   3.247   9.844  0.8843 -0.2384  0.6425
  365TMC3    C4 5462   1.376   3.231  10.034  0.5422 -0.7973 -0.5936
  365TMC3    C5 5463   1.408   3.349   9.971  0.6497 -0.0555 -0.0255
  365TMC3    C6 5464   1.501   3.357   9.874 -0.6268  0.7592  0.3605
  365TMC3     C 5465   1.465   3.029  10.118  0.5924  0.3045  0.1309
  365TMC3     O 5466   1.428   3.071  10.226 -0.4439 -0.0540 -0.0233
  365TMC3     H 5467   1.611   3.045   9.881 -1.7930 -1.6651 -2.0191
  365TMC3    H1 5468   1.292   3.229  10.102  0.1503  0.7725 -1.0379
  365TMC3    H2 5469   1.524   3.453   9.829  0.3604 -0.2706 -1.3476
  365TMC3    C7 5470   1.400   3.470  10.047 -0.1671 -0.1052  0.5104
  365TMC3    C8 5471   1.671   3.259   9.741  0.9301 -0.6856 -0.2682
  365TMC3    O1 5472   1.399   3.572   9.985  0.5045 -0.5205 -0.0620
  365TMC3    O2 5473   1.691   3.371   9.700 -0.5608  0.0252 -0.2142
  366MPD2     C 5474   4.156   3.821  15.279 -0.0802  1.2013 -0.2636
  366MPD2    C1 5475   4.261   3.880  15.209 -0.3097 -1.1145 -0.6437
  366MPD2    C2 5476   4.360   3.792  15.175 -0.7477 -0.4010 -0.2886
  366MPD2    C3 5477   4.371   3.666  15.230  0.7043  0.1397  0.9275
  366MPD2    C4 5478   4.257   3.609  15.283  0.1215  0.2324  0.5664
  366MPD2    C5 5479   4.146   3.689  15.305 -0.4564  0.0769  0.2703
  366MPD2     H 5480   4.444   3.837  15.124 -2.0870  1.2605 -1.0193
  366MPD2    H1 5481   4.256   3.504  15.308 -0.0360  0.0242 -0.3100
  366MPD2    H2 5482   4.073   3.886  15.305 -0.7712  0.1327  0.1479
  366MPD2    H3 5483   4.053   3.655  15.349 -1.5425  0.6140 -1.6584
  366MPD2     N 5484   4.487   3.593  15.195 -0.2432  0.6268  0.8169
  366MPD2    H5 5485   4.551   3.644  15.136 -0.0033 -0.0952  0.4520
  366MPD2    N1 5486   4.266   4.023  15.175 -0.0353  0.1831 -0.9491
  366MPD2    H7 5487   4.346   4.050  15.119  0.0625  0.3857 -0.7150
  367TMC3    C1 5488   4.202   4.243  15.124 -0.8047 -0.4358 -0.7603
  367TMC3    C2 5489   4.340   4.264  15.116  0.5369  0.0264  0.1667
  367TMC3    C3 5490   4.384   4.367  15.038  0.0611 -0.8225 -0.2429
  367TMC3    C4 5491   4.109   4.327  15.075 -0.0401 -0.3323 -0.1354
  367TMC3    C5 5492   4.156   4.431  14.997 -0.0012  0.8304  0.2870
  367TMC3    C6 5493   4.293   4.453  14.983  0.6159  0.1948 -0.1506
  367TMC3     C 5494   4.156   4.114  15.181  0.5000  0.7059  0.1007
  367TMC3     O 5495   4.036   4.098  15.197  0.1164 -0.4786  0.1221
  367TMC3     H 5496   4.412   4.203  15.168  2.2105  1.7914 -0.0776
  367TMC3    H1 5497   4.002   4.307  15.076  0.1898 -1.6541 -1.6587
  367TMC3    H2 5498   4.338   4.546  14.952 -0.2611  0.5051 -0.4966
  367TMC3    C7 5499   4.071   4.528  14.930  0.5035 -0.2571  0.4221
  367TMC3    C8 5500   4.530   4.394  15.027  0.5258 -0.6154 -0.0256
  367TMC3    O1 5501   4.128   4.615  14.869 -0.4584 -0.6773  0.1248
  367TMC3    O2 5502   4.612   4.332  15.093 -0.1657  0.1853 -0.1119
  368MPD2     C 5503   0.711   1.261  12.856  0.4923  0.2237  1.0194
  368MPD2    C1 5504   0.765   1.385  12.891 -0.2225 -0.5487 -0.5077
  368MPD2    C2 5505   0.897   1.404  12.917  0.0719 -0.7159  0.7709
  368MPD2    C3 5506   0.978   1.297  12.905 -0.7491  0.2755 -0.1613
  368MPD2    C4 5507   0.924   1.171  12.884  0.1945 -0.5552  0.1407
  368MPD2    C5 5508   0.791   1.155  12.852  0.5142 -0.5631 -0.2521
  368MPD2     H 5509   0.931   1.507  12.924  0.6304 -1.1276  3.8251
  368MPD2    H1 5510   0.980   1.079  12.891  0.0051 -0.4964  2.3926
  368MPD2    H2 5511   0.605   1.247  12.837  1.0227  0.3785 -2.0518
  368MPD2    H3 5512   0.758   1.059  12.814 -0.9484  0.3651 -1.3553
  368MPD2     N 5513   1.116   1.303  12.894 -0.0862  0.5531  0.1143
  368MPD2    H5 5514   1.160   1.218  12.859 -2.3647  0.0358 -1.4913
  368MPD2    N1 5515   0.682   1.497  12.866  0.7002 -0.1066 -0.2693
  368MPD2    H7 5516   0.591   1.478  12.823 -0.1550 -4.0785  3.3354
  369TMC3    C1 5517   0.599   1.720  12.841 -0.4468  0.3143 -0.1561
  369TMC3    C2 5518   0.635   1.849  12.815 -0.5509 -0.3579 -0.8579
  369TMC3    C3 5519   0.534   1.935  12.780 -0.3938 -0.2566 -0.8781
  369TMC3    C4 5520   0.470   1.674  12.830  0.0269 -0.1634  0.0072
  369TMC3    C5 5521   0.371   1.767  12.802 -0.0536 -0.6188  0.5757
  369TMC3    C6 5522   0.398   1.896  12.762 -0.5013  0.7186  0.1883
  369TMC3     C 5523   0.706   1.633  12.893  0.0750 -0.2481 -0.1376
  369TMC3     O 5524   0.797   1.682  12.957 -0.4079 -0.2743 -0.2452
  369TMC3     H 5525   0.736   1.885  12.834 -0.8526 -0.0961  0.2047
  369TMC3    H1 5526   0.442   1.572  12.851  1.7253 -0.7283 -0.4782
  369TMC3    H2 5527   0.321   1.965  12.729 -1.9925  0.1836  2.5295
  369TMC3    C7 5528   0.234   1.743  12.838 -0.3322  0.4130  0.0979
  369TMC3    C8 5529   0.569   2.046  12.690 -0.0519  0.1853  0.4207
  369TMC3    O1 5530   0.229   1.648  12.912 -0.1651 -0.2168 -0.9284
  369TMC3    O2 5531   0.472   2.116  12.658  0.6019 -0.4259  0.1778
  370TMC3    C1 5532   0.386   1.826  16.272 -1.0975 -0.4119 -0.0129
  370TMC3    C2 5533   0.327   1.723  16.337  0.6016 -0.1439 -0.3095
  370TMC3    C3 5534   0.311   1.608  16.271 -0.1919  0.0256  0.0745
  370TMC3    C4 5535   0.434   1.812  16.147  0.3742  0.1711 -0.6737
  370TMC3    C5 5536   0.415   1.690  16.086 -0.2578  0.4554  0.1133
  370TMC3    C6 5537   0.346   1.590  16.144 -0.0532  0.4716  0.0996
  370TMC3     C 5538   0.429   1.945  16.349  0.1705  0.0733 -0.2040
  370TMC3     O 5539   0.449   1.925  16.468  0.4106 -0.0487  0.3505
  370TMC3     H 5540   0.321   1.729  16.445 -0.1808  0.9590 -0.4192
  370TMC3    H1 5541   0.484   1.896  16.101  1.4197 -1.4538 -2.5112
  370TMC3    H2 5542   0.317   1.498  16.094 -0.6048  2.1372 -2.6730
  370TMC3    C7 5543   0.474   1.674  15.958 -1.1850 -0.3394  0.2553
  370TMC3    C8 5544   0.269   1.482  16.347  0.4144  0.9072 -0.5415
  370TMC3    O1 5545   0.506   1.776  15.900 -0.2724 -0.0653 -0.0221
  370TMC3    O2 5546   0.271   1.378  16.285  0.0073  0.5028  0.6316
  371TMC3    C1 5547   1.832   0.207  15.245  0.1879  0.7791  0.5035
  371TMC3    C2 5548   1.753   0.220  15.360  0.2400  0.7876  0.5736
  371TMC3    C3 5549   1.708   0.348  15.395 -0.0781 -0.2670  0.0577
  371TMC3    C4 5550   1.869   0.322  15.171  1.3501 -0.8997 -0.0028
  371TMC3    C5 5551   1.826   0.441  15.213  0.5753  0.3272  0.5575
  371TMC3    C6 5552   1.745   0.454  15.322  0.0399 -0.2930  0.0077
  371TMC3     C 5553   1.896   0.082  15.222 -0.0898  0.2909 -0.2319
  371TMC3     O 5554   1.996   0.081  15.148 -0.6128 -0.6526  0.2771
  371TMC3     H 5555   1.724   0.134  15.419  0.6920  0.4510  0.3040
  371TMC3    H1 5556   1.932   0.311  15.083  1.6114 -0.7981  0.1721
  371TMC3    H2 5557   1.720   0.556  15.350 -0.6159 -0.7870  1.2160
  371TMC3    C7 5558   1.879   0.570  15.160  0.4363 -0.0410 -0.2706
  371TMC3    C8 5559   1.674   0.353  15.529  0.7142  0.0541 -0.2148
  371TMC3    O1 5560   1.808   0.665  15.166 -0.2201 -0.7178  0.1505
  371TMC3    O2 5561   1.701   0.261  15.604 -0.2536  0.3403  0.6336
  372MPD2     C 5562   1.600   1.714  12.959 -0.1160  0.6286  0.1453
  372MPD2    C1 5563   1.648   1.602  13.020  0.2540  0.0619  0.0913
  372MPD2    C2 5564   1.561   1.529  13.093  0.3400  0.0980 -0.6204
  372MPD2    C3 5565   1.427   1.567  13.107 -0.2127 -0.3100  0.2449
  372MPD2    C4 5566   1.385   1.686  13.050 -0.0229 -0.2221  0.4619
  372MPD2    C5 5567   1.473   1.749  12.969 -0.1066  0.0196  0.2851
  372MPD2     H 5568   1.591   1.433  13.134  0.4625 -0.4021 -1.8718
  372MPD2    H1 5569   1.283   1.722  13.046  0.0982  0.3163  2.1734
  372MPD2    H2 5570   1.669   1.770  12.897 -0.4306 -1.0140 -1.6616
  372MPD2    H3 5571   1.442   1.840  12.919 -0.9089  0.2724  1.2264
  372MPD2     N 5572   1.344   1.477  13.173 -0.5942 -0.1720  0.0742
  372MPD2    H5 5573   1.389   1.390  13.198 -0.9701 -0.3929 -0.0298
  372MPD2    N1 5574   1.784   1.555  13.010 -0.4336  0.4961 -0.4849
  372MPD2    H7 5575   1.820   1.491  13.080 -2.5801 -0.7779 -0.5397
  373TMC3    C1 5576   1.139   1.417  13.297  0.1420 -0.2684  0.5824
  373TMC3    C2 5577   1.065   1.451  13.408  0.4100 -0.6581 -0.5976
  373TMC3    C3 5578   1.008   1.353  13.489 -0.9807 -0.2824 -0.4036
  373TMC3    C4 5579   1.160   1.289  13.259 -0.1488 -0.7039 -0.0023
  373TMC3    C5 5580   1.107   1.193  13.339 -0.3086 -0.8179  0.2069
  373TMC3    C6 5581   1.026   1.223  13.441 -0.2585 -0.5248  0.7455
  373TMC3     C 5582   1.219   1.517  13.223 -0.4473  0.2114  0.0323
  373TMC3     O 5583   1.183   1.632  13.240 -0.1480  0.0122  0.1088
  373TMC3     H 5584   1.056   1.558  13.420  0.4540 -0.6359 -0.7738
  373TMC3    H1 5585   1.224   1.271  13.174 -0.0709 -0.7125  0.0586
  373TMC3    H2 5586   0.994   1.139  13.502  1.0557 -1.6173 -0.0615
  373TMC3    C7 5587   1.181   1.067  13.347  0.0703  0.0981  0.1866
  373TMC3    C8 5588   1.054   1.351  13.626 -0.0152  0.8042  0.3234
  373TMC3    O1 5589   1.213   1.013  13.241 -0.6168  0.4005  0.0203
  373TMC3    O2 5590   1.114   1.249  13.660 -1.4618  0.5647  0.5397
  374TMC3    C1 5591   2.566   1.501   9.787 -1.0726  0.2140  0.1932
  374TMC3    C2 5592   2.554   1.624   9.727 -0.1304 -0.3790  0.1448
  374TMC3    C3 5593   2.427   1.681   9.726 -1.2006  0.4295 -0.3340
  374TMC3    C4 5594   2.460   1.429   9.847  0.0109 -0.0798  0.0491
  374TMC3    C5 5595   2.335   1.490   9.831  0.4666  0.3093 -0.1010
  374TMC3    C6 5596   2.313   1.610   9.770 -0.5862 -0.1591 -0.5206
  374TMC3     C 5597   2.698   1.451   9.801  0.9939 -0.8081 -0.0775
  374TMC3     O 5598   2.789   1.528   9.786  0.4389 -0.5896 -0.1525
  374TMC3     H 5599   2.637   1.685   9.693  2.1397 -3.5514 -0.0521
  374TMC3    H1 5600   2.470   1.341   9.909  1.8896 -0.9317 -1.4508
  374TMC3    H2 5601   2.217   1.640   9.728 -0.6206 -1.0498 -1.0971
  374TMC3    C7 5602   2.226   1.418   9.880 -0.3599 -0.5379 -0.1215
  374TMC3    C8 5603   2.420   1.826   9.752  0.3560  0.5221 -0.0658
  374TMC3    O1 5604   2.237   1.295   9.888  0.0162 -0.1590  0.3336
  374TMC3    O2 5605   2.347   1.901   9.683 -0.0516 -0.0425 -0.1680
  375MPD2     C 5606   1.805   2.161  17.320 -0.1475  0.0461  0.1262
  375MPD2    C1 5607   1.702   2.157  17.223  0.4151 -0.2262  0.6355
  375MPD2    C2 5608   1.744   2.129  17.095 -0.0744 -0.3761 -0.3963
  375MPD2    C3 5609   1.867   2.075  17.063  0.6285 -0.2137  0.4682
  375MPD2    C4 5610   1.960   2.068  17.161 -0.3142  0.5857  0.3166
  375MPD2    C5 5611   1.927   2.109  17.287 -0.4110  0.0636  0.0916
  375MPD2     H 5612   1.666   2.132  17.020 -0.3092 -0.6529 -0.1636
  375MPD2    H1 5613   2.063   2.037  17.146 -1.4276 -3.5399  1.3771
  375MPD2    H2 5614   1.782   2.180  17.425 -3.2904 -1.3070 -0.2956
  375MPD2    H3 5615   1.995   2.104  17.371  0.7539 -1.5804 -0.9379
  375MPD2     N 5616   1.898   2.050  16.923  0.3882 -0.3218  0.6298
  375MPD2    H5 5617   1.827   2.078  16.855  1.6996  0.1203 -0.5544
  375MPD2    N1 5618   1.566   2.179  17.251  0.5452  0.0860  0.3308
  375MPD2    H7 5619   1.495   2.176  17.178  2.3815  1.0764 -1.4653
  376TMC3    C1 5620   2.050   2.008  16.737 -0.7688  0.3530 -0.1855
  376TMC3    C2 5621   2.182   2.027  16.714 -0.3596  0.3868  0.4256
  376TMC3    C3 5622   2.206   2.098  16.601 -0.6292  0.5925 -0.5542
  376TMC3    C4 5623   1.950   2.052  16.648  0.2839 -0.3789  0.5970
  376TMC3    C5 5624   1.991   2.108  16.528  0.9755 -0.1391  0.5211
  376TMC3    C6 5625   2.119   2.139  16.509 -0.1424 -0.2236  0.4486
  376TMC3     C 5626   2.014   1.991  16.879 -0.2391 -0.5710  0.0104
  376TMC3     O 5627   2.096   1.928  16.946 -0.5691  0.4627  0.3247
  376TMC3     H 5628   2.252   1.999  16.791  0.8546 -0.5190 -0.9970
  376TMC3    H1 5629   1.852   2.010  16.666  1.0538 -1.2767  2.6713
  376TMC3    H2 5630   2.147   2.200  16.424 -0.8845 -0.8545 -0.2596
  376TMC3    C7 5631   1.895   2.161  16.429  0.1388  0.1884  0.4296
  376TMC3    C8 5632   2.341   2.083  16.549 -0.1641  0.8439 -0.4194
  376TMC3    O1 5633   1.949   2.181  16.320 -0.0379 -0.0937 -0.0576
  376TMC3    O2 5634   2.357   2.107  16.430 -0.9052 -0.2904  0.2356
  377MPD2     C 5635   0.024   1.942  12.230 -0.5090 -0.1367 -0.2281
  377MPD2    C1 5636   0.086   1.876  12.333 -0.3420 -0.3074 -0.5193
  377MPD2    C2 5637   0.005   1.802  12.417  1.1563 -0.4988 -0.0422
  377MPD2    C3 5638   4.591   1.797  12.387 -0.0972 -0.4110  0.1224
  377MPD2    C4 5639   4.534   1.877  12.297  0.2752  0.4369  0.0794
  377MPD2    C5 5640   4.615   1.945  12.221 -0.6991  0.1334 -0.1251
  377MPD2     H 5641   0.043   1.755  12.507  0.3249  0.3111  0.7320
  377MPD2    H1 5642   4.428   1.879  12.274 -0.1655 -1.5182  1.8902
  377MPD2    H2 5643   0.088   1.994  12.160 -0.6876  0.0169 -0.2769
  377MPD2    H3 5644   4.577   2.004  12.139 -1.7155 -1.0820 -0.5146
  377MPD2     N 5645   4.500   1.725  12.468  0.5805  0.2944 -0.1998
  377MPD2    H5 5646   4.401   1.740  12.450  0.5551 -2.6379 -2.6215
  377MPD2    N1 5647   0.226   1.875  12.339 -0.4436  0.6109  0.2027
  377MPD2    H7 5648   0.274   1.941  12.278  0.5120  1.3146  1.7259
  378TMC3    C1 5649   0.620   1.887  12.253  0.3103 -0.8297 -0.5141
  378TMC3    C2 5650   0.493   1.918  12.307  0.6786 -0.3123  0.1518
  378TMC3    C3 5651   0.450   1.832  12.406  0.0834 -0.6422 -0.7788
  378TMC3    C4 5652   0.700   1.786  12.298  0.4497 -0.3018 -0.6297
  378TMC3    C5 5653   0.647   1.708  12.395  0.5201 -0.6488 -0.5317
  378TMC3    C6 5654   0.528   1.736  12.456 -0.3597 -0.2849 -0.0261
  378TMC3     C 5655   0.666   1.991  12.161 -0.5215  1.0140 -0.0666
  378TMC3     O 5656   0.583   2.076  12.129 -0.5208  0.2188  0.1609
  378TMC3     H 5657   0.430   1.997  12.267  1.3857 -1.1499 -2.5610
  378TMC3    H1 5658   0.801   1.770  12.261  0.9391 -0.1384  0.6381
  378TMC3    H2 5659   0.495   1.680  12.542  0.4165 -0.3033  0.2571
  378TMC3    C7 5660   0.725   1.587  12.438  0.4770 -0.4531  0.2478
  378TMC3    C8 5661   0.309   1.811  12.436 -0.4494 -0.4212 -0.4466
  378TMC3    O1 5662   0.671   1.503  12.510  0.1687  0.2654  0.3544
  378TMC3    O2 5663   0.282   1.730  12.522 -0.1074 -0.1668 -0.4418
  379MPD2     C 5664   0.417   4.346  15.497 -0.0998 -0.1189  0.2721
  379MPD2    C1 5665   0.506   4.264  15.430  0.4120 -0.2456 -0.2586
  379MPD2    C2 5666   0.585   4.182  15.516 -0.1356  0.2890  0.4060
  379MPD2    C3 5667   0.582   4.183  15.653  0.1992  0.4614 -0.3616
  379MPD2    C4 5668   0.479   4.258  15.703 -0.4187 -0.1336 -0.2321
  379MPD2    C5 5669   0.401   4.339  15.631  0.4601  1.1345  0.2461
  379MPD2     H 5670   0.659   4.121  15.467  0.4991 -0.1848  1.9384
  379MPD2    H1 5671   0.458   4.259  15.809 -2.3946  0.6912 -0.6176
  379MPD2    H2 5672   0.341   4.406  15.447  2.7953  2.6478 -0.8024
  379MPD2    H3 5673   0.322   4.395  15.681 -0.6267 -1.2915  1.2464
  379MPD2     N 5674   0.671   4.097  15.729 -0.3735  0.4638 -0.1246
  379MPD2    H5 5675   0.652   4.094  15.828  1.3486 -1.4626  0.1500
  379MPD2    N1 5676   0.522   4.278  15.287  0.0186  0.0594 -0.6359
  379MPD2    H7 5677   0.480   4.358  15.242 -0.2826  0.4446  0.3193
  380TMC3    C1 5678   0.605   4.221  15.076 -0.2470 -0.7387  0.1475
  380TMC3    C2 5679   0.731   4.218  15.025  0.5455  0.6488  0.0977
  380TMC3    C3 5680   0.754   4.269  14.902 -0.0638  0.0467 -0.5785
  380TMC3    C4 5681   0.501   4.287  15.018  0.8994 -0.0089 -1.2961
  380TMC3    C5 5682   0.525   4.319  14.888 -0.0293  0.2327  0.5443
  380TMC3    C6 5683   0.650   4.318  14.833  0.0634 -0.2875 -0.5211
  380TMC3     C 5684   0.595   4.187  15.211 -0.8171  0.0431 -0.2403
  380TMC3     O 5685   0.659   4.088  15.247  0.6554 -0.5398  0.3205
  380TMC3     H 5686   0.820   4.177  15.073  0.7588  0.4713 -0.4533
  380TMC3    H1 5687   0.401   4.287  15.061  1.9647  2.9724  1.1762
  380TMC3    H2 5688   0.664   4.355  14.732 -1.1131  1.5873 -0.0016
  380TMC3    C7 5689   0.430   4.405  14.827  0.1016 -0.2604 -0.8417
  380TMC3    C8 5690   0.876   4.328  14.875 -0.8516 -0.1469 -0.4291
  380TMC3    O1 5691   0.473   4.478  14.738 -0.2106 -0.0600 -0.0190
  380TMC3    O2 5692   0.930   4.377  14.975 -0.4792 -0.2571  0.2202
  381TMC3    C1 5693   0.456   0.816  16.046 -0.4967  0.4174  0.3327
  381TMC3    C2 5694   0.540   0.920  16.073 -0.0870  0.5542 -0.1062
  381TMC3    C3 5695   0.502   1.013  16.160  0.3265  0.0350 -0.4832
  381TMC3    C4 5696   0.337   0.794  16.118  0.1840  0.3010 -0.5801
  381TMC3    C5 5697   0.303   0.884  16.214 -0.8487  0.5158 -0.5618
  381TMC3    C6 5698   0.384   0.998  16.231  0.2273 -0.1863  0.1606
  381TMC3     C 5699   0.491   0.707  15.946 -0.0119  0.2349  0.3722
  381TMC3     O 5700   0.579   0.727  15.863 -0.2830 -1.1948 -0.7632
  381TMC3     H 5701   0.619   0.930  15.998  0.0345 -0.1229 -0.0718
  381TMC3    H1 5702   0.265   0.716  16.098  1.3637 -0.9944  0.1637
  381TMC3    H2 5703   0.354   1.068  16.308  1.8564 -0.9500  1.4960
  381TMC3    C7 5704   0.269   0.818  16.337 -0.2149  0.3473  0.3928
  381TMC3    C8 5705   0.599   1.119  16.184  0.5579  0.3354  0.7552
  381TMC3    O1 5706   0.304   0.697  16.354  0.5894  0.4991 -0.0570
  381TMC3    O2 5707   0.692   1.129  16.100  0.4439  0.4066 -0.1661
  382MPD2     C 5708   0.013   3.388  16.990 -0.0219  0.4790  0.3262
  382MPD2    C1 5709   4.674   3.428  17.103  0.5805  0.4042 -0.5495
  382MPD2    C2 5710   4.631   3.338  17.193 -0.3845 -0.3980 -0.3803
  382MPD2    C3 5711   4.633   3.203  17.162 -0.9825 -0.3722  0.0232
  382MPD2    C4 5712   4.684   3.161  17.042  0.9623  0.5867 -0.1979
  382MPD2    C5 5713   0.019   3.253  16.959 -0.3787 -0.1809  0.2368
  382MPD2     H 5714   4.598   3.376  17.289 -0.1274  1.0058 -0.8455
  382MPD2    H1 5715   4.678   3.055  17.020 -2.0080  0.6852  0.2020
  382MPD2    H2 5716   0.043   3.466  16.921 -0.6692 -1.2042 -1.8877
  382MPD2    H3 5717   0.072   3.212  16.874  3.7618 -0.0156  2.7346
  382MPD2     N 5718   4.560   3.118  17.242  0.5767 -0.1481 -0.0272
  382MPD2    H5 5719   4.549   3.025  17.204 -0.0508 -0.9722  2.1826
  382MPD2    N1 5720   4.647   3.561  17.136 -0.3907  0.9778  0.0638
  382MPD2    H7 5721   4.628   3.586  17.233 -0.6687 -0.4670  0.3732
  383TMC3    C1 5722   4.424   3.042  17.416 -0.0772  0.6397  0.0390
  383TMC3    C2 5723   4.388   2.941  17.330 -0.3817  0.0442  0.4697
  383TMC3    C3 5724   4.310   2.844  17.387  0.7667 -0.2216 -0.5114
  383TMC3    C4 5725   4.393   3.042  17.549  0.1946 -0.8998  0.3794
  383TMC3    C5 5726   4.328   2.934  17.602 -0.1521  0.3348 -0.1993
  383TMC3    C6 5727   4.287   2.838  17.518  0.1970 -0.1994 -0.6876
  383TMC3     C 5728   4.506   3.148  17.369 -0.3992  0.1596  0.3131
  383TMC3     O 5729   4.505   3.250  17.434  0.5426 -0.6135  0.2983
  383TMC3     H 5730   4.429   2.914  17.233  0.5950 -2.4017  1.5652
  383TMC3    H1 5731   4.424   3.124  17.613 -2.1178  1.6038 -1.6602
  383TMC3    H2 5732   4.211   2.773  17.560  1.5603 -0.4827  1.3387
  383TMC3    C7 5733   4.297   2.914   0.038  0.1547 -0.8132 -0.5998
  383TMC3    C8 5734   4.220   2.774  17.299  0.8748  0.3831 -0.5199
  383TMC3    O1 5735   4.228   2.818   0.075 -0.0208 -0.4945 -0.0500
  383TMC3    O2 5736   4.199   2.834  17.196 -0.1727  0.3586  0.2321
  384MPD2     C 5737   1.249   0.188  11.547 -0.8938  0.0464 -0.2529
  384MPD2    C1 5738   1.216   0.065  11.591  1.2183 -0.3351  0.0150
  384MPD2    C2 5739   1.267   4.674  11.541 -0.2215 -0.1062 -0.4418
  384MPD2    C3 5740   1.367   4.687  11.446  0.3101  0.0785 -0.3229
  384MPD2    C4 5741   1.413   0.087  11.409 -0.0457  0.5978  0.0881
  384MPD2    C5 5742   1.348   0.198  11.457 -0.8455  0.2573  0.4433
  384MPD2     H 5743   1.243   4.581  11.592  1.1314 -0.2280 -0.0200
  384MPD2    H1 5744   1.486   0.096  11.329  2.3735 -1.8208  2.0137
  384MPD2    H2 5745   1.200   0.276  11.589 -1.6033 -0.0669 -0.8461
  384MPD2    H3 5746   1.378   0.296  11.422  2.5128 -0.5683  1.0765
  384MPD2     N 5747   1.441   4.575  11.395 -0.4749  0.3577  0.4021
  384MPD2    H5 5748   1.528   4.582  11.344 -2.2066 -1.0685 -2.7640
  384MPD2    N1 5749   1.117   0.060  11.686  0.4967  0.0928  0.1100
  384MPD2    H7 5750   1.093   0.148  11.730 -1.1922  0.1454 -0.9134
  385TMC3    C1 5751   1.526   4.370  11.462  0.5071  0.3544 -0.1983
  385TMC3    C2 5752   1.504   4.232  11.494 -0.0597 -0.2533 -0.5186
  385TMC3    C3 5753   1.565   4.168  11.601 -0.4703  0.4597  0.3748
  385TMC3    C4 5754   1.613   4.438  11.542  0.2241 -0.4280 -0.1363
  385TMC3    C5 5755   1.650   4.379  11.664  0.6110 -0.0637  0.0950
  385TMC3    C6 5756   1.635   4.246  11.694 -0.5353  0.3766 -0.0050
  385TMC3     C 5757   1.406   4.449  11.437 -0.1095 -0.1740  0.5536
  385TMC3     O 5758   1.302   4.395  11.467 -0.0046  0.0835 -0.3491
  385TMC3     H 5759   1.427   4.178  11.440 -1.5846  2.9740 -1.5800
  385TMC3    H1 5760   1.629   4.545  11.529  3.0083 -0.6850  1.1740
  385TMC3    H2 5761   1.678   4.203  11.784  0.3960  2.8053  0.7096
  385TMC3    C7 5762   1.613   4.473  11.770 -0.2282  0.2145  0.3746
  385TMC3    C8 5763   1.578   4.027  11.616 -0.4620  0.3945 -0.2825
  385TMC3    O1 5764   1.552   4.575  11.735  0.7746  0.4983  0.2782
  385TMC3    O2 5765   1.633   3.994  11.719  0.4439  0.5090 -0.1163
  386TMC3    C1 5766   1.406   2.794  11.777  0.4512 -0.0542 -0.3086
  386TMC3    C2 5767   1.436   2.733  11.657 -0.4485 -0.3210  0.4855
  386TMC3    C3 5768   1.331   2.710  11.576  0.0128 -0.4207 -0.5725
  386TMC3    C4 5769   1.283   2.843  11.802  0.2629 -0.7876 -0.1829
  386TMC3    C5 5770   1.179   2.832  11.714 -0.4825 -0.1555 -0.0658
  386TMC3    C6 5771   1.204   2.753  11.605  0.2991 -0.0409 -0.5712
  386TMC3     C 5772   1.518   2.847  11.855 -0.0570  0.0027 -0.5020
  386TMC3     O 5773   1.515   2.969  11.875 -0.2191 -0.1535 -0.5340
  386TMC3     H 5774   1.536   2.698  11.632 -0.6380  1.2829 -2.4946
  386TMC3    H1 5775   1.280   2.893  11.898 -0.7444  1.9307 -1.6427
  386TMC3    H2 5776   1.133   2.714  11.533 -0.9774  1.3464 -0.0748
  386TMC3    C7 5777   1.038   2.844  11.761  0.2555 -0.5623 -0.4713
  386TMC3    C8 5778   1.343   2.598  11.478  0.1499 -0.2414 -0.4776
  386TMC3    O1 5779   1.023   2.872  11.879  0.2146  0.1402  0.4281
  386TMC3    O2 5780   1.255   2.585  11.392  0.3383 -0.6384  0.1202
  387MPD2     C 5781   4.170   2.299   9.480  0.1868  1.2081 -0.1473
  387MPD2    C1 5782   4.235   2.274   9.597  0.4225 -0.7378 -0.3551
  387MPD2    C2 5783   4.268   2.145   9.634  0.3073 -0.1709  0.2256
  387MPD2    C3 5784   4.236   2.034   9.559  0.3002  0.8136  0.0141
  387MPD2    C4 5785   4.179   2.058   9.439 -0.0172 -0.2739 -0.4173
  387MPD2    C5 5786   4.148   2.184   9.400  0.4079 -0.4597  0.5327
  387MPD2     H 5787   4.332   2.132   9.720  0.2531 -1.5141  0.0677
  387MPD2    H1 5788   4.155   1.985   9.362 -0.3046 -1.0622  0.4296
  387MPD2    H2 5789   4.139   2.402   9.464 -1.8717  0.4602 -0.9413
  387MPD2    H3 5790   4.091   2.201   9.309 -0.1804 -3.2137  0.3840
  387MPD2     N 5791   4.274   1.906   9.610 -0.1741  0.6138  0.2352
  387MPD2    H5 5792   4.336   1.901   9.690  0.0677  0.4054  0.0318
  387MPD2    N1 5793   4.286   2.366   9.690  0.1468  0.0599  0.0325
  387MPD2    H7 5794   4.346   2.326   9.762 -1.1428 -0.3699  0.8731
  388TMC3    C1 5795   4.285   2.543   9.829  0.2052 -0.2691 -0.4828
  388TMC3    C2 5796   4.307   2.677   9.848  0.2611 -0.0784  0.6087
  388TMC3    C3 5797   4.299   2.718   9.976  0.3420  0.1842 -0.6062
  388TMC3    C4 5798   4.271   2.453   9.934  0.6617 -0.4810  0.3503
  388TMC3    C5 5799   4.279   2.498  10.060  0.5740  0.4030 -0.3561
  388TMC3    C6 5800   4.281   2.631  10.081  0.1627  0.1788 -0.2554
  388TMC3     C 5801   4.265   2.495   9.692  0.7564 -0.5506 -0.3445
  388TMC3     O 5802   4.212   2.571   9.613  0.2139 -0.1706  0.4495
  388TMC3     H 5803   4.330   2.733   9.759  1.2556  0.8918  1.4709
  388TMC3    H1 5804   4.247   2.350   9.914 -4.1271  0.8189 -0.5970
  388TMC3    H2 5805   4.255   2.672  10.178  2.0542 -0.5088  0.5524
  388TMC3    C7 5806   4.301   2.401  10.168 -0.3728 -0.5865 -0.3184
  388TMC3    C8 5807   4.332   2.863   9.998 -0.5955 -0.5247 -0.3097
  388TMC3    O1 5808   4.277   2.429  10.285  0.0766 -0.2927 -0.3663
  388TMC3    O2 5809   4.326   2.932   9.901 -0.1565 -0.3711  0.9974
  389MPD2     C 5810   3.231   0.819  10.492  0.3216  0.5177  0.2095
  389MPD2    C1 5811   3.220   0.698  10.426  0.0427 -0.0044 -0.0211
  389MPD2    C2 5812   3.163   0.590  10.489 -0.3488 -0.3981 -0.1290
  389MPD2    C3 5813   3.110   0.591  10.614  0.2388  0.6848  0.1393
  389MPD2    C4 5814   3.121   0.711  10.679  0.4041 -0.2306 -0.1308
  389MPD2    C5 5815   3.183   0.817  10.617  0.9022 -0.1253  0.0439
  389MPD2     H 5816   3.146   0.505  10.424  2.7460  0.6850 -2.3556
  389MPD2    H1 5817   3.090   0.733  10.781  0.3061 -0.5935 -0.0816
  389MPD2    H2 5818   3.270   0.907  10.443  0.1250 -0.5814 -1.9055
  389MPD2    H3 5819   3.181   0.910  10.672  2.9724  0.7877 -1.3983
  389MPD2     N 5820   3.053   0.477  10.681 -0.2398  0.0927 -0.2709
  389MPD2    H5 5821   3.045   0.496  10.781  3.7179  0.7068 -0.0374
  389MPD2    N1 5822   3.289   0.694  10.300 -0.7359 -0.1017 -1.1393
  389MPD2    H7 5823   3.330   0.776  10.258 -0.0698  0.4184  0.5207
  390TMC3    C1 5824   3.028   0.259  10.734  0.0848 -0.4038  0.5512
  390TMC3    C2 5825   2.945   0.153  10.713 -0.2934 -0.4345  0.1152
  390TMC3    C3 5826   2.896   0.085  10.816 -0.3005  0.0086  0.4884
  390TMC3    C4 5827   3.067   0.295  10.863 -0.0630 -0.3301  0.2104
  390TMC3    C5 5828   3.002   0.229  10.963 -0.1732  0.2873 -0.9440
  390TMC3    C6 5829   2.923   0.118  10.943 -0.3962 -0.0551  0.8337
  390TMC3     C 5830   3.048   0.355  10.627  0.3329 -0.6424 -0.8484
  390TMC3     O 5831   3.030   0.316  10.514 -0.0040 -0.1800 -0.1239
  390TMC3     H 5832   2.912   0.133  10.612  1.5234  0.5053 -0.6660
  390TMC3    H1 5833   3.133   0.379  10.881  2.9504 -2.2252 -1.8684
  390TMC3    H2 5834   2.885   0.068  11.032 -0.3631 -1.7313 -0.0951
  390TMC3    C7 5835   3.067   0.259  11.094  0.5086 -0.4156 -0.1771
  390TMC3    C8 5836   2.825   4.689  10.794  0.3861  0.1956  0.2228
  390TMC3    O1 5837   3.178   0.311  11.085 -0.0192 -0.0717 -0.1521
  390TMC3    O2 5838   2.835   4.651  10.678  0.0022  0.4606 -0.0700
  391MPD2     C 5839   2.874   1.809  11.318  0.1156  0.4164  0.1705
  391MPD2    C1 5840   3.002   1.832  11.258 -1.0415  0.1843  0.1128
  391MPD2    C2 5841   3.008   1.858  11.120  0.4585 -0.1606 -0.3882
  391MPD2    C3 5842   2.888   1.848  11.039 -0.0300  0.1169  0.3845
  391MPD2    C4 5843   2.771   1.809  11.100  0.5911 -0.1932 -0.1215
  391MPD2    C5 5844   2.770   1.787  11.232  0.1984  0.4910 -0.0206
  391MPD2     H 5845   3.106   1.868  11.075  1.3604  0.7666  1.7868
  391MPD2    H1 5846   2.677   1.801  11.047 -0.0793 -0.5887  1.1460
  391MPD2    H2 5847   2.859   1.797  11.425  0.5970 -1.0095  0.0752
  391MPD2    H3 5848   2.679   1.751  11.280 -1.0738  3.6224 -0.0850
  391MPD2     N 5849   2.896   1.900  10.909 -0.1512  0.8595  0.1580
  391MPD2    H5 5850   2.984   1.940  10.879 -0.0159  0.7985  0.4805
  391MPD2    N1 5851   3.115   1.855  11.348 -0.1758  0.2704  0.5209
  391MPD2    H7 5852   3.092   1.870  11.446  0.1251  0.7857  0.5131
  392TMC3    C1 5853   2.814   1.976  10.696  0.1084 -0.6289  0.4009
  392TMC3    C2 5854   2.728   1.951  10.591 -0.0911  1.0690  0.0365
  392TMC3    C3 5855   2.738   2.031  10.478 -0.4179  0.2707  0.2709
  392TMC3    C4 5856   2.895   2.091  10.697  0.1638 -0.3614 -1.4120
  392TMC3    C5 5857   2.902   2.162  10.577 -0.0577  0.0309 -0.3215
  392TMC3    C6 5858   2.819   2.144  10.468  0.4895 -0.1871  0.8086
  392TMC3     C 5859   2.791   1.907  10.819  0.2846  0.1544 -0.6204
  392TMC3     O 5860   2.684   1.850  10.815 -0.5313  0.2792 -0.0182
  392TMC3     H 5861   2.666   1.862  10.588  0.1440  0.9090 -0.1197
  392TMC3    H1 5862   2.962   2.114  10.779  1.5504 -0.4016 -2.5366
  392TMC3    H2 5863   2.819   2.201  10.376 -1.5266 -1.8060 -0.2114
  392TMC3    C7 5864   2.980   2.281  10.573 -0.0781  0.4990  0.4177
  392TMC3    C8 5865   2.668   1.985  10.363 -0.8826 -0.0470  0.5164
  392TMC3    O1 5866   3.016   2.337  10.678 -0.1584  0.3482 -0.1352
  392TMC3    O2 5867   2.640   1.867  10.347 -1.0194 -0.5032  0.9865
  393TMC3    C1 5868   1.663   4.704   9.739 -0.0694  0.2788 -0.4301
  393TMC3    C2 5869   1.541   4.679   9.797 -0.2481 -0.3926  0.1615
  393TMC3    C3 5870   1.520   4.554   9.859  0.2204 -0.2571 -0.2213
  393TMC3    C4 5871   1.764   4.612   9.745  0.0987 -0.1442 -0.3477
  393TMC3    C5 5872   1.736   4.490   9.799 -0.5102  0.4046  0.5262
  393TMC3    C6 5873   1.617   4.463   9.854 -0.0524  0.3651 -0.3926
  393TMC3     C 5874   1.711   0.103   9.775 -0.0161  1.1859 -0.1629
  393TMC3     O 5875   1.653   0.153   9.872 -0.8596  0.4102 -0.5468
  393TMC3     H 5876   1.453   0.017   9.796  0.8806  1.1343 -2.9807
  393TMC3    H1 5877   1.858   4.627   9.695 -0.3067 -0.4476 -1.1920
  393TMC3    H2 5878   1.598   4.366   9.898  1.3093 -0.1486 -0.9251
  393TMC3    C7 5879   1.846   4.403   9.838  0.2057 -0.0502 -0.6704
  393TMC3    C8 5880   1.411   4.551   9.957 -0.4777  0.2181  1.4955
  393TMC3    O1 5881   1.846   4.280   9.823 -0.3335  0.2297  0.1938
  393TMC3    O2 5882   1.347   4.652   9.983 -0.6279  0.0269 -0.1219
  394TMC3    C1 5883   3.373   0.598  10.102  0.2044  0.1995  0.0860
  394TMC3    C2 5884   3.339   0.512  10.002  0.0567  0.5780 -0.0338
  394TMC3    C3 5885   3.399   0.524   9.881 -0.4855 -0.0757  0.3730
  394TMC3    C4 5886   3.460   0.695  10.081  0.9009  0.3263 -0.2740
  394TMC3    C5 5887   3.526   0.710   9.963 -0.2623 -0.5836 -0.1520
  394TMC3    C6 5888   3.498   0.616   9.862  0.1860  0.1799 -0.3833
  394TMC3     C 5889   3.297   0.580  10.223  0.0528 -0.3414  0.1840
  394TMC3     O 5890   3.260   0.466  10.236 -0.3430  0.1917  0.4604
  394TMC3     H 5891   3.240   0.468  10.008 -0.7671  2.3402 -0.9870
  394TMC3    H1 5892   3.493   0.751  10.169  0.5599  3.1714 -1.9656
  394TMC3    H2 5893   3.553   0.628   9.769  2.9190 -2.8481  0.8618
  394TMC3    C7 5894   3.662   0.735   9.988  0.0064  0.3732  0.2725
  394TMC3    C8 5895   3.338   0.461   9.764  0.0091 -0.7861 -0.3804
  394TMC3    O1 5896   3.717   0.835   9.942 -0.6493 -0.0363 -0.4273
  394TMC3    O2 5897   3.379   0.506   9.660 -0.4977  0.0337 -0.0569
  395TMC3    C1 5898   2.708   1.902  14.812  0.0821  0.1374 -0.3819
  395TMC3    C2 5899   2.653   1.875  14.688 -0.3003  0.4800 -0.5970
  395TMC3    C3 5900   2.707   1.938  14.584  0.4756  0.5091  0.7918
  395TMC3    C4 5901   2.803   2.003  14.831  0.1195  0.6131 -0.6611
  395TMC3    C5 5902   2.862   2.056  14.723 -0.4210 -0.2503  0.0673
  395TMC3    C6 5903   2.808   2.034  14.601 -0.7607  0.0880  0.5914
  395TMC3     C 5904   2.613   1.882  14.922 -0.4599 -0.2509 -1.0529
  395TMC3     O 5905   2.595   1.972  15.002 -0.1833  0.2430 -0.3394
  395TMC3     H 5906   2.561   1.818  14.681 -1.2291  2.0634 -1.3181
  395TMC3    H1 5907   2.822   2.050  14.927 -1.9789  1.1297 -0.4976
  395TMC3    H2 5908   2.859   2.081  14.517 -5.6136  1.0540 -1.8521
  395TMC3    C7 5909   2.957   2.163  14.740  0.4039 -0.7036  0.4820
  395TMC3    C8 5910   2.651   1.922  14.457  0.8091  1.0570  0.2049
  395TMC3    O1 5911   2.925   2.245  14.828  0.1198  0.0851  0.0290
  395TMC3    O2 5912   2.644   2.021  14.394  0.0645 -0.0812 -0.0915
  396MPD2     C 5913   2.526   2.611  16.989 -0.1602  0.0987 -0.3895
  396MPD2    C1 5914   2.651   2.671  16.968  0.2360  0.2738  0.2370
  396MPD2    C2 5915   2.649   2.807  16.942 -0.5402 -0.7743 -1.1065
  396MPD2    C3 5916   2.530   2.876  16.935  0.1330  0.1632 -0.8852
  396MPD2    C4 5917   2.408   2.805  16.949 -0.3858 -0.4696  0.0680
  396MPD2    C5 5918   2.413   2.674  16.984  0.3103 -0.0705  0.1570
  396MPD2     H 5919   2.736   2.870  16.924  0.5765 -2.3218 -1.1397
  396MPD2    H1 5920   2.311   2.854  16.949 -0.7181 -1.1493  1.1847
  396MPD2    H2 5921   2.525   2.506  17.015 -0.7465 -0.0956 -1.1770
  396MPD2    H3 5922   2.325   2.616  17.009  1.5155 -1.1265  1.9413
  396MPD2     N 5923   2.545   3.015  16.900  0.5589 -0.4952  0.0291
  396MPD2    H5 5924   2.637   3.050  16.879 -0.4807  1.0906 -1.8042
  396MPD2    N1 5925   2.764   2.588  16.978 -0.1906  0.3682 -0.0874
  396MPD2    H7 5926   2.742   2.493  17.007 -0.3529  0.2308 -0.6643
  397TMC3    C1 5927   2.977   2.504  16.927 -0.5999  0.3038  0.2864
  397TMC3    C2 5928   2.992   2.468  16.797  0.8097 -0.1513  0.5151
  397TMC3    C3 5929   2.939   2.352  16.754  0.0904  0.2909  0.0699
  397TMC3    C4 5930   2.952   2.409  17.021 -0.2470  1.4647 -0.6987
  397TMC3    C5 5931   2.886   2.300  16.978  0.7170 -0.4419 -0.1988
  397TMC3    C6 5932   2.869   2.277  16.844 -0.0826  0.1470 -0.0522
  397TMC3     C 5933   2.887   2.624  16.940 -0.3383  0.9170 -0.2037
  397TMC3     O 5934   2.926   2.728  16.899  0.2178  0.6037 -0.5228
  397TMC3     H 5935   3.007   2.550  16.728  2.5075 -1.1994 -0.3579
  397TMC3    H1 5936   2.952   2.446  17.123  0.8914  2.1897 -0.9605
  397TMC3    H2 5937   2.798   2.205  16.805 -0.3825  0.2420  0.3191
  397TMC3    C7 5938   2.814   2.211  17.070  0.7792  0.8157  0.9126
  397TMC3    C8 5939   2.897   2.355  16.613 -0.3055 -0.2418  0.1554
  397TMC3    O1 5940   2.735   2.132  17.022  0.7167  0.2167  0.3424
  397TMC3    O2 5941   2.775   2.359  16.591  0.5462  0.0549  0.4721
  398MPD2     C 5942   0.589   3.676  17.529  0.0342  0.4274 -0.9139
  398MPD2    C1 5943   0.627   3.630  17.652 -0.9666 -0.5288 -0.4656
  398MPD2    C2 5944   0.713   3.702   0.023  0.0510  0.0674  0.8018
  398MPD2    C3 5945   0.770   3.818  17.687 -0.7204  0.1914  0.4617
  398MPD2    C4 5946   0.748   3.857  17.559 -0.2165  0.3338 -0.3019
  398MPD2    C5 5947   0.656   3.789  17.480  0.1608  1.0461  0.1120
  398MPD2     H 5948   0.734   3.668   0.124 -0.9606  0.6810  1.2205
  398MPD2    H1 5949   0.791   3.945  17.512  0.6961 -0.7235 -1.4426
  398MPD2    H2 5950   0.520   3.625  17.463  0.3813 -0.5188 -0.5409
  398MPD2    H3 5951   0.634   3.832  17.383 -0.8123  0.8600  0.2491
  398MPD2     N 5952   0.861   3.887   0.068 -0.3135  0.7919  0.0707
  398MPD2    H5 5953   0.876   3.840   0.157  0.6453 -2.2546 -1.7102
  398MPD2    N1 5954   0.559   3.520   0.006 -0.3477 -0.5769 -0.1820
  398MPD2    H7 5955   0.590   3.490   0.098 -0.2490  0.4602  0.1319
  399TMC3    C1 5956   0.386   3.369   0.062  0.6070 -0.2572  0.6072
  399TMC3    C2 5957   0.447   3.360   0.186  0.2685 -0.2265  0.3827
  399TMC3    C3 5958   0.418   3.259   0.270 -0.0681 -0.7016 -0.3453
  399TMC3    C4 5959   0.292   3.275   0.018  0.3277  0.7779  0.9063
  399TMC3    C5 5960   0.277   3.170   0.102  0.2636  0.3079 -0.3227
  399TMC3    C6 5961   0.330   3.163   0.226  0.1742 -0.2093 -0.2485
  399TMC3     C 5962   0.446   3.463  17.665 -0.0856 -0.2257 -0.0857
  399TMC3     O 5963   0.384   3.474  17.559 -0.2510 -0.3080  0.4072
  399TMC3     H 5964   0.505   3.439   0.233 -1.3507 -0.4117  2.6857
  399TMC3    H1 5965   0.271   3.269  17.617 -2.0876  0.8529  1.3792
  399TMC3    H2 5966   0.315   3.079   0.292  1.0033 -0.6198 -0.5778
  399TMC3    C7 5967   0.218   3.036   0.060  0.6794 -0.9871  0.4104
  399TMC3    C8 5968   0.516   3.230   0.372  0.0371  0.2460  0.0931
  399TMC3    O1 5969   0.207   2.955   0.152 -0.1283  0.0862  0.1955
  399TMC3    O2 5970   0.626   3.276   0.352  0.7721  0.2907 -0.5300
  400TMC3    C1 5971   4.234   2.661  16.849  0.4092  0.4757  0.2752
  400TMC3    C2 5972   4.105   2.674  16.814  0.3131  0.1176 -0.6865
  400TMC3    C3 5973   4.047   2.798  16.798  0.4533 -0.2310  0.1406
  400TMC3    C4 5974   4.304   2.771  16.885 -0.0650 -0.3635  0.0798
  400TMC3    C5 5975   4.241   2.896  16.856 -0.1954  0.1798 -0.3341
  400TMC3    C6 5976   4.116   2.911  16.810  0.1542 -0.2323 -0.0777
  400TMC3     C 5977   4.278   2.539  16.896  0.3328  0.0274  0.6257
  400TMC3     O 5978   4.221   2.437  16.857  0.0931 -0.0417 -0.0565
  400TMC3     H 5979   4.047   2.582  16.810  2.6186 -1.3939  0.3251
  400TMC3    H1 5980   4.412   2.770  16.891 -0.0477 -1.3769 -0.5211
  400TMC3    H2 5981   4.070   3.008  16.794 -1.5839 -1.1456 -0.5565
  400TMC3    C7 5982   4.311   3.010  16.901  0.0396  1.1884 -0.5052
  400TMC3    C8 5983   3.936   2.815  16.707 -0.3780 -0.7254 -0.3305
  400TMC3    O1 5984   4.431   2.998  16.898 -0.1849 -0.0418  0.0561
  400TMC3    O2 5985   3.885   2.927  16.711 -0.0205  0.4248 -0.2250
  401MPD2     C 5986   1.661   1.103   0.314  0.9736  0.0174  0.2579
  401MPD2    C1 5987   1.788   1.052   0.295  1.5830  0.8553 -0.4790
  401MPD2    C2 5988   1.817   0.919   0.334 -0.3638 -0.3704 -0.0287
  401MPD2    C3 5989   1.724   0.858   0.419 -0.0400  0.4402 -0.4318
  401MPD2    C4 5990   1.606   0.917   0.444 -0.0313  0.2167  0.6897
  401MPD2    C5 5991   1.568   1.030   0.385  0.3046  0.2596 -0.1663
  401MPD2     H 5992   1.915   0.878   0.315  0.7762  2.1307  0.4920
  401MPD2    H1 5993   1.544   0.891   0.529 -3.2172  0.8978 -1.4748
  401MPD2    H2 5994   1.624   1.191   0.262 -0.3404  0.3868  1.8207
  401MPD2    H3 5995   1.473   1.070   0.419  0.3234 -0.2115  0.4385
  401MPD2     N 5996   1.755   0.738   0.483  0.8300 -0.1820  0.0368
  401MPD2    H5 5997   1.842   0.688   0.466 -0.5030 -2.5276  0.1469
  401MPD2    N1 5998   1.890   1.116   0.224  0.0648 -0.8301 -0.4031
  401MPD2    H7 5999   1.979   1.069   0.210  0.4272 -0.5662  1.0355
  402TMC3    C1 6000   1.731   0.532   0.569  0.2922  0.1731 -0.3240
  402TMC3    C2 6001   1.723   0.461   0.693 -0.0034 -0.1879 -0.4477
  402TMC3    C3 6002   1.806   0.351   0.705  0.5579 -0.0296  0.4813
  402TMC3    C4 6003   1.805   0.482   0.464 -0.0109 -0.6252 -0.1819
  402TMC3    C5 6004   1.882   0.369   0.486 -0.1693  0.1092  0.0607
  402TMC3    C6 6005   1.883   0.306   0.608  0.0080  0.0147  0.1391
  402TMC3     C 6006   1.666   0.664   0.551 -0.3120  0.4194 -0.2502
  402TMC3     O 6007   1.567   0.686   0.619 -0.0839 -0.7024  0.0422
  402TMC3     H 6008   1.664   0.503   0.773  1.8821  1.2910  0.1675
  402TMC3    H1 6009   1.785   0.500   0.359  0.6450  0.7663 -0.0758
  402TMC3    H2 6010   1.955   0.227   0.625 -1.9722 -1.4776  1.5939
  402TMC3    C7 6011   1.988   0.338   0.398  0.6231 -0.0878 -0.2108
  402TMC3    C8 6012   1.864   0.325   0.832  0.5355  0.4473 -0.0269
  402TMC3    O1 6013   1.974   0.370   0.282  0.0914  0.1101 -0.0683
  402TMC3    O2 6014   1.987   0.320   0.826 -0.3003 -0.1465 -0.4064
  403MPD2     C 6015   0.860   4.633  13.183  0.0251  0.0270 -0.2434
  403MPD2    C1 6016   0.860   4.507  13.246  0.6326  0.2837  0.2800
  403MPD2    C2 6017   0.911   4.501  13.373  0.2729 -0.2720  0.3326
  403MPD2    C3 6018   0.966   4.614  13.429 -1.0009  0.0398  0.0048
  403MPD2    C4 6019   0.976   0.004  13.362  0.0137 -0.0493 -0.5529
  403MPD2    C5 6020   0.923   0.013  13.233 -0.7113  0.3885 -0.0330
  403MPD2     H 6021   0.918   4.413  13.437  2.3050 -0.3889 -0.0514
  403MPD2    H1 6022   1.031   0.088  13.403 -1.0528  0.8004 -0.8533
  403MPD2    H2 6023   0.811   4.636  13.086 -1.5525  2.5407  0.6129
  403MPD2    H3 6024   0.930   0.108  13.180 -0.7058  0.0595 -0.6226
  403MPD2     N 6025   1.027   4.590  13.551  0.0246  0.2876  0.0531
  403MPD2    H5 6026   1.068   4.497  13.559 -0.8196 -0.1436 -0.7619
  403MPD2    N1 6027   0.790   4.402  13.191 -0.3010 -0.4162  0.2911
  403MPD2    H7 6028   0.748   4.418  13.100 -1.5463  0.9921  1.0999
  404TMC3    C1 6029   0.688   4.186  13.153 -0.3957  0.1899 -0.0385
  404TMC3    C2 6030   0.664   4.061  13.210 -0.3563  1.0858  0.1287
  404TMC3    C3 6031   0.631   3.965  13.118  0.4653  0.5894  0.0947
  404TMC3    C4 6032   0.689   4.207  13.016 -0.2480 -0.3822  0.0901
  404TMC3    C5 6033   0.661   4.101  12.934  0.2021 -0.8069  0.1220
  404TMC3    C6 6034   0.633   3.973  12.986  0.3641  1.2648 -0.3293
  404TMC3     C 6035   0.766   4.271  13.238  0.5088  0.1035  0.0632
  404TMC3     O 6036   0.805   4.222  13.342 -0.1713 -0.5277 -0.0700
  404TMC3     H 6037   0.666   4.050  13.317 -0.6984 -0.6718 -0.0540
  404TMC3    H1 6038   0.722   4.300  12.971 -1.6459  0.7760  1.4745
  404TMC3    H2 6039   0.608   3.890  12.922  0.8406  2.5004 -2.1338
  404TMC3    C7 6040   0.632   4.139  12.798  0.6667 -0.1639 -0.9882
  404TMC3    C8 6041   0.628   3.829  13.168 -0.7311  0.5075  0.9507
  404TMC3    O1 6042   0.668   4.250  12.760 -0.3277  0.3531 -0.0518
  404TMC3    O2 6043   0.641   3.734  13.089 -0.0098  0.5612 -0.3128
  405MPD2     C 6044   0.495   0.026  14.118  0.3202  0.3476 -0.9074
  405MPD2    C1 6045   0.557   0.029  13.998 -0.4294  0.3439  0.1848
  405MPD2    C2 6046   0.624   0.143  13.960 -0.3611 -0.4030 -0.2205
  405MPD2    C3 6047   0.623   0.252  14.047  0.1777  0.2869  0.5096
  405MPD2    C4 6048   0.560   0.243  14.171  0.2688  0.2164  0.3979
  405MPD2    C5 6049   0.508   0.124  14.212  0.5319 -0.8710 -0.0481
  405MPD2     H 6050   0.674   0.145  13.864  1.3267 -0.6491  0.6639
  405MPD2    H1 6051   0.575   0.323  14.242  2.2425 -1.8831  2.3895
  405MPD2    H2 6052   0.450   4.660  14.151  0.2533  0.9218  0.5725
  405MPD2    H3 6053   0.474   0.120  14.315 -0.9577 -1.6232 -0.5642
  405MPD2     N 6054   0.692   0.368  14.005 -0.2064  0.1941 -0.7180
  405MPD2    H5 6055   0.750   0.355  13.923  0.9174  1.8619 -0.1835
  405MPD2    N1 6056   0.544   4.641  13.913 -0.2237 -0.3191  0.0075
  405MPD2    H7 6057   0.484   4.568  13.950  1.0605  0.4496  3.5914
  406TMC3    C1 6058   0.608   0.779  13.873 -0.4523 -0.2222 -0.0117
  406TMC3    C2 6059   0.621   0.726  13.748 -0.7205  0.8514 -0.2655
  406TMC3    C3 6060   0.697   0.610  13.729 -0.0095 -0.6301  0.1319
  406TMC3    C4 6061   0.661   0.713  13.985 -0.4503  0.4258 -0.8337
  406TMC3    C5 6062   0.725   0.594  13.954 -0.1016 -0.0337 -0.0680
  406TMC3    C6 6063   0.745   0.542  13.835  0.4372 -0.1649  0.3729
  406TMC3     C 6064   0.479   0.845  13.902 -0.1685 -0.0628  0.1983
  406TMC3     O 6065   0.426   0.916  13.814  0.0244  0.1154 -0.3132
  406TMC3     H 6066   0.570   0.773  13.664  1.3529  0.5672 -1.6746
  406TMC3    H1 6067   0.659   0.754  14.086 -0.1486 -2.8847  0.5160
  406TMC3    H2 6068   0.818   0.463  13.820 -0.1258 -0.9849  1.8166
  406TMC3    C7 6069   0.680   0.494  14.053  0.6406  0.2323 -0.1815
  406TMC3    C8 6070   0.697   0.554  13.591 -1.0274 -0.3468  0.0732
  406TMC3    O1 6071   0.610   0.535  14.142 -0.1904  0.3911 -0.2081
  406TMC3    O2 6072   0.628   0.618  13.510  0.5108 -0.7714  0.4838
  407MPD2     C 6073   3.784   2.059   9.432  0.0536  0.3824  0.2246
  407MPD2    C1 6074   3.854   1.959   9.494  0.2330 -0.5242  0.7181
  407MPD2    C2 6075   3.900   1.992   9.625  0.6627  0.2904  0.3924
  407MPD2    C3 6076   3.884   2.113   9.689  0.0768 -0.3661 -0.1905
  407MPD2    C4 6077   3.808   2.214   9.622 -0.0782 -0.2952 -0.1167
  407MPD2    C5 6078   3.760   2.181   9.495  0.3796 -0.2693 -0.0211
  407MPD2     H 6079   3.961   1.915   9.672  2.3510  0.5217 -1.4119
  407MPD2    H1 6080   3.796   2.316   9.653 -0.8064  0.4486 -2.8115
  407MPD2    H2 6081   3.738   2.059   9.333 -0.2123 -1.3637  0.3414
  407MPD2    H3 6082   3.715   2.260   9.436 -0.4512  0.9228  2.2062
  407MPD2     N 6083   3.926   2.149   9.819  0.4248  0.2450  0.1397
  407MPD2    H5 6084   3.891   2.239   9.850 -1.3148 -0.4383  0.1581
  407MPD2    N1 6085   3.881   1.831   9.437 -0.9112 -0.2126 -0.0758
  407MPD2    H7 6086   3.946   1.767   9.483  3.4409  1.4022 -3.9148
  408TMC3    C1 6087   3.811   1.630   9.329 -0.0305 -0.3236 -0.5903
  408TMC3    C2 6088   3.937   1.578   9.347  0.3468  0.2191  0.2522
  408TMC3    C3 6089   3.949   1.446   9.363 -0.1413 -0.3462  0.2604
  408TMC3    C4 6090   3.701   1.552   9.328 -0.3048  0.4273  0.6595
  408TMC3    C5 6091   3.711   1.426   9.368  0.1029  0.2093 -0.1689
  408TMC3    C6 6092   3.834   1.369   9.372 -1.0146  0.0297  0.9811
  408TMC3     C 6093   3.787   1.772   9.354  0.0366  0.3300  0.3049
  408TMC3     O 6094   3.683   1.818   9.307 -0.2836 -0.0855 -0.0021
  408TMC3     H 6095   4.017   1.644   9.317 -1.9978  3.8041  1.9352
  408TMC3    H1 6096   3.599   1.590   9.334 -0.6667 -0.5612  0.8937
  408TMC3    H2 6097   3.846   1.262   9.383  0.6443  0.1224  0.0452
  408TMC3    C7 6098   3.602   1.333   9.385 -0.2863 -0.0978  0.4705
  408TMC3    C8 6099   4.066   1.376   9.314  0.1190  0.1585  0.6042
  408TMC3    O1 6100   3.504   1.364   9.323 -0.1639 -0.2955  0.4005
  408TMC3    O2 6101   4.040   1.261   9.280 -0.4471 -0.1671 -0.1588
  409MPD2     C 6102   3.125   2.012  16.866 -0.2215  0.6914 -0.8356
  409MPD2    C1 6103   3.141   2.046  17.002 -0.0004 -0.0894  0.8400
  409MPD2    C2 6104   3.206   2.167  17.031  0.1630 -0.5803 -0.0121
  409MPD2    C3 6105   3.264   2.245  16.923 -0.4257 -0.0649  0.1331
  409MPD2    C4 6106   3.250   2.197  16.796  0.5047 -0.8643  0.2607
  409MPD2    C5 6107   3.184   2.086  16.766 -0.2235  0.1424 -0.4093
  409MPD2     H 6108   3.236   2.198  17.131 -2.6128  1.7812  0.0989
  409MPD2    H1 6109   3.287   2.249  16.709 -0.0669  0.4805  0.8210
  409MPD2    H2 6110   3.078   1.920  16.833 -0.5888  0.7555 -0.4830
  409MPD2    H3 6111   3.181   2.041  16.668 -0.0915  1.8654 -1.1948
  409MPD2     N 6112   3.316   2.376  16.940  0.3352  0.2515 -0.0583
  409MPD2    H5 6113   3.334   2.427  16.854  0.2318  0.1252 -0.1546
  409MPD2    N1 6114   3.087   1.974  17.113  0.3727 -0.7370  0.4917
  409MPD2    H7 6115   3.112   2.005  17.207  0.2137 -0.5902  0.4854
  410TMC3    C1 6116   3.415   2.554  17.024 -0.1177 -0.7368  0.7936
  410TMC3    C2 6117   3.533   2.585  17.084 -0.2794  0.6065 -0.2694
  410TMC3    C3 6118   3.618   2.668  17.023  0.1646  0.9697 -0.7896
  410TMC3    C4 6119   3.373   2.627  16.916  1.1913 -0.3188 -0.2582
  410TMC3    C5 6120   3.470   2.711  16.857  0.0946 -0.1578 -0.1611
  410TMC3    C6 6121   3.588   2.740  16.907  0.0585  0.1607  0.2902
  410TMC3     C 6122   3.360   2.424  17.057 -0.7516 -0.0365  1.0175
  410TMC3     O 6123   3.385   2.374  17.165 -0.0333 -0.7565  0.5615
  410TMC3     H 6124   3.568   2.534  17.173 -1.7798 -0.5102 -0.3245
  410TMC3    H1 6125   3.271   2.623  16.878  1.2853  3.0365 -0.8584
  410TMC3    H2 6126   3.659   2.800  16.850 -0.7652  0.1777 -0.7158
  410TMC3    C7 6127   3.424   2.765  16.732 -0.3313  0.3128 -0.4335
  410TMC3    C8 6128   3.749   2.676  17.082  0.0379  0.2259 -0.0296
  410TMC3    O1 6129   3.327   2.710  16.676  0.0211 -0.1410  0.1512
  410TMC3    O2 6130   3.804   2.788  17.082 -0.2001 -0.4347  0.3468
  411MPD2     C 6131   3.519   3.293  14.618  0.0169  0.2918 -0.4556
  411MPD2    C1 6132   3.407   3.291  14.540  0.5162 -0.1357 -0.5153
  411MPD2    C2 6133   3.381   3.176  14.466  0.5966  0.0984 -0.6924
  411MPD2    C3 6134   3.453   3.055  14.481  0.3003  0.1483 -0.3178
  411MPD2    C4 6135   3.573   3.069  14.554 -0.8207  0.5444  0.9849
  411MPD2    C5 6136   3.604   3.186  14.617 -0.0210 -0.0842 -0.6356
  411MPD2     H 6137   3.297   3.171  14.398 -1.6008 -1.7288  2.1700
  411MPD2    H1 6138   3.646   2.990  14.560 -0.5867  0.6514 -0.4813
  411MPD2    H2 6139   3.546   3.379  14.678 -1.4300  0.0901  0.5007
  411MPD2    H3 6140   3.696   3.191  14.673 -0.9582  1.9917  0.7107
  411MPD2     N 6141   3.425   2.930  14.416 -0.4799  0.0394 -0.1623
  411MPD2    H5 6142   3.506   2.869  14.413 -0.8010 -0.3259 -1.3741
  411MPD2    N1 6143   3.329   3.410  14.532  0.3925 -0.1010  1.3906
  411MPD2    H7 6144   3.345   3.479  14.605 -1.2392  2.0931 -0.3365
  412TMC3    C1 6145   3.304   2.762  14.325 -0.9089  0.2747 -0.9913
  412TMC3    C2 6146   3.199   2.683  14.352 -0.8742  0.3199 -0.7484
  412TMC3    C3 6147   3.157   2.595  14.260  0.3425  0.2881 -0.8175
  412TMC3    C4 6148   3.358   2.759  14.200 -0.3768  0.9476 -0.2744
  412TMC3    C5 6149   3.313   2.673  14.101  0.3000 -0.0682  0.6683
  412TMC3    C6 6150   3.213   2.587  14.131 -0.3232 -0.5301 -0.2168
  412TMC3     C 6151   3.300   2.889  14.384 -0.6374 -0.7797  0.4326
  412TMC3     O 6152   3.192   2.936  14.407 -0.3374 -0.2177 -0.1468
  412TMC3     H 6153   3.144   2.704  14.443  1.6069  0.1283  0.8143
  412TMC3    H1 6154   3.441   2.823  14.174  0.6658  0.4019  1.7723
  412TMC3    H2 6155   3.185   2.502  14.071 -0.1557 -0.9629  0.3134
  412TMC3    C7 6156   3.280   2.720  13.965 -0.3357 -0.4078  0.4751
  412TMC3    C8 6157   3.015   2.604  14.249  0.7736 -0.4344 -0.1674
  412TMC3    O1 6158   3.177   2.675  13.925  0.0916 -0.5933  0.4532
  412TMC3    O2 6159   2.954   2.597  14.359  0.5362 -0.6944  0.3999
  413MPD2     C 6160   4.620   0.806  15.115  0.1284 -0.2599  0.0798
  413MPD2    C1 6161   4.673   0.925  15.156 -0.8932  0.5786 -0.0059
  413MPD2    C2 6162   0.077   0.926  15.202 -0.1054 -0.5032 -0.6664
  413MPD2    C3 6163   0.143   0.809  15.211  0.4486 -0.4682 -0.6598
  413MPD2    C4 6164   0.073   0.688  15.199 -0.3440  0.1256 -1.0210
  413MPD2    C5 6165   4.675   0.687  15.141 -0.0662  0.9051 -0.2124
  413MPD2     H 6166   0.144   1.010  15.218 -2.3291  0.8795  1.4112
  413MPD2    H1 6167   0.105   0.589  15.230  2.1098  1.2312  0.0253
  413MPD2    H2 6168   4.520   0.790  15.076  0.4632  0.5527 -1.1385
  413MPD2    H3 6169   4.615   0.598  15.124 -2.8153  2.9421 -1.2217
  413MPD2     N 6170   0.280   0.817  15.256 -0.2855  0.4473 -0.8959
  413MPD2    H5 6171   0.318   0.911  15.259 -0.5146  0.5345 -0.7404
  413MPD2    N1 6172   4.588   1.039  15.146 -0.3211 -0.0583 -0.8311
  413MPD2    H7 6173   4.499   1.018  15.102 -0.0419 -0.7855 -1.0446
  414TMC3    C1 6174   0.499   0.743  15.324 -0.1157 -0.5212 -0.2396
  414TMC3    C2 6175   0.576   0.636  15.368 -0.0498  0.5485 -0.6241
  414TMC3    C3 6176   0.705   0.662  15.366 -0.7793  0.6147 -0.0631
  414TMC3    C4 6177   0.548   0.858  15.266 -0.0574 -0.0195 -0.3984
  414TMC3    C5 6178   0.685   0.877  15.270 -0.0622 -0.5506  0.1301
  414TMC3    C6 6179   0.764   0.782  15.329  0.0537  0.2915  0.4277
  414TMC3     C 6180   0.354   0.714  15.312 -0.0125 -0.9755  0.2977
  414TMC3     O 6181   0.315   0.597  15.325  0.3503 -0.1727 -0.6624
  414TMC3     H 6182   0.537   0.539  15.399  0.2113  0.4642 -0.5644
  414TMC3    H1 6183   0.484   0.929  15.214 -1.1866  0.6504  1.9359
  414TMC3    H2 6184   0.871   0.788  15.314  0.3374 -0.2237  2.2453
  414TMC3    C7 6185   0.739   1.004  15.227 -0.4860  0.9800  0.3147
  414TMC3    C8 6186   0.795   0.550  15.346  1.2599 -0.5936  0.8259
  414TMC3    O1 6187   0.851   1.028  15.268  0.3065  0.4741  0.0937
  414TMC3    O2 6188   0.780   0.476  15.253 -0.3795 -0.1043 -0.3428
  415TMC3    C1 6189   0.297   4.289   9.847 -0.2535  0.2178 -0.4130
  415TMC3    C2 6190   0.317   4.367   9.734  0.4035 -0.2570 -0.1067
  415TMC3    C3 6191   0.278   4.311   9.613  1.0342  0.0162  0.1220
  415TMC3    C4 6192   0.249   4.156   9.850  0.8005 -0.4764  0.0802
  415TMC3    C5 6193   0.240   4.102   9.724 -0.1408 -0.0746 -0.0342
  415TMC3    C6 6194   0.245   4.177   9.609 -0.4934  0.0051 -0.0071
  415TMC3     C 6195   0.342   4.336   9.975 -0.7760  0.5092 -0.1639
  415TMC3     O 6196   0.313   4.274  10.075 -0.6642 -0.3211  0.2025
  415TMC3     H 6197   0.337   4.472   9.751  3.4139 -0.9789  1.0090
  415TMC3    H1 6198   0.246   4.106   9.946 -0.8685  1.5858  1.0882
  415TMC3    H2 6199   0.221   4.126   9.516 -0.9227 -1.1048  0.7049
  415TMC3    C7 6200   0.206   3.960   9.719  0.0641 -0.0076 -0.7600
  415TMC3    C8 6201   0.339   4.353   9.488 -0.0390  0.2705  0.0060
  415TMC3    O1 6202   0.148   3.911   9.621  0.3560  0.0943  0.3793
  415TMC3    O2 6203   0.282   4.330   9.383  0.6872  0.6833  0.1147
  416MPD2     C 6204   3.076   3.118  11.345  0.0447 -0.0031 -0.4397
  416MPD2    C1 6205   2.951   3.132  11.282  0.0508 -0.3996  0.3953
  416MPD2    C2 6206   2.882   3.015  11.244 -0.1133  0.2584  0.2764
  416MPD2    C3 6207   2.930   2.889  11.282  0.3018 -0.4763 -0.5167
  416MPD2    C4 6208   3.056   2.878  11.349 -0.3236 -0.2475 -0.0980
  416MPD2    C5 6209   3.123   2.999  11.381 -0.4699 -0.2791  0.8632
  416MPD2     H 6210   2.787   3.017  11.192 -0.9788  0.7565  1.8704
  416MPD2    H1 6211   3.086   2.783  11.392  0.0331 -0.2342 -0.3194
  416MPD2    H2 6212   3.132   3.205  11.378 -0.7743  0.7779 -1.0881
  416MPD2    H3 6213   3.214   2.996  11.440 -1.2890 -3.6826  1.9986
  416MPD2     N 6214   2.861   2.766  11.272 -0.0419  0.1707 -0.3142
  416MPD2    H5 6215   2.919   2.686  11.294  0.0163  0.9316  2.3829
  416MPD2    N1 6216   2.891   3.267  11.274  0.0244 -0.3954  0.0818
  416MPD2    H7 6217   2.948   3.345  11.306  0.7325 -0.5612 -0.7733
  417TMC3    C1 6218   2.730   3.426  11.280 -0.1692 -0.2438 -0.2645
  417TMC3    C2 6219   2.733   3.436  11.417 -0.9148  0.4631 -0.2776
  417TMC3    C3 6220   2.643   3.529  11.475 -0.0666  0.6367 -0.3255
  417TMC3    C4 6221   2.632   3.492  11.204 -0.0969 -0.5022  0.0870
  417TMC3    C5 6222   2.535   3.567  11.267  0.0906  0.2280  0.1635
  417TMC3    C6 6223   2.549   3.601  11.404 -0.2253 -0.6409 -0.4332
  417TMC3     C 6224   2.771   3.304  11.225  0.1511  1.0554  0.4217
  417TMC3     O 6225   2.683   3.234  11.179  0.3386 -0.0563  0.7620
  417TMC3     H 6226   2.801   3.375  11.474 -0.3949  0.4511 -0.9081
  417TMC3    H1 6227   2.616   3.470  11.100 -0.1674 -3.8338  0.8161
  417TMC3    H2 6228   2.473   3.660  11.453  0.8771  0.1588  0.2963
  417TMC3    C7 6229   2.408   3.571  11.203 -0.0726 -0.2219 -0.3351
  417TMC3    C8 6230   2.622   3.538  11.623  0.3711  0.2707  0.1718
  417TMC3    O1 6231   2.400   3.518  11.095 -0.3716  0.6339  0.6776
  417TMC3    O2 6232   2.542   3.616  11.668 -0.0602 -0.7339  0.3868
  418TMC3    C1 6233   1.221   3.967   0.224  0.5651  0.3962 -0.3238
  418TMC3    C2 6234   1.143   4.014   0.126 -1.2131  0.4224  0.2761
  418TMC3    C3 6235   1.014   4.033   0.149  0.7611  0.8621  0.0711
  418TMC3    C4 6236   1.184   3.971   0.360 -0.4336  0.5399  0.4077
  418TMC3    C5 6237   1.052   3.997   0.378  0.0910 -0.1238 -0.0101
  418TMC3    C6 6238   0.965   4.006   0.274  0.0942 -0.4565 -0.8980
  418TMC3     C 6239   1.352   3.913   0.180 -0.1270 -0.1544  0.1754
  418TMC3     O 6240   1.400   3.950   0.074  0.0767 -0.1438 -0.1875
  418TMC3     H 6241   1.173   4.023   0.022  2.5949 -0.3985  1.2986
  418TMC3    H1 6242   1.249   3.943   0.442 -1.6962  0.9580  1.5459
  418TMC3    H2 6243   0.859   4.015   0.293  0.6341 -0.2984  2.0329
  418TMC3    C7 6244   0.990   3.968   0.508  0.6561 -0.4354  0.4986
  418TMC3    C8 6245   0.923   4.004   0.041 -0.3731  0.1786  0.1693
  418TMC3    O1 6246   0.884   3.912   0.513  0.2282  0.2287 -0.2386
  418TMC3    O2 6247   0.949   4.050  17.634 -0.1525  0.4658 -0.2671
  419MPD2     C 6248   4.656   2.625  11.917 -0.8136  0.6368 -0.8012
  419MPD2    C1 6249   4.537   2.691  11.922  0.0586 -0.2723 -0.0130
  419MPD2    C2 6250   4.483   2.723  12.044  0.5324 -0.2526  0.0285
  419MPD2    C3 6251   4.548   2.691  12.161  1.2005  0.1111 -0.5364
  419MPD2    C4 6252   4.673   2.630  12.170 -0.9535 -0.0702  0.2698
  419MPD2    C5 6253   4.715   2.598  12.041  0.4397 -0.3748  0.0927
  419MPD2     H 6254   4.388   2.775  12.048  0.2494 -0.5994 -2.1588
  419MPD2    H1 6255   4.724   2.597  12.260 -1.2956 -2.8945 -0.5509
  419MPD2    H2 6256   4.714   2.592  11.831 -1.5502 -2.0760 -0.2597
  419MPD2    H3 6257   0.085   2.548  12.038  0.2636 -0.7789  1.0796
  419MPD2     N 6258   4.485   2.745  12.279 -0.2728 -0.2343 -0.0868
  419MPD2    H5 6259   4.404   2.803  12.262 -1.3819 -2.2142 -1.7046
  419MPD2    N1 6260   4.473   2.730  11.805 -0.5143  0.6218  0.2094
  419MPD2    H7 6261   4.386   2.773  11.834 -0.0650  2.0783 -0.6200
  420TMC3    C1 6262   4.461   2.823  12.497 -0.2272 -0.3055  0.3664
  420TMC3    C2 6263   4.376   2.920  12.447  0.5182  0.0287 -0.7632
  420TMC3    C3 6264   4.334   3.014  12.535  0.1673 -0.6858  0.2100
  420TMC3    C4 6265   4.512   2.829  12.626 -0.1235  0.1120 -0.8847
  420TMC3    C5 6266   4.479   2.935  12.697 -0.0799 -0.0605  0.2337
  420TMC3    C6 6267   4.384   3.025  12.659 -0.3455  0.4163  0.0315
  420TMC3     C 6268   4.533   2.730  12.405  0.1409  0.1511  0.0987
  420TMC3     O 6269   4.622   2.653  12.439  0.4153 -0.0548  0.4290
  420TMC3     H 6270   4.314   2.907  12.359 -0.0967  0.8815 -0.4537
  420TMC3    H1 6271   4.573   2.754  12.675 -0.5810 -0.3121 -0.9625
  420TMC3    H2 6272   4.361   3.103  12.730  0.2300  1.4147 -0.8867
  420TMC3    C7 6273   4.513   2.937  12.840  0.0479 -0.5804 -0.4887
  420TMC3    C8 6274   4.271   3.137  12.472 -0.2022  1.3058  0.3288
  420TMC3    O1 6275   4.518   2.832  12.903  0.0048 -1.0181 -0.4352
  420TMC3    O2 6276   4.200   3.119  12.373  0.0910 -0.5091  0.3063
  421TMC3    C1 6277   1.173   4.662  13.729 -0.2209 -0.2968  0.2276
  421TMC3    C2 6278   1.225   0.048  13.795  0.0893  0.8093  0.4035
  421TMC3    C3 6279   1.343   0.029  13.866  0.0260 -0.2535  0.7869
  421TMC3    C4 6280   1.214   4.531  13.747  0.5608 -0.0596 -0.2166
  421TMC3    C5 6281   1.325   4.515  13.821  0.3966  0.6450 -0.2357
  421TMC3    C6 6282   1.386   4.624  13.884 -0.0230  0.3202  0.3490
  421TMC3     C 6283   1.063   4.690  13.637 -0.2039  0.1198 -0.5117
  421TMC3     O 6284   1.014   0.076  13.651 -0.3652 -0.4128  0.0076
  421TMC3     H 6285   1.190   0.150  13.782  1.6793  1.2240 -0.6198
  421TMC3    H1 6286   1.153   4.452  13.706 -0.7321  2.1944 -2.6385
  421TMC3    H2 6287   1.483   4.605  13.928 -0.2794  2.2380  1.7409
  421TMC3    C7 6288   1.397   4.391  13.829  0.3433 -0.2678 -0.1053
  421TMC3    C8 6289   1.441   0.130  13.901 -0.2661 -1.1064  0.1189
  421TMC3    O1 6290   1.519   4.392  13.849  0.2429  0.4934 -0.2505
  421TMC3    O2 6291   1.560   0.102  13.916  0.2082 -0.3875 -0.0460
  422TMC3    C1 6292   3.620   0.777  12.501 -0.2628 -0.9763  0.5026
  422TMC3    C2 6293   3.577   0.905  12.500  0.2844 -0.1825  0.2890
  422TMC3    C3 6294   3.458   0.937  12.556  0.2588 -0.3889  0.8906
  422TMC3    C4 6295   3.552   0.681  12.564 -0.1550  0.4837 -0.2113
  422TMC3    C5 6296   3.430   0.716  12.625 -0.8991  0.0930  0.0085
  422TMC3    C6 6297   3.376   0.842  12.616  0.0957 -0.3552 -0.2288
  422TMC3     C 6298   3.716   0.736  12.391 -0.0761 -0.1584  0.1785
  422TMC3     O 6299   3.740   0.816  12.304 -0.0532  0.1704 -0.2681
  422TMC3     H 6300   3.638   0.984  12.458  0.7792  0.1364  1.6009
  422TMC3    H1 6301   3.586   0.579  12.574  1.5689  1.1257  0.4085
  422TMC3    H2 6302   3.275   0.870  12.644  0.6269  0.0778  1.2754
  422TMC3    C7 6303   3.339   0.611  12.652  0.5967 -0.1069  0.6421
  422TMC3    C8 6304   3.433   1.084  12.572 -0.0883 -0.6820  0.4766
  422TMC3    O1 6305   3.365   0.497  12.621 -0.1752  0.4566  0.4064
  422TMC3    O2 6306   3.533   1.153  12.552 -0.2054 -0.5372 -0.4054
  423MPD2     C 6307   4.606   1.398   0.656  0.4245  0.2310 -0.0097
  423MPD2    C1 6308   4.638   1.262   0.633 -0.2007  0.4230 -0.3005
  423MPD2    C2 6309   4.706   1.213   0.520  0.4121 -0.1423 -0.0159
  423MPD2    C3 6310   0.026   1.305   0.422 -0.3502  0.0107 -0.0011
  423MPD2    C4 6311   4.703   1.431   0.435 -0.1151  0.5511 -0.6452
  423MPD2    C5 6312   4.650   1.477   0.552  0.5150 -0.0109 -0.2751
  423MPD2     H 6313   0.009   1.109   0.505 -0.9599 -0.2646 -1.7603
  423MPD2    H1 6314   0.002   1.506   0.360  1.7285 -1.2995 -1.8711
  423MPD2    H2 6315   4.552   1.442   0.739  0.5568 -0.5021  0.4673
  423MPD2    H3 6316   4.636   1.584   0.564  1.1500  0.2236 -1.6220
  423MPD2     N 6317   0.077   1.272   0.291  0.2857  0.0910 -0.1177
  423MPD2    H5 6318   0.083   1.346   0.223 -2.1478  0.4643  0.0622
  423MPD2    N1 6319   4.597   1.155   0.725 -0.1458  0.1913  0.0465
  423MPD2    H7 6320   4.642   1.065   0.710  3.7142  1.9486  1.0417
  424TMC3    C1 6321   4.485   1.067   0.915 -0.0381 -0.4714  0.3361
  424TMC3    C2 6322   4.578   0.966   0.933 -0.2321  0.5054 -0.7788
  424TMC3    C3 6323   4.554   0.873   1.036 -0.7150 -0.4860  0.3747
  424TMC3    C4 6324   4.378   1.089   0.996 -0.2393  0.2024 -0.0461
  424TMC3    C5 6325   4.355   0.987   1.090  0.8612  0.2849  0.0708
  424TMC3    C6 6326   4.437   0.882   1.108 -0.2969 -0.4149 -0.0644
  424TMC3     C 6327   4.503   1.174   0.822 -0.5901 -0.0301 -0.0054
  424TMC3     O 6328   4.429   1.272   0.843 -0.1665  0.0175  0.3688
  424TMC3     H 6329   4.666   0.950   0.871  2.3295  1.5530  2.5171
  424TMC3    H1 6330   4.299   1.159   0.970 -2.4469 -2.0969  0.4967
  424TMC3    H2 6331   4.417   0.820   1.195  0.9863  0.2146  0.6675
  424TMC3    C7 6332   4.252   1.013   1.191 -0.5130 -0.2670 -0.1118
  424TMC3    C8 6333   4.656   0.776   1.071 -0.4566 -0.5770  0.3796
  424TMC3    O1 6334   4.210   0.913   1.246  0.1078 -0.1821 -0.1215
  424TMC3    O2 6335   0.044   0.781   1.026  0.4220 -0.0382  0.2295
  425MPD2     C 6336   4.141   1.154  17.496  0.3524 -0.8280 -0.0614
  425MPD2    C1 6337   4.095   1.086  17.391 -0.1868 -0.6594  0.2755
  425MPD2    C2 6338   3.962   1.111  17.351  0.0508 -0.1285  0.2194
  425MPD2    C3 6339   3.875   1.189  17.429 -0.1154  0.1924  0.0715
  425MPD2    C4 6340   3.933   1.280  17.519 -0.2972  0.1778  0.4064
  425MPD2    C5 6341   4.064   1.253  17.556 -0.0514 -0.4488  0.0887
  425MPD2     H 6342   3.928   1.047  17.271  1.5913  1.1722 -1.4866
  425MPD2    H1 6343   3.879   1.347  17.585  0.0446 -0.9477  1.8253
  425MPD2    H2 6344   4.248   1.167  17.511 -0.2229 -0.2951  3.6359
  425MPD2    H3 6345   4.116   1.334  17.604 -1.6017  0.2858  0.5346
  425MPD2     N 6346   3.733   1.180  17.400 -0.2663  0.5877  0.4919
  425MPD2    H5 6347   3.699   1.119  17.326  0.6436  0.8775 -0.1527
  425MPD2    N1 6348   4.177   0.984  17.333  0.0808 -0.2985 -0.6130
  425MPD2    H7 6349   4.252   0.946  17.389 -1.8446 -2.5518  0.4378
  426TMC3    C1 6350   4.213   0.800  17.184  0.2679 -0.1038 -0.2122
  426TMC3    C2 6351   4.185   0.745  17.063 -0.1487  0.1891  0.0437
  426TMC3    C3 6352   4.194   0.612  17.046  0.1468 -0.0335  0.3445
  426TMC3    C4 6353   4.246   0.716  17.289 -0.1561  0.0790 -0.4556
  426TMC3    C5 6354   4.257   0.581  17.271 -0.5174  0.7157  0.3514
  426TMC3    C6 6355   4.228   0.533  17.149 -0.1689  0.4506  0.3677
  426TMC3     C 6356   4.161   0.938  17.206  0.2572 -0.3102 -0.9553
  426TMC3     O 6357   4.094   0.980  17.113  0.0159 -0.4253 -0.2603
  426TMC3     H 6358   4.165   0.818  16.986  0.9574  1.8472  1.3180
  426TMC3    H1 6359   4.265   0.761  17.386  1.2612 -3.8447  1.0672
  426TMC3    H2 6360   4.230   0.425  17.134  1.4384  0.9472 -2.9403
  426TMC3    C7 6361   4.265   0.488  17.382  0.5136  0.5062 -0.3268
  426TMC3    C8 6362   4.159   0.551  16.917  0.4441  0.4799  0.2324
  426TMC3    O1 6363   4.298   0.377  17.348 -0.3034 -0.2889 -0.0154
  426TMC3    O2 6364   4.204   0.438  16.900 -0.1819 -0.2746 -0.5240
  427MPD2     C 6365   2.446   3.315  14.674 -0.1591 -0.1201 -0.5341
  427MPD2    C1 6366   2.412   3.222  14.767  0.2983 -0.2835  0.0141
  427MPD2    C2 6367   2.283   3.213  14.820  0.2601  0.5959 -0.6098
  427MPD2    C3 6368   2.193   3.309  14.785  0.0869  0.0190 -0.5940
  427MPD2    C4 6369   2.230   3.411  14.693  0.8414 -0.1978  0.1796
  427MPD2    C5 6370   2.357   3.410  14.636  0.6776  0.8450 -0.8179
  427MPD2     H 6371   2.254   3.127  14.880  0.7284 -0.3678 -1.7605
  427MPD2    H1 6372   2.153   3.473  14.649  0.0711 -0.4094  1.2064
  427MPD2    H2 6373   2.545   3.308  14.632 -0.1899 -0.5486 -0.5354
  427MPD2    H3 6374   2.380   3.484  14.560  1.0236 -0.0371 -1.5590
  427MPD2     N 6375   2.052   3.301  14.797 -0.1331  0.7341 -0.0516
  427MPD2    H5 6376   1.995   3.357  14.734 -1.4635  0.8257  1.2239
  427MPD2    N1 6377   2.499   3.121  14.800  0.8097 -0.2778  0.0792
  427MPD2    H7 6378   2.473   3.065  14.880  0.9067 -1.6227 -0.8387
  428TMC3    C1 6379   2.668   2.954  14.802 -0.3712 -0.0874  0.1989
  428TMC3    C2 6380   2.590   2.871  14.873  0.3011  0.3886  0.3994
  428TMC3    C3 6381   2.652   2.778  14.950 -0.4929 -0.4730  0.1537
  428TMC3    C4 6382   2.804   2.948  14.807  0.6535  0.5937 -0.3115
  428TMC3    C5 6383   2.868   2.846  14.889  0.4823  0.3457  0.3467
  428TMC3    C6 6384   2.787   2.761  14.969  0.7011  0.0808  0.1321
  428TMC3     C 6385   2.618   3.076  14.739  0.4577  0.1184 -0.0835
  428TMC3     O 6386   2.683   3.114  14.644 -0.0666  0.5202  0.6106
  428TMC3     H 6387   2.484   2.872  14.854  0.4343 -1.6413 -0.4314
  428TMC3    H1 6388   2.860   3.026  14.756 -1.4003  2.2292 -0.0693
  428TMC3    H2 6389   2.819   2.686  15.041 -0.6498  1.2858  1.9919
  428TMC3    C7 6390   2.983   2.880  14.966  0.0281  0.0409  0.3110
  428TMC3    C8 6391   2.569   2.723  15.053  1.0009 -0.4430 -0.0897
  428TMC3    O1 6392   2.988   2.829  15.074  0.0484 -0.3719  0.0568
  428TMC3    O2 6393   2.567   2.602  15.073  0.5826  0.2682  0.5780
  429MPD2     C 6394   3.476   3.202   0.085 -0.2544  0.6764  0.4425
  429MPD2    C1 6395   3.562   3.168  17.695  0.2736 -0.3707  0.0287
  429MPD2    C2 6396   3.627   3.266  17.619  0.2705 -0.1867  0.1555
  429MPD2    C3 6397   3.603   3.401  17.643  0.5788  0.1096  0.3460
  429MPD2    C4 6398   3.512   3.440   0.036 -0.0481  0.3065 -0.6542
  429MPD2    C5 6399   3.450   3.341   0.111 -0.0873 -0.6071 -0.4183
  429MPD2     H 6400   3.684   3.232  17.534  0.4474  0.5628 -0.0220
  429MPD2    H1 6401   3.489   3.542   0.066  0.1568 -0.0973  0.8756
  429MPD2    H2 6402   3.426   3.128   0.145  1.3207  0.3114  1.3131
  429MPD2    H3 6403   3.390   3.372   0.196  0.3343  0.6209 -0.5739
  429MPD2     N 6404   3.682   3.482  17.561 -0.1951  0.4057 -0.2346
  429MPD2    H5 6405   3.749   3.444  17.495  1.4351  1.3339  0.8560
  429MPD2    N1 6406   3.591   3.036  17.660 -0.1995  0.1334 -0.5478
  429MPD2    H7 6407   3.659   3.025  17.586  1.0037  1.2351  0.4117
  430TMC3    C1 6408   3.759   3.668  17.439 -0.6185 -0.2777 -0.2859
  430TMC3    C2 6409   3.748   3.794  17.393 -0.1606  0.1316 -0.4260
  430TMC3    C3 6410   3.819   3.825  17.278  0.1472 -0.4335  0.5474
  430TMC3    C4 6411   3.841   3.572  17.375  0.2118  0.1305  0.9681
  430TMC3    C5 6412   3.918   3.615  17.266  0.0818 -0.3384  0.9189
  430TMC3    C6 6413   3.913   3.747  17.217 -0.4543  0.0612  0.1846
  430TMC3     C 6414   3.673   3.620  17.549  0.3379  0.0088  0.2237
  430TMC3     O 6415   3.594   3.693  17.608  0.1036  0.6615  0.1297
  430TMC3     H 6416   3.686   3.865  17.446 -0.7678 -1.0893  0.5152
  430TMC3    H1 6417   3.863   3.475  17.418 -0.0212 -0.5117 -0.3674
  430TMC3    H2 6418   3.980   3.777  17.137  1.3580 -0.3395  1.5484
  430TMC3    C7 6419   4.003   3.500  17.215  0.3882  0.2913  0.1778
  430TMC3    C8 6420   3.769   3.929  17.195 -0.2030  0.0802 -0.8342
  430TMC3    O1 6421   3.943   3.394  17.209  0.1421  0.4126  0.1540
  430TMC3    O2 6422   3.708   4.022  17.248  0.2681 -0.1094  0.0234
  431MPD2     C 6423   4.677   3.119  12.262  0.1202  0.1396  0.4509
  431MPD2    C1 6424   4.658   3.228  12.188 -0.2275 -0.4866  0.3628
  431MPD2    C2 6425   4.636   3.208  12.053 -0.1070 -0.1087  0.3960
  431MPD2    C3 6426   4.647   3.072  12.003 -0.0553  0.0085  0.1951
  431MPD2    C4 6427   4.691   2.969  12.077  0.1489  0.2655  0.1809
  431MPD2    C5 6428   4.699   2.989  12.209  0.2219 -0.3106 -0.9625
  431MPD2     H 6429   4.612   3.289  11.985  0.1522 -0.9399 -0.6694
  431MPD2    H1 6430   4.712   2.872  12.034 -0.3066  0.6113 -0.8352
  431MPD2    H2 6431   4.703   3.132  12.367  2.7277  1.7221 -0.3859
  431MPD2    H3 6432   0.002   2.902  12.267 -0.5680 -0.2838 -0.5439
  431MPD2     N 6433   4.616   3.043  11.868  0.1114  0.4485 -0.1885
  431MPD2    H5 6434   4.620   2.945  11.844  1.0219  0.1310  1.2252
  431MPD2    N1 6435   4.660   3.366  12.226  0.5395  0.3595 -0.0396
  431MPD2    H7 6436   4.625   3.435  12.160 -1.4299  0.7557  1.4179
  432TMC3    C1 6437   4.555   3.071  11.653 -0.1308 -0.3266 -0.4833
  432TMC3    C2 6438   4.635   3.077  11.545 -0.3495  0.0294 -0.5462
  432TMC3    C3 6439   4.629   2.977  11.456  0.3717  0.0961 -0.8945
  432TMC3    C4 6440   4.476   2.964  11.688  0.3667  0.0003 -0.1199
  432TMC3    C5 6441   4.498   2.859  11.609  0.5254  0.1246  0.4426
  432TMC3    C6 6442   4.564   2.862  11.488  0.2376  0.0451  0.3663
  432TMC3     C 6443   4.599   3.140  11.768 -0.9029 -0.4179  0.1851
  432TMC3     O 6444   4.635   3.258  11.765  0.2888  0.0965 -0.1582
  432TMC3     H 6445   4.696   3.165  11.528 -1.9486  1.1560 -0.4922
  432TMC3    H1 6446   4.405   2.963  11.769 -0.4234  0.8812 -0.8017
  432TMC3    H2 6447   4.592   2.769  11.440 -0.1187 -0.1627  0.5583
  432TMC3    C7 6448   4.531   2.741  11.682 -0.0906 -0.7055 -0.1335
  432TMC3    C8 6449   0.007   2.958  11.356 -0.2074  0.1452 -0.8328
  432TMC3    O1 6450   4.626   2.683  11.629 -0.8883 -0.3111  0.0705
  432TMC3    O2 6451   4.713   2.872  11.268 -0.0627 -0.2241 -0.2306
  433MPD2     C 6452   3.787   2.542  10.994  0.2315 -0.0951 -0.0397
  433MPD2    C1 6453   3.737   2.426  11.056 -0.0658 -1.0554 -0.5059
  433MPD2    C2 6454   3.760   2.405  11.190  0.0747  0.0219 -0.4376
  433MPD2    C3 6455   3.826   2.497  11.257 -0.0200  0.5968 -0.7352
  433MPD2    C4 6456   3.862   2.622  11.206 -0.7392 -0.5420 -0.5318
  433MPD2    C5 6457   3.859   2.638  11.072  0.3158  0.2550 -0.3470
  433MPD2     H 6458   3.738   2.321  11.254  2.0929 -1.3053 -1.4834
  433MPD2    H1 6459   3.909   2.703  11.261 -1.4269 -0.6791  0.2536
  433MPD2    H2 6460   3.778   2.560  10.888 -0.5433  2.2525  0.4193
  433MPD2    H3 6461   3.889   2.734  11.032  1.3620 -0.8006 -2.0854
  433MPD2     N 6462   3.822   2.468  11.396 -0.1126 -0.0388  0.5267
  433MPD2    H5 6463   3.785   2.379  11.429  1.5629 -0.4849  1.1995
  433MPD2    N1 6464   3.669   2.327  10.973  0.8612  0.4754 -0.0891
  433MPD2    H7 6465   3.668   2.348  10.874  0.5088 -2.7160 -0.7406
  434TMC3    C1 6466   3.587   2.108  10.927  0.1943 -0.3855  0.1334
  434TMC3    C2 6467   3.571   1.984  10.984  0.6217 -0.5181  0.0315
  434TMC3    C3 6468   3.574   1.883  10.903 -0.3452 -0.0818  0.3397
  434TMC3    C4 6469   3.620   2.130  10.794  0.1825 -0.0445  0.1238
  434TMC3    C5 6470   3.601   2.018  10.718  0.2695 -0.7451  0.4792
  434TMC3    C6 6471   3.582   1.897  10.770  0.3195  0.5268  0.8775
  434TMC3     C 6472   3.624   2.204  11.020  0.6269  0.0278  0.2688
  434TMC3     O 6473   3.613   2.169  11.137  0.3065  0.0028  0.3001
  434TMC3     H 6474   3.563   1.965  11.091  2.3255  0.9266  0.4299
  434TMC3    H1 6475   3.631   2.233  10.763  0.2463  0.6588  2.4402
  434TMC3    H2 6476   3.585   1.804  10.713  3.6925  0.5370  1.0246
  434TMC3    C7 6477   3.615   2.033  10.578  0.4762 -0.3091  0.1378
  434TMC3    C8 6478   3.619   1.764  10.973 -0.0473 -0.3396 -0.3226
  434TMC3    O1 6479   3.638   2.141  10.528  0.0713 -0.0649  0.9979
  434TMC3    O2 6480   3.698   1.782  11.060  0.2681  0.0262 -0.1434
  435MPD2     C 6481   0.591   1.958  15.388 -0.1569 -0.1464 -0.4318
  435MPD2    C1 6482   0.541   1.966  15.516 -0.5577  0.1814 -0.4765
  435MPD2    C2 6483   0.627   1.942  15.622  0.2963  0.0803 -0.3200
  435MPD2    C3 6484   0.759   1.911  15.606  0.5887 -0.9839 -0.1378
  435MPD2    C4 6485   0.809   1.911  15.479  0.2910 -0.7453  0.1975
  435MPD2    C5 6486   0.724   1.925  15.372  0.4780  0.5211  0.0333
  435MPD2     H 6487   0.580   1.936  15.720  0.5378  0.0754 -0.2059
  435MPD2    H1 6488   0.915   1.916  15.461  0.0133 -2.6862 -1.9911
  435MPD2    H2 6489   0.529   1.978  15.301  1.1456  1.5705 -0.9724
  435MPD2    H3 6490   0.774   1.936  15.276 -0.9411  1.3442 -0.6272
  435MPD2     N 6491   0.838   1.892  15.719 -0.5770  0.1855  0.7021
  435MPD2    H5 6492   0.798   1.908  15.811 -0.2367  3.9074  0.1796
  435MPD2    N1 6493   0.410   2.003  15.545  0.2951 -0.1010  0.3667
  435MPD2    H7 6494   0.382   1.992  15.642 -1.5431  0.5236 -0.0774
  436TMC3    C1 6495   0.036   1.945  15.675 -0.7148 -0.1667 -0.2258
  436TMC3    C2 6496   0.160   1.970  15.637  0.1669 -0.0638  0.2531
  436TMC3    C3 6497   0.182   2.001  15.509  0.0276  0.6409  0.3616
  436TMC3    C4 6498   4.659   1.928  15.584  0.1126 -0.1566 -1.1998
  436TMC3    C5 6499   4.685   1.947  15.454 -0.3638  0.0076 -0.0716
  436TMC3    C6 6500   0.084   1.984  15.415  0.4881 -1.1768  0.8223
  436TMC3     C 6501   0.031   1.902  15.812 -0.7325  0.4681  0.0298
  436TMC3     O 6502   0.120   1.831  15.853  0.6343 -0.1616  0.0056
  436TMC3     H 6503   0.240   1.982  15.710 -1.8061 -1.4643  2.6651
  436TMC3    H1 6504   4.566   1.882  15.615  0.5574 -1.3866 -1.7251
  436TMC3    H2 6505   0.103   2.007  15.311  0.6024  0.4728  1.2161
  436TMC3    C7 6506   4.629   1.863  15.358 -0.6009  0.2702  0.0981
  436TMC3    C8 6507   0.309   2.026  15.457 -0.6103 -0.0993  0.1286
  436TMC3    O1 6508   4.718   1.813  15.288  0.3164  0.1330 -0.3620
  436TMC3    O2 6509   0.318   2.055  15.337  0.2284  0.1784 -0.0931
  437TMC3    C1 6510   3.683   4.117  12.508  0.2730 -0.7366 -0.1776
  437TMC3    C2 6511   3.683   4.221  12.592 -0.0458 -0.0660 -0.1289
  437TMC3    C3 6512   3.751   4.333  12.558 -0.3653  0.8456 -0.3054
  437TMC3    C4 6513   3.742   4.121  12.382 -0.6955  0.1286 -0.6362
  437TMC3    C5 6514   3.797   4.239  12.351  1.0017  0.0628 -0.3571
  437TMC3    C6 6515   3.810   4.344  12.434  0.5158 -0.4830  0.0854
  437TMC3     C 6516   3.654   3.987  12.563 -0.1571  0.8230  0.3042
  437TMC3     O 6517   3.546   3.975  12.615  0.2127  0.0520 -0.5583
  437TMC3     H 6518   3.642   4.214  12.693  0.7773  0.8565  0.2691
  437TMC3    H1 6519   3.760   4.036  12.316 -0.0962 -0.5516  0.3933
  437TMC3    H2 6520   3.873   4.429  12.412  0.0722  0.0427  0.8298
  437TMC3    C7 6521   3.876   4.241  12.234 -0.2577 -0.1453  0.7052
  437TMC3    C8 6522   3.763   4.447  12.654 -0.4618  0.2300  0.2039
  437TMC3    O1 6523   3.820   4.225  12.124  0.1917  0.1344 -0.5025
  437TMC3    O2 6524   3.758   4.427  12.776  0.1096  0.0426  0.0385
  438MPD2     C 6525   1.529   3.748  16.564  0.3722 -0.8062  0.1251
  438MPD2    C1 6526   1.537   3.863  16.642  0.1705  0.2111  0.3220
  438MPD2    C2 6527   1.569   3.844  16.781  0.5184  0.0659 -0.0139
  438MPD2    C3 6528   1.591   3.718  16.828  0.3002 -0.0924  0.1273
  438MPD2    C4 6529   1.566   3.606  16.746 -0.2480 -0.0086  0.5413
  438MPD2    C5 6530   1.542   3.626  16.615  0.0114 -0.2585  0.6348
  438MPD2     H 6531   1.575   3.932  16.844  2.5284 -0.2201  0.1967
  438MPD2    H1 6532   1.572   3.503  16.781  3.8602  1.1763  3.3181
  438MPD2    H2 6533   1.518   3.750  16.456 -0.7095  1.9012  0.2921
  438MPD2    H3 6534   1.538   3.543  16.546  1.6636  0.4188 -0.2542
  438MPD2     N 6535   1.631   3.699  16.960  0.1090 -0.1500 -0.0319
  438MPD2    H5 6536   1.662   3.607  16.989  0.8901  0.5250  1.3365
  438MPD2    N1 6537   1.519   3.996  16.599  0.5887  0.2854 -0.0495
  438MPD2    H7 6538   1.523   4.069  16.670 -2.7046  1.1546 -0.7987
  439TMC3    C1 6539   1.492   4.171  16.452 -0.4311 -0.0856  0.9935
  439TMC3    C2 6540   1.450   4.206  16.326 -0.2492  0.3450  0.2394
  439TMC3    C3 6541   1.517   4.306  16.257  0.8087 -0.4094  0.3193
  439TMC3    C4 6542   1.580   4.248  16.523  0.1656 -0.4458  0.0608
  439TMC3    C5 6543   1.648   4.343  16.453 -0.0127 -0.4559  0.2242
  439TMC3    C6 6544   1.617   4.376  16.322  0.4201 -0.0609  0.2101
  439TMC3     C 6545   1.491   4.030  16.469  0.5096  0.3379 -0.5176
  439TMC3     O 6546   1.508   3.965  16.364 -0.4804 -0.2242 -0.3011
  439TMC3     H 6547   1.385   4.134  16.277  1.8399 -0.4016 -1.4338
  439TMC3    H1 6548   1.620   4.222  16.620  0.0320 -0.1143  0.2068
  439TMC3    H2 6549   1.673   4.449  16.265 -0.4947 -1.7907 -2.9109
  439TMC3    C7 6550   1.787   4.358  16.484  0.0673 -0.7210  0.3813
  439TMC3    C8 6551   1.522   4.283  16.116  0.1450  0.1777 -0.1142
  439TMC3    O1 6552   1.833   4.291  16.575  0.3981  0.1078  0.3211
  439TMC3    O2 6553   1.475   4.179  16.079  0.0226 -0.4216  0.4373
  440MPD2     C 6554   0.851   0.818  14.905 -0.2201 -0.5888  0.4011
  440MPD2    C1 6555   0.822   0.688  14.908 -0.3962 -0.0694  0.5899
  440MPD2    C2 6556   0.921   0.597  14.882  0.5304 -0.2673 -1.1659
  440MPD2    C3 6557   1.053   0.629  14.858  0.2876  0.1037  0.1909
  440MPD2    C4 6558   1.078   0.768  14.860  0.2612  0.2151  0.1227
  440MPD2    C5 6559   0.977   0.861  14.875 -0.2508 -0.1201  0.3925
  440MPD2     H 6560   0.888   0.495  14.870 -0.8028 -0.2981  3.1047
  440MPD2    H1 6561   1.179   0.798  14.834  0.5080 -1.6269 -1.0578
  440MPD2    H2 6562   0.780   0.898  14.922  1.1574  0.3683  1.6088
  440MPD2    H3 6563   1.003   0.966  14.876 -0.1127 -0.1532  0.2431
  440MPD2     N 6564   1.154   0.537  14.834 -0.1309  0.6617 -0.3581
  440MPD2    H5 6565   1.248   0.569  14.856 -0.4786  1.0420  0.5546
  440MPD2    N1 6566   0.694   0.638  14.937  0.1226 -0.0475 -0.0082
  440MPD2    H7 6567   0.689   0.537  14.949 -2.6351 -0.1107 -1.7033
  441TMC3    C1 6568   1.249   0.335  14.821  0.1169 -0.2911 -0.6856
  441TMC3    C2 6569   1.314   0.360  14.939 -0.6005 -0.5120 -0.0103
  441TMC3    C3 6570   1.353   0.256  15.018  0.1707 -0.3008 -1.0108
  441TMC3    C4 6571   1.227   0.208  14.782 -0.5067  0.4747 -0.8377
  441TMC3    C5 6572   1.276   0.109  14.865 -0.4617 -0.2153  0.2805
  441TMC3    C6 6573   1.341   0.126  14.981 -0.3772  0.4887  0.0750
  441TMC3     C 6574   1.136   0.415  14.788  0.2883 -0.0904  0.0055
  441TMC3     O 6575   1.044   0.363  14.727  0.1015  0.0392  0.0435
  441TMC3     H 6576   1.330   0.458  14.983  0.5018 -0.4004 -0.6713
  441TMC3    H1 6577   1.159   0.186  14.699 -0.9400 -2.1940  0.2160
  441TMC3    H2 6578   1.361   0.044  15.048 -0.3622  1.1958  0.9366
  441TMC3    C7 6579   1.234   4.698  14.842 -0.1408 -0.0994  0.1621
  441TMC3    C8 6580   1.351   0.277  15.161 -0.2223  0.3571  0.5858
  441TMC3    O1 6581   1.238   4.617  14.935 -0.4371  0.0157  0.2643
  441TMC3    O2 6582   1.439   0.230  15.228 -0.1591 -0.5761  0.2429
  442MPD2     C 6583   3.669   0.744  16.694  0.0651 -0.5854  0.4428
  442MPD2    C1 6584   3.552   0.674  16.722 -0.8407  0.0679  1.0606
  442MPD2    C2 6585   3.507   0.591  16.624  0.0709  0.5505  0.2585
  442MPD2    C3 6586   3.573   0.581  16.502  0.4085  0.1937 -0.1294
  442MPD2    C4 6587   3.693   0.641  16.484 -0.3083  0.4728 -0.1471
  442MPD2    C5 6588   3.738   0.727  16.585 -0.0499 -0.2018 -0.8852
  442MPD2     H 6589   3.425   0.522  16.637 -0.4012  1.3121  1.2582
  442MPD2    H1 6590   3.757   0.638  16.397 -2.3133 -1.2447 -1.5349
  442MPD2    H2 6591   3.719   0.800  16.772 -0.0872 -0.6366  0.5754
  442MPD2    H3 6592   3.821   0.792  16.560 -1.1752  0.9459 -1.6137
  442MPD2     N 6593   3.534   0.484  16.404  0.6079  0.0353  0.2741
  442MPD2    H5 6594   3.594   0.475  16.322  0.9773  0.5682  0.4827
  442MPD2    N1 6595   3.469   0.702  16.841  0.6589 -0.2913 -0.3025
  442MPD2    H7 6596   3.379   0.657  16.833  0.6661 -0.3819  0.1136
  443TMC3    C1 6597   3.381   0.799  17.039 -0.5245 -0.2824  0.0129
  443TMC3    C2 6598   3.328   0.924  17.042 -0.0590 -0.1177 -0.2385
  443TMC3    C3 6599   3.190   0.941  17.045 -0.0139 -0.2662  0.8885
  443TMC3    C4 6600   3.298   0.695  17.057  0.0156 -0.3575 -0.4633
  443TMC3    C5 6601   3.164   0.721  17.082 -0.1037  0.6252 -0.0514
  443TMC3    C6 6602   3.106   0.848  17.070 -0.9033  0.5901 -0.0991
  443TMC3     C 6603   3.490   0.790  16.947 -0.0879 -0.4248  0.1139
  443TMC3     O 6604   3.589   0.855  16.970  0.1722 -0.2313 -0.8469
  443TMC3     H 6605   3.392   1.010  17.021 -0.9516  0.9664  1.5231
  443TMC3    H1 6606   3.333   0.592  17.050  2.3524  0.4346 -0.2443
  443TMC3    H2 6607   2.999   0.858  17.071 -1.0083 -0.5680  0.8430
  443TMC3    C7 6608   3.077   0.615  17.084 -0.1536  0.3185  1.1966
  443TMC3    C8 6609   3.153   1.040  16.944 -0.5996  0.1205 -0.0818
  443TMC3    O1 6610   3.111   0.518  17.014 -0.0547 -0.1134  0.0862
  443TMC3    O2 6611   3.228   1.137  16.944  0.2657  0.6865  0.0404
  444MPD2     C 6612   3.810   4.675  17.083  0.2749 -0.2533 -1.3203
  444MPD2    C1 6613   3.693   4.612  17.043  0.5121  0.0689 -0.2726
  444MPD2    C2 6614   3.711   4.505  16.960  0.6048 -1.0140 -0.8048
  444MPD2    C3 6615   3.834   4.464  16.910  0.3972  0.4396 -0.2561
  444MPD2    C4 6616   3.944   4.537  16.942 -0.1732  0.2577  0.4185
  444MPD2    C5 6617   3.931   4.633  17.035 -0.0746  0.3224 -0.8303
  444MPD2     H 6618   3.621   4.452  16.933 -0.0391  0.3062 -1.2832
  444MPD2    H1 6619   4.043   4.521  16.901 -0.7141  0.2232 -0.9027
  444MPD2    H2 6620   3.807   0.032  17.154  0.5051 -1.0368 -0.4024
  444MPD2    H3 6621   4.015   4.696  17.060 -0.8695  1.2726 -0.5640
  444MPD2     N 6622   3.842   4.352  16.817  0.0226 -0.0870  0.4212
  444MPD2    H5 6623   3.755   4.300  16.808 -1.0403  1.8267 -0.3504
  444MPD2    N1 6624   3.563   4.654  17.081 -0.5429  0.0595  0.4053
  444MPD2    H7 6625   3.493   4.595  17.037  1.9949 -1.7957 -1.1393
  445TMC3    C1 6626   3.942   4.190  16.679  0.1081  0.5042  0.5514
  445TMC3    C2 6627   3.841   4.174  16.586  0.3135  0.0334  0.5408
  445TMC3    C3 6628   3.867   4.093  16.475 -0.0143 -0.0684  0.7419
  445TMC3    C4 6629   4.069   4.130  16.653 -0.3794 -0.2320 -0.2283
  445TMC3    C5 6630   4.081   4.057  16.536 -0.0433  0.0360  0.5236
  445TMC3    C6 6631   3.982   4.036  16.443  0.8215  0.8387  0.3721
  445TMC3     C 6632   3.953   4.318  16.734 -0.2173  1.1021  0.6211
  445TMC3     O 6633   4.063   4.370  16.725 -0.0983 -0.0142 -0.5633
  445TMC3     H 6634   3.753   4.236  16.588  0.3224  0.0546  0.2925
  445TMC3    H1 6635   4.156   4.142  16.716 -1.4664 -3.4806  1.8281
  445TMC3    H2 6636   3.993   3.968  16.359 -2.1262  1.3986 -0.4589
  445TMC3    C7 6637   4.216   4.030  16.495 -0.3618  0.5613  0.1659
  445TMC3    C8 6638   3.749   4.068  16.398 -0.5412 -0.3081  0.4791
  445TMC3    O1 6639   4.231   4.032  16.373 -0.3816  0.1507  0.2834
  445TMC3    O2 6640   3.649   4.134  16.408  0.5074 -0.0897  0.5953
  446MPD2     C 6641   3.450   1.550  11.525  0.2031 -0.0659 -0.2060
  446MPD2    C1 6642   3.437   1.589  11.392 -0.2649  0.0474 -0.4014
  446MPD2    C2 6643   3.530   1.672  11.342 -0.1747  0.8432 -0.1327
  446MPD2    C3 6644   3.643   1.716  11.418  0.2450 -0.2270 -1.2327
  446MPD2    C4 6645   3.659   1.675  11.545  0.2151 -0.2577  0.1397
  446MPD2    C5 6646   3.562   1.585  11.597 -0.3292 -0.3251  0.4092
  446MPD2     H 6647   3.521   1.712  11.241 -2.0466  2.4252  0.6776
  446MPD2    H1 6648   3.734   1.712  11.615  1.0866 -1.6807 -0.0286
  446MPD2    H2 6649   3.377   1.494  11.583  1.2915 -0.2420  0.9872
  446MPD2    H3 6650   3.557   1.563  11.702 -1.8687  1.3305  0.6855
  446MPD2     N 6651   3.744   1.780  11.345  0.3602 -0.1160  0.5597
  446MPD2    H5 6652   3.716   1.812  11.252 -0.6892 -0.8757  0.6177
  446MPD2    N1 6653   3.325   1.541  11.307  0.3620  0.3838  0.1866
  446MPD2    H7 6654   3.324   1.576  11.212  0.0101  0.7118  0.3117
  447TMC3    C1 6655   3.935   1.926  11.336  0.3046  0.0475  0.0612
  447TMC3    C2 6656   3.886   1.978  11.219  0.0117 -0.1077 -0.1094
  447TMC3    C3 6657   3.959   2.074  11.152  0.5904  0.4435 -0.2338
  447TMC3    C4 6658   4.062   1.956  11.382 -0.2355  0.1762 -0.5604
  447TMC3    C5 6659   4.136   2.046  11.309 -0.0416 -0.0223  0.5216
  447TMC3    C6 6660   4.084   2.107  11.198 -0.2250 -0.1967  0.3134
  447TMC3     C 6661   3.867   1.811  11.391 -0.0857 -0.3834  0.1475
  447TMC3     O 6662   3.935   1.754  11.468  0.1466  0.4526 -0.0418
  447TMC3     H 6663   3.788   1.958  11.176 -0.1537 -1.2509  0.7907
  447TMC3    H1 6664   4.104   1.905  11.468 -3.0871  0.4179  0.9681
  447TMC3    H2 6665   4.144   2.173  11.137  0.3919 -1.0386  0.0202
  447TMC3    C7 6666   4.267   2.007  11.273 -0.5538  0.4153  0.4868
  447TMC3    C8 6667   3.957   2.070  11.009 -0.2288  0.9018  0.2449
  447TMC3    O1 6668   4.295   2.000  11.149  0.1272  0.0730  0.3785
  447TMC3    O2 6669   3.985   2.175  10.953 -0.2890  0.2379  0.3234
  448TMC3    C1 6670   2.253   1.249  16.963  0.6620 -1.2744  0.1255
  448TMC3    C2 6671   2.143   1.210  16.890 -0.1592 -0.1022  0.1705
  448TMC3    C3 6672   2.098   1.081  16.911 -0.8196  0.0301  0.1261
  448TMC3    C4 6673   2.324   1.163  17.046 -0.1269 -0.0427  0.7763
  448TMC3    C5 6674   2.272   1.039  17.074 -0.4302 -0.1113  0.0901
  448TMC3    C6 6675   2.158   0.998  17.012 -0.3679 -0.0150 -0.3713
  448TMC3     C 6676   2.286   1.385  16.953 -0.1187 -0.2919  0.2550
  448TMC3     O 6677   2.201   1.456  16.908 -0.5347  0.5416  0.4713
  448TMC3     H 6678   2.104   1.269  16.808  0.7107 -0.1643 -0.2804
  448TMC3    H1 6679   2.406   1.192  17.110 -0.5973  2.6945  0.1248
  448TMC3    H2 6680   2.113   0.905  17.044  1.8465 -0.8985  0.1038
  448TMC3    C7 6681   2.318   0.972  17.192  0.7151  0.9635 -1.0212
  448TMC3    C8 6682   1.991   1.016  16.836 -0.0669  0.2850  0.6095
  448TMC3    O1 6683   2.436   0.973  17.220 -0.1481  0.4703 -0.0061
  448TMC3    O2 6684   1.976   0.898  16.863  0.1536 -0.0282  0.2194
  449MPD2     C 6685   3.094   4.303  13.351 -0.2896 -0.2933 -1.2591
  449MPD2    C1 6686   2.995   4.215  13.328  0.0006 -0.3371  0.1323
  449MPD2    C2 6687   2.936   4.145  13.437  0.0029  0.5739 -0.5773
  449MPD2    C3 6688   2.974   4.174  13.568 -0.2613  0.1066  0.9819
  449MPD2    C4 6689   3.057   4.278  13.587  0.4655  0.3765  0.2654
  449MPD2    C5 6690   3.123   4.333  13.477 -0.0050 -0.3989  0.2082
  449MPD2     H 6691   2.855   4.074  13.426  0.1906  0.4296 -1.0238
  449MPD2    H1 6692   3.098   4.314  13.680  0.8399  0.3846  0.0963
  449MPD2    H2 6693   3.150   4.362  13.279 -0.1832  0.7035 -0.3660
  449MPD2    H3 6694   3.194   4.412  13.496  1.0396 -1.2085 -0.3067
  449MPD2     N 6695   2.926   4.090  13.674  0.4490 -0.0699  1.1398
  449MPD2    H5 6696   2.867   4.010  13.653  1.3987  0.5236 -3.6820
  449MPD2    N1 6697   2.930   4.185  13.205 -0.2657 -0.6267  0.3793
  449MPD2    H7 6698   2.854   4.120  13.216  0.1082 -1.2655 -0.7863
  450TMC3    C1 6699   2.888   4.162  12.983  0.2290 -0.3600  0.5274
  450TMC3    C2 6700   2.961   4.060  12.921 -0.3014 -0.5753 -0.6179
  450TMC3    C3 6701   2.908   3.935  12.917 -0.0002  0.1500 -0.4276
  450TMC3    C4 6702   2.767   4.133  13.035 -0.4949 -0.5258  0.6177
  450TMC3    C5 6703   2.708   4.010  13.019  0.7967 -0.5745  1.0768
  450TMC3    C6 6704   2.782   3.913  12.963 -0.0828  0.1709  0.0665
  450TMC3     C 6705   2.973   4.226  13.086  0.0523 -0.8826 -1.0500
  450TMC3     O 6706   3.068   4.287  13.056 -0.6926 -0.1523  0.5398
  450TMC3     H 6707   3.060   4.085  12.887  0.2338 -2.5711 -0.5223
  450TMC3    H1 6708   2.712   4.209  13.089  1.8265  0.6294  1.3556
  450TMC3    H2 6709   2.751   3.810  12.981  0.5505 -0.1578 -0.6912
  450TMC3    C7 6710   2.666   3.969  13.156  0.2777  0.2897 -0.8198
  450TMC3    C8 6711   3.000   3.822  12.917  0.2995  0.7057  0.0528
  450TMC3    O1 6712   2.723   4.030  13.247 -0.2891  0.2661  0.2652
  450TMC3    O2 6713   2.958   3.710  12.928  0.8862  0.1889 -0.2976
  451MPD2     C 6714   0.132   3.616   1.414  0.8003 -0.2973  0.9342
  451MPD2    C1 6715   0.030   3.600   1.333  0.1993 -0.3908 -0.3150
  451MPD2    C2 6716   4.712   3.477   1.295  0.2540 -0.4453 -0.7371
  451MPD2    C3 6717   0.049   3.366   1.345 -0.7701  0.2098 -0.4687
  451MPD2    C4 6718   0.153   3.383   1.439 -0.2074  0.1730 -0.8167
  451MPD2    C5 6719   0.188   3.513   1.475  0.6367  0.6948  0.3868
  451MPD2     H 6720   4.638   3.472   1.216 -1.0989  0.3588  0.4810
  451MPD2    H1 6721   0.203   3.302   1.491  0.1989  2.0739  1.7985
  451MPD2    H2 6722   0.155   3.716   1.451 -2.9145  0.5875  0.8102
  451MPD2    H3 6723   0.268   3.535   1.544  0.3024  1.0821  0.6492
  451MPD2     N 6724   0.022   3.235   1.310 -0.6308  0.4485  0.2620
  451MPD2    H5 6725   0.067   3.165   1.370  1.1530  1.3914  0.0288
  451MPD2    N1 6726   4.693   3.716   1.291  0.0139 -0.3522  0.5542
  451MPD2    H7 6727   0.012   3.803   1.317 -1.8038  1.2661 -1.6069
  452TMC3    C1 6728   4.684   3.047   1.182 -0.0751 -0.4131  0.0062
  452TMC3    C2 6729   0.068   2.978   1.241  0.3894  0.7313 -0.5332
  452TMC3    C3 6730   0.072   2.834   1.229 -0.2929  0.8422  0.3721
  452TMC3    C4 6731   4.579   2.986   1.111 -0.0108 -0.0861  0.0664
  452TMC3    C5 6732   4.590   2.853   1.104  0.6779 -1.1984 -0.3733
  452TMC3    C6 6733   4.692   2.777   1.154 -0.5900  0.4678  0.0345
  452TMC3     C 6734   4.669   3.191   1.205  0.0185  1.0435  0.9832
  452TMC3     O 6735   4.595   3.250   1.133 -0.1043 -0.0569 -0.1507
  452TMC3     H 6736   0.147   3.033   1.291 -0.9761  1.0246  1.2867
  452TMC3    H1 6737   4.507   3.048   1.058  0.8553  0.1193 -0.8664
  452TMC3    H2 6738   4.691   2.669   1.148  1.5203  0.4127  1.0024
  452TMC3    C7 6739   4.494   2.777   1.018 -0.6399  0.2831  0.6103
  452TMC3    C8 6740   0.145   2.734   1.304  0.1973 -0.2991  0.0550
  452TMC3    O1 6741   4.445   2.842   0.930 -0.3852  0.0359  0.3214
  452TMC3    O2 6742   0.097   2.623   1.311 -0.2833 -0.3193 -0.4962
  453TMC3    C1 6743   1.128   0.771  11.314  0.3497 -0.1075 -0.5897
  453TMC3    C2 6744   1.055   0.660  11.321  0.5481 -0.0633 -0.0221
  453TMC3    C3 6745   0.919   0.679  11.286 -0.6830 -0.3014  0.2478
  453TMC3    C4 6746   1.083   0.896  11.273  0.4597  0.3002  0.1735
  453TMC3    C5 6747   0.947   0.903  11.257  0.0608  0.3877 -0.1920
  453TMC3    C6 6748   0.865   0.796  11.254 -0.2619 -0.4348  0.5731
  453TMC3     C 6749   1.258   0.770  11.383  0.4843  0.4947 -0.1584
  453TMC3     O 6750   1.340   0.847  11.342  0.0290  0.1259 -0.2540
  453TMC3     H 6751   1.089   0.566  11.363 -0.0884  0.1150  0.8898
  453TMC3    H1 6752   1.155   0.975  11.289  0.5671  0.3455 -0.5519
  453TMC3    H2 6753   0.763   0.807  11.219  0.7885  1.5210 -1.8859
  453TMC3    C7 6754   0.876   1.035  11.263  0.5006  0.9139  0.5078
  453TMC3    C8 6755   0.821   0.573  11.314  0.2429 -0.2453 -0.5134
  453TMC3    O1 6756   0.954   1.127  11.254 -0.2167 -0.0190 -0.2221
  453TMC3    O2 6757   0.716   0.607  11.358 -0.0481 -0.1276  0.5740
  454MPD2     C 6758   4.420   4.345  16.110 -0.5914  0.0818 -0.1442
  454MPD2    C1 6759   4.414   4.482  16.121 -1.1505  0.3673  0.1687
  454MPD2    C2 6760   4.396   4.534  16.248 -0.0895  0.2802 -0.0752
  454MPD2    C3 6761   4.404   4.457  16.359 -0.0182 -0.4028  0.0022
  454MPD2    C4 6762   4.436   4.323  16.349 -1.0400  0.2610 -0.6687
  454MPD2    C5 6763   4.443   4.269  16.222 -0.1390 -0.1400 -0.1023
  454MPD2     H 6764   4.368   4.638  16.258  1.2463  0.6771 -0.4095
  454MPD2    H1 6765   4.435   4.266  16.441  0.8418  0.4890 -0.5019
  454MPD2    H2 6766   4.415   4.288  16.018 -0.1340  0.7177 -0.5585
  454MPD2    H3 6767   4.448   4.162  16.205  0.1244 -0.0621 -0.5085
  454MPD2     N 6768   4.355   4.492  16.488  0.6977  0.0114 -0.6802
  454MPD2    H5 6769   4.377   4.432  16.567  1.6787  1.8116  0.4050
  454MPD2    N1 6770   4.398   4.566  16.008  0.1709 -0.2667 -0.0688
  454MPD2    H7 6771   4.385   4.667  16.017 -0.1034 -0.3734  0.7558
  455TMC3    C1 6772   4.208   4.681  16.429  0.9002  0.6860  0.2341
  455TMC3    C2 6773   4.220   0.087  16.420  0.0820  0.5323 -0.5336
  455TMC3    C3 6774   4.165   0.144  16.302 -0.0594 -0.3907 -0.7167
  455TMC3    C4 6775   4.127   4.607  16.353 -0.0348 -0.4380  0.6828
  455TMC3    C5 6776   4.077   4.655  16.241  0.6080  0.8384  0.2723
  455TMC3    C6 6777   4.091   0.066  16.205  0.7228  0.0372 -0.8382
  455TMC3     C 6778   4.299   4.614  16.529  0.8251 -0.8282  0.0950
  455TMC3     O 6779   4.310   4.671  16.637 -0.3373 -0.8315  0.4602
  455TMC3     H 6780   4.279   0.136  16.497  0.3918  0.0449 -0.4592
  455TMC3    H1 6781   4.120   4.506  16.393 -2.9313 -0.2781  0.5386
  455TMC3    H2 6782   4.048   0.111  16.116 -1.9429 -1.0359 -0.0616
  455TMC3    C7 6783   4.041   4.567  16.130 -0.0397  0.3160  0.9438
  455TMC3    C8 6784   4.141   0.286  16.311  0.4167  0.2223  0.5502
  455TMC3    O1 6785   3.975   4.615  16.043  0.0144  0.7100 -0.2931
  455TMC3    O2 6786   4.106   0.341  16.203  0.5178 -0.2018  0.1663
  456MPD2     C 6787   1.891   0.057  15.845 -0.5661  0.3572  0.2189
  456MPD2    C1 6788   2.003   0.083  15.926 -0.8239  0.6144  0.5925
  456MPD2    C2 6789   1.988   0.150  16.043  0.2372 -0.1112 -0.0757
  456MPD2    C3 6790   1.866   0.189  16.088 -0.3536 -0.4364 -0.2302
  456MPD2    C4 6791   1.764   0.190  15.993 -0.0331  0.0910  0.7730
  456MPD2    C5 6792   1.774   0.128  15.870  0.3547  0.1583 -0.3860
  456MPD2     H 6793   2.076   0.144  16.107 -2.0191  1.3327  3.1943
  456MPD2    H1 6794   1.664   0.227  16.014 -1.4781 -2.5964 -1.4143
  456MPD2    H2 6795   1.901   0.001  15.753 -1.6660 -0.1402  0.4023
  456MPD2    H3 6796   1.690   0.129  15.801 -0.1830 -1.9796  0.2463
  456MPD2     N 6797   1.863   0.240  16.210  0.7461 -0.2222 -0.0550
  456MPD2    H5 6798   1.942   0.220  16.271  2.0457 -0.7667 -1.9521
  456MPD2    N1 6799   2.120   0.022  15.885 -0.5618  0.9576 -0.0549
  456MPD2    H7 6800   2.108   4.703  15.795  3.8706 -3.0992  1.3561
  457TMC3    C1 6801   1.765   0.343  16.408  0.3026  0.1009 -0.5848
  457TMC3    C2 6802   1.713   0.463  16.448 -0.0265 -0.2467  0.0143
  457TMC3    C3 6803   1.694   0.488  16.579 -0.5437 -0.6896  0.3234
  457TMC3    C4 6804   1.786   0.242  16.501  0.0270 -0.2393 -0.1261
  457TMC3    C5 6805   1.774   0.271  16.636 -0.1112 -0.5606  0.1343
  457TMC3    C6 6806   1.734   0.396  16.672  0.2976 -0.0086  0.3401
  457TMC3     C 6807   1.751   0.306  16.267  0.3054 -0.1679 -0.4924
  457TMC3     O 6808   1.638   0.321  16.224 -0.2255  0.1938 -0.6866
  457TMC3     H 6809   1.704   0.535  16.367 -3.0178 -2.9530 -2.0531
  457TMC3    H1 6810   1.818   0.145  16.465  0.1716 -0.3139  0.1997
  457TMC3    H2 6811   1.739   0.431  16.774 -4.0732 -1.7382  1.1430
  457TMC3    C7 6812   1.841   0.185  16.737 -0.8587  0.3109  0.4752
  457TMC3    C8 6813   1.711   0.626  16.626 -0.3564  0.1349 -0.4257
  457TMC3    O1 6814   1.871   0.070  16.706  0.2500  0.6024  0.1877
  457TMC3    O2 6815   1.779   0.633  16.725 -0.0845 -0.2478  0.0595
  458MPD2     C 6816   4.335   4.307  12.025  0.1870 -0.5884 -0.7648
  458MPD2    C1 6817   4.354   4.264  12.150 -0.0896 -0.5650  0.0577
  458MPD2    C2 6818   4.241   4.234  12.223 -0.2337  0.7141  0.5443
  458MPD2    C3 6819   4.119   4.270  12.178 -0.0286 -0.8788  0.4770
  458MPD2    C4 6820   4.102   4.333  12.053 -0.8306 -0.6884  0.0277
  458MPD2    C5 6821   4.212   4.346  11.975 -0.0385  0.8335 -0.1976
  458MPD2     H 6822   4.260   4.195  12.323 -1.1406  0.1951  0.5128
  458MPD2    H1 6823   4.003   4.365  12.023 -0.9013  1.1790  2.2249
  458MPD2    H2 6824   4.417   4.330  11.958 -1.1691  0.9239 -1.9153
  458MPD2    H3 6825   4.209   4.383  11.874 -0.0226  0.6415 -0.2692
  458MPD2     N 6826   4.012   4.251  12.262 -0.0944 -0.0489  0.1786
  458MPD2    H5 6827   4.038   4.250  12.361 -2.1435 -0.9440  0.7128
  458MPD2    N1 6828   4.486   4.244  12.191 -0.2633  0.0498  0.1732
  458MPD2    H7 6829   4.559   4.287  12.135  0.7272 -2.9572 -0.8532
  459TMC3    C1 6830   4.655   4.182  12.328 -0.1391  0.0082  0.7827
  459TMC3    C2 6831   0.013   4.272  12.272 -0.2495 -0.2962 -0.0711
  459TMC3    C3 6832   0.136   4.289  12.330 -0.0573  0.6337 -0.2162
  459TMC3    C4 6833   4.696   4.105  12.431 -0.3971 -0.3893 -0.0674
  459TMC3    C5 6834   0.093   4.126  12.484  0.7976 -0.4665 -0.1626
  459TMC3    C6 6835   0.182   4.212  12.429  0.1824 -0.0823  0.1768
  459TMC3     C 6836   4.516   4.168  12.295 -0.2419  0.3151  1.0676
  459TMC3     O 6837   4.453   4.083  12.353  0.2065  0.5382  0.4899
  459TMC3     H 6838   4.703   4.346  12.201 -2.4228 -1.0388  0.2536
  459TMC3    H1 6839   4.634   4.033  12.484 -0.1854 -1.3412 -1.0987
  459TMC3    H2 6840   0.278   4.229  12.475 -0.7312  2.4847  1.1447
  459TMC3    C7 6841   0.134   4.054  12.607  0.5183  0.5043  0.3835
  459TMC3    C8 6842   0.244   4.329  12.250  0.2424  0.4001  0.2809
  459TMC3    O1 6843   0.080   3.948  12.623 -0.4633  0.6939 -0.1064
  459TMC3    O2 6844   0.339   4.386  12.307  0.4249  0.3794  0.1169
  460MPD2     C 6845   3.922   1.752  10.831  0.7316 -0.1348 -0.4343
  460MPD2    C1 6846   3.943   1.891  10.836 -0.2792 -0.2779  0.1243
  460MPD2    C2 6847   3.972   1.970  10.725  0.0281 -0.3973  0.3141
  460MPD2    C3 6848   3.969   1.905  10.604 -0.6298  0.2923  0.1117
  460MPD2    C4 6849   3.949   1.770  10.593  0.4280  0.2975 -0.3881
  460MPD2    C5 6850   3.928   1.692  10.708  0.4751 -0.7360  0.3886
  460MPD2     H 6851   3.982   2.078  10.731  0.1493 -0.3380 -0.8888
  460MPD2    H1 6852   3.946   1.720  10.497 -1.1519  0.6380 -0.5143
  460MPD2    H2 6853   3.887   1.690  10.912  0.6992  0.0531 -0.3056
  460MPD2    H3 6854   3.916   1.584  10.706  2.3767 -0.9784  2.1446
  460MPD2     N 6855   3.993   1.992  10.494  0.5069  0.4485 -0.0538
  460MPD2    H5 6856   4.003   2.091  10.516 -0.9619  0.4784  0.4847
  460MPD2    N1 6857   3.922   1.945  10.961  0.0716 -0.0951  0.2251
  460MPD2    H7 6858   3.913   1.882  11.040  2.0533  0.3097  0.7579
  461TMC3    C1 6859   4.007   2.056  10.272 -0.1615  1.3783  0.3171
  461TMC3    C2 6860   4.032   2.027  10.138  0.3207  0.5708  0.4803
  461TMC3    C3 6861   4.012   2.120  10.040  0.5910 -0.8777  0.1404
  461TMC3    C4 6862   3.946   2.177  10.309  0.6298  0.8231 -0.0448
  461TMC3    C5 6863   3.929   2.261  10.204 -0.3158  0.1118  0.7514
  461TMC3    C6 6864   3.961   2.238  10.074  0.4569 -0.0756 -0.0946
  461TMC3     C 6865   4.018   1.949  10.369  0.0685 -1.1534 -0.4105
  461TMC3     O 6866   4.032   1.839  10.321  0.6563  0.0342 -0.1238
  461TMC3     H 6867   4.065   1.927  10.114 -1.7232 -0.0792  0.3480
  461TMC3    H1 6868   3.919   2.203  10.411  4.0982  3.5066  0.1853
  461TMC3    H2 6869   3.938   2.324  10.012  0.7104 -0.2267 -0.4011
  461TMC3    C7 6870   3.896   2.401  10.237 -0.3219  0.4087  0.1160
  461TMC3    C8 6871   4.008   2.069   9.902  0.0009 -0.2300 -0.0572
  461TMC3    O1 6872   3.822   2.462  10.166  0.2856  0.1625 -0.3843
  461TMC3    O2 6873   4.086   1.976   9.874  0.1103  0.3457  0.2404
  462TMC3    C1 6874   3.933   2.428   0.362  0.3553 -0.7152  0.3133
  462TMC3    C2 6875   3.908   2.403   0.230 -0.3920  0.1898  0.2350
  462TMC3    C3 6876   3.881   2.279   0.183 -0.4976  0.1106  0.0745
  462TMC3    C4 6877   3.923   2.325   0.450  0.1074 -0.2500  1.3025
  462TMC3    C5 6878   3.888   2.198   0.406 -0.0062 -0.3156  0.3296
  462TMC3    C6 6879   3.877   2.171   0.271 -0.1142  0.0753  0.1635
  462TMC3     C 6880   3.873   2.555   0.400 -0.5146 -0.0780  0.0148
  462TMC3     O 6881   3.797   2.546   0.500 -0.1580 -0.0491 -0.3733
  462TMC3     H 6882   3.896   2.482   0.157 -1.7684  2.3323  2.7889
  462TMC3    H1 6883   3.949   2.335   0.555  2.3815 -1.2930  0.8182
  462TMC3    H2 6884   3.835   2.078   0.236  0.2905  0.0355 -0.2055
  462TMC3    C7 6885   3.777   2.134   0.485  0.1099  0.0837 -0.4171
  462TMC3    C8 6886   3.835   2.265   0.054  0.4140  0.0153  0.5264
  462TMC3    O1 6887   3.724   2.041   0.427  0.3844 -0.7523  0.6607
  462TMC3    O2 6888   3.795   2.369   0.006 -0.5151 -0.5575  0.4011
  463MPD2     C 6889   3.882   1.761   2.003 -0.5141  0.5173 -0.2395
  463MPD2    C1 6890   3.865   1.697   1.881 -0.0712  0.3235 -0.4363
  463MPD2    C2 6891   3.975   1.665   1.808  0.4463 -0.3256 -0.4194
  463MPD2    C3 6892   4.102   1.714   1.853 -0.3494 -0.6989 -0.0723
  463MPD2    C4 6893   4.113   1.773   1.983  0.0526 -0.2130  0.7596
  463MPD2    C5 6894   4.001   1.790   2.061 -0.3693  1.1063 -0.0441
  463MPD2     H 6895   3.958   1.607   1.719 -0.2501  1.1111 -1.2156
  463MPD2    H1 6896   4.213   1.798   2.017 -0.0883 -0.0841  1.0722
  463MPD2    H2 6897   3.798   1.779   2.070 -0.3968  1.0772 -0.2401
  463MPD2    H3 6898   4.001   1.821   2.165  0.0428  1.0089 -0.0152
  463MPD2     N 6899   4.220   1.696   1.781 -0.2353  0.2880  0.5888
  463MPD2    H5 6900   4.287   1.769   1.803  0.6348 -0.0293 -1.0703
  463MPD2    N1 6901   3.737   1.651   1.827  0.4427 -0.3958  0.7336
  463MPD2    H7 6902   3.750   1.613   1.733 -1.4896 -2.1569  1.1827
  464TMC3    C1 6903   3.516   1.594   1.807 -0.4170  0.1791 -0.1160
  464TMC3    C2 6904   3.522   1.581   1.667  0.3195 -0.4140  0.1652
  464TMC3    C3 6905   3.423   1.496   1.617 -0.6444  0.4266 -0.3656
  464TMC3    C4 6906   3.425   1.538   1.888  0.0082 -0.3568 -0.1713
  464TMC3    C5 6907   3.337   1.452   1.827  0.1314  0.4600 -0.5093
  464TMC3    C6 6908   3.336   1.429   1.690 -0.3188  0.6053 -0.3127
  464TMC3     C 6909   3.614   1.665   1.880  0.6584 -0.5292 -0.6964
  464TMC3     O 6910   3.580   1.712   1.987  0.3249  0.6329  0.4912
  464TMC3     H 6911   3.590   1.639   1.606  1.0376 -0.0510  1.3035
  464TMC3    H1 6912   3.443   1.537   1.995 -1.1818 -1.0294  0.0259
  464TMC3    H2 6913   3.259   1.371   1.641  2.3412 -2.2951 -1.0991
  464TMC3    C7 6914   3.289   1.344   1.909 -0.2402 -0.3846 -0.5814
  464TMC3    C8 6915   3.476   1.418   1.503  0.0152 -0.4650 -0.0050
  464TMC3    O1 6916   3.275   1.360   2.029 -0.2839  0.4446  0.1853
  464TMC3    O2 6917   3.486   1.297   1.513 -0.3319 -0.4522 -0.0383
  465MPD2     C 6918   1.207   3.908  16.294  0.0426  0.4760 -0.1178
  465MPD2    C1 6919   1.183   3.939  16.428 -0.9458 -0.3978  0.2473
  465MPD2    C2 6920   1.127   4.061  16.448  0.4478 -0.0057  0.5411
  465MPD2    C3 6921   1.093   4.153  16.347 -0.5752 -0.3483  0.1628
  465MPD2    C4 6922   1.116   4.108  16.218  0.4234 -0.0731 -0.5429
  465MPD2    C5 6923   1.163   3.986  16.192  0.6903 -0.4238 -0.2883
  465MPD2     H 6924   1.108   4.093  16.549  1.7697 -0.0142  0.8019
  465MPD2    H1 6925   1.086   4.162  16.129 -1.4884 -0.4611 -0.1514
  465MPD2    H2 6926   1.252   3.818  16.253  0.1241  1.0258 -1.2445
  465MPD2    H3 6927   1.174   3.967  16.086 -0.7955 -2.0764 -0.1473
  465MPD2     N 6928   1.025   4.273  16.375  0.0337  0.6336  0.1402
  465MPD2    H5 6929   1.023   4.300  16.473 -0.3748  0.5351  0.1585
  465MPD2    N1 6930   1.209   3.836  16.531 -0.4010 -0.6963  0.2341
  465MPD2    H7 6931   1.251   3.749  16.500  1.7841 -0.2216  1.8565
  466TMC3    C1 6932   0.702   4.480  16.514  0.6729 -0.1821 -0.4978
  466TMC3    C2 6933   0.673   4.602  16.463 -0.6101  0.6409  0.6572
  466TMC3    C3 6934   0.748   4.648  16.352 -0.5872  0.4147 -0.4445
  466TMC3    C4 6935   0.806   4.408  16.473 -0.5504 -0.1228  0.1318
  466TMC3    C5 6936   0.867   4.457  16.362 -0.5121  0.0509  0.1660
  466TMC3    C6 6937   0.833   4.563  16.289  0.2559  0.8357  0.1495
  466TMC3     C 6938   0.653   4.450  16.649  0.1133  0.2324  0.0093
  466TMC3     O 6939   0.730   4.403  16.730 -0.1731 -0.1702 -0.8716
  466TMC3     H 6940   0.590   4.652  16.512  0.1864  0.5913  2.0286
  466TMC3    H1 6941   0.837   4.318  16.525  3.4842 -0.8135 -3.4565
  466TMC3    H2 6942   0.894   4.594  16.204 -1.1671  1.6918 -0.5503
  466TMC3    C7 6943   0.962   4.370  16.292 -0.5561 -0.3867  0.1610
  466TMC3    C8 6944   0.728   0.053  16.286  0.0395  0.1076 -0.7866
  466TMC3    O1 6945   0.975   4.374  16.171 -0.2811  0.4351  0.1115
  466TMC3    O2 6946   0.775   0.070  16.175  0.0280  0.3849 -0.6060
  467TMC3    C1 6947   2.134   3.245  13.582 -0.3903 -0.5559  0.0267
  467TMC3    C2 6948   2.103   3.365  13.523  0.5645  0.1931 -0.6940
  467TMC3    C3 6949   1.974   3.409  13.516  0.2486 -0.0899 -0.3590
  467TMC3    C4 6950   2.043   3.169  13.646 -0.0513 -0.5237 -0.0058
  467TMC3    C5 6951   1.911   3.216  13.629 -0.3194 -0.0005  0.2898
  467TMC3    C6 6952   1.872   3.330  13.560 -0.1951 -0.1492  0.1951
  467TMC3     C 6953   2.278   3.214  13.592  0.4389 -0.1957  0.4827
  467TMC3     O 6954   2.319   3.163  13.695 -0.2396 -0.5479 -0.3191
  467TMC3     H 6955   2.180   3.424  13.475  2.1810 -0.8674  0.5981
  467TMC3    H1 6956   2.069   3.087  13.712 -1.8123 -0.4798  0.7353
  467TMC3    H2 6957   1.769   3.365  13.557 -0.4379 -1.0367 -2.1643
  467TMC3    C7 6958   1.815   3.120  13.664  0.3315 -0.2111  0.1649
  467TMC3    C8 6959   1.959   3.552  13.523  0.3315 -0.3888  0.1004
  467TMC3    O1 6960   1.853   3.003  13.684  0.3459 -0.7670  0.2507
  467TMC3    O2 6961   2.068   3.609  13.546 -0.1019 -0.5496 -0.2546
  468MPD2     C 6962   1.473   1.667  10.433 -0.2421  0.0719  0.1152
  468MPD2    C1 6963   1.418   1.687  10.561  0.7138  0.9551 -0.5406
  468MPD2    C2 6964   1.356   1.585  10.628 -0.1299  0.3528  0.4009
  468MPD2    C3 6965   1.346   1.458  10.574  0.2725 -0.2844 -0.1069
  468MPD2    C4 6966   1.394   1.436  10.445 -0.0439 -0.2864  0.2331
  468MPD2    C5 6967   1.460   1.539  10.381 -0.9229  0.8052  0.3178
  468MPD2     H 6968   1.326   1.603  10.731 -1.8577  1.0731 -0.2353
  468MPD2    H1 6969   1.399   1.332  10.416  0.9362  0.7621 -3.3406
  468MPD2    H2 6970   1.518   1.742  10.370 -3.4716  1.3599 -0.6907
  468MPD2    H3 6971   1.496   1.520  10.281  0.8168  2.5041  0.6045
  468MPD2     N 6972   1.304   1.346  10.646 -0.2977 -0.1401 -0.3350
  468MPD2    H5 6973   1.335   1.251  10.627 -1.7275 -0.7558  0.3590
  468MPD2    N1 6974   1.424   1.806  10.632  0.1796  0.2480 -0.9149
  468MPD2    H7 6975   1.395   1.814  10.729  0.9229  1.9726 -0.8364
  469TMC3    C1 6976   1.456   2.042  10.667 -0.0516  0.0112  0.5957
  469TMC3    C2 6977   1.469   2.026  10.804  0.6767 -0.3193 -0.2113
  469TMC3    C3 6978   1.475   2.142  10.881  0.2528 -0.3196  0.4257
  469TMC3    C4 6979   1.445   2.165  10.604  0.0225 -0.1006 -0.3449
  469TMC3    C5 6980   1.445   2.272  10.690 -0.6760 -0.8418  0.4802
  469TMC3    C6 6981   1.457   2.270  10.823  0.0942 -0.3676  0.5885
  469TMC3     C 6982   1.452   1.932  10.572  0.1854  0.3555  0.3025
  469TMC3     O 6983   1.475   1.965  10.456  0.0931 -0.2652 -0.3622
  469TMC3     H 6984   1.478   1.933  10.859 -0.8068 -1.7141 -2.3141
  469TMC3    H1 6985   1.448   2.185  10.497  0.6639 -3.8250 -1.0295
  469TMC3    H2 6986   1.463   2.369  10.865 -1.1205  0.1497 -0.4459
  469TMC3    C7 6987   1.414   2.389  10.617 -0.8983  0.8524  0.2179
  469TMC3    C8 6988   1.506   2.131  11.020 -0.7362  0.4238 -0.4577
  469TMC3    O1 6989   1.488   2.405  10.520 -0.4491  0.1132  0.6567
  469TMC3    O2 6990   1.541   2.023  11.063 -0.4491  0.0537 -0.9237
  470TMC3    C1 6991   3.952   2.496   0.960  0.0996 -1.0331 -0.3188
  470TMC3    C2 6992   3.998   2.597   0.875  0.0909 -0.3488 -0.4616
  470TMC3    C3 6993   4.078   2.692   0.927 -0.3490  0.1320  0.3002
  470TMC3    C4 6994   3.986   2.494   1.095  0.1990  0.3302 -0.3643
  470TMC3    C5 6995   4.080   2.588   1.137  0.3060  0.3112  0.2522
  470TMC3    C6 6996   4.131   2.689   1.057 -0.0379 -0.2909  0.2299
  470TMC3     C 6997   3.924   2.370   0.900 -0.3416  0.3887 -0.4098
  470TMC3     O 6998   3.901   2.368   0.778 -0.0396 -0.6941 -0.0554
  470TMC3     H 6999   3.967   2.600   0.771 -0.9436  1.1048 -0.1057
  470TMC3    H1 7000   3.946   2.417   1.161  1.2325  0.9345  0.9813
  470TMC3    H2 7001   4.196   2.765   1.098 -0.3633  1.0957 -1.8650
  470TMC3    C7 7002   4.113   2.597   1.282  0.0442  0.1733  0.7263
  470TMC3    C8 7003   4.062   2.824   0.866 -0.2383 -0.6920  0.1134
  470TMC3    O1 7004   4.223   2.625   1.327 -0.3000  0.5586  0.4268
  470TMC3    O2 7005   3.952   2.846   0.822 -0.0869 -0.3865  0.7156
  471MPD2     C 7006   3.516   4.051  16.783  0.0801 -0.4699 -0.3825
  471MPD2    C1 7007   3.564   3.920  16.761  0.4442 -0.5175 -0.4148
  471MPD2    C2 7008   3.642   3.866  16.860  0.1096  0.1849 -0.0320
  471MPD2    C3 7009   3.698   3.945  16.964  0.3355  0.7401 -0.0504
  471MPD2    C4 7010   3.655   4.075  16.973 -0.2105  0.5540 -0.5766
  471MPD2    C5 7011   3.564   4.125  16.886 -0.1946  0.0563 -0.5018
  471MPD2     H 7012   3.684   3.767  16.847 -0.7723  0.1115 -2.2372
  471MPD2    H1 7013   3.699   4.142  17.046  1.0612  1.1788 -1.9279
  471MPD2    H2 7014   3.443   4.089  16.712  0.9084  2.1413  0.1422
  471MPD2    H3 7015   3.533   4.229  16.894 -0.3094 -0.0420  0.3347
  471MPD2     N 7016   3.760   3.881  17.067  0.2292  0.2058  0.2472
  471MPD2    H5 7017   3.790   3.787  17.043 -1.2818  0.1182 -1.3251
  471MPD2    N1 7018   3.523   3.835  16.663  0.1653  0.1095 -0.6419
  471MPD2    H7 7019   3.562   3.741  16.660  0.5605  0.1649  2.9309
  472TMC3    C1 7020   3.387   3.729  16.488  0.5267  0.1923 -0.1535
  472TMC3    C2 7021   3.280   3.750  16.400  0.2395 -0.2636 -0.3655
  472TMC3    C3 7022   3.213   3.639  16.358  0.4155 -0.1448 -0.3336
  472TMC3    C4 7023   3.437   3.600  16.519  0.0399  0.2656  0.9878
  472TMC3    C5 7024   3.378   3.495  16.455 -0.2031 -0.1631 -0.0887
  472TMC3    C6 7025   3.260   3.513  16.385 -0.3378  0.0930 -0.3113
  472TMC3     C 7026   3.425   3.853  16.565 -0.0758  0.6602 -0.6777
  472TMC3     O 7027   3.379   3.959  16.526  0.3843  0.5338  0.0594
  472TMC3     H 7028   3.235   3.849  16.395 -1.6194 -1.0938 -0.3156
  472TMC3    H1 7029   3.525   3.591  16.581  0.6072  2.2768  0.4759
  472TMC3    H2 7030   3.208   3.422  16.356 -1.6901  1.5664 -2.5632
  472TMC3    C7 7031   3.427   3.362  16.498 -0.6285 -0.6425 -0.8057
  472TMC3    C8 7032   3.075   3.655  16.306 -0.6283 -0.3993  0.4744
  472TMC3    O1 7033   3.510   3.351  16.589  0.4203  0.2182 -0.7505
  472TMC3    O2 7034   3.041   3.759  16.249  0.0904 -0.6823  0.8057
  473MPD2     C 7035   3.552   0.926  13.973  0.0504 -0.0882  0.2133
  473MPD2    C1 7036   3.539   1.050  13.919  0.0620 -0.5840 -0.5410
  473MPD2    C2 7037   3.532   1.163  13.996  0.1579  0.1001 -0.6807
  473MPD2    C3 7038   3.562   1.150  14.133  0.6841 -0.7994  0.5334
  473MPD2    C4 7039   3.575   1.028  14.190  0.0378 -0.9429 -0.2605
  473MPD2    C5 7040   3.567   0.917  14.106  0.2756 -0.6682 -0.6862
  473MPD2     H 7041   3.523   1.261  13.950  2.4133  1.3560  1.5402
  473MPD2    H1 7042   3.587   1.015  14.297 -0.8554 -1.5437 -0.2289
  473MPD2    H2 7043   3.552   0.832  13.918 -0.7048 -0.6353  1.1424
  473MPD2    H3 7044   3.579   0.817  14.144  0.9909 -0.3177  0.0092
  473MPD2     N 7045   3.571   1.257  14.224 -0.0647  0.3394 -0.1977
  473MPD2    H5 7046   3.603   1.232  14.317  0.4395  1.4753 -0.0666
  473MPD2    N1 7047   3.526   1.070  13.780  0.1434  0.1585  0.5224
  473MPD2    H7 7048   3.502   1.164  13.749  2.7960  1.0971  1.3422
  474TMC3    C1 7049   3.573   1.477  14.307 -0.2227 -0.2393 -0.0588
  474TMC3    C2 7050   3.496   1.592  14.336  0.2742  0.0539  0.0963
  474TMC3    C3 7051   3.553   1.683  14.423 -0.2414  0.0756  0.0572
  474TMC3    C4 7052   3.695   1.458  14.362 -0.7336  0.1326  0.2270
  474TMC3    C5 7053   3.731   1.541  14.465 -0.3814 -0.0998  0.6138
  474TMC3    C6 7054   3.666   1.654  14.503 -0.3849  0.6331  0.0369
  474TMC3     C 7055   3.533   1.383  14.200  0.4228  0.3771 -0.4238
  474TMC3     O 7056   3.455   1.428  14.116 -0.1055 -0.4018 -0.1705
  474TMC3     H 7057   3.402   1.609  14.285  0.4347  1.1554  0.1660
  474TMC3    H1 7058   3.772   1.387  14.334  2.3120  2.9499  1.3610
  474TMC3    H2 7059   3.699   1.727  14.576 -0.6437 -1.5261  2.2956
  474TMC3    C7 7060   3.875   1.550  14.494  0.0582  0.4211  0.1281
  474TMC3    C8 7061   3.529   1.821  14.416  0.0758  0.2401  0.1652
  474TMC3    O1 7062   3.954   1.494  14.418  0.3163 -0.0297 -0.4746
  474TMC3    O2 7063   3.612   1.891  14.475  0.3860 -0.9022  0.4553
  475MPD2     C 7064   2.352   4.403   9.945 -0.0874  0.0682  0.2087
  475MPD2    C1 7065   2.300   4.528   9.981 -0.0728  0.7549  0.2062
  475MPD2    C2 7066   2.163   4.552   9.970  0.4284 -0.3400  0.6471
  475MPD2    C3 7067   2.083   4.458   9.913 -0.2282  0.1944  0.0088
  475MPD2    C4 7068   2.136   4.330   9.887 -1.0247 -0.6001 -0.0201
  475MPD2    C5 7069   2.269   4.303   9.906 -0.0200 -0.4249 -0.1150
  475MPD2     H 7070   2.131   4.652   9.997 -2.2613 -0.9507 -0.3039
  475MPD2    H1 7071   2.074   4.246   9.859  0.2596 -0.0681 -4.3628
  475MPD2    H2 7072   2.457   4.383   9.962  0.2804  1.9722  0.2581
  475MPD2    H3 7073   2.318   4.208   9.889  0.4008 -0.0490 -1.0242
  475MPD2     N 7074   1.951   4.489   9.872  0.2710 -0.3835 -0.1960
  475MPD2    H5 7075   1.924   4.585   9.894 -1.1140 -1.1636  1.5568
  475MPD2    N1 7076   2.386   4.623  10.040  0.1833 -0.3448 -0.0869
  475MPD2    H7 7077   2.485   4.605  10.049  0.2065  0.3702  1.0273
  476TMC3    C1 7078   2.456   0.114  10.099 -0.2876  0.2962  0.3912
  476TMC3    C2 7079   2.495   0.119   9.973 -0.4831  0.5550 -0.5244
  476TMC3    C3 7080   2.500   0.239   9.907  0.2025 -0.1599 -0.9109
  476TMC3    C4 7081   2.414   0.224  10.166 -0.8643  0.4542  0.0079
  476TMC3    C5 7082   2.432   0.345  10.098  0.4607 -0.1292 -0.4259
  476TMC3    C6 7083   2.475   0.354   9.968  0.3225 -0.1294  0.4696
  476TMC3     C 7084   2.356   0.011  10.112 -0.0253  0.2025 -0.3804
  476TMC3     O 7085   2.257   0.037  10.178 -0.2014 -0.3102  0.1957
  476TMC3     H 7086   2.553   0.039   9.929  1.1718  0.2405  2.2386
  476TMC3    H1 7087   2.367   0.222  10.264  2.1137  0.7132  1.4438
  476TMC3    H2 7088   2.472   0.448   9.913 -1.9624 -0.9109 -0.7681
  476TMC3    C7 7089   2.384   0.470  10.156 -0.5766  0.5123 -0.2402
  476TMC3    C8 7090   2.460   0.236   9.774 -0.1044  0.0091  0.0745
  476TMC3    O1 7091   2.380   0.569  10.088  0.9032  0.1218  0.2766
  476TMC3    O2 7092   2.468   0.337   9.707  0.2337  0.1141 -0.3096
  477MPD2     C 7093   4.089   0.734  11.423  0.9102  0.3873 -0.4372
  477MPD2    C1 7094   4.150   0.826  11.505  0.5022 -0.6720 -0.3225
  477MPD2    C2 7095   4.257   0.787  11.590  0.0379  0.1604 -0.4748
  477MPD2    C3 7096   4.300   0.656  11.580  0.5791  0.1119  0.1221
  477MPD2    C4 7097   4.236   0.560  11.495  0.0275 -0.0802  0.3844
  477MPD2    C5 7098   4.133   0.600  11.419 -0.7191 -0.2980 -0.9452
  477MPD2     H 7099   4.303   0.852  11.663 -1.1627  0.9245 -0.4066
  477MPD2    H1 7100   4.266   0.456  11.497  0.0265 -0.0934 -0.3016
  477MPD2    H2 7101   4.010   0.762  11.355  0.3774 -1.2454 -0.5037
  477MPD2    H3 7102   4.093   0.531  11.347  0.3035 -0.6884 -1.1434
  477MPD2     N 7103   4.402   0.617  11.666 -0.2522 -0.2093  0.1003
  477MPD2    H5 7104   4.426   0.677  11.744 -1.2399  0.6905 -0.2817
  477MPD2    N1 7105   4.093   0.958  11.502 -0.2142  0.0831 -0.0866
  477MPD2    H7 7106   4.017   0.973  11.436 -0.4013 -3.0656 -0.6106
  478TMC3    C1 7107   4.066   1.184  11.543  0.0686 -0.5362 -0.1926
  478TMC3    C2 7108   4.098   1.299  11.609 -0.0978 -0.2570  0.2691
  478TMC3    C3 7109   4.027   1.413  11.596  0.1718 -0.0611 -0.4434
  478TMC3    C4 7110   3.944   1.176  11.488 -0.2576 -0.2889  0.3385
  478TMC3    C5 7111   3.872   1.287  11.473 -0.2883  0.6223  0.5165
  478TMC3    C6 7112   3.906   1.405  11.535  0.0198  0.3185  0.8643
  478TMC3     C 7113   4.139   1.067  11.574  0.2801 -0.5482  0.4621
  478TMC3     O 7114   4.238   1.076  11.646  0.0473  0.1996 -0.0886
  478TMC3     H 7115   4.187   1.301  11.672  0.2719  0.9982 -0.2989
  478TMC3    H1 7116   3.900   1.086  11.445  2.7028 -0.5051 -2.2816
  478TMC3    H2 7117   3.854   1.497  11.512 -0.1053 -0.1550 -0.7453
  478TMC3    C7 7118   3.752   1.277  11.390  0.2962  0.1698  0.3968
  478TMC3    C8 7119   4.020   1.482  11.726  0.3394 -0.2998  0.6421
  478TMC3    O1 7120   3.692   1.171  11.394 -0.2041  0.9675  0.7768
  478TMC3    O2 7121   4.064   1.412  11.821 -0.5687 -0.3453 -0.7612
  479MPD2     C 7122   3.226   3.148  14.873 -0.2331 -0.3104  0.4383
  479MPD2    C1 7123   3.161   3.055  14.958  0.5889 -0.4911  0.3360
  479MPD2    C2 7124   3.199   3.052  15.091 -0.8737  0.3314  0.5866
  479MPD2    C3 7125   3.297   3.131  15.144 -0.4118 -0.0721 -0.0125
  479MPD2    C4 7126   3.371   3.201  15.052 -0.1559  0.0529  0.4748
  479MPD2    C5 7127   3.329   3.224  14.922  0.0802 -0.2052 -0.5868
  479MPD2     H 7128   3.141   2.992  15.159 -0.3306  1.0571  1.7042
  479MPD2    H1 7129   3.457   3.262  15.075 -0.4061  0.6873 -0.2769
  479MPD2    H2 7130   3.192   3.171  14.773  0.0029 -0.8958  0.2268
  479MPD2    H3 7131   3.386   3.288  14.856 -0.6296 -0.6830 -1.6559
  479MPD2     N 7132   3.333   3.137  15.283 -0.0548 -0.3850 -0.1728
  479MPD2    H5 7133   3.417   3.186  15.312 -0.8343  0.6784  0.3322
  479MPD2    N1 7134   3.063   2.975  14.905  0.2896 -0.2901 -0.0145
  479MPD2    H7 7135   3.049   2.987  14.805  1.5413 -1.5009 -0.3382
  480TMC3    C1 7136   2.947   2.941  15.484  0.1416 -0.2839 -0.4740
  480TMC3    C2 7137   2.854   3.045  15.461 -0.2948 -0.0666 -0.0766
  480TMC3    C3 7138   2.899   3.150  15.394  0.7095  0.3481 -0.0151
  480TMC3    C4 7139   3.080   2.962  15.462 -0.1530  0.1721 -0.1591
  480TMC3    C5 7140   3.119   3.065  15.384  0.1039  0.7258  0.4803
  480TMC3    C6 7141   3.028   3.164  15.351 -0.6222 -0.9431  0.2675
  480TMC3     C 7142   2.921   2.863  15.600 -0.8340 -0.0691 -0.0100
  480TMC3     O 7143   3.019   2.841  15.674  0.1051  0.2216  0.1517
  480TMC3     H 7144   2.753   3.046  15.501 -0.4094  0.7637 -0.3914
  480TMC3    H1 7145   3.153   2.897  15.509 -0.3552  0.5584  0.7006
  480TMC3    H2 7146   3.077   3.248  15.304 -2.9581 -1.0280 -2.3091
  480TMC3    C7 7147   3.262   3.090  15.393 -0.2772 -0.2947  0.0799
  480TMC3    C8 7148   2.795   3.228  15.329  0.3193 -0.4242  0.7005
  480TMC3    O1 7149   3.300   3.098  15.511  0.0565 -0.2497 -0.0926
  480TMC3    O2 7150   2.691   3.241  15.390  0.1854  0.0616 -0.6788
  481MPD2     C 7151   0.387   2.802  13.979 -0.0849 -0.1367 -0.3225
  481MPD2    C1 7152   0.259   2.760  14.001 -0.8880  0.0384  0.1103
  481MPD2    C2 7153   0.231   2.695  14.126 -1.0820 -0.1497 -0.0903
  481MPD2    C3 7154   0.328   2.666  14.221 -0.0927 -0.0608 -0.1320
  481MPD2    C4 7155   0.455   2.711  14.194 -0.0858 -0.4064 -0.0208
  481MPD2    C5 7156   0.482   2.789  14.080 -0.2150 -0.0252 -0.0272
  481MPD2     H 7157   0.129   2.665  14.149 -1.5198  0.7385 -0.8622
  481MPD2    H1 7158   0.535   2.682  14.261 -0.7146  2.2628  1.9146
  481MPD2    H2 7159   0.404   2.862  13.890  1.9685 -1.0671 -0.5673
  481MPD2    H3 7160   0.581   2.828  14.056  0.1241 -0.5833  0.4491
  481MPD2     N 7161   0.309   2.590  14.339 -0.2427 -0.1148  0.2508
  481MPD2    H5 7162   0.390   2.569  14.397  0.4839 -0.6252 -0.9581
  481MPD2    N1 7163   0.167   2.786  13.897  0.4841 -0.3655  0.3171
  481MPD2    H7 7164   0.207   2.812  13.807 -1.0431 -0.5029 -0.4116
  482TMC3    C1 7165   4.688   2.789  13.787 -0.1617  0.2241  0.1927
  482TMC3    C2 7166   4.582   2.707  13.764 -0.8769 -0.4816  0.4086
  482TMC3    C3 7167   4.516   2.725  13.643  0.1819 -0.2702  0.5420
  482TMC3    C4 7168   0.002   2.882  13.696 -0.0294 -0.0802 -0.1691
  482TMC3    C5 7169   4.656   2.903  13.576 -0.7574 -0.2171  0.5553
  482TMC3    C6 7170   4.549   2.821  13.550  0.2137 -0.5956 -0.0862
  482TMC3     C 7171   0.031   2.762  13.910  0.5067  1.2030 -0.0787
  482TMC3     O 7172   4.704   2.716  14.010  0.1460  0.1998 -0.8693
  482TMC3     H 7173   4.566   2.633  13.841  1.6114 -1.1794  0.2671
  482TMC3    H1 7174   0.075   2.958  13.720  1.1250 -1.2655  0.0425
  482TMC3    H2 7175   4.494   2.835  13.458  0.6630  3.3515  0.2710
  482TMC3    C7 7176   4.715   2.988  13.477 -0.6254  0.7658 -0.0305
  482TMC3    C8 7177   4.398   2.644  13.628 -0.2155 -1.0147 -0.4124
  482TMC3    O1 7178   0.068   3.070  13.511  0.0735 -0.2172 -0.0287
  482TMC3    O2 7179   4.381   2.548  13.706  0.1052  0.1501 -0.1897
  483TMC3    C1 7180   2.009   1.265   0.092  0.3736 -0.4643  0.0679
  483TMC3    C2 7181   2.070   1.388   0.107 -0.6150  1.3235 -0.0784
  483TMC3    C3 7182   2.200   1.398   0.074  0.2562 -0.9143 -0.5003
  483TMC3    C4 7183   2.076   1.154   0.043  0.6675 -0.3748  0.1154
  483TMC3    C5 7184   2.206   1.173   0.000  0.3017  0.2938 -0.2059
  483TMC3    C6 7185   2.267   1.296   0.012 -0.6134  0.2233 -0.3715
  483TMC3     C 7186   1.887   1.244   0.169  0.1502 -0.4502 -0.0437
  483TMC3     O 7187   1.818   1.335   0.205 -0.6951  0.3771 -0.0607
  483TMC3     H 7188   2.028   1.468   0.166 -0.6888  1.3647 -0.1889
  483TMC3    H1 7189   2.030   1.057   0.025  1.4590 -0.5874 -0.7983
  483TMC3    H2 7190   2.373   1.307  17.693 -0.5298  2.5797  1.0831
  483TMC3    C7 7191   2.289   1.065   0.053  0.2711  0.1576  0.1987
  483TMC3    C8 7192   2.296   1.489   0.146 -0.6139 -0.0518 -0.2322
  483TMC3    O1 7193   2.226   0.983   0.117  0.4341  0.7744  0.1626
  483TMC3    O2 7194   2.410   1.507   0.099  0.2008  0.5841 -0.7461
  484MPD2     C 7195   0.284   4.229  11.901 -0.0708  0.7584  0.3895
  484MPD2    C1 7196   0.311   4.303  12.019 -0.6932  0.5268 -0.3334
  484MPD2    C2 7197   0.419   4.390  12.031  1.0483 -0.4461  0.6808
  484MPD2    C3 7198   0.517   4.395  11.936 -0.0463 -0.7906 -0.3426
  484MPD2    C4 7199   0.490   4.314  11.826 -0.1061  0.0600  0.1059
  484MPD2    C5 7200   0.376   4.233  11.804 -0.1409 -0.3480 -0.6423
  484MPD2     H 7201   0.437   4.446  12.122  0.6650  0.6184  0.1035
  484MPD2    H1 7202   0.559   4.319  11.742  0.7444  0.2354  0.8214
  484MPD2    H2 7203   0.202   4.159  11.891  1.4015 -0.9903  0.7072
  484MPD2    H3 7204   0.371   4.175  11.713 -1.1825 -1.9768  0.4509
  484MPD2     N 7205   0.631   4.476  11.939  0.0238  0.6963 -0.5897
  484MPD2    H5 7206   0.696   4.463  11.862  1.8889  1.2338  0.8988
  484MPD2    N1 7207   0.220   4.291  12.120 -0.7381  0.2533 -0.5844
  484MPD2    H7 7208   0.136   4.241  12.092 -0.3004  0.8101 -2.9020
  485TMC3    C1 7209   0.811   4.626  11.999 -0.2640  0.5633 -0.3083
  485TMC3    C2 7210   0.892   4.657  12.103  0.1016 -0.0762 -0.6593
  485TMC3    C3 7211   1.011   4.717  12.079 -0.6453 -0.5826  0.4500
  485TMC3    C4 7212   0.835   4.653  11.865 -0.8535 -0.6926 -0.3276
  485TMC3    C5 7213   0.958   4.708  11.841 -0.6666 -0.6630  0.1118
  485TMC3    C6 7214   1.042   0.031  11.945 -0.1437  0.5696  0.2736
  485TMC3     C 7215   0.684   4.557  12.033  0.0033 -1.0649  0.4930
  485TMC3     O 7216   0.649   4.564  12.154 -0.8015  0.0094 -0.2340
  485TMC3     H 7217   0.870   4.647  12.208 -1.1860 -0.4122 -0.9612
  485TMC3    H1 7218   0.773   4.614  11.786 -1.0732 -0.2971 -0.3522
  485TMC3    H2 7219   1.134   0.085  11.927  0.2898 -0.5351 -0.8282
  485TMC3    C7 7220   1.024   4.688  11.711 -0.8103 -0.1053 -1.1692
  485TMC3    C8 7221   1.119   4.673  12.155  0.3504  0.4786  0.9791
  485TMC3    O1 7222   0.991   4.587  11.638  0.9454  0.1041 -0.6890
  485TMC3    O2 7223   1.092   4.613  12.256 -0.1020 -0.3675 -0.0640
  486MPD2     C 7224   2.677   3.430  12.852 -0.3698  0.5445  0.3914
  486MPD2    C1 7225   2.698   3.464  12.724 -0.5965 -0.0906  0.3427
  486MPD2    C2 7226   2.657   3.587  12.690  0.3334 -0.4249 -0.1230
  486MPD2    C3 7227   2.579   3.667  12.777 -0.5332 -0.5743  0.1126
  486MPD2    C4 7228   2.546   3.624  12.904 -0.3079  1.0053  0.5297
  486MPD2    C5 7229   2.611   3.508  12.942 -0.4981 -0.4947 -0.7585
  486MPD2     H 7230   2.682   3.619  12.589 -0.9828  2.9494  0.6594
  486MPD2    H1 7231   2.484   3.677  12.976  1.2331  1.6852  1.3369
  486MPD2    H2 7232   2.715   3.333  12.882 -0.2129  0.5446  0.1959
  486MPD2    H3 7233   2.599   3.459  13.038  1.7290 -0.6267 -0.5656
  486MPD2     N 7234   2.537   3.787  12.723  0.6573 -0.3078 -0.0931
  486MPD2    H5 7235   2.590   3.812  12.640  0.5408  2.6765  0.7251
  486MPD2    N1 7236   2.760   3.366  12.642  0.5691 -0.2960 -0.3178
  486MPD2    H7 7237   2.789   3.284  12.695  0.0159 -0.3070 -0.0383
  487TMC3    C1 7238   2.832   3.245  12.455  0.7954  0.0925 -1.3772
  487TMC3    C2 7239   2.761   3.177  12.357 -0.5958 -0.1987 -0.0392
  487TMC3    C3 7240   2.776   3.037  12.361 -0.1795 -1.0020 -0.5258
  487TMC3    C4 7241   2.923   3.190  12.534 -0.0850  0.1142  0.4871
  487TMC3    C5 7242   2.938   3.056  12.537  0.5546  0.6674 -0.2510
  487TMC3    C6 7243   2.874   2.978  12.439 -0.2165 -0.3964 -0.1960
  487TMC3     C 7244   2.763   3.361  12.505 -0.6496  0.0319  0.0067
  487TMC3     O 7245   2.701   3.427  12.424  0.1116  0.5829  0.0156
  487TMC3     H 7246   2.694   3.236  12.296  1.1061  0.0572 -1.6569
  487TMC3    H1 7247   2.982   3.251  12.602  0.7089  0.7652 -0.7954
  487TMC3    H2 7248   2.876   2.871  12.455  0.2759  0.0964  2.9790
  487TMC3    C7 7249   2.902   3.015  12.672  0.4981 -0.0900 -0.5457
  487TMC3    C8 7250   2.647   2.973  12.384 -0.1604 -0.7445 -0.0648
  487TMC3    O1 7251   2.850   3.096  12.749  0.3463  0.5791 -0.3525
  487TMC3    O2 7252   2.556   3.043  12.434  0.2921 -0.2462  0.1102
  488MPD2     C 7253   2.807   0.111  16.163  0.2386 -0.4220  0.7019
  488MPD2    C1 7254   2.865   0.183  16.263 -0.8772 -0.6691  0.4696
  488MPD2    C2 7255   2.816   0.181  16.386  0.1849  0.6156 -0.8655
  488MPD2    C3 7256   2.719   0.088  16.420 -0.1721 -0.2896 -0.3170
  488MPD2    C4 7257   2.681   4.719  16.326 -0.4725 -0.9391  0.0162
  488MPD2    C5 7258   2.715   0.013  16.194 -0.5046 -0.6004 -0.4252
  488MPD2     H 7259   2.856   0.249  16.460  3.6286 -1.0758 -1.1503
  488MPD2    H1 7260   2.610   4.646  16.362 -2.4409 -0.1426 -2.2478
  488MPD2    H2 7261   2.836   0.127  16.059 -2.0881  0.7046  0.2300
  488MPD2    H3 7262   2.672   4.673  16.119 -2.0742  1.6679 -1.5076
  488MPD2     N 7263   2.682   0.078  16.557  1.0667 -0.5242  0.3909
  488MPD2    H5 7264   2.728   0.147  16.615  1.9900 -0.4326 -0.4360
  488MPD2    N1 7265   2.969   0.273  16.249  0.2091  0.3057  0.1069
  488MPD2    H7 7266   2.989   0.322  16.336  0.3258 -1.5721  1.1400
  489TMC3    C1 7267   2.580   0.002  16.754  0.6310  0.4347  0.6047
  489TMC3    C2 7268   2.662   0.092  16.812  0.3590 -0.0681 -0.1299
  489TMC3    C3 7269   2.707   0.062  16.933 -0.2696 -0.3413  0.0088
  489TMC3    C4 7270   2.537   4.618  16.825  0.2541  0.1284 -0.3409
  489TMC3    C5 7271   2.573   4.591  16.952 -0.3247  0.2069  0.2784
  489TMC3    C6 7272   2.670   4.678  17.003  0.0728  0.0964  0.0214
  489TMC3     C 7273   2.584   4.722  16.609  0.0077 -0.1457  0.5180
  489TMC3     O 7274   2.507   4.649  16.549 -0.8211 -0.6138 -0.0049
  489TMC3     H 7275   2.696   0.179  16.758 -0.3619  0.7245  0.6694
  489TMC3    H1 7276   2.473   4.549  16.770  0.1366 -0.2356  0.2504
  489TMC3    H2 7277   2.706   4.659  17.103 -1.5288 -1.9411  0.2019
  489TMC3    C7 7278   2.556   4.466  17.026 -0.5262  0.1729 -0.1676
  489TMC3    C8 7279   2.785   0.161  16.997 -0.3752 -0.1051  0.4142
  489TMC3    O1 7280   2.650   4.445  17.101  0.2751 -0.0602  0.3699
  489TMC3    O2 7281   2.850   0.231  16.925 -0.5671 -0.6050  0.3273
  490MPD2     C 7282   3.238   4.392  17.288  0.0110 -0.6961  0.5738
  490MPD2    C1 7283   3.360   4.329  17.268  1.0122 -0.2617 -0.5137
  490MPD2    C2 7284   3.474   4.385  17.320  0.2668  0.7906  0.5262
  490MPD2    C3 7285   3.468   4.503  17.391  0.2861  0.1507 -0.1285
  490MPD2    C4 7286   3.353   4.569  17.413 -0.4031  0.2499 -0.4015
  490MPD2    C5 7287   3.238   4.512  17.363 -0.3965  0.1725 -0.6076
  490MPD2     H 7288   3.565   4.331  17.298 -0.8064 -1.1488  0.9147
  490MPD2    H1 7289   3.348   4.660  17.471  0.5488  0.2094 -0.2526
  490MPD2    H2 7290   3.153   4.349  17.238 -0.4129  0.0831  0.6272
  490MPD2    H3 7291   3.144   4.565  17.373 -0.8850 -0.6567 -0.8187
  490MPD2     N 7292   3.585   4.558  17.461 -0.0572 -0.1995  0.4673
  490MPD2    H5 7293   3.571   4.648  17.506  1.7299  0.4672 -0.3355
  490MPD2    N1 7294   3.375   4.201  17.208  0.0030  0.0514 -0.3549
  490MPD2    H7 7295   3.455   4.145  17.237  0.0642 -0.8500 -2.2700
  491TMC3    C1 7296   3.322   4.013  17.065  0.5188  0.0974  0.3855
  491TMC3    C2 7297   3.395   3.927  17.144 -0.1858 -0.0108 -0.4669
  491TMC3    C3 7298   3.420   3.798  17.109 -0.1551 -0.0235 -0.0032
  491TMC3    C4 7299   3.257   3.969  16.951  0.7043 -0.1577 -0.1781
  491TMC3    C5 7300   3.272   3.836  16.923  0.1169 -0.0488  0.9524
  491TMC3    C6 7301   3.351   3.755  17.000  0.4182  0.5598 -0.6360
  491TMC3     C 7302   3.285   4.144  17.119  0.1907  0.7824  1.0360
  491TMC3     O 7303   3.175   4.192  17.079 -0.4697  0.2237  0.6584
  491TMC3     H 7304   3.421   3.953  17.246  2.6728 -1.7454 -0.7378
  491TMC3    H1 7305   3.193   4.037  16.896 -0.3376 -1.1887 -0.2338
  491TMC3    H2 7306   3.355   3.652  16.968 -1.6937  0.1507  0.3786
  491TMC3    C7 7307   3.198   3.761  16.820 -0.5343 -0.5229 -0.0994
  491TMC3    C8 7308   3.421   3.705  17.217 -0.4774  0.3261  0.1122
  491TMC3    O1 7309   3.201   3.640  16.819  0.4304  0.3782 -0.4721
  491TMC3    O2 7310   3.425   3.749  17.333 -0.1514 -0.2101  0.9808
  492MPD2     C 7311   4.078   4.514  11.133  0.0452  0.7337  0.0959
  492MPD2    C1 7312   3.960   4.520  11.055  0.1064 -0.8664  0.2744
  492MPD2    C2 7313   3.839   4.487  11.115  0.8172  0.3032  0.3719
  492MPD2    C3 7314   3.829   4.458  11.250 -0.1247 -0.4510  0.3184
  492MPD2    C4 7315   3.943   4.460  11.326 -0.7967  0.4933  0.3228
  492MPD2    C5 7316   4.070   4.485  11.267 -0.6741  0.0402  0.4409
  492MPD2     H 7317   3.747   4.491  11.059  1.0287 -1.0046 -0.0743
  492MPD2    H1 7318   3.926   4.432  11.429 -0.2296  1.1126  0.5838
  492MPD2    H2 7319   4.172   4.534  11.083 -0.2436 -0.4071 -0.9021
  492MPD2    H3 7320   4.163   4.491  11.322 -0.2362 -2.3958 -0.0426
  492MPD2     N 7321   3.711   4.420  11.317  0.4583  0.2454 -0.2392
  492MPD2    H5 7322   3.721   4.410  11.418 -1.1036 -0.6653 -0.1894
  492MPD2    N1 7323   3.974   4.561  10.918  0.4777  0.8900 -0.1962
  492MPD2    H7 7324   4.067   4.578  10.882  1.9856 -2.6484  1.9552
  493TMC3    C1 7325   3.932   4.579  10.694 -0.0843  0.2538  0.3826
  493TMC3    C2 7326   4.055   4.639  10.679  0.1685 -0.1590 -0.2641
  493TMC3    C3 7327   4.096   4.661  10.551 -0.5045 -0.0326  0.8945
  493TMC3    C4 7328   3.852   4.542  10.586 -0.0335  0.3366 -0.2313
  493TMC3    C5 7329   3.902   4.572  10.464 -0.5039 -0.4405 -0.4786
  493TMC3    C6 7330   4.017   4.642  10.444 -0.6319  0.2533 -0.2067
  493TMC3     C 7331   3.880   4.551  10.829 -1.3765  1.0387 -0.3846
  493TMC3     O 7332   3.761   4.525  10.842  0.5246 -0.6376 -0.2084
  493TMC3     H 7333   4.110   4.669  10.767 -2.1165  1.1680  0.7205
  493TMC3    H1 7334   3.763   4.482  10.598  1.2148 -0.8134  3.4926
  493TMC3    H2 7335   4.059   4.632  10.345 -1.1331  0.6219 -0.4513
  493TMC3    C7 7336   3.861   4.492  10.355  1.1155  0.0517  0.1198
  493TMC3    C8 7337   4.194   0.047  10.537  0.2464  0.0570 -0.4087
  493TMC3    O1 7338   3.835   4.541  10.244  0.1623 -0.5914 -0.6187
  493TMC3    O2 7339   4.188   0.095  10.425  0.6381 -0.6366 -0.0882
  494TMC3    C1 7340   4.629   0.784   0.465 -0.7206  0.4028  0.5704
  494TMC3    C2 7341   4.720   0.690   0.423 -0.0247 -0.3969 -0.3668
  494TMC3    C3 7342   0.026   0.684   0.291  0.8510  0.3900 -0.3692
  494TMC3    C4 7343   4.567   0.869   0.370 -0.7304  0.0599 -0.2648
  494TMC3    C5 7344   4.597   0.852   0.238  0.0629 -0.0748 -0.1247
  494TMC3    C6 7345   4.688   0.758   0.200  0.1377  0.8999 -0.0216
  494TMC3     C 7346   4.560   0.778   0.594  0.0026 -0.4649 -0.4818
  494TMC3     O 7347   4.507   0.883   0.631 -0.1765 -0.1514  0.2386
  494TMC3     H 7348   0.060   0.650   0.500  0.7583 -1.0012 -1.3592
  494TMC3    H1 7349   4.498   0.944   0.407  0.3644  1.0421 -0.1851
  494TMC3    H2 7350   0.001   0.759   0.099 -1.4020 -0.2863 -0.6307
  494TMC3    C7 7351   4.563   0.950   0.133  0.3939  0.5883  0.4026
  494TMC3    C8 7352   0.134   0.598   0.258  0.2951 -0.2700 -0.4609
  494TMC3    O1 7353   4.585   0.909   0.022 -0.4418 -0.0892 -0.6238
  494TMC3    O2 7354   0.215   0.579   0.347  0.0419  0.7095  0.1718
  495TMC3    C1 7355   3.152   3.552  14.471  0.0252  0.1798 -0.2102
  495TMC3    C2 7356   3.053   3.557  14.379 -0.4333  0.6004 -0.3535
  495TMC3    C3 7357   2.926   3.534  14.415  0.1205  0.1910  0.7694
  495TMC3    C4 7358   3.113   3.558  14.601 -0.1209 -0.0810  0.0392
  495TMC3    C5 7359   2.981   3.535  14.631  0.3196  0.0789 -0.0625
  495TMC3    C6 7360   2.887   3.518  14.539  0.2431 -0.1652  0.0323
  495TMC3     C 7361   3.238   3.439  14.437 -0.0156  0.1683  0.4600
  495TMC3     O 7362   3.212   3.392  14.330 -0.0503 -0.0445 -0.3049
  495TMC3     H 7363   3.069   3.570  14.272  1.1976 -1.5419 -0.3662
  495TMC3    H1 7364   3.179   3.573  14.686 -0.8475  2.3263  0.1827
  495TMC3    H2 7365   2.785   3.490  14.563 -0.3590  2.2371  0.2291
  495TMC3    C7 7366   2.959   3.491  14.766  0.3013  0.9717  0.6983
  495TMC3    C8 7367   2.855   3.437  14.332 -0.5505 -0.1284  0.0314
  495TMC3    O1 7368   3.048   3.448  14.840  0.3291  0.3207 -0.3266
  495TMC3    O2 7369   2.738   3.421  14.348 -0.3029 -0.8123 -0.2155
  496MPD2     C 7370   0.509   3.169  15.479 -0.1493 -0.3180 -0.2429
  496MPD2    C1 7371   0.404   3.137  15.396  0.8261  0.1744  1.0995
  496MPD2    C2 7372   0.274   3.146  15.444 -0.6875 -0.2550 -0.7769
  496MPD2    C3 7373   0.250   3.190  15.571 -0.5931  0.2199 -0.3039
  496MPD2    C4 7374   0.352   3.227  15.655 -0.0089  0.0528 -0.6474
  496MPD2    C5 7375   0.478   3.216  15.603  0.1658 -0.0862 -0.3963
  496MPD2     H 7376   0.194   3.131  15.373  0.5934  2.7263 -2.8398
  496MPD2    H1 7377   0.340   3.259  15.758  0.0391 -1.9792 -0.0147
  496MPD2    H2 7378   0.616   3.164  15.462 -0.3286 -0.6084 -1.2403
  496MPD2    H3 7379   0.562   3.236  15.668 -0.9594  3.9391 -0.1754
  496MPD2     N 7380   0.116   3.199  15.620  0.6877  0.2158  0.5609
  496MPD2    H5 7381   0.116   3.235  15.714 -1.1739  0.0788  0.6239
  496MPD2    N1 7382   0.424   3.078  15.270 -0.4339 -0.2378 -0.1014
  496MPD2    H7 7383   0.349   3.027  15.223  0.7167 -1.4001 -0.6530
  497TMC3    C1 7384   4.615   3.167  15.644 -0.2933  0.8130  0.3382
  497TMC3    C2 7385   4.496   3.191  15.588 -0.0465 -0.4427 -0.1182
  497TMC3    C3 7386   4.389   3.231  15.664 -0.4258  0.1153 -0.0656
  497TMC3    C4 7387   4.637   3.191  15.773 -0.1708 -0.1098 -0.7813
  497TMC3    C5 7388   4.532   3.256  15.840 -0.1072 -0.1715 -0.7931
  497TMC3    C6 7389   4.403   3.272  15.793 -0.2783 -0.2657 -0.4986
  497TMC3     C 7390   0.003   3.146  15.558 -0.1110  0.0731  0.2015
  497TMC3     O 7391   4.714   3.088  15.451  0.0832  0.4372 -0.1056
  497TMC3     H 7392   4.482   3.175  15.482  0.5758 -1.4640 -0.0456
  497TMC3    H1 7393   0.004   3.158  15.819 -0.0337  0.0502 -0.9428
  497TMC3    H2 7394   4.325   3.311  15.857 -2.0264 -2.3045 -1.3704
  497TMC3    C7 7395   4.543   3.273  15.986 -0.3404  0.8902 -0.2838
  497TMC3    C8 7396   4.273   3.255  15.585 -0.2482  0.0366  1.0138
  497TMC3    O1 7397   4.443   3.235  16.045 -0.1744 -1.0278  0.3466
  497TMC3    O2 7398   4.263   3.212  15.471 -0.0797 -0.7605  0.1490
  498MPD2     C 7399   0.754   4.395   9.208 -0.0174 -0.4448  0.3352
  498MPD2    C1 7400   0.788   4.395   9.337 -0.0720  0.9655  0.6827
  498MPD2    C2 7401   0.693   4.387   9.434  0.2257 -0.3829  0.3305
  498MPD2    C3 7402   0.562   4.386   9.401  0.1104 -0.2427  0.2662
  498MPD2    C4 7403   0.527   4.391   9.268  0.2570  0.0996  0.3169
  498MPD2    C5 7404   0.623   4.385   9.174 -0.5063 -0.0765  0.1173
  498MPD2     H 7405   0.721   4.368   9.537 -0.2588 -2.1291  0.1552
  498MPD2    H1 7406   0.426   4.414   9.236 -0.1773 -0.8507  1.0206
  498MPD2    H2 7407   0.818   4.399   9.120 -0.7451 -4.2328 -0.3584
  498MPD2    H3 7408   0.604   4.389   9.067  1.0478  0.7486 -0.1251
  498MPD2     N 7409   0.467   4.386   9.508 -0.0473 -0.1794  0.0485
  498MPD2    H5 7410   0.506   4.373   9.601  2.7112 -2.2223 -1.3884
  498MPD2    N1 7411   0.925   4.394   9.383  0.0517 -0.8640 -0.2405
  498MPD2    H7 7412   0.935   4.408   9.483  0.1320 -0.0598 -0.3642
  499TMC3    C1 7413   1.160   4.396   9.368  0.3158  0.0912 -0.2702
  499TMC3    C2 7414   1.172   4.326   9.486 -0.1392 -0.1102  0.5676
  499TMC3    C3 7415   1.290   4.348   9.558 -0.1420  0.0806 -0.3898
  499TMC3    C4 7416   1.242   4.503   9.341 -0.6930  0.2766 -0.2242
  499TMC3    C5 7417   1.353   4.530   9.416  0.4119 -0.0322 -0.5711
  499TMC3    C6 7418   1.370   4.457   9.533  0.6765  0.0492  0.9579
  499TMC3     C 7419   1.032   4.385   9.299 -0.9193 -0.1929 -0.1765
  499TMC3     O 7420   1.040   4.359   9.181 -0.1170 -0.1365 -0.3851
  499TMC3     H 7421   1.107   4.244   9.515 -1.1775  0.9056  1.1142
  499TMC3    H1 7422   1.226   4.549   9.244 -0.1455  1.3699  0.1989
  499TMC3    H2 7423   1.455   4.472   9.599  2.7668  2.6389 -2.3146
  499TMC3    C7 7424   1.475   4.572   9.351 -0.4867 -1.0546 -1.0964
  499TMC3    C8 7425   1.339   4.250   9.643 -0.1305 -0.5781  0.4461
  499TMC3    O1 7426   1.583   4.549   9.410 -0.2047  0.3234  0.5728
  499TMC3    O2 7427   1.411   4.287   9.735 -0.4607 -0.3699  0.4024
  500MPD2     C 7428   2.973   1.117  10.354  0.5769  0.2727 -0.0865
  500MPD2    C1 7429   3.076   1.049  10.289 -0.9057  0.1398  0.2128
  500MPD2    C2 7430   3.053   0.921  10.241  0.5449 -0.4897  0.6231
  500MPD2    C3 7431   2.929   0.862  10.255  0.0410 -0.1334 -0.7705
  500MPD2    C4 7432   2.827   0.928  10.322 -0.1740 -0.2088  1.0923
  500MPD2    C5 7433   2.853   1.057  10.371  0.4860 -0.1628  0.4496
  500MPD2     H 7434   3.137   0.863  10.203  0.9350  2.9057 -3.6947
  500MPD2    H1 7435   2.732   0.879  10.340  0.1288 -1.9423 -1.9658
  500MPD2    H2 7436   2.995   1.217  10.391 -0.9302  1.0273 -1.2088
  500MPD2    H3 7437   2.778   1.114  10.425  1.1896  0.8527  0.3326
  500MPD2     N 7438   2.894   0.739  10.195  0.3579  0.3691  0.1418
  500MPD2    H5 7439   2.801   0.702  10.211  0.4336  0.8394  1.6721
  500MPD2    N1 7440   3.206   1.117  10.286 -0.6910 -0.0721 -0.0091
  500MPD2    H7 7441   3.224   1.207  10.329  2.6910 -0.4543 -0.6114
  501TMC3    C1 7442   3.426   1.149  10.185  0.3248 -0.0705 -0.3088
  501TMC3    C2 7443   3.400   1.283  10.181  0.3435 -0.4348  0.2361
  501TMC3    C3 7444   3.508   1.367  10.169  0.2240  0.2655  0.1939
  501TMC3    C4 7445   3.551   1.089  10.193  0.0866  0.0970 -0.1403
  501TMC3    C5 7446   3.658   1.184  10.189 -0.1669 -0.4301 -0.6733
  501TMC3    C6 7447   3.637   1.322  10.182  0.5257  0.5638  0.1538
  501TMC3     C 7448   3.314   1.062  10.216  0.4044 -0.6665  0.4823
  501TMC3     O 7449   3.335   0.943  10.191 -0.1839  0.0532 -0.1242
  501TMC3     H 7450   3.297   1.313  10.164 -0.2825 -1.9126  1.4553
  501TMC3    H1 7451   3.563   0.984  10.214  2.1309  0.5312  0.8108
  501TMC3    H2 7452   3.721   1.390  10.179  1.8746 -1.1885 -1.6543
  501TMC3    C7 7453   3.774   1.139  10.265 -0.6751 -0.0056 -0.4889
  501TMC3    C8 7454   3.479   1.507  10.212 -0.4296 -0.1123  0.1913
  501TMC3    O1 7455   3.781   1.018  10.283 -0.2819  0.1200 -0.1060
  501TMC3    O2 7456   3.409   1.515  10.310  0.3511  0.3544 -0.1406
  502TMC3    C1 7457   2.666   3.835  15.136 -1.3029  0.8056  0.5599
  502TMC3    C2 7458   2.679   3.946  15.059  0.0767  0.4560  0.6647
  502TMC3    C3 7459   2.572   4.002  14.990 -0.9486  0.0035 -0.2618
  502TMC3    C4 7460   2.547   3.765  15.124 -0.7909 -0.0660 -0.3967
  502TMC3    C5 7461   2.441   3.816  15.047 -0.4663  0.0816 -0.5877
  502TMC3    C6 7462   2.453   3.935  14.975  0.6228 -0.5447 -0.3836
  502TMC3     C 7463   2.717   3.853  15.274 -0.2186 -0.0161  0.7156
  502TMC3     O 7464   2.823   3.907  15.301  0.0087  0.9239 -0.3806
  502TMC3     H 7465   2.778   3.989  15.049  0.9841 -1.7921 -0.2085
  502TMC3    H1 7466   2.522   3.670  15.169  1.3206  0.7202  2.3952
  502TMC3    H2 7467   2.376   3.993  14.924  1.0037  1.6126  1.4540
  502TMC3    C7 7468   2.311   3.776  15.099  0.2606  0.0978 -0.3311
  502TMC3    C8 7469   2.567   4.146  14.971 -0.4527  0.4018 -0.4549
  502TMC3    O1 7470   2.304   3.686  15.183 -0.4684 -0.1713 -0.7883
  502TMC3    O2 7471   2.471   4.194  14.912  0.3449  0.3772  0.0477
  503MPD2     C 7472   4.564   0.160  16.401 -0.1879 -0.2327 -0.1340
  503MPD2    C1 7473   4.583   0.153  16.541 -0.0567 -0.6462 -0.2275
  503MPD2    C2 7474   4.628   0.032  16.596 -0.2624  0.1279  0.2599
  503MPD2    C3 7475   4.657   4.655  16.513  0.5368  0.0355 -0.0846
  503MPD2    C4 7476   4.639   4.665  16.372  0.6931  0.2801 -1.0167
  503MPD2    C5 7477   4.586   0.056  16.319 -0.2665  0.0620  0.0177
  503MPD2     H 7478   4.640   0.036  16.703 -1.6468  2.1801  0.3369
  503MPD2    H1 7479   4.656   4.579  16.308  0.8900 -0.2437 -0.2607
  503MPD2    H2 7480   4.529   0.251  16.353  1.5921  1.3581  1.5968
  503MPD2    H3 7481   4.567   0.062  16.213  0.1432 -1.5892 -0.1444
  503MPD2     N 7482   4.707   4.541  16.579 -0.1951  0.1901 -0.2934
  503MPD2    H5 7483   4.691   4.541  16.680 -1.9654 -0.4467 -0.5829
  503MPD2    N1 7484   4.554   0.268  16.621  0.3377 -0.0507 -0.2632
  503MPD2    H7 7485   4.543   0.255  16.721 -0.1523 -0.3345 -0.3525
  504TMC3    C1 7486   0.090   4.330  16.612 -0.3609 -0.8534  0.8231
  504TMC3    C2 7487   0.024   4.322  16.730  0.3288  0.9219 -0.5922
  504TMC3    C3 7488   0.087   4.265  16.840  0.0095 -0.4877 -0.3634
  504TMC3    C4 7489   0.212   4.278  16.589 -0.2115 -0.0317  0.7624
  504TMC3    C5 7490   0.262   4.213  16.698 -0.6787  0.0074  0.2857
  504TMC3    C6 7491   0.215   4.210  16.822 -0.8844 -0.3048 -1.2436
  504TMC3     C 7492   0.037   4.431  16.517 -0.3676  0.1798 -0.3957
  504TMC3     O 7493   0.075   4.423  16.401 -0.1286 -0.0447 -0.3216
  504TMC3     H 7494   4.653   4.371  16.735 -1.2118 -2.2854  1.0274
  504TMC3    H1 7495   0.262   4.283  16.493  0.3025 -0.4711  1.0049
  504TMC3    H2 7496   0.272   4.160  16.900 -0.8124 -1.4963 -2.0593
  504TMC3    C7 7497   0.401   4.172  16.686  0.3476 -0.1169 -0.3611
  504TMC3    C8 7498   0.062   4.321  16.976 -0.1929 -0.2095 -1.0810
  504TMC3    O1 7499   0.467   4.169  16.792 -0.3289  0.0255 -0.2489
  504TMC3    O2 7500   4.722   4.424  16.978  0.0632  0.7941 -0.5032
  505MPD2     C 7501   0.209   3.647  10.753 -0.8333  0.2842 -0.1935
  505MPD2    C1 7502   0.341   3.659  10.707  0.7940  0.4689 -0.1052
  505MPD2    C2 7503   0.415   3.779  10.717  0.0163 -0.9449 -0.5657
  505MPD2    C3 7504   0.354   3.885  10.778  0.0638  0.3455  0.0382
  505MPD2    C4 7505   0.230   3.866  10.837  0.7064  0.5107 -0.5314
  505MPD2    C5 7506   0.157   3.753  10.823 -0.3710 -0.5596 -0.0954
  505MPD2     H 7507   0.516   3.784  10.679 -0.2388  1.3117 -0.9661
  505MPD2    H1 7508   0.187   3.946  10.896  0.9015  0.9385 -0.9689
  505MPD2    H2 7509   0.163   3.549  10.742  0.7060 -0.3700 -0.8679
  505MPD2    H3 7510   0.059   3.745  10.868 -0.0259  1.6519  1.0532
  505MPD2     N 7511   0.431   4.001  10.785 -0.2108 -0.2704  0.9710
  505MPD2    H5 7512   0.517   3.989  10.733 -0.5747 -1.5461  0.6524
  505MPD2    N1 7513   0.407   3.547  10.647  0.6391 -0.0043 -0.3937
  505MPD2    H7 7514   0.342   3.473  10.624  1.7059 -1.3319  0.8753
  506TMC3    C1 7515   0.529   3.425  10.492 -0.2516  0.2622  0.4476
  506TMC3    C2 7516   0.442   3.434  10.392 -0.5656 -0.1564  0.0779
  506TMC3    C3 7517   0.475   3.414  10.261 -0.1602 -1.0704  0.2465
  506TMC3    C4 7518   0.655   3.405  10.458 -0.5641 -0.4615 -0.4030
  506TMC3    C5 7519   0.693   3.405  10.325  0.2313  0.5213  0.1895
  506TMC3    C6 7520   0.603   3.405  10.223 -0.2244 -1.0796  0.1056
  506TMC3     C 7521   0.528   3.532  10.593 -0.3849  0.1891  0.0842
  506TMC3     O 7522   0.632   3.586  10.621 -0.0900  0.1901  0.1768
  506TMC3     H 7523   0.339   3.458  10.415 -0.6606 -1.5962  1.1171
  506TMC3    H1 7524   0.725   3.398  10.541 -2.1975 -1.9378  0.8548
  506TMC3    H2 7525   0.638   3.396  10.121 -1.3652 -2.2193 -0.1904
  506TMC3    C7 7526   0.791   3.506  10.294  0.5447  0.2872  0.6571
  506TMC3    C8 7527   0.376   3.405  10.157 -1.0616  0.5532 -0.2502
  506TMC3    O1 7528   0.842   3.506  10.184 -0.0537  0.0917 -0.5884
  506TMC3    O2 7529   0.378   3.307  10.082 -0.4532 -0.1605  0.6626
  507TMC3    C1 7530   0.351   4.461  13.632 -0.1409 -0.3351 -0.4041
  507TMC3    C2 7531   0.401   4.473  13.504  0.6648 -0.0995  0.2918
  507TMC3    C3 7532   0.535   4.483  13.496  0.1459  0.7726 -0.4163
  507TMC3    C4 7533   0.417   4.464  13.749 -0.1484 -0.3952  0.0980
  507TMC3    C5 7534   0.552   4.490  13.732  0.0134 -0.3598 -0.0968
  507TMC3    C6 7535   0.617   4.480  13.608  0.0614 -0.4440  0.3770
  507TMC3     C 7536   0.207   4.453  13.636  0.8775 -0.2270 -0.4304
  507TMC3     O 7537   0.161   4.386  13.729  0.1511  0.7044  0.3589
  507TMC3     H 7538   0.346   4.475  13.410 -0.2937 -1.8527  0.8130
  507TMC3    H1 7539   0.360   4.447  13.839  0.0308 -0.3774  0.2151
  507TMC3    H2 7540   0.723   4.500  13.605 -0.1930  0.7160 -0.8644
  507TMC3    C7 7541   0.605   4.611  13.795 -0.3288  0.6366  0.5989
  507TMC3    C8 7542   0.575   4.580  13.405  0.2770  0.2972  0.4020
  507TMC3    O1 7543   0.691   4.672  13.734 -0.1103  0.4131 -0.2857
  507TMC3    O2 7544   0.519   4.581  13.291  0.7757 -0.2891  0.4382
  508MPD2     C 7545   1.530   2.173  16.432 -0.6054 -0.6521 -0.2123
  508MPD2    C1 7546   1.653   2.196  16.380 -0.4648  0.0872 -0.0502
  508MPD2    C2 7547   1.666   2.240  16.252  0.4156 -0.3170  0.4291
  508MPD2    C3 7548   1.552   2.266  16.169  1.0594 -0.1280  0.4096
  508MPD2    C4 7549   1.434   2.230  16.223  0.2462 -0.0814  0.3317
  508MPD2    C5 7550   1.420   2.195  16.356  0.0110  0.0956 -0.7162
  508MPD2     H 7551   1.765   2.253  16.211  0.6363  2.2958  1.7769
  508MPD2    H1 7552   1.340   2.253  16.174  1.1384  0.7654 -0.9598
  508MPD2    H2 7553   1.510   2.153  16.537  0.3362  0.9186  0.2722
  508MPD2    H3 7554   1.321   2.175  16.394  1.4432 -1.9144  1.8931
  508MPD2     N 7555   1.571   2.313  16.033 -0.0705  0.3642 -0.6647
  508MPD2    H5 7556   1.668   2.317  16.003  0.2000  2.2264  0.4847
  508MPD2    N1 7557   1.762   2.155  16.466  0.4858 -0.2878  0.0599
  508MPD2    H7 7558   1.737   2.123  16.559 -0.3218 -0.6940 -0.2976
  509TMC3    C1 7559   1.497   2.547  15.634 -0.2591  0.1224  0.0210
  509TMC3    C2 7560   1.626   2.520  15.594 -0.0962  0.0685  0.1028
  509TMC3    C3 7561   1.698   2.427  15.666  0.8075 -0.3625 -0.7438
  509TMC3    C4 7562   1.448   2.487  15.753  0.2660  0.3714  0.3798
  509TMC3    C5 7563   1.532   2.413  15.826  0.0579  0.3626 -0.5231
  509TMC3    C6 7564   1.660   2.375  15.784 -0.4263 -0.2212  0.3388
  509TMC3     C 7565   1.407   2.631  15.556 -0.4811  0.4415  0.5404
  509TMC3     O 7566   1.295   2.631  15.610  0.3105  0.0669  0.6206
  509TMC3     H 7567   1.672   2.545  15.499  1.0666 -1.8522  0.1495
  509TMC3    H1 7568   1.343   2.490  15.782 -0.0293 -0.7804 -0.5707
  509TMC3    H2 7569   1.728   2.309  15.837 -1.6441 -2.7346 -1.2176
  509TMC3    C7 7570   1.475   2.357  15.948  0.3751 -0.1647  0.3793
  509TMC3    C8 7571   1.847   2.419  15.644 -0.5373  0.2759  0.2731
  509TMC3    O1 7572   1.357   2.384  15.970 -0.2826 -0.8597 -0.2818
  509TMC3    O2 7573   1.913   2.323  15.690  0.1551 -0.1252 -0.0576
  510MPD2     C 7574   4.585   3.897  14.356 -0.0910  0.0386  0.5080
  510MPD2    C1 7575   4.662   3.811  14.441  0.3236  0.8407  0.2969
  510MPD2    C2 7576   0.058   3.772  14.399  0.9352  0.8343 -0.2701
  510MPD2    C3 7577   0.105   3.807  14.272  0.3481  0.4438 -0.4567
  510MPD2    C4 7578   0.033   3.894  14.192  0.2237  0.0210  0.1525
  510MPD2    C5 7579   4.646   3.947  14.248 -0.0415  0.2413  0.5792
  510MPD2     H 7580   0.121   3.711  14.463 -2.2434 -2.3459 -0.1618
  510MPD2    H1 7581   0.057   3.918  14.089  2.0971 -0.8020  0.4128
  510MPD2    H2 7582   4.502   3.948  14.404 -0.3361  1.0918 -1.0281
  510MPD2    H3 7583   4.590   4.016  14.185 -1.0812  0.1538  1.4101
  510MPD2     N 7584   0.228   3.748  14.238 -0.1045 -0.0860  0.9580
  510MPD2    H5 7585   0.262   3.688  14.311  1.2809 -0.9921 -0.4352
  510MPD2    N1 7586   4.595   3.768  14.561 -0.5364  0.4632 -0.2530
  510MPD2    H7 7587   4.503   3.810  14.568  0.7831  3.5316 -1.3297
  511TMC3    C1 7588   4.555   3.630  14.757 -0.6387  0.1330  0.4150
  511TMC3    C2 7589   4.436   3.705  14.785 -0.3899  0.0475  0.8588
  511TMC3    C3 7590   4.324   3.638  14.830  0.6233  0.4573 -0.4474
  511TMC3    C4 7591   4.560   3.496  14.790 -0.9150 -0.3134 -0.0500
  511TMC3    C5 7592   4.448   3.439  14.844  0.1842 -0.6715 -0.2775
  511TMC3    C6 7593   4.333   3.505  14.864  0.5023 -0.4222  1.0062
  511TMC3     C 7594   4.646   3.683  14.657  0.2529 -0.2534 -0.2594
  511TMC3     O 7595   0.033   3.632  14.659 -0.0751 -0.8747  0.1063
  511TMC3     H 7596   4.442   3.812  14.772 -0.5540  0.0826  1.0740
  511TMC3    H1 7597   4.657   3.450  14.773 -0.4446  1.0137 -0.9802
  511TMC3    H2 7598   4.242   3.453  14.892  0.7964 -1.8657 -0.7093
  511TMC3    C7 7599   4.428   3.311  14.785 -0.2988  0.1414 -0.2713
  511TMC3    C8 7600   4.209   3.724  14.877  0.8108 -0.2860  0.0856
  511TMC3    O1 7601   4.480   3.292  14.676  0.0486 -0.1881  0.1391
  511TMC3    O2 7602   4.222   3.842  14.906  0.4595 -0.4877  0.1094
  512TMC3    C1 7603   3.922   3.043  12.874 -0.6750  0.1588 -0.8460
  512TMC3    C2 7604   3.913   3.027  13.011 -0.1942  0.5809  0.1367
  512TMC3    C3 7605   3.830   2.931  13.057  0.1493  0.8660 -0.2654
  512TMC3    C4 7606   3.842   2.973  12.786 -0.3060 -0.1250  0.0885
  512TMC3    C5 7607   3.763   2.878  12.843 -0.0915  0.4486  0.5390
  512TMC3    C6 7608   3.762   2.849  12.978 -0.3763 -0.0265  0.2134
  512TMC3     C 7609   4.018   3.150  12.824 -0.2576 -0.5061  0.2266
  512TMC3     O 7610   4.013   3.192  12.709  0.7354  0.1709  0.6625
  512TMC3     H 7611   3.947   3.095  13.088  0.8342  0.3024 -0.0728
  512TMC3    H1 7612   3.848   2.998  12.681  0.5061 -1.8096 -0.2787
  512TMC3    H2 7613   3.705   2.762  13.009  1.3861 -0.9773  0.7310
  512TMC3    C7 7614   3.662   2.834  12.743  0.0607  0.1964  0.0304
  512TMC3    C8 7615   3.796   2.919  13.199  0.2388 -0.1901  0.3413
  512TMC3    O1 7616   3.625   2.908  12.650 -0.2425  0.5310  0.0761
  512TMC3    O2 7617   3.719   2.826  13.227 -0.3609 -0.2434 -0.2695
  513MPD2     C 7618   1.399   3.197  12.432  0.0723  0.0950 -0.1746
  513MPD2    C1 7619   1.344   3.069  12.419  0.4320  0.3485  0.0553
  513MPD2    C2 7620   1.414   2.955  12.388  0.5418 -0.5484 -0.1898
  513MPD2    C3 7621   1.554   2.967  12.373 -0.2155  0.2060 -0.1584
  513MPD2    C4 7622   1.615   3.093  12.384  0.1903  0.1146 -0.3631
  513MPD2    C5 7623   1.536   3.201  12.423 -0.2571  0.2068 -1.1542
  513MPD2     H 7624   1.358   2.864  12.375 -1.4020  0.7011 -0.5917
  513MPD2    H1 7625   1.720   3.115  12.368 -0.0858  1.2440 -0.5958
  513MPD2    H2 7626   1.342   3.287  12.455  2.9898  1.9161  0.0405
  513MPD2    H3 7627   1.589   3.295  12.434 -1.3496  0.7292 -0.3530
  513MPD2     N 7628   1.629   2.842  12.365  0.1620 -0.0886 -0.2850
  513MPD2    H5 7629   1.569   2.760  12.371  0.5665 -0.4930 -1.7640
  513MPD2    N1 7630   1.205   3.074  12.448 -0.4455  0.3646  0.5785
  513MPD2    H7 7631   1.156   3.162  12.465  1.9520  1.3235  2.5413
  514TMC3    C1 7632   0.997   2.997  12.526 -0.6198  0.3868 -0.4413
  514TMC3    C2 7633   0.904   3.035  12.437  0.3655 -0.0557 -0.3208
  514TMC3    C3 7634   0.789   2.952  12.426 -0.0160  0.9367 -0.0707
  514TMC3    C4 7635   0.973   2.898  12.621 -0.0407  0.1828 -0.8162
  514TMC3    C5 7636   0.859   2.819  12.615 -0.2700 -0.1229 -0.0050
  514TMC3    C6 7637   0.768   2.849  12.516  0.0521 -0.8033 -0.0315
  514TMC3     C 7638   1.128   2.962  12.474  0.0501 -0.7727 -0.0472
  514TMC3     O 7639   1.165   2.846  12.471  0.2001 -0.1909 -0.4063
  514TMC3     H 7640   0.933   3.117  12.372 -1.1329  1.2193  0.6314
  514TMC3    H1 7641   1.047   2.868  12.695  1.6202  0.5102 -2.3648
  514TMC3    H2 7642   0.672   2.798  12.522 -0.0864 -0.4603  0.6555
  514TMC3    C7 7643   0.891   2.677  12.636 -0.1394  0.1474  0.1066
  514TMC3    C8 7644   0.675   2.987  12.341  0.2417 -0.3057 -0.4515
  514TMC3    O1 7645   0.811   2.616  12.706  0.2740  0.2068  0.1088
  514TMC3    O2 7646   0.562   2.998  12.393 -0.1164 -0.2538 -0.2908
  515MPD2     C 7647   3.123   0.350  15.035  0.0212 -0.4926 -0.2308
  515MPD2    C1 7648   3.187   0.290  14.924  0.7185  0.1987  0.5009
  515MPD2    C2 7649   3.291   0.357  14.860  0.0466 -0.4384 -0.3026
  515MPD2    C3 7650   3.345   0.474  14.915  0.3965  0.3693  0.1882
  515MPD2    C4 7651   3.274   0.536  15.017  0.0449 -0.1113 -0.4874
  515MPD2    C5 7652   3.171   0.465  15.082  0.0825 -0.2619  0.4561
  515MPD2     H 7653   3.333   0.310  14.772  0.0323 -1.0978  0.0488
  515MPD2    H1 7654   3.312   0.629  15.058  0.4037 -0.9169  1.0066
  515MPD2    H2 7655   3.034   0.306  15.081 -0.3910  1.3661  0.7346
  515MPD2    H3 7656   3.124   0.504  15.172 -2.1682 -2.7547  0.3638
  515MPD2     N 7657   3.466   0.539  14.875 -0.3423 -0.2096  0.4131
  515MPD2    H5 7658   3.487   0.630  14.914  1.4819 -0.6995  0.5489
  515MPD2    N1 7659   3.137   0.164  14.874 -0.3776  0.2996  0.1612
  515MPD2    H7 7660   3.192   0.127  14.797 -0.5388  0.2143  0.0882
  516TMC3    C1 7661   3.012   4.699  14.854  0.1949  0.2769  0.4392
  516TMC3    C2 7662   3.001   4.720  14.724 -0.4817  0.4600  0.0768
  516TMC3    C3 7663   2.988   4.603  14.649  0.5484  0.6638  0.5871
  516TMC3    C4 7664   2.994   4.575  14.909  0.2321  0.5061 -0.0946
  516TMC3    C5 7665   2.954   4.469  14.835 -0.1798 -0.3403 -0.2822
  516TMC3    C6 7666   2.949   4.486  14.702  0.3822 -0.5937 -0.1305
  516TMC3     C 7667   3.057   0.077  14.944  0.4073 -0.2622 -0.4987
  516TMC3     O 7668   2.991   0.093  15.046 -0.0358 -0.4245 -0.3352
  516TMC3     H 7669   3.004   0.096  14.685 -1.8109 -0.2366 -1.8013
  516TMC3    H1 7670   3.012   4.555  15.014  0.5226 -0.7502 -0.3826
  516TMC3    H2 7671   2.937   4.402  14.634  0.1689 -0.2845 -0.4799
  516TMC3    C7 7672   2.996   4.345  14.878 -0.1978 -0.6223 -0.0409
  516TMC3    C8 7673   2.994   4.608  14.507  0.9839  0.4709 -0.2981
  516TMC3    O1 7674   3.087   4.349  14.964  0.1268 -0.3266  0.1043
  516TMC3    O2 7675   2.943   4.515  14.447  0.2022  0.3518  0.3634
  517MPD2     C 7676   2.966   1.520  17.448 -0.3497  0.2124  0.2720
  517MPD2    C1 7677   3.067   1.513  17.538  0.3324  0.8143 -0.2996
  517MPD2    C2 7678   3.081   1.603  17.639 -0.0319 -0.1025 -0.3714
  517MPD2    C3 7679   2.980   1.692  17.659 -0.1488  0.3170 -0.6514
  517MPD2    C4 7680   2.874   1.693  17.571  0.9368 -0.3568 -0.3548
  517MPD2    C5 7681   2.873   1.610  17.465 -0.1452 -0.4909 -0.4447
  517MPD2     H 7682   3.161   1.587   0.006 -2.1620  0.7294  2.2032
  517MPD2    H1 7683   2.796   1.768  17.572  0.9297 -0.3712  0.5590
  517MPD2    H2 7684   2.963   1.456  17.361 -0.9632  2.7184 -1.5460
  517MPD2    H3 7685   2.791   1.614  17.393  0.2152 -0.2633 -0.8404
  517MPD2     N 7686   2.970   1.783   0.068 -0.4824  0.4096 -0.4930
  517MPD2    H5 7687   2.883   1.832   0.086  0.9401  2.1313  1.6345
  517MPD2    N1 7688   3.174   1.417  17.517  0.1342 -0.1223  0.1790
  517MPD2    H7 7689   3.239   1.407  17.595 -0.8776  1.0156  1.1667
  518TMC3    C1 7690   3.278   1.221  17.426 -0.3706  0.7386 -0.3972
  518TMC3    C2 7691   3.264   1.089  17.392  0.7543 -0.2218 -0.1440
  518TMC3    C3 7692   3.369   1.004  17.398 -0.1122 -0.4741 -0.5685
  518TMC3    C4 7693   3.396   1.266  17.466 -0.1959 -0.5113 -0.0402
  518TMC3    C5 7694   3.506   1.184  17.453  0.0644 -0.2702  0.1384
  518TMC3    C6 7695   3.492   1.051  17.423  0.0968 -0.7012 -0.7566
  518TMC3     C 7696   3.172   1.315  17.419  0.3845 -0.2670  0.0257
  518TMC3     O 7697   3.088   1.278  17.339  0.4629 -0.6252 -0.2050
  518TMC3     H 7698   3.167   1.048  17.366  0.3363 -1.0239  2.7209
  518TMC3    H1 7699   3.411   1.371  17.487  0.6837 -1.1841  2.6824
  518TMC3    H2 7700   3.579   0.987  17.435  0.3548  0.0351  1.3188
  518TMC3    C7 7701   3.636   1.239  17.481 -0.3406 -0.7579 -0.2763
  518TMC3    C8 7702   3.355   0.861  17.405  0.2187  0.3237 -0.6530
  518TMC3    O1 7703   3.653   1.334  17.553  0.0792  0.3351  0.2808
  518TMC3    O2 7704   3.445   0.790  17.364 -0.1571 -0.3166  0.1394
  519MPD2     C 7705   0.012   0.163  13.820  0.3876  0.2693  0.3477
  519MPD2    C1 7706   4.626   0.089  13.816  0.0277  0.2561  0.2098
  519MPD2    C2 7707   4.623   4.689  13.869  0.7305 -0.0697  0.6007
  519MPD2    C3 7708   0.010   4.629  13.920  0.1055 -0.0222 -0.2690
  519MPD2    C4 7709   0.132   4.703  13.914  0.0525  0.4140 -0.5882
  519MPD2    C5 7710   0.128   0.110  13.866 -0.2074  0.5815  0.2893
  519MPD2     H 7711   4.524   4.646  13.859  1.2161 -0.7035 -1.4843
  519MPD2    H1 7712   0.229   4.658  13.938  1.1386  3.3306  0.4449
  519MPD2    H2 7713   0.011   0.268  13.792 -2.5972  0.2273  0.2366
  519MPD2    H3 7714   0.216   0.174  13.872  0.0960 -0.0766  2.7476
  519MPD2     N 7715   0.006   4.496  13.968 -0.2932 -0.0911  0.4206
  519MPD2    H5 7716   0.099   4.457  13.980  0.4350  1.5656  0.1452
  519MPD2    N1 7717   4.506   0.142  13.774  0.7560 -0.0945  0.2475
  519MPD2    H7 7718   4.432   0.076  13.755  0.0416  0.5654  0.7441
  520TMC3    C1 7719   4.652   4.284  13.989 -0.2457  0.5647  0.3556
  520TMC3    C2 7720   4.590   4.228  13.881 -0.0675  0.1133 -0.0827
  520TMC3    C3 7721   4.655   4.127  13.813  0.4601 -0.2667 -0.7614
  520TMC3    C4 7722   0.055   4.252  14.020 -0.7143  0.2205  0.1240
  520TMC3    C5 7723   0.120   4.158  13.945 -0.2796  0.1813 -0.1594
  520TMC3    C6 7724   0.062   4.092  13.840  0.7278 -0.2408  0.0007
  520TMC3     C 7725   4.618   4.429  13.992  0.3386 -0.9190 -0.5645
  520TMC3     O 7726   4.498   4.457  13.990 -0.7810  0.1863  0.8285
  520TMC3     H 7727   4.496   4.266  13.845  0.0291  1.0556  0.6536
  520TMC3    H1 7728   0.098   4.305  14.104 -1.9031  0.9003  0.2962
  520TMC3    H2 7729   0.119   4.015  13.790 -2.2493 -1.4172 -1.5559
  520TMC3    C7 7730   0.265   4.153  13.960  0.4170  0.4830 -0.2604
  520TMC3    C8 7731   4.598   4.074  13.687 -0.7474  0.1756 -0.8763
  520TMC3    O1 7732   0.310   4.168  14.076 -0.2667  0.3577  0.7824
  520TMC3    O2 7733   4.674   4.010  13.618 -0.0261  0.1838  0.0585
  521MPD2     C 7734   0.676   2.534   0.089 -0.1721 -0.6022 -0.7660
  521MPD2    C1 7735   0.646   2.453  17.689  0.0600  0.8558  0.5085
  521MPD2    C2 7736   0.754   2.383  17.631  0.1913  0.1102  0.0899
  521MPD2    C3 7737   0.886   2.411  17.669  0.3401  0.2626 -0.0840
  521MPD2    C4 7738   0.908   2.496   0.064  0.0815 -0.1469  0.0169
  521MPD2    C5 7739   0.804   2.552   0.135 -0.9812 -0.3240  0.8482
  521MPD2     H 7740   0.744   2.315  17.547  1.3587 -0.2583  0.2585
  521MPD2    H1 7741   1.009   2.528   0.084  0.6626 -1.1813 -1.3266
  521MPD2    H2 7742   0.594   2.587   0.136  0.2594 -1.4444  0.9296
  521MPD2    H3 7743   0.827   2.615   0.220 -0.4156 -0.1932  0.5960
  521MPD2     N 7744   0.987   2.342  17.597 -0.5542  0.4039  0.2490
  521MPD2    H5 7745   0.959   2.265  17.537  0.5818 -1.0655  1.5842
  521MPD2    N1 7746   0.512   2.433  17.647  0.3133  0.0015  0.9312
  521MPD2    H7 7747   0.447   2.501  17.686  0.4791  0.5431  0.2627
  522TMC3    C1 7748   1.177   2.320  17.463 -0.3255 -1.2574  0.2955
  522TMC3    C2 7749   1.306   2.290  17.464  0.5033 -0.4629 -0.1136
  522TMC3    C3 7750   1.363   2.213  17.365  0.2328 -0.1055  0.0414
  522TMC3    C4 7751   1.095   2.283  17.361 -0.0062  0.4408 -0.1968
  522TMC3    C5 7752   1.156   2.211  17.265 -0.0553 -0.0679  0.2140
  522TMC3    C6 7753   1.291   2.170  17.260 -0.0517  0.0519 -0.1417
  522TMC3     C 7754   1.117   2.378  17.579  0.1875 -0.3336  0.3871
  522TMC3     O 7755   1.189   2.449  17.648 -0.4276 -0.0766 -0.0634
  522TMC3     H 7756   1.360   2.326  17.551  1.8125 -0.6053 -0.8621
  522TMC3    H1 7757   0.995   2.323  17.357  0.0806  0.5745 -1.1567
  522TMC3    H2 7758   1.334   2.110  17.181  0.3112  0.0586  0.0518
  522TMC3    C7 7759   1.064   2.119  17.192 -0.1008 -0.7472  0.6407
  522TMC3    C8 7760   1.507   2.212  17.371  0.3091 -0.1110  0.5268
  522TMC3    O1 7761   1.107   2.032  17.120 -0.3696 -0.4441  0.6577
  522TMC3    O2 7762   1.564   2.248  17.470 -0.1422 -0.6239 -0.3363
  523MPD2     C 7763   4.089   2.634  10.460  0.3472  0.3743 -0.3404
  523MPD2    C1 7764   4.026   2.590  10.345  0.2344 -0.1580 -0.0503
  523MPD2    C2 7765   3.991   2.683  10.249  0.0256 -0.2287  0.3692
  523MPD2    C3 7766   4.023   2.818  10.255 -0.1608 -0.3302 -0.2206
  523MPD2    C4 7767   4.082   2.859  10.374 -0.2456 -0.4274 -0.2573
  523MPD2    C5 7768   4.119   2.767  10.468  0.2810 -0.3800  1.1015
  523MPD2     H 7769   3.940   2.649  10.159 -1.1242  0.3333  0.8069
  523MPD2    H1 7770   4.103   2.962  10.399  1.1267 -1.2177  1.8744
  523MPD2    H2 7771   4.111   2.571  10.545  1.6002  2.2532  0.7217
  523MPD2    H3 7772   4.181   2.802  10.550 -1.9373  0.1984  2.5334
  523MPD2     N 7773   4.002   2.912  10.152  0.3112 -0.2265 -1.0829
  523MPD2    H5 7774   4.020   3.010  10.171  1.0247 -1.0250  2.4293
  523MPD2    N1 7775   3.984   2.452  10.335  0.3836  0.4626  0.0831
  523MPD2    H7 7776   4.038   2.383  10.386  1.6524  1.1304 -0.3779
  524TMC3    C1 7777   3.948   2.992   9.933 -0.1924  0.0569 -0.0453
  524TMC3    C2 7778   3.966   2.964   9.802 -0.2082 -0.0085 -1.1331
  524TMC3    C3 7779   3.953   3.075   9.723 -0.4863 -0.6280 -0.0531
  524TMC3    C4 7780   3.889   3.108   9.989 -0.2748  0.0445  0.1662
  524TMC3    C5 7781   3.866   3.210   9.895  0.0649 -0.2567 -0.3916
  524TMC3    C6 7782   3.906   3.199   9.762 -0.8269 -0.2171 -0.3074
  524TMC3     C 7783   3.961   2.880  10.025  0.1118  0.2239  0.3238
  524TMC3     O 7784   3.946   2.772   9.971  0.4912 -0.2358 -0.0127
  524TMC3     H 7785   4.026   2.879   9.771  0.8700  0.4874 -0.4067
  524TMC3    H1 7786   3.860   3.111  10.093  3.9565 -0.6995  1.3695
  524TMC3    H2 7787   3.882   3.274   9.688 -0.4647  3.1667  3.0110
  524TMC3    C7 7788   3.752   3.290   9.924 -0.0636  0.3861  0.5134
  524TMC3    C8 7789   4.027   3.077   9.596  0.4381 -0.4308 -0.7438
  524TMC3    O1 7790   3.754   3.372  10.020  0.3106  0.4465 -0.5263
  524TMC3    O2 7791   4.029   2.965   9.546 -0.0784 -0.4434  0.0126
  525MPD2     C 7792   1.204   4.154  14.194  0.3339 -0.0839 -0.5843
  525MPD2    C1 7793   1.329   4.162  14.234 -0.1013 -0.9653 -0.5039
  525MPD2    C2 7794   1.394   4.284  14.220  0.2028  0.1377 -0.0068
  525MPD2    C3 7795   1.326   4.398  14.176 -0.2438 -0.3559 -0.2524
  525MPD2    C4 7796   1.199   4.389  14.128  0.7347  0.2674 -0.0027
  525MPD2    C5 7797   1.135   4.261  14.142  0.1978  0.1330 -0.9424
  525MPD2     H 7798   1.496   4.295  14.254 -0.2556  2.8488  0.4928
  525MPD2    H1 7799   1.137   4.473  14.098  1.6715  1.1684  0.5668
  525MPD2    H2 7800   1.143   4.065  14.189 -0.9323  0.7982 -1.1477
  525MPD2    H3 7801   1.030   4.258  14.113  0.1731 -0.3977 -0.7997
  525MPD2     N 7802   1.378   4.533  14.179 -0.3085  0.4727 -0.1170
  525MPD2    H5 7803   1.307   4.602  14.156 -1.0009 -0.1959 -0.0115
  525MPD2    N1 7804   1.409   4.054  14.283 -0.3557 -0.2184 -0.0700
  525MPD2    H7 7805   1.510   4.058  14.289 -0.4407  1.1598  0.3580
  526TMC3    C1 7806   1.438   3.876  14.437 -0.0475  0.5381 -0.1016
  526TMC3    C2 7807   1.393   3.840  14.565 -1.3507  0.0610  0.1744
  526TMC3    C3 7808   1.482   3.778  14.645 -0.0674 -0.1354 -0.2824
  526TMC3    C4 7809   1.555   3.834  14.382  0.0261 -0.4279 -0.5384
  526TMC3    C5 7810   1.641   3.774  14.464  0.3761 -0.0835  0.1163
  526TMC3    C6 7811   1.604   3.760  14.593  0.3619  0.0562  0.6392
  526TMC3     C 7812   1.350   3.956  14.360 -0.4511  1.0274  0.7698
  526TMC3     O 7813   1.231   3.956  14.391  0.2535  0.3020 -0.0374
  526TMC3     H 7814   1.307   3.894  14.603 -2.3161 -1.6780  0.4754
  526TMC3    H1 7815   1.581   3.848  14.277  3.8951  1.4072  0.6578
  526TMC3    H2 7816   1.678   3.714  14.658  2.0515 -0.6113 -1.7561
  526TMC3    C7 7817   1.781   3.744  14.434 -0.0232 -0.0520  0.2604
  526TMC3    C8 7818   1.467   3.775  14.789  0.6965  0.1476 -0.2253
  526TMC3    O1 7819   1.843   3.657  14.501  0.1434  0.4999 -0.1290
  526TMC3    O2 7820   1.561   3.804  14.855  0.3478  0.0422  0.3622
  527MPD2     C 7821   3.946   1.328   1.467 -0.4997 -0.3571 -0.5947
  527MPD2    C1 7822   4.006   1.403   1.361  0.7724  0.0488  0.4166
  527MPD2    C2 7823   4.098   1.346   1.279 -0.1008 -0.4950 -0.0169
  527MPD2    C3 7824   4.134   1.211   1.290 -0.1453  0.2778 -0.1584
  527MPD2    C4 7825   4.068   1.136   1.387  0.1689  0.6003  0.4665
  527MPD2    C5 7826   3.986   1.194   1.477 -0.1489 -0.0903  0.3809
  527MPD2     H 7827   4.155   1.405   1.208 -0.3893  1.4654  1.3741
  527MPD2    H1 7828   4.100   1.040   1.425 -0.3151  0.4234  0.4240
  527MPD2    H2 7829   3.881   1.378   1.537 -0.0278 -0.0707 -0.3665
  527MPD2    H3 7830   3.945   1.133   1.557 -2.2257  0.9575  0.1053
  527MPD2     N 7831   4.229   1.148   1.203 -0.2732 -0.7053 -0.3340
  527MPD2    H5 7832   4.290   1.207   1.147  0.0769 -2.1256 -1.4415
  527MPD2    N1 7833   3.979   1.543   1.349 -0.0084  0.4098  0.8993
  527MPD2    H7 7834   4.022   1.595   1.274  1.6826 -0.7372  1.0918
  528TMC3    C1 7835   3.886   1.752   1.373  0.3163 -0.1471 -0.3575
  528TMC3    C2 7836   4.001   1.806   1.425  0.4758  0.1900  0.2052
  528TMC3    C3 7837   4.007   1.941   1.466 -1.0201  0.0699  0.1944
  528TMC3    C4 7838   3.773   1.825   1.379  0.2225 -0.4018  0.6069
  528TMC3    C5 7839   3.780   1.957   1.422  0.7015 -0.2330  0.0289
  528TMC3    C6 7840   3.892   2.015   1.467  0.5358 -0.2841  0.4774
  528TMC3     C 7841   3.882   1.620   1.425  0.0132 -0.2466 -0.1805
  528TMC3     O 7842   3.806   1.597   1.516 -0.2437  0.3704  0.6261
  528TMC3     H 7843   4.083   1.744   1.458  0.9374  0.2386 -0.8528
  528TMC3    H1 7844   3.681   1.773   1.357 -1.4699  3.0064 -0.3480
  528TMC3    H2 7845   3.907   2.122   1.476 -0.1571 -0.1664  0.2317
  528TMC3    C7 7846   3.672   2.037   1.390  0.3935 -0.0506  0.4889
  528TMC3    C8 7847   4.123   1.981   1.546  0.0670  0.0625  0.2452
  528TMC3    O1 7848   3.653   2.148   1.440  0.1472 -0.0219  0.0421
  528TMC3    O2 7849   4.229   1.929   1.512 -0.7241  0.0353  0.1672
  529MPD2     C 7850   1.311   0.367   0.571  0.0955 -0.0932 -0.8551
  529MPD2    C1 7851   1.408   0.325   0.486  0.3743 -0.3609  0.2309
  529MPD2    C2 7852   1.430   0.404   0.372  0.4425  0.4728  0.8163
  529MPD2    C3 7853   1.369   0.530   0.357  0.3908  0.1853 -0.4360
  529MPD2    C4 7854   1.267   0.563   0.446  0.7560  0.3143  0.4384
  529MPD2    C5 7855   1.238   0.483   0.548 -0.3769  0.0905  0.3840
  529MPD2     H 7856   1.509   0.367   0.307  0.4710 -0.3697  1.3224
  529MPD2    H1 7857   1.221   0.661   0.440 -1.3919 -0.5480  2.8990
  529MPD2    H2 7858   1.279   0.308   0.657 -0.5933  0.5807 -0.6519
  529MPD2    H3 7859   1.147   0.503   0.603 -0.1574 -1.1237  1.2039
  529MPD2     N 7860   1.411   0.623   0.251  0.0497  0.4320 -0.0954
  529MPD2    H5 7861   1.365   0.714   0.252 -0.8008  0.0059 -0.8996
  529MPD2    N1 7862   1.486   0.210   0.509  0.0465 -0.0639 -0.2976
  529MPD2    H7 7863   1.548   0.180   0.434  1.7702  3.4120 -0.2587
  530TMC3    C1 7864   1.591   0.039   0.633  0.3125 -0.0865  0.5038
  530TMC3    C2 7865   1.658   0.022   0.744 -0.1204 -0.5999 -0.4419
  530TMC3    C3 7866   1.770   4.668   0.741  0.5194  0.1912  0.2799
  530TMC3    C4 7867   1.621   4.697   0.516 -0.3678 -0.1110 -0.1198
  530TMC3    C5 7868   1.725   4.611   0.528 -0.1821 -0.5090 -0.8007
  530TMC3    C6 7869   1.801   4.590   0.634 -0.5626 -0.2369  0.2042
  530TMC3     C 7870   1.491   0.145   0.630 -0.3786  0.0564 -0.2446
  530TMC3     O 7871   1.459   0.188   0.736  0.3319  0.1717  0.0243
  530TMC3     H 7872   1.632   0.073   0.836 -1.2388 -0.3207 -0.9056
  530TMC3    H1 7873   1.560   4.702   0.427 -0.5176 -0.8996 -0.0627
  530TMC3    H2 7874   1.892   4.533   0.619 -0.3703 -0.0660  0.6948
  530TMC3    C7 7875   1.706   4.500   0.440 -0.0226 -0.3489 -0.9675
  530TMC3    C8 7876   1.823   4.640   0.872 -0.7232 -0.1928  0.3054
  530TMC3    O1 7877   1.629   4.512   0.349  0.2635 -0.4024 -0.3178
  530TMC3    O2 7878   1.743   4.669   0.960  0.8229 -0.5098  0.1964
  531MPD2     C 7879   1.214   2.297  12.528  0.0133 -0.0320 -0.0468
  531MPD2    C1 7880   1.282   2.415  12.503 -0.6363 -0.5048 -0.1094
  531MPD2    C2 7881   1.208   2.532  12.525 -0.3752  0.4380  0.5572
  531MPD2    C3 7882   1.079   2.522  12.568 -0.5830  0.1621 -0.0962
  531MPD2    C4 7883   1.015   2.403  12.598  0.0518 -0.5160 -1.1496
  531MPD2    C5 7884   1.080   2.289  12.571 -0.3426  0.3053  1.0149
  531MPD2     H 7885   1.245   2.631  12.500 -2.4708  1.2349  0.5773
  531MPD2    H1 7886   0.909   2.397  12.621  0.1409  1.9056 -0.1026
  531MPD2    H2 7887   1.258   2.200  12.510 -0.9096 -0.5870  0.7117
  531MPD2    H3 7888   1.036   2.195  12.602 -1.4619  0.0340 -1.3581
  531MPD2     N 7889   1.012   2.650  12.584 -0.5139 -0.4475 -0.3498
  531MPD2    H5 7890   1.059   2.731  12.546 -2.6116  0.2405 -1.4697
  531MPD2    N1 7891   1.414   2.410  12.461  0.4367  0.1946 -0.1191
  531MPD2    H7 7892   1.458   2.319  12.459 -1.0112 -0.5669  2.4667
  532TMC3    C1 7893   1.628   2.511  12.396 -0.3580  0.2072 -0.2809
  532TMC3    C2 7894   1.693   2.613  12.321 -0.7409  0.1341  0.2669
  532TMC3    C3 7895   1.797   2.682  12.382 -0.6241 -0.1858 -0.2684
  532TMC3    C4 7896   1.685   2.466  12.515  0.3915 -0.2202  0.1619
  532TMC3    C5 7897   1.790   2.534  12.562  0.2829  0.5942 -0.2814
  532TMC3    C6 7898   1.846   2.635  12.500  1.1040 -0.0071  0.0356
  532TMC3     C 7899   1.491   2.521  12.407 -0.5501 -0.2677  0.0283
  532TMC3     O 7900   1.449   2.628  12.358 -0.4814 -0.1423  0.6959
  532TMC3     H 7901   1.666   2.620  12.216 -0.2560 -0.2582  0.1141
  532TMC3    H1 7902   1.641   2.394  12.583 -0.1961  0.3166  0.3524
  532TMC3    H2 7903   1.926   2.692  12.546  0.8149  1.5731 -1.4003
  532TMC3    C7 7904   1.769   2.558  12.702 -0.3502  1.1836 -0.1324
  532TMC3    C8 7905   1.766   2.823  12.384 -0.2622  0.0204 -0.4887
  532TMC3    O1 7906   1.728   2.465  12.766 -0.1041  0.0885 -0.5477
  532TMC3    O2 7907   1.854   2.893  12.425 -0.8771  0.0644 -0.1803
  533TMC3    C1 7908   1.528   4.711  14.218 -0.2798  0.1452 -0.1134
  533TMC3    C2 7909   1.657   0.026  14.195 -0.5550  0.3777 -0.3194
  533TMC3    C3 7910   1.686   0.151  14.248 -0.1624 -0.0788 -0.1302
  533TMC3    C4 7911   1.430   0.056  14.278 -0.4390 -0.3098 -0.0615
  533TMC3    C5 7912   1.466   0.169  14.338  0.3292  0.2103 -0.1580
  533TMC3    C6 7913   1.586   0.229  14.303  0.5576 -0.2144  0.1878
  533TMC3     C 7914   1.507   4.573  14.212  0.3992 -0.3239  0.2075
  533TMC3     O 7915   1.605   4.498  14.208 -0.2124  0.1128 -0.5188
  533TMC3     H 7916   1.733   4.684  14.160 -0.0567  1.5537 -1.5064
  533TMC3    H1 7917   1.333   0.020  14.308 -1.6380  0.7918 -2.6345
  533TMC3    H2 7918   1.608   0.330  14.334  0.7109 -0.2184  0.0900
  533TMC3    C7 7919   1.455   0.153  14.476 -0.0589 -0.5833  0.3203
  533TMC3    C8 7920   1.819   0.195  14.289  0.1996  0.3289  0.1815
  533TMC3    O1 7921   1.366   0.085  14.516 -0.1055  0.0691  0.0680
  533TMC3    O2 7922   1.827   0.277  14.385  0.2583  0.4429  0.0151
  534MPD2     C 7923   3.244   1.063   2.006 -0.2660 -0.8951  0.1830
  534MPD2    C1 7924   3.286   1.095   1.879  0.0234  0.8079 -0.2898
  534MPD2    C2 7925   3.307   0.997   1.787  0.2320 -0.5844 -0.1521
  534MPD2    C3 7926   3.297   0.863   1.821 -0.5919  0.2709 -0.4915
  534MPD2    C4 7927   3.254   0.841   1.954 -0.2432  0.1874 -0.0622
  534MPD2    C5 7928   3.224   0.937   2.047  0.3337 -0.7954 -0.3696
  534MPD2     H 7929   3.350   1.021   1.691  0.8393 -1.4161 -0.0932
  534MPD2    H1 7930   3.256   0.741   1.996 -1.3926  0.0709 -0.3144
  534MPD2    H2 7931   3.236   1.151   2.068 -0.5628  0.1320 -1.2944
  534MPD2    H3 7932   3.211   0.918   2.153 -0.5760 -1.1902 -0.5530
  534MPD2     N 7933   3.331   0.753   1.739  0.5986 -0.2574 -0.2219
  534MPD2    H5 7934   3.317   0.660   1.777  1.0103 -0.5424 -0.7481
  534MPD2    N1 7935   3.299   1.229   1.834 -0.4941 -0.3576  0.7575
  534MPD2    H7 7936   3.328   1.239   1.737  0.6144  0.4893  1.1768
  535TMC3    C1 7937   3.414   0.635   1.550 -0.0347  0.6423 -0.6506
  535TMC3    C2 7938   3.343   0.529   1.593 -0.0968  0.1048 -0.4221
  535TMC3    C3 7939   3.344   0.410   1.511  0.2476  0.5705 -0.2044
  535TMC3    C4 7940   3.494   0.622   1.438 -0.5908 -0.0969  0.1070
  535TMC3    C5 7941   3.487   0.514   1.354  0.1255  0.4394 -0.0528
  535TMC3    C6 7942   3.421   0.401   1.396 -0.6359  0.4542  0.3239
  535TMC3     C 7943   3.412   0.760   1.622 -0.4351 -0.2397  0.4563
  535TMC3     O 7944   3.464   0.861   1.570  0.7667 -0.4708 -0.4064
  535TMC3     H 7945   3.266   0.546   1.667 -1.4318  1.2360 -2.0641
  535TMC3    H1 7946   3.552   0.708   1.408  3.7670 -2.9249  0.5414
  535TMC3    H2 7947   3.427   0.308   1.342  0.2086 -0.6966  2.4022
  535TMC3    C7 7948   3.558   0.516   1.228 -0.9291 -0.4354 -0.4895
  535TMC3    C8 7949   3.239   0.315   1.533  0.3944  0.1349 -0.9843
  535TMC3    O1 7950   3.611   0.414   1.182 -0.5551  0.0158 -0.4477
  535TMC3    O2 7951   3.221   0.245   1.435  0.0513  0.1528  0.6048
  536MPD2     C 7952   1.975   3.445  16.583  0.3025 -0.4086 -0.0285
  536MPD2    C1 7953   2.080   3.425  16.500  0.1980 -1.2079  0.6424
  536MPD2    C2 7954   2.064   3.457  16.366 -0.3346 -0.2227 -0.7688
  536MPD2    C3 7955   1.950   3.519  16.319  0.4180 -0.6589 -0.7657
  536MPD2    C4 7956   1.856   3.554  16.410 -0.1258 -0.0825 -0.6143
  536MPD2    C5 7957   1.860   3.507  16.535  0.3675 -0.4449  0.4802
  536MPD2     H 7958   2.136   3.421  16.293 -1.1116 -1.0068 -1.1457
  536MPD2    H1 7959   1.763   3.604  16.386 -0.1457  0.4848  0.6563
  536MPD2    H2 7960   1.977   3.424  16.689  1.1522 -0.9069 -0.1410
  536MPD2    H3 7961   1.778   3.521  16.605 -0.6699 -0.2453 -0.7811
  536MPD2     N 7962   1.942   3.556  16.182 -0.1575  0.1923 -0.4702
  536MPD2    H5 7963   1.862   3.613  16.156  0.3189  0.9135 -0.3568
  536MPD2    N1 7964   2.199   3.363  16.551 -0.4542  0.6922 -0.0479
  536MPD2    H7 7965   2.182   3.325  16.643 -1.2585 -1.8508 -1.2465
  537TMC3    C1 7966   2.425   3.313  16.572  0.2821  0.1555 -0.2592
  537TMC3    C2 7967   2.543   3.384  16.574 -0.4193  0.5143  0.0005
  537TMC3    C3 7968   2.627   3.369  16.683 -0.2040  0.2829 -0.0353
  537TMC3    C4 7969   2.395   3.221  16.665  0.1436  0.4462  0.1686
  537TMC3    C5 7970   2.480   3.203  16.769  0.5141 -0.2521 -0.2437
  537TMC3    C6 7971   2.601   3.277  16.781 -0.7272  0.4383  0.5364
  537TMC3     C 7972   2.322   3.352  16.485 -0.2152  0.0382 -1.0503
  537TMC3     O 7973   2.365   3.395  16.381  0.5114 -0.1544  0.2658
  537TMC3     H 7974   2.578   3.439  16.487  0.0938 -0.5534 -0.4640
  537TMC3    H1 7975   2.308   3.157  16.652  0.2488  0.2929  0.2276
  537TMC3    H2 7976   2.662   3.273  16.870  1.0908 -2.7245 -0.8696
  537TMC3    C7 7977   2.438   3.086  16.853 -0.4743  0.1236  0.2451
  537TMC3    C8 7978   2.747   3.455  16.695  0.2943  0.2143  0.5636
  537TMC3    O1 7979   2.318   3.061  16.858 -0.0449 -0.0500 -0.1878
  537TMC3    O2 7980   2.836   3.424  16.773  0.2882  0.1092  0.3102
  538TMC3    C1 7981   4.479   2.344  11.090 -0.6801 -0.4388 -0.0068
  538TMC3    C2 7982   4.539   2.254  11.001  0.0359 -0.3111 -0.1516
  538TMC3    C3 7983   4.491   2.249  10.873 -0.5524 -0.1475 -0.5337
  538TMC3    C4 7984   4.366   2.415  11.051  0.0725  0.0344  0.5448
  538TMC3    C5 7985   4.325   2.401  10.927 -0.1896 -0.1438 -0.1962
  538TMC3    C6 7986   4.383   2.321  10.840  0.0680 -0.6050 -0.2601
  538TMC3     C 7987   4.506   2.332  11.233 -0.3357 -0.8293 -0.2729
  538TMC3     O 7988   4.407   2.322  11.302  0.3028 -1.4463  0.0854
  538TMC3     H 7989   4.613   2.181  11.033  0.0788  0.6843  2.0446
  538TMC3    H1 7990   4.321   2.477  11.128  0.2834 -0.0325  0.7226
  538TMC3    H2 7991   4.344   2.309  10.740  2.3576 -0.6088 -1.1448
  538TMC3    C7 7992   4.232   2.501  10.879 -0.7604 -0.7153 -0.6666
  538TMC3    C8 7993   4.572   2.187  10.769  0.0471  0.3767  0.5778
  538TMC3    O1 7994   4.145   2.472  10.794  0.1266 -0.5012 -0.0674
  538TMC3    O2 7995   4.672   2.135  10.812 -0.2623  0.6999  0.9157
  539MPD2     C 7996   3.985   1.674  11.948 -0.8525 -0.1010  0.2560
  539MPD2    C1 7997   3.976   1.709  11.815  0.1504 -0.0184 -0.3627
  539MPD2    C2 7998   3.949   1.843  11.784 -0.8030  0.4588  0.2486
  539MPD2    C3 7999   3.925   1.940  11.879  0.3061 -0.2924  0.1116
  539MPD2    C4 8000   3.941   1.907  12.009  0.2343 -0.8628  0.7827
  539MPD2    C5 8001   3.966   1.776  12.043 -0.0322  0.0444  0.2297
  539MPD2     H 8002   3.941   1.866  11.679  1.9316 -0.5899 -0.1967
  539MPD2    H1 8003   3.930   1.980  12.089 -1.2114 -0.5506  0.3029
  539MPD2    H2 8004   3.996   1.571  11.980  1.5947  0.7613  2.1464
  539MPD2    H3 8005   3.993   1.752  12.145 -1.8091  1.6478  1.0576
  539MPD2     N 8006   3.895   2.078  11.846  0.4030  0.3847 -0.6167
  539MPD2    H5 8007   3.872   2.133  11.928 -1.2308 -1.5173  0.2008
  539MPD2    N1 8008   3.992   1.613  11.709  0.5688 -0.3645  0.3704
  539MPD2    H7 8009   3.976   1.651  11.617  0.0728 -0.4749  0.4072
  540TMC3    C1 8010   3.826   2.271  11.733  0.1643  0.2481  1.1999
  540TMC3    C2 8011   3.877   2.344  11.631  0.3562 -0.1424  0.2469
  540TMC3    C3 8012   3.839   2.482  11.630 -0.1428  0.3006  0.3631
  540TMC3    C4 8013   3.753   2.335  11.840 -0.2904  0.5799  0.7060
  540TMC3    C5 8014   3.717   2.464  11.827 -0.7267 -0.6450 -0.0020
  540TMC3    C6 8015   3.751   2.543  11.714 -0.2966 -0.3120 -0.7178
  540TMC3     C 8016   3.864   2.126  11.723  0.0064  0.2870 -0.5091
  540TMC3     O 8017   3.892   2.073  11.615 -0.6545 -0.2998  0.1039
  540TMC3     H 8018   3.934   2.296  11.552 -0.6451 -0.6853 -0.1486
  540TMC3    H1 8019   3.732   2.268  11.923 -0.0261 -1.4543 -0.8597
  540TMC3    H2 8020   3.729   2.648  11.703 -0.3003 -0.2720 -0.3225
  540TMC3    C7 8021   3.597   2.488  11.898 -0.1532  0.4301  0.2643
  540TMC3    C8 8022   3.856   2.556  11.504 -0.3243 -0.1306  0.6294
  540TMC3    O1 8023   3.532   2.392  11.932  0.2870  0.0476  0.5938
  540TMC3    O2 8024   3.871   2.681  11.514 -0.2112  0.0699  0.2320
  541MPD2     C 8025   2.174   3.408  13.079 -0.5179 -0.1074  0.2677
  541MPD2    C1 8026   2.246   3.337  12.989 -0.2557  0.4425 -0.2945
  541MPD2    C2 8027   2.275   3.392  12.863 -0.2522 -0.1186 -0.5583
  541MPD2    C3 8028   2.241   3.527  12.837 -0.1210  0.6044  0.2619
  541MPD2    C4 8029   2.179   3.600  12.938  0.8224 -0.0542  0.1121
  541MPD2    C5 8030   2.140   3.540  13.057  0.2037  0.3170  0.6161
  541MPD2     H 8031   2.330   3.332  12.792 -1.2303 -1.9896  0.2649
  541MPD2    H1 8032   2.140   3.701  12.927  0.3812 -0.2027  0.3260
  541MPD2    H2 8033   2.144   3.362  13.173  0.0782  1.2769  1.1351
  541MPD2    H3 8034   2.086   3.597  13.132  1.1070  0.1646  1.3819
  541MPD2     N 8035   2.263   3.587  12.714 -0.7675 -0.0771 -0.4862
  541MPD2    H5 8036   2.259   3.689  12.720 -0.7231 -0.0120 -1.6584
  541MPD2    N1 8037   2.281   3.199  13.013  0.4260  0.7689 -0.6017
  541MPD2    H7 8038   2.332   3.148  12.942  1.5974  0.3213  0.5636
  542TMC3    C1 8039   2.319   3.609  12.485 -0.0549 -0.6249  0.0682
  542TMC3    C2 8040   2.412   3.583  12.388  0.5601 -0.1693  0.3812
  542TMC3    C3 8041   2.423   3.682  12.285  1.0491  0.3109 -0.5915
  542TMC3    C4 8042   2.256   3.731  12.488  0.1155  0.2806 -0.3498
  542TMC3    C5 8043   2.276   3.825  12.392  0.2774  0.3406  0.1097
  542TMC3    C6 8044   2.351   3.794  12.280  0.0913 -0.0111  0.0814
  542TMC3     C 8045   2.309   3.517  12.604  0.1981 -0.4094 -0.6419
  542TMC3     O 8046   2.332   3.401  12.576 -0.0406 -0.3113  0.0661
  542TMC3     H 8047   2.466   3.489  12.382 -0.3272 -0.6377 -0.2367
  542TMC3    H1 8048   2.189   3.757  12.569  0.5809 -1.6564  0.6506
  542TMC3    H2 8049   2.370   3.867  12.202 -1.8418 -0.7138 -1.0540
  542TMC3    C7 8050   2.224   3.960  12.409  0.7034 -0.3337  0.3527
  542TMC3    C8 8051   2.486   3.643  12.158  0.3948 -0.2131 -0.2125
  542TMC3    O1 8052   2.185   3.995  12.517 -0.1136 -0.7596 -0.5168
  542TMC3    O2 8053   2.462   3.706  12.056  0.1148 -0.4542  0.5185
  543TMC3    C1 8054   1.708   3.760  17.179 -0.3997  0.1940  0.6913
  543TMC3    C2 8055   1.730   3.630  17.214 -0.1602  0.0806 -0.2382
  543TMC3    C3 8056   1.817   3.609  17.323  0.1053 -0.5725 -0.4975
  543TMC3    C4 8057   1.753   3.857  17.266 -0.0497 -0.5616  0.2022
  543TMC3    C5 8058   1.820   3.832  17.385  0.9408 -0.6751 -0.1772
  543TMC3    C6 8059   1.859   3.700  17.409  0.1535  0.6210 -0.6854
  543TMC3     C 8060   1.643   3.798  17.060  0.3937  0.6656  0.3005
  543TMC3     O 8061   1.608   3.915  17.055  0.5223 -0.0925 -0.3490
  543TMC3     H 8062   1.703   3.553  17.142  0.1470 -1.4034  1.2190
  543TMC3    H1 8063   1.730   3.959  17.238  0.0117  0.8258  5.2505
  543TMC3    H2 8064   1.926   3.688  17.493 -1.6845  0.8396  0.8356
  543TMC3    C7 8065   1.892   3.938  17.450  0.0119  0.9356 -0.4584
  543TMC3    C8 8066   1.836   3.472  17.362  0.0840 -0.9268 -0.0553
  543TMC3    O1 8067   1.978   3.903  17.530  0.4448  0.1057 -0.1736
  543TMC3    O2 8068   1.823   3.397  17.268  0.1484 -0.0026 -0.1884
  544MPD2     C 8069   1.975   3.073  17.648 -0.4720 -0.7749  1.1874
  544MPD2    C1 8070   1.887   3.076  17.540 -0.0516  0.0886  0.2063
  544MPD2    C2 8071   1.853   3.202  17.497 -0.5015 -0.1785  0.2990
  544MPD2    C3 8072   1.906   3.316  17.548 -0.9150  0.5785 -0.0443
  544MPD2    C4 8073   1.986   3.311  17.658 -0.0974  0.4871 -0.2896
  544MPD2    C5 8074   2.029   3.188  17.703 -0.0530  0.1675  0.3917
  544MPD2     H 8075   1.776   3.213  17.421  3.0705  3.3659 -2.7939
  544MPD2    H1 8076   2.026   3.396   0.008 -1.4618  1.1989 -0.3978
  544MPD2    H2 8077   2.007   2.975  17.683  1.0615  0.0245  2.0495
  544MPD2    H3 8078   2.098   3.173   0.080 -0.5147  0.8372  0.9121
  544MPD2     N 8079   1.881   3.449  17.492 -0.2017  0.6805 -0.1214
  544MPD2    H5 8080   1.892   3.528  17.555  0.2086 -0.0112  0.6726
  544MPD2    N1 8081   1.848   2.951  17.493  0.1683 -0.8416  0.4006
  544MPD2    H7 8082   1.889   2.865  17.527  1.6298  0.6253  2.3601
  545TMC3    C1 8083   1.726   2.797  17.363  0.2732 -0.2556 -0.6062
  545TMC3    C2 8084   1.594   2.755  17.355 -0.1184  0.2104  0.6676
  545TMC3    C3 8085   1.572   2.631  17.306 -0.1346  0.1529 -0.0152
  545TMC3    C4 8086   1.834   2.717  17.327  0.1644  0.1905  0.6585
  545TMC3    C5 8087   1.801   2.593  17.280  0.1719 -0.2911 -0.0304
  545TMC3    C6 8088   1.671   2.558  17.259  0.6606 -0.6944  0.4153
  545TMC3     C 8089   1.743   2.938  17.402 -0.2374  0.5402 -0.1397
  545TMC3     O 8090   1.667   3.023  17.358 -0.3044  0.0312 -0.1314
  545TMC3     H 8091   1.521   2.828  17.390  0.2130  1.0401 -0.3751
  545TMC3    H1 8092   1.935   2.757  17.338  0.2174  0.2557 -0.0802
  545TMC3    H2 8093   1.651   2.461  17.214  0.1213 -0.3658 -0.0457
  545TMC3    C7 8094   1.905   2.507  17.233 -0.6716 -0.2293  1.2332
  545TMC3    C8 8095   1.436   2.602  17.263  0.4254 -0.6285  0.0244
  545TMC3    O1 8096   1.866   2.427  17.147 -0.1803  0.1321  0.1747
  545TMC3    O2 8097   1.411   2.502  17.196  0.1450 -0.4952 -0.1773
  546MPD2     C 8098   2.904   4.552  16.520  0.5609 -0.2762 -0.3012
  546MPD2    C1 8099   2.869   4.497  16.643  0.1880 -0.3829  0.0485
  546MPD2    C2 8100   2.934   4.537  16.761  0.0076  0.7611 -0.2561
  546MPD2    C3 8101   3.043   4.622  16.756 -0.5118  0.0889  0.4435
  546MPD2    C4 8102   3.085   4.666  16.628  0.6144  0.7493  0.5984
  546MPD2    C5 8103   3.004   4.641  16.518  0.5270  0.2798 -0.0793
  546MPD2     H 8104   2.904   4.497  16.857 -0.0806 -0.6576 -0.8672
  546MPD2    H1 8105   3.162   0.017  16.624  0.7260  0.6343  0.5472
  546MPD2    H2 8106   2.859   4.518  16.427  0.5830 -3.0276  0.7034
  546MPD2    H3 8107   3.033   4.672  16.419  0.1358 -0.0112 -0.2881
  546MPD2     N 8108   3.112   4.682  16.867 -0.7754  0.0793  0.1825
  546MPD2    H5 8109   3.188   0.022  16.856 -1.2510  0.7061  0.6445
  546MPD2    N1 8110   2.776   4.393  16.632  0.5963 -0.5445 -0.4294
  546MPD2    H7 8111   2.729   4.383  16.543 -1.8156  0.6701  0.6992
  547TMC3    C1 8112   2.667   4.217  16.682 -0.6904  0.0012  0.1243
  547TMC3    C2 8113   2.557   4.265  16.615 -0.4085 -0.1007 -1.0064
  547TMC3    C3 8114   2.464   4.174  16.570 -0.1100  0.0092 -0.7390
  547TMC3    C4 8115   2.681   4.085  16.710  0.4256  0.0008 -1.6241
  547TMC3    C5 8116   2.574   4.003  16.688 -0.5492  0.4641 -0.1878
  547TMC3    C6 8117   2.470   4.043  16.608  0.5460  0.2256 -0.2452
  547TMC3     C 8118   2.764   4.301  16.731  0.0303  0.7060 -0.2967
  547TMC3     O 8119   2.838   4.281  16.822  0.4043 -0.8464  0.1552
  547TMC3     H 8120   2.541   4.369  16.590  2.4174  0.7213  0.5525
  547TMC3    H1 8121   2.773   4.057  16.760  0.5594  1.5154 -1.0259
  547TMC3    H2 8122   2.390   3.977  16.580  0.0980  0.5051  0.3694
  547TMC3    C7 8123   2.576   3.874  16.743  0.4251 -0.6378  0.4695
  547TMC3    C8 8124   2.332   4.224  16.532 -0.7106 -0.1434  0.8985
  547TMC3    O1 8125   2.469   3.815  16.735 -0.5997  0.1632  0.4254
  547TMC3    O2 8126   2.238   4.156  16.573 -0.1266  0.3084  0.0726
  548MPD2     C 8127   2.866   0.449  12.131 -0.4218  0.0494 -0.7137
  548MPD2    C1 8128   2.859   0.366  12.240  0.4965 -0.5261 -0.5449
  548MPD2    C2 8129   2.918   0.239  12.233 -0.2995  0.7613  0.5117
  548MPD2    C3 8130   2.991   0.204  12.122 -0.2591  0.1143  0.1274
  548MPD2    C4 8131   3.001   0.295  12.018  0.3200 -0.2736  0.3287
  548MPD2    C5 8132   2.942   0.413  12.029 -0.8596 -0.1473  0.1128
  548MPD2     H 8133   2.918   0.162  12.309  0.8877 -1.4428 -1.7134
  548MPD2    H1 8134   3.066   0.262  11.938  0.4477  3.7335 -1.2215
  548MPD2    H2 8135   2.811   0.542  12.133  0.5910  0.5025  4.3992
  548MPD2    H3 8136   2.961   0.495  11.961  1.8720 -0.0890  0.9274
  548MPD2     N 8137   3.014   0.063  12.113 -0.8933 -0.3270  0.4092
  548MPD2    H5 8138   2.998   0.002  12.192 -0.4408 -1.4683 -0.3728
  548MPD2    N1 8139   2.762   0.404  12.340  0.3919 -0.2488 -0.4813
  548MPD2    H7 8140   2.708   0.489  12.327  1.5522  0.4836 -0.4927
  549TMC3    C1 8141   2.601   0.367  12.502  0.1955 -0.3241 -0.2642
  549TMC3    C2 8142   2.588   0.501  12.531 -0.1663  0.1484  0.1609
  549TMC3    C3 8143   2.459   0.543  12.557 -0.3464 -0.2258  0.1464
  549TMC3    C4 8144   2.499   0.281  12.520 -0.3671  0.1606  0.1529
  549TMC3    C5 8145   2.372   0.334  12.551  0.1243 -0.1463 -0.4466
  549TMC3    C6 8146   2.346   0.468  12.556  0.3237 -0.0927 -0.5641
  549TMC3     C 8147   2.724   0.320  12.440  0.4156 -0.5857 -0.6513
  549TMC3     O 8148   2.759   0.202  12.462  0.5338  0.2193  0.3363
  549TMC3     H 8149   2.668   0.573  12.529  0.2402 -0.3567 -1.5845
  549TMC3    H1 8150   2.521   0.176  12.507 -2.5708 -0.1502 -0.9651
  549TMC3    H2 8151   2.244   0.499  12.577 -0.1896 -0.6261 -2.3133
  549TMC3    C7 8152   2.253   0.250  12.569  0.5988 -0.1528 -0.0192
  549TMC3    C8 8153   2.441   0.690  12.532 -0.7549  0.6548  1.1877
  549TMC3    O1 8154   2.149   0.299  12.530  0.5474  0.0185  0.3830
  549TMC3    O2 8155   2.543   0.756  12.549  0.0189 -0.3448 -0.1328
  550TMC3    C1 8156   1.609   3.642  12.188 -0.2879  0.1020 -0.0400
  550TMC3    C2 8157   1.497   3.670  12.269  0.4110  0.6927  0.3374
  550TMC3    C3 8158   1.403   3.757  12.218 -0.4535 -0.4343 -0.4901
  550TMC3    C4 8159   1.610   3.682  12.060  0.0947  0.6521  0.2454
  550TMC3    C5 8160   1.512   3.767  12.017  0.0696  0.1109  0.9161
  550TMC3    C6 8161   1.411   3.812  12.092 -0.6631  0.1661  0.0885
  550TMC3     C 8162   1.727   3.568  12.243 -0.1641 -0.6880 -0.2526
  550TMC3     O 8163   1.741   3.569  12.365 -0.8271  0.1080  0.0542
  550TMC3     H 8164   1.485   3.624  12.366  0.7580 -1.7635 -0.7790
  550TMC3    H1 8165   1.689   3.652  11.992 -0.4409 -0.7033  0.2392
  550TMC3    H2 8166   1.337   3.881  12.053 -0.7900 -0.8713 -1.5021
  550TMC3    C7 8167   1.457   3.727  11.888  0.4829 -0.7251  0.1546
  550TMC3    C8 8168   1.270   3.769  12.282  0.1865 -0.3588 -0.6373
  550TMC3    O1 8169   1.469   3.606  11.874 -0.2008  0.5378  0.7638
  550TMC3    O2 8170   1.181   3.796  12.205  0.3126 -0.3585  0.2015
  551TMC3    C1 8171   3.831   0.689  13.138 -0.8971 -0.3444 -0.0756
  551TMC3    C2 8172   3.951   0.705  13.077 -0.1561 -0.2322 -0.2773
  551TMC3    C3 8173   4.041   0.795  13.129 -0.5489  0.1217  0.0099
  551TMC3    C4 8174   3.794   0.767  13.247  0.3427 -0.5038  0.2352
  551TMC3    C5 8175   3.886   0.847  13.304 -0.2027 -0.2729 -0.1898
  551TMC3    C6 8176   4.006   0.868  13.242  0.2311 -0.3333 -0.2873
  551TMC3     C 8177   3.742   0.598  13.076  0.0691  0.0084 -0.8244
  551TMC3     O 8178   3.777   0.556  12.968 -0.0281  0.4239 -0.0780
  551TMC3     H 8179   3.973   0.649  12.987  0.3334 -2.4537  1.2300
  551TMC3    H1 8180   3.703   0.760  13.306 -1.0491  0.3212 -1.8253
  551TMC3    H2 8181   4.073   0.940  13.289 -1.2511  0.4163  0.6758
  551TMC3    C7 8182   3.854   0.910  13.433 -0.5723  0.0922  0.3110
  551TMC3    C8 8183   4.125   0.870  13.043  0.1826 -0.2184  0.5669
  551TMC3    O1 8184   3.816   0.829  13.518 -0.0124  0.1158  0.0321
  551TMC3    O2 8185   4.146   0.986  13.075 -0.2883 -0.0889  0.5727
  552MPD2     C 8186   1.643   3.085  14.358 -0.4689 -0.6409  0.3240
  552MPD2    C1 8187   1.568   3.011  14.446 -0.3815  0.6769  0.2178
  552MPD2    C2 8188   1.629   2.950  14.556 -0.1094  0.0505  0.0456
  552MPD2    C3 8189   1.756   2.967  14.591 -0.0823  0.8817 -0.2063
  552MPD2    C4 8190   1.832   3.057  14.517 -0.1772  0.1345 -0.3110
  552MPD2    C5 8191   1.770   3.113  14.405  0.1623 -0.1611  0.4087
  552MPD2     H 8192   1.563   2.881  14.607  1.1391  0.0278  1.6176
  552MPD2    H1 8193   1.929   3.098  14.541 -0.5324  0.8857 -0.1185
  552MPD2    H2 8194   1.597   3.135  14.273 -0.0733 -0.6906  0.0822
  552MPD2    H3 8195   1.831   3.180  14.346  0.2149  1.4185  2.2956
  552MPD2     N 8196   1.824   2.896  14.691  0.1374 -0.2543 -0.1563
  552MPD2    H5 8197   1.925   2.900  14.687  0.1266 -0.0505 -0.2337
  552MPD2    N1 8198   1.434   2.976  14.425 -0.6455  0.6044 -0.3865
  552MPD2    H7 8199   1.384   2.947  14.509 -0.2884  1.2598  0.0459
  553TMC3    C1 8200   1.248   2.894  14.328  0.6486 -0.1425  0.2398
  553TMC3    C2 8201   1.192   2.883  14.210  0.2827  0.4818  0.5310
  553TMC3    C3 8202   1.169   2.758  14.170 -0.1142 -0.5301 -0.2811
  553TMC3    C4 8203   1.284   2.783  14.410  0.5726  0.2647  0.0370
  553TMC3    C5 8204   1.252   2.660  14.361 -0.0953  0.3334 -0.2351
  553TMC3    C6 8205   1.207   2.643  14.233 -0.2377 -0.2027  0.3974
  553TMC3     C 8206   1.361   2.982  14.306  0.3850 -0.0714 -0.2597
  553TMC3     O 8207   1.389   3.033  14.198 -0.1151  0.3142  0.1868
  553TMC3     H 8208   1.166   2.965  14.144 -0.9183  1.0712  1.7412
  553TMC3    H1 8209   1.317   2.780  14.514 -1.4140 -0.2240  0.6536
  553TMC3    H2 8210   1.179   2.546  14.193 -0.4000 -0.5987  1.4748
  553TMC3    C7 8211   1.338   2.553  14.409  0.0363 -0.0677  0.0290
  553TMC3    C8 8212   1.117   2.735  14.039  0.0785 -0.6273 -0.1114
  553TMC3    O1 8213   1.293   2.470  14.489  0.1353  0.0136 -0.1271
  553TMC3    O2 8214   1.166   2.641  13.984 -0.0798  0.3906  0.0018
  554TMC3    C1 8215   3.408   1.992  11.613  0.4741  0.1736  0.1327
  554TMC3    C2 8216   3.344   1.900  11.534  0.0212 -0.2724 -0.3384
  554TMC3    C3 8217   3.330   1.940  11.405 -0.1699  0.9148  0.2542
  554TMC3    C4 8218   3.425   2.126  11.578  0.0284  0.3826  0.0190
  554TMC3    C5 8219   3.396   2.159  11.453  0.5470  0.6942  0.0720
  554TMC3    C6 8220   3.358   2.065  11.360 -0.2668  0.8000 -0.3386
  554TMC3     C 8221   3.460   1.956  11.742  0.2614 -0.4905 -0.1889
  554TMC3     O 8222   3.517   2.039  11.809 -0.1850 -0.1928 -0.1715
  554TMC3     H 8223   3.331   1.797  11.563  0.6866 -0.2691 -0.0259
  554TMC3    H1 8224   3.488   2.192  11.637  1.6898 -0.7432 -0.4908
  554TMC3    H2 8225   3.328   2.091  11.259 -2.1563 -2.0811 -0.5319
  554TMC3    C7 8226   3.388   2.297  11.415 -0.1706 -0.4072  0.4496
  554TMC3    C8 8227   3.242   1.877  11.309  0.5229 -0.3881  0.8023
  554TMC3    O1 8228   3.343   2.311  11.304  0.1934 -0.0527  0.0908
  554TMC3    O2 8229   3.290   1.854  11.194  0.1928  0.4875 -0.0136
  555TMC3    C1 8230   2.058   1.439  14.831  0.2772  0.1968  0.3206
  555TMC3    C2 8231   1.969   1.476  14.924  0.1936  0.4547  0.5661
  555TMC3    C3 8232   1.965   1.411  15.044 -0.1485  0.1613 -0.1566
  555TMC3    C4 8233   2.132   1.324  14.840 -0.3338  0.1846  0.8620
  555TMC3    C5 8234   2.121   1.252  14.957 -0.0722  0.7541  0.5921
  555TMC3    C6 8235   2.034   1.289  15.060 -0.9094  0.3562 -0.2045
  555TMC3     C 8236   2.042   1.493  14.700 -0.2323 -0.4113 -0.0707
  555TMC3     O 8237   2.135   1.478  14.625  0.1086  0.2584 -0.4731
  555TMC3     H 8238   1.926   1.575  14.914  1.0232  0.5145 -2.4455
  555TMC3    H1 8239   2.207   1.294  14.768 -2.9356  1.4736 -2.3229
  555TMC3    H2 8240   2.029   1.228  15.149 -1.6299  2.0656  0.9384
  555TMC3    C7 8241   2.193   1.127  14.971 -0.4866  0.1567  0.7207
  555TMC3    C8 8242   1.900   1.480  15.158  0.0028 -0.1805 -0.4893
  555TMC3    O1 8243   2.299   1.116  14.906 -0.0844 -0.2742  0.0516
  555TMC3    O2 8244   1.827   1.579  15.130  0.1064 -0.3138  0.1766
  556MPD2     C 8245   0.134   3.257  10.391 -0.7099 -0.1549 -0.4436
  556MPD2    C1 8246   0.131   3.138  10.457  0.2588 -0.0238 -0.8784
  556MPD2    C2 8247   0.108   3.021  10.380 -0.7966  0.5435 -0.0151
  556MPD2    C3 8248   0.088   3.026  10.244  0.1058 -0.9930  0.5466
  556MPD2    C4 8249   0.066   3.148  10.184  0.1430 -0.2346 -0.0501
  556MPD2    C5 8250   0.098   3.260  10.259  0.6616 -0.3786 -0.7824
  556MPD2     H 8251   0.118   2.924  10.428  2.0737 -0.1389 -2.0116
  556MPD2    H1 8252   0.026   3.156  10.084 -0.7631 -0.0222  0.3232
  556MPD2    H2 8253   0.154   3.351  10.442 -1.2038 -0.6514  0.6734
  556MPD2    H3 8254   0.083   3.356  10.210 -0.0015  0.4424  1.0034
  556MPD2     N 8255   0.072   2.908  10.172 -0.7306  0.1684  0.0492
  556MPD2    H5 8256   0.069   2.825  10.230  0.4593 -0.1158 -0.2936
  556MPD2    N1 8257   0.145   3.126  10.601  0.2200 -0.2134  0.5311
  556MPD2    H7 8258   0.131   3.039  10.651 -1.2396  0.9068  2.0954
  557TMC3    C1 8259   0.049   2.756   9.992 -0.7476 -0.3763 -0.1424
  557TMC3    C2 8260   0.124   2.699   9.889 -0.3366 -0.0884  0.1574
  557TMC3    C3 8261   0.116   2.563   9.883  1.1266  0.9043  0.7453
  557TMC3    C4 8262   4.699   2.689  10.083 -0.2490  0.1759  0.1972
  557TMC3    C5 8263   4.699   2.553  10.075 -0.1710  0.6296 -0.1548
  557TMC3    C6 8264   0.046   2.486   9.978 -0.3675  0.0380  1.4888
  557TMC3     C 8265   0.088   2.888  10.035  0.3266  0.7665  0.1613
  557TMC3     O 8266   0.129   2.960   9.947 -0.0513  0.2536 -0.3569
  557TMC3     H 8267   0.184   2.750   9.814 -1.4068  1.5600  0.4135
  557TMC3    H1 8268   4.619   2.742  10.134 -2.0922 -0.6339 -1.8223
  557TMC3    H2 8269   0.051   2.378   9.967  1.2800  0.5631 -3.0021
  557TMC3    C7 8270   4.646   2.479  10.190  0.5530  0.2792 -0.0456
  557TMC3    C8 8271   0.149   2.508   9.751  0.4746 -0.0227  0.4666
  557TMC3    O1 8272   4.583   2.533  10.280  0.1162  0.2034  0.0984
  557TMC3    O2 8273   0.155   2.580   9.655 -0.0836  0.0991 -0.1211
  558TMC3    C1 8274   2.919   0.556  10.058  0.1947 -0.0566  0.4565
  558TMC3    C2 8275   2.862   0.470  10.150  0.0417  0.0203  0.5541
  558TMC3    C3 8276   2.827   0.343  10.106 -0.6645 -0.7867 -1.0424
  558TMC3    C4 8277   2.950   0.517   9.930 -0.2463 -0.3897  0.2417
  558TMC3    C5 8278   2.900   0.399   9.891  0.4296  0.1042 -0.8672
  558TMC3    C6 8279   2.830   0.310   9.970 -0.2357 -0.5077 -0.7395
  558TMC3     C 8280   2.979   0.677  10.108  0.2121  0.0383  0.1982
  558TMC3     O 8281   3.066   0.729  10.037  0.7367  0.1140 -0.1584
  558TMC3     H 8282   2.871   0.506  10.252  2.5014 -0.0910  0.3866
  558TMC3    H1 8283   2.988   0.594   9.864 -1.3023 -0.4764 -0.4760
  558TMC3    H2 8284   2.817   0.207   9.942  0.2913 -0.8627  0.3327
  558TMC3    C7 8285   2.893   0.386   9.745  0.5880  0.3598  0.9085
  558TMC3    C8 8286   2.762   0.252  10.199  0.3365  0.2529 -0.1910
  558TMC3    O1 8287   2.943   0.477   9.678  0.1419 -0.4433  0.1239
  558TMC3    O2 8288   2.749   0.142  10.149  0.6009 -0.2220 -0.4187
  559MPD2     C 8289   2.810   1.636  10.502 -0.0607 -0.0323  0.1039
  559MPD2    C1 8290   2.738   1.533  10.568  0.2543  0.4669  0.3770
  559MPD2    C2 8291   2.804   1.489  10.680  0.2317  0.1352  0.1679
  559MPD2    C3 8292   2.926   1.536  10.721  0.0333  0.2597  0.4608
  559MPD2    C4 8293   2.983   1.641  10.661  0.0864 -0.1786 -0.2453
  559MPD2    C5 8294   2.926   1.695  10.552 -0.0478 -0.2937  0.4697
  559MPD2     H 8295   2.756   1.409  10.735  0.9261  0.3487  1.0717
  559MPD2    H1 8296   3.068   1.697  10.698 -1.3496  2.5075 -1.0462
  559MPD2    H2 8297   2.768   1.682  10.413  3.3092  0.8179 -1.0400
  559MPD2    H3 8298   2.965   1.780  10.498  0.8842  0.5977  2.6013
  559MPD2     N 8299   2.981   1.480  10.840  0.2342 -0.5355  0.6040
  559MPD2    H5 8300   2.917   1.425  10.897 -2.3074 -1.0054 -2.7142
  559MPD2    N1 8301   2.603   1.495  10.531  0.8800 -0.3619  0.1228
  559MPD2    H7 8302   2.558   1.540  10.452  2.1725  0.4155 -0.1625
  560TMC3    C1 8303   3.116   1.419  11.014 -0.2311  0.0607  0.3558
  560TMC3    C2 8304   3.072   1.295  11.012  0.6793  0.8239 -0.3542
  560TMC3    C3 8305   3.057   1.231  11.139 -0.2150 -0.1310  0.5514
  560TMC3    C4 8306   3.154   1.490  11.126  0.3325 -0.3156 -0.4100
  560TMC3    C5 8307   3.134   1.426  11.247  0.3076 -0.6591 -0.3963
  560TMC3    C6 8308   3.083   1.297  11.263  0.1854  0.1317  0.0115
  560TMC3     C 8309   3.104   1.501  10.892  0.5389  0.5571 -0.6207
  560TMC3     O 8310   3.184   1.589  10.869 -0.4907 -0.0781  0.3781
  560TMC3     H 8311   3.039   1.241  10.923  0.3256 -2.0631  1.5210
  560TMC3    H1 8312   3.172   1.596  11.115  1.3254 -0.4634 -0.2054
  560TMC3    H2 8313   3.069   1.250  11.360 -2.2703  0.1193 -0.3696
  560TMC3    C7 8314   3.212   1.470  11.351 -0.8004 -0.8508 -0.3094
  560TMC3    C8 8315   3.001   1.093  11.140 -0.6163  0.8494 -0.7152
  560TMC3    O1 8316   3.191   1.427  11.463  0.1687 -0.2261  0.3923
  560TMC3    O2 8317   2.948   1.058  11.035 -0.7270  0.2613  0.0460
  561TMC3    C1 8318   0.641   0.250  10.910  0.6527 -0.1665  0.0803
  561TMC3    C2 8319   0.596   0.165  11.007  0.6812 -0.2402 -0.0851
  561TMC3    C3 8320   0.517   0.217  11.103  0.4777 -0.1361  0.0255
  561TMC3    C4 8321   0.607   0.380  10.901  0.3980  0.0294  0.5071
  561TMC3    C5 8322   0.526   0.428  10.996 -0.3979  0.1903 -0.4509
  561TMC3    C6 8323   0.473   0.347  11.091  0.5088  0.4046 -0.4294
  561TMC3     C 8324   0.716   0.191  10.813 -1.0552 -0.2068 -0.3933
  561TMC3     O 8325   0.808   0.118  10.844 -0.7957 -0.2557  0.4120
  561TMC3     H 8326   0.632   0.063  11.016  1.2583 -0.0108  0.1436
  561TMC3    H1 8327   0.622   0.436  10.810 -1.5170  1.9427  1.3666
  561TMC3    H2 8328   0.400   0.389  11.159 -0.6903  0.4674 -1.7468
  561TMC3    C7 8329   0.496   0.571  11.013  0.2102 -0.5982 -0.6562
  561TMC3    C8 8330   0.484   0.138  11.221  0.0229 -0.0194 -0.1440
  561TMC3    O1 8331   0.421   0.603  11.102  0.0300  0.5649  0.1351
  561TMC3    O2 8332   0.528   0.024  11.224 -1.2382 -0.5961  0.1767
  562TMC3    C1 8333   1.754   1.524  16.391  0.0985  0.1476  0.1458
  562TMC3    C2 8334   1.712   1.638  16.326 -0.1470  0.8719  0.2863
  562TMC3    C3 8335   1.645   1.629  16.204  0.5574  0.2907  1.0442
  562TMC3    C4 8336   1.728   1.399  16.339  0.8561 -0.1370  0.1219
  562TMC3    C5 8337   1.660   1.392  16.216  0.4556 -0.2547  0.0415
  562TMC3    C6 8338   1.627   1.506  16.149  0.9058 -0.1263  0.1784
  562TMC3     C 8339   1.885   1.542  16.444 -0.5424  0.0597 -0.3448
  562TMC3     O 8340   1.922   1.456  16.522 -0.0081 -0.1227  0.0460
  562TMC3     H 8341   1.730   1.738  16.364 -1.1090  0.5943  1.4991
  562TMC3    H1 8342   1.751   1.308  16.393 -1.2812  0.2736  1.7120
  562TMC3    H2 8343   1.593   1.510  16.046  1.6925 -0.9980 -0.1172
  562TMC3    C7 8344   1.662   1.265  16.138  0.4732 -0.1804 -0.1578
  562TMC3    C8 8345   1.699   1.734  16.120  0.2065  0.4239 -0.1557
  562TMC3    O1 8346   1.621   1.266  16.024 -0.2077 -0.1234 -0.0425
  562TMC3    O2 8347   1.808   1.775  16.155  0.0493  0.4960  0.0608
  563MPD2     C 8348   3.869   3.027  15.575 -0.5991  0.9491  0.1264
  563MPD2    C1 8349   3.893   3.104  15.684  0.3639 -0.5179  0.6601
  563MPD2    C2 8350   4.010   3.077  15.754  0.2664 -0.0450  0.2283
  563MPD2    C3 8351   4.109   2.996  15.716 -0.3796 -0.4097 -1.6801
  563MPD2    C4 8352   4.092   2.932  15.594  0.6135  0.2036 -0.3939
  563MPD2    C5 8353   3.967   2.939  15.535  0.7274 -0.4469  0.3390
  563MPD2     H 8354   4.018   3.115  15.855  0.6599 -1.1069  0.5918
  563MPD2    H1 8355   4.157   2.855  15.553 -0.7906  0.6174 -3.3967
  563MPD2    H2 8356   3.774   3.025  15.521 -0.3672 -0.4291 -0.2194
  563MPD2    H3 8357   3.940   2.877  15.450 -0.4494  1.0543 -0.3719
  563MPD2     N 8358   4.215   2.975  15.814  0.0284 -0.2822 -0.1395
  563MPD2    H5 8359   4.189   3.004  15.907  0.0579 -1.6375  0.2962
  563MPD2    N1 8360   3.792   3.190  15.734  0.8776 -0.0728 -0.2402
  563MPD2    H7 8361   3.813   3.230  15.825 -0.1831  0.5816 -0.2787
  564TMC3    C1 8362   3.578   3.228  15.812 -0.2994 -0.1691 -0.3111
  564TMC3    C2 8363   3.465   3.145  15.795 -0.3682  0.2640 -0.5412
  564TMC3    C3 8364   3.452   3.046  15.894  0.4767  0.5076 -0.4467
  564TMC3    C4 8365   3.656   3.221  15.925 -0.1729  0.6778 -0.2188
  564TMC3    C5 8366   3.633   3.125  16.022  0.0636  0.0149 -0.6022
  564TMC3    C6 8367   3.524   3.047  16.010  0.0802  0.8986 -0.7490
  564TMC3     C 8368   3.662   3.206  15.692 -0.5674 -0.0596 -0.9564
  564TMC3     O 8369   3.602   3.160  15.595  0.0121  0.2748  0.3368
  564TMC3     H 8370   3.399   3.155  15.709  0.4233 -1.5960 -1.3668
  564TMC3    H1 8371   3.721   3.306  15.947  3.2696 -2.3582  1.3208
  564TMC3    H2 8372   3.532   2.957  16.070  0.2683  0.3030 -1.6666
  564TMC3    C7 8373   3.746   3.039  16.059  0.2835 -0.0496 -0.5855
  564TMC3    C8 8374   3.450   2.909  15.841  0.1546 -0.2640  0.1963
  564TMC3    O1 8375   3.788   3.048  16.174 -0.3276  0.5730  0.6415
  564TMC3    O2 8376   3.444   2.818  15.922  0.2874  0.1731 -0.2724
  565TMC3    C1 8377   4.171   4.081   9.594  0.2822 -0.6818 -0.1454
  565TMC3    C2 8378   4.215   4.106   9.723  0.6493  0.1710  0.1714
  565TMC3    C3 8379   4.155   4.025   9.820 -0.0464  0.5207 -0.5942
  565TMC3    C4 8380   4.073   3.988   9.554 -0.3116 -0.4923 -0.0366
  565TMC3    C5 8381   4.023   3.916   9.657 -0.2574  0.2127  0.8890
  565TMC3    C6 8382   4.072   3.921   9.786 -0.3675 -0.9498 -0.2330
  565TMC3     C 8383   4.245   4.145   9.486  0.1812 -0.4490  0.0032
  565TMC3     O 8384   4.234   4.099   9.376  0.2293  0.1899  0.4624
  565TMC3     H 8385   4.303   4.163   9.751  1.5292 -0.7251 -0.7256
  565TMC3    H1 8386   4.046   3.984   9.449  0.3164 -0.3852 -0.2072
  565TMC3    H2 8387   4.008   3.883   9.864  1.8746  0.4775  2.2974
  565TMC3    C7 8388   3.890   3.852   9.641 -0.3755  0.1408  0.1726
  565TMC3    C8 8389   4.228   4.027   9.950  0.5648  1.2023  0.1562
  565TMC3    O1 8390   3.857   3.778   9.734 -0.6909  0.4709  0.5605
  565TMC3    O2 8391   4.313   4.118   9.972 -0.2833  1.1018 -0.3210
  566MPD2     C 8392   1.308   1.699  13.924  1.1518  0.8295  0.0806
  566MPD2    C1 8393   1.344   1.565  13.890  0.0378 -0.4282 -0.0314
  566MPD2    C2 8394   1.260   1.487  13.809  0.4650  0.4738 -0.2015
  566MPD2    C3 8395   1.141   1.544  13.759  0.1465 -0.3282 -0.4821
  566MPD2    C4 8396   1.105   1.668  13.805  0.0603 -0.8809 -0.4195
  566MPD2    C5 8397   1.192   1.748  13.880 -0.0337 -0.8147 -0.0815
  566MPD2     H 8398   1.285   1.383  13.792  1.5547  1.1096 -2.5233
  566MPD2    H1 8399   1.016   1.720  13.772  0.1970  0.3889  1.2499
  566MPD2    H2 8400   1.374   1.762  13.982  0.5459  1.1212  0.4466
  566MPD2    H3 8401   1.155   1.846  13.906  0.5139 -0.6627  0.1342
  566MPD2     N 8402   1.058   1.483  13.671 -0.4016 -0.1738  0.2051
  566MPD2    H5 8403   0.977   1.538  13.643  1.4063  2.6894  0.5783
  566MPD2    N1 8404   1.466   1.513  13.935 -0.2673 -0.0550  0.2343
  566MPD2    H7 8405   1.491   1.423  13.895  0.0036 -0.2913  0.9348
  567TMC3    C1 8406   1.685   1.506  14.018 -0.0284 -0.2705 -0.0593
  567TMC3    C2 8407   1.739   1.464  13.900 -0.3888  0.0049  0.4001
  567TMC3    C3 8408   1.852   1.391  13.911  0.2154 -0.0155  0.2232
  567TMC3    C4 8409   1.733   1.473  14.139 -0.0352  1.0304 -0.9273
  567TMC3    C5 8410   1.843   1.394  14.146  0.2113  0.2881  0.1729
  567TMC3    C6 8411   1.912   1.360  14.030  0.4089  0.2196  0.1280
  567TMC3     C 8412   1.562   1.583  14.011 -0.3538 -0.7577  0.2592
  567TMC3     O 8413   1.552   1.681  14.081 -0.2064  0.6590 -0.2188
  567TMC3     H 8414   1.693   1.477  13.802  0.2663  1.1345  0.2425
  567TMC3    H1 8415   1.674   1.497  14.226 -1.1229 -2.0052 -0.8129
  567TMC3    H2 8416   2.005   1.305  14.025  0.2275 -0.2032  1.5438
  567TMC3    C7 8417   1.888   1.328  14.266 -0.3205 -0.3390 -0.2807
  567TMC3    C8 8418   1.939   1.395  13.791 -0.4578 -0.0480 -0.0213
  567TMC3    O1 8419   1.997   1.265  14.256  0.1164  0.0404 -0.3093
  567TMC3    O2 8420   1.891   1.372  13.681  0.4073  0.7254  0.1338
  568MPD2     C 8421   3.520   1.559  16.147 -0.4697  0.7451 -0.0022
  568MPD2    C1 8422   3.583   1.632  16.247 -0.5557  0.9643  0.0711
  568MPD2    C2 8423   3.628   1.759  16.221  0.2173  0.1775 -0.0092
  568MPD2    C3 8424   3.613   1.817  16.098 -0.1488  0.1162 -1.0147
  568MPD2    C4 8425   3.538   1.746  16.009 -0.4048  0.3679 -0.7231
  568MPD2    C5 8426   3.489   1.619  16.029  0.7242 -0.1614 -0.0869
  568MPD2     H 8427   3.685   1.813  16.296 -0.9237  0.3766  0.7196
  568MPD2    H1 8428   3.510   1.775  15.908  2.1919  0.0475 -1.5160
  568MPD2    H2 8429   3.481   1.460  16.166  0.6831  0.0697 -1.2192
  568MPD2    H3 8430   3.440   1.564  15.950 -0.9588  0.0675  0.8008
  568MPD2     N 8431   3.662   1.945  16.074 -0.5785 -0.3382  0.5767
  568MPD2    H5 8432   3.722   1.975  16.150 -2.5574  0.9354  1.6349
  568MPD2    N1 8433   3.624   1.557  16.357 -0.3718  0.3241  0.0552
  568MPD2    H7 8434   3.603   1.458  16.356  4.1519 -0.6852  3.6845
  569TMC3    C1 8435   3.724   2.134  15.939  0.1301  0.1316  0.0443
  569TMC3    C2 8436   3.736   2.215  16.041  0.6034  0.7294 -0.6563
  569TMC3    C3 8437   3.810   2.331  16.033 -1.0296  0.2370  0.2253
  569TMC3    C4 8438   3.759   2.175  15.815  0.5539  0.1906 -0.4850
  569TMC3    C5 8439   3.816   2.298  15.802  0.4254  0.1067 -0.9231
  569TMC3    C6 8440   3.849   2.370  15.905  0.3271  0.1067 -0.3031
  569TMC3     C 8441   3.654   2.005  15.947 -0.0101  0.5261 -0.0211
  569TMC3     O 8442   3.630   1.957  15.836  0.3971 -0.0359 -0.9093
  569TMC3     H 8443   3.690   2.194  16.138 -1.2342  2.2017 -1.2036
  569TMC3    H1 8444   3.741   2.125  15.721  3.1870 -1.2399 -0.2260
  569TMC3    H2 8445   3.895   2.468  15.897 -0.0531  0.3752  0.7920
  569TMC3    C7 8446   3.779   2.376  15.687 -0.4527 -0.1165 -0.3571
  569TMC3    C8 8447   3.753   2.446  16.083  0.6262 -0.1435  0.2625
  569TMC3    O1 8448   3.835   2.355  15.579  0.3795  0.0800  0.2510
  569TMC3    O2 8449   3.684   2.513  16.008  0.4938  0.0885  0.3244
  570TMC3    C1 8450   3.107   0.433  16.148  0.2938  0.0880 -0.4341
  570TMC3    C2 8451   3.180   0.479  16.040 -0.1286 -0.8999  0.2587
  570TMC3    C3 8452   3.253   0.595  16.065 -0.8562  0.3415 -0.7937
  570TMC3    C4 8453   3.111   0.501  16.269 -0.4801  0.0092  0.1651
  570TMC3    C5 8454   3.180   0.619  16.284  0.6697  0.7037 -0.1834
  570TMC3    C6 8455   3.254   0.666  16.178 -0.1649  0.1564  0.9472
  570TMC3     C 8456   3.032   0.310  16.131  0.4995  0.9908  0.4904
  570TMC3     O 8457   3.037   0.246  16.025  0.2193  0.0689  0.3643
  570TMC3     H 8458   3.173   0.433  15.942  1.3241  1.2478 -0.8561
  570TMC3    H1 8459   3.048   0.470  16.352 -1.4322  0.0238 -0.5457
  570TMC3    H2 8460   3.316   0.751  16.201 -0.2733  0.1512  1.2655
  570TMC3    C7 8461   3.148   0.700  16.401 -0.3010  0.3977  0.6159
  570TMC3    C8 8462   3.354   0.634  15.968 -0.0980  0.5152  0.2044
  570TMC3    O1 8463   3.101   0.646  16.497 -0.5408 -0.1272  0.5234
  570TMC3    O2 8464   3.404   0.745  15.970 -0.3595  0.0574  0.4569
  571MPD2     C 8465   1.292   1.898  17.497  0.2394 -0.8042 -0.4116
  571MPD2    C1 8466   1.174   1.961  17.538  0.8382 -0.1938  0.1284
  571MPD2    C2 8467   1.171   2.040  17.650  0.3378 -0.2065 -0.1819
  571MPD2    C3 8468   1.290   2.067   0.009  0.1146  0.6879 -0.2254
  571MPD2    C4 8469   1.411   2.019  17.663  0.3370 -0.2213 -0.0288
  571MPD2    C5 8470   1.407   1.934  17.558 -0.4391 -0.5248  0.1737
  571MPD2     H 8471   1.075   2.077  17.684  0.5187  1.1657 -1.1670
  571MPD2    H1 8472   1.510   2.030   0.002  0.6291  0.3426 -0.8519
  571MPD2    H2 8473   1.291   1.827  17.414 -2.4410 -0.3311 -0.7899
  571MPD2    H3 8474   1.496   1.888  17.516 -0.1517  1.7353 -1.7194
  571MPD2     N 8475   1.297   2.152   0.128 -0.3305 -0.4222 -0.1000
  571MPD2    H5 8476   1.391   2.180   0.154 -0.5921 -0.0368  0.4100
  571MPD2    N1 8477   1.054   1.918  17.473 -0.8346 -0.1362  0.0005
  571MPD2    H7 8478   1.063   1.845  17.403  1.2613 -0.7578  0.9256
  572TMC3    C1 8479   1.212   2.264   0.316  0.0095  0.3910 -0.0369
  572TMC3    C2 8480   1.172   2.207   0.429 -0.1933 -0.2466 -0.2834
  572TMC3    C3 8481   1.118   2.285   0.525  0.1997 -0.0231 -0.2160
  572TMC3    C4 8482   1.193   2.403   0.298  0.3535  0.1979 -0.2778
  572TMC3    C5 8483   1.134   2.479   0.400  0.0189  0.2833  0.0939
  572TMC3    C6 8484   1.101   2.426   0.517 -0.1363  0.3144  0.4321
  572TMC3     C 8485   1.186   2.182   0.203  0.1144 -0.1568 -0.5527
  572TMC3     O 8486   1.073   2.140   0.207 -0.6774  0.5775  0.3370
  572TMC3     H 8487   1.205   2.105   0.443  0.4762 -0.0800 -0.6426
  572TMC3    H1 8488   1.219   2.439   0.199  0.4848  0.2292 -0.2326
  572TMC3    H2 8489   1.069   2.484   0.603 -0.1802  0.1037  0.5577
  572TMC3    C7 8490   1.122   2.624   0.370 -0.5723 -0.0697 -0.1645
  572TMC3    C8 8491   1.077   2.218   0.642 -0.1018 -0.0469 -0.5181
  572TMC3    O1 8492   1.126   2.656   0.250  0.5222  0.0449  0.0051
  572TMC3    O2 8493   1.116   2.104   0.670 -0.0144  0.1904  0.2130
  573MPD2     C 8494   2.382   2.412   0.464  0.1439 -0.0432 -1.2846
  573MPD2    C1 8495   2.502   2.477   0.476  0.2196 -0.0864 -0.0247
  573MPD2    C2 8496   2.579   2.497   0.365 -0.4420 -0.2986  1.3107
  573MPD2    C3 8497   2.539   2.447   0.236  0.0130  0.0933  0.8724
  573MPD2    C4 8498   2.422   2.381   0.225  0.2740 -0.1632  0.0412
  573MPD2    C5 8499   2.348   2.365   0.340  0.4112  0.6631  0.0678
  573MPD2     H 8500   2.678   2.541   0.370  0.3480 -2.2406  2.7372
  573MPD2    H1 8501   2.386   2.332   0.135 -0.3015 -1.3655  0.9178
  573MPD2    H2 8502   2.309   2.399   0.543  1.7490  2.4392  0.6182
  573MPD2    H3 8503   2.258   2.304   0.334 -1.0734  2.8475  0.2258
  573MPD2     N 8504   2.612   2.458   0.114  0.3823 -0.1381  0.1530
  573MPD2    H5 8505   2.569   2.408   0.038 -0.0129  0.4429 -0.0085
  573MPD2    N1 8506   2.542   2.520   0.603 -0.0915 -0.2521 -0.7144
  573MPD2    H7 8507   2.469   2.510   0.673 -0.4653 -0.3735 -1.1275
  574TMC3    C1 8508   2.769   2.527  17.660  0.1239 -0.2990  0.0993
  574TMC3    C2 8509   2.680   2.493  17.562 -0.7425 -0.1516  0.3223
  574TMC3    C3 8510   2.714   2.528  17.435  0.0920 -0.0476  0.0510
  574TMC3    C4 8511   2.892   2.579  17.634  0.9632  0.2701  0.0999
  574TMC3    C5 8512   2.930   2.585  17.502  0.1783 -0.9313 -0.1894
  574TMC3    C6 8513   2.840   2.573  17.403  0.0214 -0.0625  0.6035
  574TMC3     C 8514   2.736   2.511   0.097 -0.2666  0.0582  0.9713
  574TMC3     O 8515   2.813   2.558   0.179  0.0063  0.7990  0.0885
  574TMC3     H 8516   2.583   2.446  17.577 -0.1387 -0.4694  3.2627
  574TMC3    H1 8517   2.960   2.595   0.013  1.2868 -1.0628  0.0808
  574TMC3    H2 8518   2.863   2.586  17.298 -0.8804 -0.7870  0.3130
  574TMC3    C7 8519   3.059   2.633  17.482 -0.0522  0.1943 -0.1376
  574TMC3    C8 8520   2.625   2.483  17.324  0.1451  0.5326 -0.3168
  574TMC3    O1 8521   3.138   2.629  17.578  0.2640 -0.0684  0.0878
  574TMC3    O2 8522   2.674   2.456  17.214 -0.1944 -0.1376  0.1286
  575TMC3    C1 8523   4.716   4.267  10.633  0.4028  0.7167  0.1536
  575TMC3    C2 8524   4.690   4.212  10.758 -0.0080 -0.3236  0.4530
  575TMC3    C3 8525   4.585   4.130  10.761 -0.9333  0.0284 -0.2488
  575TMC3    C4 8526   4.645   4.241  10.527  0.0718 -0.1628 -0.1709
  575TMC3    C5 8527   4.531   4.158  10.538 -0.1939 -0.2714 -0.1692
  575TMC3    C6 8528   4.498   4.103  10.657  0.8394  0.4141  0.3066
  575TMC3     C 8529   0.055   4.393  10.643  0.1605 -0.2398 -0.1915
  575TMC3     O 8530   0.079   4.421  10.760  0.5033  0.0570 -0.1145
  575TMC3     H 8531   0.021   4.228  10.849 -0.0179 -2.4575  0.8302
  575TMC3    H1 8532   4.669   4.271  10.426  1.1122  2.0122  0.7305
  575TMC3    H2 8533   4.413   4.038  10.668  1.0847  0.2572  1.2840
  575TMC3    C7 8534   4.487   4.099  10.418  0.4352  0.5755 -0.2776
  575TMC3    C8 8535   4.550   4.049  10.884  0.9839 -0.4844  0.3204
  575TMC3    O1 8536   4.504   4.156  10.309  0.1200  0.2704  0.9120
  575TMC3    O2 8537   4.437   4.011  10.897  0.6356 -0.5822  0.0339
  576MPD2     C 8538   4.346   0.447  12.387 -0.9757  0.0359  0.2941
  576MPD2    C1 8539   4.354   0.551  12.295  0.0252  0.4720  0.1626
  576MPD2    C2 8540   4.269   0.664  12.315 -0.0957 -0.3937 -0.8632
  576MPD2    C3 8541   4.179   0.676  12.424 -0.0010  0.0812 -0.0275
  576MPD2    C4 8542   4.182   0.565  12.513 -0.4941 -0.8328 -0.5357
  576MPD2    C5 8543   4.262   0.454  12.492  0.6075 -0.2349  0.1427
  576MPD2     H 8544   4.281   0.749  12.248 -0.9244 -0.1604 -0.7210
  576MPD2    H1 8545   4.127   0.562  12.606  0.3868 -0.9658 -0.0172
  576MPD2    H2 8546   4.406   0.356  12.379  2.6550  2.5180 -0.8135
  576MPD2    H3 8547   4.250   0.376  12.566 -0.7484 -1.5710 -1.4934
  576MPD2     N 8548   4.102   0.795  12.436 -0.6054  0.3470 -0.0023
  576MPD2    H5 8549   4.125   0.870  12.371  1.3522 -0.6426 -0.4754
  576MPD2    N1 8550   4.442   0.552  12.180 -0.2711 -0.4226  0.1341
  576MPD2    H7 8551   4.438   0.633  12.118  2.3432  0.1612  0.7263
  577TMC3    C1 8552   4.577   0.450  11.999  0.0592 -0.2426 -0.5518
  577TMC3    C2 8553   4.686   0.367  11.978  0.9206  0.5860 -0.2428
  577TMC3    C3 8554   0.000   0.339  11.850 -0.2116  0.4611  0.0872
  577TMC3    C4 8555   4.509   0.507  11.896  0.1140 -0.1853  0.0597
  577TMC3    C5 8556   4.551   0.475  11.768  0.9304  0.1035  0.1249
  577TMC3    C6 8557   4.654   0.390  11.738 -0.6921 -0.9840 -0.5515
  577TMC3     C 8558   4.519   0.440  12.134 -0.3154 -0.2545 -0.1402
  577TMC3     O 8559   4.539   0.331  12.185  0.1913 -0.2815 -0.2147
  577TMC3     H 8560   0.014   0.323  12.061 -4.1085 -0.5617  2.3834
  577TMC3    H1 8561   4.424   0.571  11.916 -0.4002 -0.1629 -2.2766
  577TMC3    H2 8562   4.683   0.362  11.637 -0.0306  1.0301 -0.9354
  577TMC3    C7 8563   4.467   0.497  11.657 -0.0467  0.7932  0.4850
  577TMC3    C8 8564   0.136   0.282  11.839  0.0030  0.4010  0.1632
  577TMC3    O1 8565   4.482   0.414  11.565 -0.7931  0.5232  0.1320
  577TMC3    O2 8566   0.202   0.243  11.938  0.0001 -0.0551  0.5198
  578MPD2     C 8567   1.744   0.339   1.184 -0.3752  0.2421  0.0410
  578MPD2    C1 8568   1.829   0.307   1.075  0.1099 -0.8332 -0.4588
  578MPD2    C2 8569   1.956   0.247   1.102  0.3053  0.0294 -0.2738
  578MPD2    C3 8570   2.008   0.232   1.232  0.0750 -0.5141 -0.0650
  578MPD2    C4 8571   1.921   0.269   1.331  0.0980  0.1951  0.4142
  578MPD2    C5 8572   1.790   0.321   1.311 -0.3628  0.4510 -0.4223
  578MPD2     H 8573   2.015   0.203   1.022 -3.1475 -2.8419 -1.1813
  578MPD2    H1 8574   1.939   0.238   1.433 -1.6497  0.8320  0.9192
  578MPD2    H2 8575   1.642   0.370   1.163 -0.2428  0.4333 -0.3194
  578MPD2    H3 8576   1.727   0.335   1.398 -1.2031 -0.3381 -0.9052
  578MPD2     N 8577   2.140   0.184   1.248  0.0867  0.4082  0.5865
  578MPD2    H5 8578   2.180   0.154   1.160  1.5611  0.9753  1.0675
  578MPD2    N1 8579   1.781   0.338   0.943  0.0610  0.3752 -0.2381
  578MPD2    H7 8580   1.682   0.359   0.939 -0.0879 -0.4115 -0.6825
  579TMC3    C1 8581   2.339   0.113   1.362  0.5145 -0.3518  0.4857
  579TMC3    C2 8582   2.409   0.116   1.480 -0.1081 -0.5819 -0.1970
  579TMC3    C3 8583   2.539   0.070   1.456  0.6742 -0.2750  0.1558
  579TMC3    C4 8584   2.392   0.098   1.238  0.0461 -0.3027  0.2048
  579TMC3    C5 8585   2.520   0.071   1.226 -0.0206 -0.8097  0.0115
  579TMC3    C6 8586   2.601   0.057   1.334  0.5242 -0.0587  0.7133
  579TMC3     C 8587   2.203   0.164   1.370 -0.3755  0.0904 -0.1121
  579TMC3     O 8588   2.162   0.200   1.476 -0.4363  0.2465 -0.0355
  579TMC3     H 8589   2.358   0.139   1.573 -1.3818  1.4667 -1.3804
  579TMC3    H1 8590   2.322   0.079   1.157  0.7853 -0.8175 -0.3049
  579TMC3    H2 8591   2.707   0.044   1.312 -0.2288 -1.9029 -1.7781
  579TMC3    C7 8592   2.576   0.033   1.098 -0.1665 -0.1800 -0.7594
  579TMC3    C8 8593   2.621   0.097   1.572  0.0708 -0.5295  0.4386
  579TMC3    O1 8594   2.688   4.705   1.104  0.0439 -0.4455  0.4160
  579TMC3    O2 8595   2.566   0.109   1.681 -0.4876 -0.2516  0.1321
  580TMC3    C1 8596   2.520   0.274  11.967 -0.4408  0.9858  0.3755
  580TMC3    C2 8597   2.570   0.281  11.836  0.2122  0.2149 -0.8366
  580TMC3    C3 8598   2.685   0.215  11.814 -0.3668 -0.1976  0.0556
  580TMC3    C4 8599   2.572   0.189  12.062  0.6588  0.1645 -0.5244
  580TMC3    C5 8600   2.672   0.110  12.025 -1.3564  0.6628  0.1426
  580TMC3    C6 8601   2.737   0.131  11.904 -0.6990 -0.1890  0.5687
  580TMC3     C 8602   2.380   0.303  11.984 -0.2041 -0.4953  0.4848
  580TMC3     O 8603   2.334   0.327  12.094 -0.5513 -0.5780 -0.2992
  580TMC3     H 8604   2.526   0.348  11.762 -0.9338 -0.6779 -0.9693
  580TMC3    H1 8605   2.540   0.177  12.164 -1.0076 -0.8469 -1.1645
  580TMC3    H2 8606   2.821   0.068  11.880  0.1099  0.2259  2.3632
  580TMC3    C7 8607   2.686   4.706  12.088  0.6742 -0.1890 -0.0279
  580TMC3    C8 8608   2.741   0.224  11.676  0.4036  0.3845  0.5279
  580TMC3    O1 8609   2.717   4.701  12.206  0.2115 -0.1479 -0.1065
  580TMC3    O2 8610   2.674   0.273  11.590 -0.0320 -0.0280 -0.0985
  581MPD2     C 8611   0.399   3.892  14.881  0.2326 -0.8832 -0.2309
  581MPD2    C1 8612   0.270   3.844  14.886  0.0899 -0.2151 -0.1078
  581MPD2    C2 8613   0.174   3.904  14.810  0.2226  0.1472 -0.2775
  581MPD2    C3 8614   0.204   4.004  14.719  0.1249  1.0849 -0.4055
  581MPD2    C4 8615   0.337   4.049  14.719 -0.5692 -1.1300  0.2407
  581MPD2    C5 8616   0.434   3.994  14.798 -0.4430 -0.1696  0.5369
  581MPD2     H 8617   0.071   3.870  14.823  1.0728 -2.2505  0.2713
  581MPD2    H1 8618   0.367   4.129  14.651 -0.5384  0.3968  2.0664
  581MPD2    H2 8619   0.477   3.850  14.943 -0.1770 -0.3783  0.6343
  581MPD2    H3 8620   0.532   4.040  14.807 -0.7783  0.5600  0.4950
  581MPD2     N 8621   0.101   4.066  14.645  0.2395  0.1950  0.1508
  581MPD2    H5 8622   0.004   4.051  14.671  0.0450 -2.3242 -1.9596
  581MPD2    N1 8623   0.243   3.738  14.976 -0.3594  0.1661  0.6313
  581MPD2    H7 8624   0.319   3.685  15.018 -1.1333 -0.4998  1.1767
  582TMC3    C1 8625   0.112   3.577  15.099 -0.0300  0.0846 -0.2200
  582TMC3    C2 8626   0.190   3.579  15.211 -0.0518  0.0023  1.0127
  582TMC3    C3 8627   0.140   3.515  15.325  0.1350 -0.1441 -0.9733
  582TMC3    C4 8628   4.710   3.531  15.116  0.2334 -0.4000  0.1267
  582TMC3    C5 8629   4.665   3.461  15.229  0.2260  0.0534 -0.3128
  582TMC3    C6 8630   0.020   3.449  15.339  0.0430  0.2976 -0.4112
  582TMC3     C 8631   0.118   3.693  15.007  0.0985  0.8006 -0.2801
  582TMC3     O 8632   0.011   3.740  14.980 -0.0501  0.1674 -0.3789
  582TMC3     H 8633   0.293   3.612  15.201  0.4891 -1.1612  2.8295
  582TMC3    H1 8634   4.647   3.523  15.029  0.1354 -1.3704  0.2823
  582TMC3    H2 8635   4.721   3.403  15.434  1.6539  1.6341  0.6615
  582TMC3    C7 8636   4.523   3.478  15.259  0.7845 -0.0362 -0.3421
  582TMC3    C8 8637   0.182   3.580  15.455 -0.3124 -0.5672 -0.2369
  582TMC3    O1 8638   4.481   3.424  15.367 -0.5563  0.2373  0.7443
  582TMC3    O2 8639   0.085   3.631  15.517  0.0946 -0.1497  1.0548
  583MPD2     C 8640   0.161   0.744  16.607 -0.1652 -1.2544 -0.6597
  583MPD2    C1 8641   0.157   0.871  16.553 -0.4031 -0.1490  0.2417
  583MPD2    C2 8642   0.099   0.973  16.624 -0.6589  0.8377  0.5511
  583MPD2    C3 8643   0.053   0.953  16.755 -0.3146 -0.7177  0.4028
  583MPD2    C4 8644   0.080   0.829  16.801 -0.3837 -0.4623 -0.3088
  583MPD2    C5 8645   0.117   0.722  16.730  0.2035  0.8116 -0.3382
  583MPD2     H 8646   0.085   1.069  16.576 -0.3958 -0.5989 -2.3704
  583MPD2    H1 8647   0.072   0.810  16.908  0.6371  0.5401 -0.0465
  583MPD2    H2 8648   0.203   0.661  16.551  1.3162 -1.4499  0.7126
  583MPD2    H3 8649   0.134   0.629  16.783  1.9348  0.4348 -1.5705
  583MPD2     N 8650   4.706   1.054  16.819 -0.6680 -1.1230  0.0510
  583MPD2    H5 8651   4.704   1.145  16.774 -1.3493 -0.7987  0.7464
  583MPD2    N1 8652   0.200   0.903  16.423 -0.0617  0.2829  0.0667
  583MPD2    H7 8653   0.188   1.001  16.403 -2.1767  0.5902  2.7715
  584TMC3    C1 8654   4.583   1.157  17.003  0.3392 -0.8972  0.0720
  584TMC3    C2 8655   4.603   1.285  16.953  0.2055 -0.1206 -0.1357
  584TMC3    C3 8656   4.605   1.390  17.039 -0.1447  0.1357 -0.2169
  584TMC3    C4 8657   4.550   1.135  17.135 -0.1202 -0.1059  0.1435
  584TMC3    C5 8658   4.558   1.245  17.215 -0.1587  0.3274  0.1551
  584TMC3    C6 8659   4.586   1.369  17.174  0.6352  0.4963  0.5684
  584TMC3     C 8660   4.635   1.034  16.932 -0.0085  0.3209 -0.0673
  584TMC3     O 8661   4.627   0.928  16.994  0.2845  0.6577  0.1501
  584TMC3     H 8662   4.624   1.290  16.847 -1.2272  0.8012 -0.3645
  584TMC3    H1 8663   4.537   1.035  17.174 -1.3734 -0.8123 -2.0347
  584TMC3    H2 8664   4.596   1.452  17.242  0.5839 -0.6437  1.9820
  584TMC3    C7 8665   4.568   1.204  17.359 -0.2131 -0.2436 -0.4591
  584TMC3    C8 8666   4.641   1.518  16.990  0.1315  0.5141 -0.6243
  584TMC3    O1 8667   4.613   1.099  17.393 -0.4315  0.5119  0.3036
  584TMC3    O2 8668   4.597   1.548  16.881  0.1669 -0.5027  0.3645
  585MPD2     C 8669   3.712   0.027   0.606 -0.4828  0.4607 -0.2089
  585MPD2    C1 8670   3.825   0.080   0.552  0.2066 -0.2550 -0.1358
  585MPD2    C2 8671   3.848   0.061   0.413  0.2187  0.5020  0.0099
  585MPD2    C3 8672   3.761   4.707   0.337  0.0511  0.3102  0.2697
  585MPD2    C4 8673   3.641   4.663   0.397  0.5574 -0.0303 -0.3919
  585MPD2    C5 8674   3.617   4.697   0.528 -0.5192 -0.7013 -0.7188
  585MPD2     H 8675   3.933   0.109   0.366  1.5522 -0.8245  1.0843
  585MPD2    H1 8676   3.571   4.607   0.336 -0.3297  0.1339  0.4737
  585MPD2    H2 8677   3.685   0.050   0.709 -0.2655  1.2348 -0.3267
  585MPD2    H3 8678   3.535   4.654   0.583  1.8957 -1.8904  1.9856
  585MPD2     N 8679   3.793   4.660   0.208  0.2239 -0.0293  0.5527
  585MPD2    H5 8680   3.734   4.585   0.174  1.7959 -0.5887 -0.9743
  585MPD2    N1 8681   3.916   0.151   0.629  0.3099 -0.4935  0.1151
  585MPD2    H7 8682   3.889   0.192   0.718  1.1341  1.9780 -0.7805
  586TMC3    C1 8683   3.919   4.614   0.015 -0.0956 -0.6151 -0.1782
  586TMC3    C2 8684   4.041   4.631  17.656  0.0309  0.0915  0.3304
  586TMC3    C3 8685   4.048   4.626  17.521  0.1451  0.0681 -0.2295
  586TMC3    C4 8686   3.800   4.606  17.648  0.0751 -0.1877  0.3978
  586TMC3    C5 8687   3.809   4.597  17.519  0.0949 -0.8876  0.3455
  586TMC3    C6 8688   3.928   4.605  17.452 -0.3838  0.8352  0.3332
  586TMC3     C 8689   3.917   4.683   0.146  0.0652  0.4796 -0.4115
  586TMC3     O 8690   4.000   0.049   0.154 -0.0913 -0.1862  0.3711
  586TMC3     H 8691   4.128   4.649   0.013 -1.1048 -1.5216  2.4207
  586TMC3    H1 8692   3.706   4.590  17.701 -0.1749  0.8868  0.2971
  586TMC3    H2 8693   3.931   4.588  17.345 -1.1391 -0.0156  0.4465
  586TMC3    C7 8694   3.715   4.519  17.446  0.1143  0.9259 -0.6957
  586TMC3    C8 8695   4.149   4.546  17.457 -0.0185 -0.0235  0.1506
  586TMC3    O1 8696   3.760   4.417  17.394 -0.6228  0.1792  0.1786
  586TMC3    O2 8697   4.204   4.459  17.526 -0.1355 -0.1690 -0.2265
  587TMC3    C1 8698   1.436   2.893  15.893 -0.1129  0.1790 -0.8108
  587TMC3    C2 8699   1.418   3.014  15.830 -0.0745 -0.0992 -0.1562
  587TMC3    C3 8700   1.528   3.073  15.773 -0.2462  0.5436 -0.3774
  587TMC3    C4 8701   1.544   2.820  15.873 -0.5815 -0.5543  0.0571
  587TMC3    C5 8702   1.651   2.876  15.805  0.4531  0.1564  0.2889
  587TMC3    C6 8703   1.643   3.003  15.766 -0.0055 -0.0902 -0.3924
  587TMC3     C 8704   1.336   2.837  15.977 -0.1494 -0.3823 -0.0119
  587TMC3     O 8705   1.317   2.717  15.973  0.1463 -0.4987 -0.5310
  587TMC3     H 8706   1.321   3.063  15.837 -0.4378 -0.8862  0.2320
  587TMC3    H1 8707   1.547   2.720  15.915 -0.2071  0.7393  3.0975
  587TMC3    H2 8708   1.724   3.058  15.719 -0.8119  1.1433 -0.3190
  587TMC3    C7 8709   1.780   2.805  15.818  0.4843 -0.1473  0.4948
  587TMC3    C8 8710   1.498   3.183  15.679 -0.3285 -0.3408  0.4468
  587TMC3    O1 8711   1.770   2.682  15.825  0.3574 -0.5494  0.3019
  587TMC3    O2 8712   1.575   3.201  15.587  0.1598 -0.2470  0.3519
  588TMC3    C1 8713   4.243   1.685   9.691  0.2070  0.1824 -0.2119
  588TMC3    C2 8714   4.236   1.551   9.668  0.4788  0.4069  0.2410
  588TMC3    C3 8715   4.272   1.467   9.769 -0.2082 -0.2963 -0.1630
  588TMC3    C4 8716   4.258   1.735   9.820 -0.7865 -1.1867  0.1721
  588TMC3    C5 8717   4.300   1.650   9.917  0.1662 -0.5881 -0.2470
  588TMC3    C6 8718   4.297   1.518   9.898 -0.2878  1.0618 -0.0587
  588TMC3     C 8719   4.215   1.782   9.584 -0.2923  0.4236  0.1991
  588TMC3     O 8720   4.147   1.739   9.491  0.3120 -0.4176 -0.0410
  588TMC3     H 8721   4.221   1.520   9.565 -0.4628 -3.5709  1.5874
  588TMC3    H1 8722   4.247   1.842   9.834  1.4254 -0.4230 -3.6804
  588TMC3    H2 8723   4.326   1.447   9.975 -0.7391  1.8321  0.8241
  588TMC3    C7 8724   4.325   1.707  10.046  0.0661 -0.2870 -0.0207
  588TMC3    C8 8725   4.223   1.337   9.747  0.1797  0.1139  0.3407
  588TMC3    O1 8726   4.294   1.637  10.143  0.1686  0.2946  0.1634
  588TMC3    O2 8727   4.137   1.325   9.662  0.5049  0.4911  0.4194
  589TMC3    C1 8728   3.500   3.446   0.760  0.8914 -0.0722  0.3079
  589TMC3    C2 8729   3.519   3.570   0.806  0.3317 -0.5875 -0.5486
  589TMC3    C3 8730   3.645   3.600   0.853 -0.3047  1.2050  0.5697
  589TMC3    C4 8731   3.601   3.350   0.748 -0.4028  0.2999 -0.4146
  589TMC3    C5 8732   3.724   3.391   0.789 -0.1717 -0.2645 -0.1804
  589TMC3    C6 8733   3.751   3.509   0.840  0.4886  0.3355 -0.5941
  589TMC3     C 8734   3.369   3.393   0.738 -0.2740 -0.4362 -0.2807
  589TMC3     O 8735   3.349   3.300   0.664 -0.1912  0.0488  0.0419
  589TMC3     H 8736   3.441   3.642   0.829  2.2796  1.0947  0.7300
  589TMC3    H1 8737   3.580   3.249   0.713  2.1081 -1.3417  2.8058
  589TMC3    H2 8738   3.852   3.531   0.874  0.7815 -1.2497 -0.4687
  589TMC3    C7 8739   3.821   3.284   0.784  0.7035  0.2065 -0.1581
  589TMC3    C8 8740   3.661   3.737   0.901 -0.1994  0.1923  0.1511
  589TMC3    O1 8741   3.778   3.171   0.764  0.3270 -0.9840 -0.1896
  589TMC3    O2 8742   3.558   3.807   0.914  0.5676 -0.2078  0.0183
  590MPD2     C 8743   2.649   1.975  16.725  0.4216  0.1113 -0.1157
  590MPD2    C1 8744   2.574   2.021  16.618  0.0511 -0.4331 -0.0381
  590MPD2    C2 8745   2.637   2.038  16.504 -0.1043 -0.5883  0.1702
  590MPD2    C3 8746   2.776   2.014  16.485 -0.0140 -0.0275 -0.7818
  590MPD2    C4 8747   2.852   1.967  16.589 -0.3156 -0.3190  0.0222
  590MPD2    C5 8748   2.787   1.955  16.709 -0.4030  0.8016 -0.5495
  590MPD2     H 8749   2.576   2.066  16.419 -0.1954 -0.6407  0.2183
  590MPD2    H1 8750   2.960   1.958  16.594 -0.3475  1.4578  3.6616
  590MPD2    H2 8751   2.603   1.963  16.822  0.0426 -0.0790 -0.3197
  590MPD2    H3 8752   2.846   1.913  16.789 -1.2834  2.5863  1.0439
  590MPD2     N 8753   2.830   2.059  16.361  0.3786 -0.0994  0.4171
  590MPD2    H5 8754   2.768   2.102  16.293  1.1791  1.5005  0.7078
  590MPD2    N1 8755   2.432   2.051  16.642 -0.2159 -0.4345  0.4658
  590MPD2    H7 8756   2.396   2.034  16.736 -1.1410 -0.3968  0.1228
  591TMC3    C1 8757   2.981   2.149  16.226 -0.1914  0.2536  0.7036
  591TMC3    C2 8758   3.101   2.133  16.169 -0.2745  0.4704  0.2735
  591TMC3    C3 8759   3.104   2.182  16.042  0.2730  0.3981  0.6042
  591TMC3    C4 8760   2.868   2.203  16.174 -0.7031  0.3341 -0.1710
  591TMC3    C5 8761   2.884   2.253  16.042 -0.3563 -0.1854 -0.5268
  591TMC3    C6 8762   3.001   2.242  15.983 -0.2719  0.6125  0.3875
  591TMC3     C 8763   2.964   2.073  16.342 -0.8425 -0.0062  0.1748
  591TMC3     O 8764   3.066   2.041  16.406  0.0414 -0.2896 -0.0900
  591TMC3     H 8765   3.187   2.083  16.211  0.3653 -0.0317 -1.6310
  591TMC3    H1 8766   2.772   2.234  16.213 -1.2924 -0.3266 -1.0812
  591TMC3    H2 8767   3.008   2.286  15.884  1.9203 -0.2465  0.1792
  591TMC3    C7 8768   2.776   2.331  15.987 -0.0753 -0.6281  0.8434
  591TMC3    C8 8769   3.224   2.154  15.965 -0.1225 -0.5853  1.1708
  591TMC3    O1 8770   2.664   2.287  16.008 -0.2133  0.3051  0.0163
  591TMC3    O2 8771   3.271   2.040  15.990 -0.0604 -0.6223  0.1719
  592MPD2     C 8772   3.155   4.559  10.840  0.9885  0.1467  0.0716
  592MPD2    C1 8773   3.139   4.541  10.975  0.3397  0.3590  0.2971
  592MPD2    C2 8774   3.068   4.436  11.027  0.3417  0.1045 -0.1055
  592MPD2    C3 8775   2.994   4.345  10.948 -0.6447  0.5925 -0.0196
  592MPD2    C4 8776   3.002   4.369  10.807 -0.4634 -0.5131  0.0710
  592MPD2    C5 8777   3.084   4.468  10.761  0.1980  0.0282 -0.0375
  592MPD2     H 8778   3.086   4.415  11.132 -3.1793 -0.5010  0.3836
  592MPD2    H1 8779   2.958   4.314  10.724  0.0036 -0.3362 -0.2902
  592MPD2    H2 8780   3.209   4.643  10.796  0.8499 -0.2932 -0.9260
  592MPD2    H3 8781   3.084   4.483  10.653 -0.7652 -1.3370 -0.2218
  592MPD2     N 8782   2.927   4.233  11.010  0.0453 -0.2301 -0.1835
  592MPD2    H5 8783   2.916   4.238  11.111  1.8794 -2.2128  0.1128
  592MPD2    N1 8784   3.223   4.627  11.051  0.6876 -0.8299 -0.3202
  592MPD2    H7 8785   3.271   4.700  10.998 -1.3724  2.0535  1.8164
  593TMC3    C1 8786   3.359   4.705  11.237  0.2340 -0.3332  0.2586
  593TMC3    C2 8787   3.373   4.719  11.369 -0.2564  1.2841  0.1784
  593TMC3    C3 8788   3.498   0.048  11.412  0.0199 -0.2088  0.2586
  593TMC3    C4 8789   3.456   0.012  11.147  0.1041 -1.1314  0.5704
  593TMC3    C5 8790   3.568   0.080  11.196 -0.0696 -0.1716  0.1923
  593TMC3    C6 8791   3.594   0.088  11.326  0.2160  0.3080  0.3773
  593TMC3     C 8792   3.246   4.622  11.187  0.2356 -0.4672  0.4551
  593TMC3     O 8793   3.166   4.575  11.271 -0.4210  0.1214 -0.1311
  593TMC3     H 8794   3.294   4.686  11.436 -1.9985 -0.7846 -2.8962
  593TMC3    H1 8795   3.453   4.694  11.048 -0.6381 -2.3857  1.1556
  593TMC3    H2 8796   3.686   0.136  11.360 -1.6537  2.5441  2.3392
  593TMC3    C7 8797   3.674   0.129  11.098 -0.7518  0.7755 -0.1628
  593TMC3    C8 8798   3.502   0.074  11.557  0.0557  0.7629 -0.2714
  593TMC3    O1 8799   3.769   0.184  11.152 -0.1941  0.0567  0.7045
  593TMC3    O2 8800   3.393   0.061  11.607 -0.2374 -0.7306  0.2827
  594MPD2     C 8801   2.501   2.541  14.630 -0.0212  0.6361 -0.1625
  594MPD2    C1 8802   2.402   2.635  14.645 -0.0560  1.0514  0.3316
  594MPD2    C2 8803   2.411   2.755  14.578 -0.8394 -0.2333  0.2389
  594MPD2    C3 8804   2.517   2.792  14.496 -0.5371 -0.1848 -0.0041
  594MPD2    C4 8805   2.631   2.710  14.512  0.4057  0.4863 -0.0137
  594MPD2    C5 8806   2.621   2.583  14.567  0.6522  0.9565 -0.2127
  594MPD2     H 8807   2.326   2.821  14.598 -0.4620 -0.2171  1.8161
  594MPD2    H1 8808   2.727   2.726  14.465  0.8171 -1.4915  0.1601
  594MPD2    H2 8809   2.509   2.447  14.684 -1.1769 -0.2954 -1.5896
  594MPD2    H3 8810   2.706   2.516  14.578  0.9332  0.8821 -2.8142
  594MPD2     N 8811   2.513   2.904  14.412  0.7140 -0.3313 -0.1982
  594MPD2    H5 8812   2.599   2.928  14.363 -1.9187  3.6080 -2.8890
  594MPD2    N1 8813   2.310   2.616  14.745 -0.1909 -0.5034 -0.5533
  594MPD2    H7 8814   2.288   2.526  14.786  1.1667 -0.2491  0.7302
  595TMC3    C1 8815   2.439   3.197  14.109  0.5233  0.4348 -0.4150
  595TMC3    C2 8816   2.476   3.104  14.204  0.5395  0.4424  0.1747
  595TMC3    C3 8817   2.419   3.108  14.330  0.4368 -0.3787  0.1997
  595TMC3    C4 8818   2.364   3.307  14.147  0.9645  0.1113  0.0334
  595TMC3    C5 8819   2.313   3.312  14.274 -0.2522 -0.5116 -0.1997
  595TMC3    C6 8820   2.326   3.206  14.360  0.0810 -0.1125  0.4797
  595TMC3     C 8821   2.520   3.227  13.990  0.6775  0.5131 -1.1655
  595TMC3     O 8822   2.520   3.342  13.954  1.2614 -0.7370  0.3747
  595TMC3     H 8823   2.547   3.027  14.177 -0.8362 -0.8763  0.2829
  595TMC3    H1 8824   2.330   3.379  14.073 -0.1812 -2.0997 -1.5575
  595TMC3    H2 8825   2.287   3.218  14.460 -1.4222 -0.9083 -0.0159
  595TMC3    C7 8826   2.207   3.410  14.300  1.4722 -0.0730 -0.0630
  595TMC3    C8 8827   2.405   2.988  14.410 -0.2304 -0.2424 -0.2475
  595TMC3    O1 8828   2.108   3.370  14.360 -0.7275 -0.2274 -0.3867
  595TMC3    O2 8829   2.291   2.979  14.454 -0.2320 -0.0991  0.1733
  596MPD2     C 8830   0.844   0.819  16.556 -0.6844 -0.2383  0.2723
  596MPD2    C1 8831   0.841   0.949  16.506  0.5194  0.6339  0.7453
  596MPD2    C2 8832   0.858   0.970  16.369  0.2930 -0.3723 -0.3724
  596MPD2    C3 8833   0.870   0.861  16.288 -1.2157  0.3363  0.8585
  596MPD2    C4 8834   0.869   0.732  16.331  0.6815 -0.1274  0.5160
  596MPD2    C5 8835   0.858   0.718  16.468 -0.3214 -0.0139  0.8115
  596MPD2     H 8836   0.849   1.069  16.326  0.1406  0.5048  1.6570
  596MPD2    H1 8837   0.883   0.642  16.272 -1.7537 -0.5229  0.5117
  596MPD2    H2 8838   0.840   0.790  16.660 -1.7515  2.5198  0.9966
  596MPD2    H3 8839   0.850   0.616  16.505  3.0710 -1.6474 -2.8916
  596MPD2     N 8840   0.894   0.893  16.151  0.0095  0.1597 -0.7056
  596MPD2    H5 8841   0.916   0.990  16.127  0.6210  0.6903  1.9687
  596MPD2    N1 8842   0.841   1.068  16.586  0.0855  0.3742  0.0256
  596MPD2    H7 8843   0.853   1.158  16.542 -3.2968  0.7428 -0.1084
  597TMC3    C1 8844   0.783   1.204  16.767  0.5961 -0.4651 -0.5999
  597TMC3    C2 8845   0.835   1.318  16.703 -0.4092 -0.3364  0.2756
  597TMC3    C3 8846   0.803   1.440  16.761 -0.5710  0.0280  0.8755
  597TMC3    C4 8847   0.703   1.201  16.877  0.0950  0.3311 -0.5461
  597TMC3    C5 8848   0.660   1.325  16.911 -0.2763  0.0123  0.0267
  597TMC3    C6 8849   0.714   1.448  16.868 -0.4458  0.2129 -0.2654
  597TMC3     C 8850   0.798   1.065  16.715  0.0750 -0.0456 -0.8027
  597TMC3     O 8851   0.771   0.972  16.792  0.4195  0.1893  0.1058
  597TMC3     H 8852   0.905   1.314  16.620  0.5336  0.8689  1.0112
  597TMC3    H1 8853   0.660   1.112  16.922 -1.3190  0.3501 -1.8792
  597TMC3    H2 8854   0.702   1.543  16.920  0.3332 -0.5155  1.2562
  597TMC3    C7 8855   0.567   1.335  17.017  0.5788  0.2019 -0.3617
  597TMC3    C8 8856   0.873   1.560  16.726  0.0689 -0.3374 -0.3228
  597TMC3    O1 8857   0.561   1.239  17.092 -0.4709 -0.0606  0.9807
  597TMC3    O2 8858   0.870   1.651  16.804 -0.0480  0.3648 -0.4946
  598TMC3    C1 8859   4.002   2.585  15.301 -0.3651  0.4372  0.1854
  598TMC3    C2 8860   3.921   2.484  15.269 -0.0457 -1.3426 -0.1407
  598TMC3    C3 8861   3.845   2.496  15.157 -0.7459  0.2631  0.3071
  598TMC3    C4 8862   4.027   2.687  15.217  0.5909 -0.1209  0.2271
  598TMC3    C5 8863   3.940   2.705  15.109  0.0792  0.5034  0.4821
  598TMC3    C6 8864   3.842   2.614  15.082 -0.1690 -0.1862 -0.4431
  598TMC3     C 8865   4.116   2.545  15.382  0.2934  0.0944  0.3171
  598TMC3     O 8866   4.222   2.568  15.329  0.0117  0.0506 -0.0069
  598TMC3     H 8867   3.910   2.392  15.326 -1.7091 -1.3968 -0.5474
  598TMC3    H1 8868   4.095   2.765  15.250  1.5171 -0.7974 -0.0913
  598TMC3    H2 8869   3.776   2.638  15.000  0.1466  0.2066 -0.5796
  598TMC3    C7 8870   4.000   2.765  14.995 -0.6513 -0.2754  0.4801
  598TMC3    C8 8871   3.811   2.371  15.087  0.3714 -0.2229  0.1718
  598TMC3    O1 8872   3.967   2.724  14.885  0.0747  0.0145 -0.2807
  598TMC3    O2 8873   3.867   2.266  15.121  0.0461  0.3995  0.4820
  599MPD2     C 8874   4.060   0.362  15.851  0.6813 -0.1910  0.0114
  599MPD2    C1 8875   3.991   0.244  15.845 -1.0559 -0.6140  0.1053
  599MPD2    C2 8876   3.857   0.247  15.880 -0.2761 -0.1060 -0.1467
  599MPD2    C3 8877   3.800   0.363  15.934 -0.2146  0.2270  0.2405
  599MPD2    C4 8878   3.875   0.477  15.932  0.3244  0.1824 -0.1560
  599MPD2    C5 8879   4.005   0.477  15.899  0.2830  0.1137  0.5274
  599MPD2     H 8880   3.818   0.146  15.885  1.6158 -0.8597 -0.5890
  599MPD2    H1 8881   3.837   0.577  15.951 -0.0951 -0.2140  1.0484
  599MPD2    H2 8882   4.165   0.354  15.824  0.1687  0.7814 -2.2103
  599MPD2    H3 8883   4.063   0.569  15.905  0.6231  0.0709 -2.0575
  599MPD2     N 8884   3.672   0.368  15.993  0.3326  0.5192  0.2841
  599MPD2    H5 8885   3.645   0.449  16.049 -0.4270  0.3805  0.1279
  599MPD2    N1 8886   4.069   0.134  15.807  0.3581  0.0645 -0.6684
  599MPD2    H7 8887   4.169   0.150  15.806  0.4596 -0.4963  2.7593
  600TMC3    C1 8888   3.471   0.255  16.068  0.2639  0.3936  0.0250
  600TMC3    C2 8889   3.385   0.149  16.070  0.2987  0.0776 -0.5706
  600TMC3    C3 8890   3.320   0.118  16.190 -0.2172  0.0436 -0.3975
  600TMC3    C4 8891   3.468   0.342  16.175  0.7945 -0.2214 -0.1495
  600TMC3    C5 8892   3.404   0.311  16.289  0.3158 -0.5650 -0.0793
  600TMC3    C6 8893   3.330   0.194  16.300 -0.3720  0.1889 -0.0113
  600TMC3     C 8894   3.586   0.258  15.976 -0.4792 -0.0966  0.1025
  600TMC3     O 8895   3.586   0.168  15.890  0.1876  0.5066  0.1793
  600TMC3     H 8896   3.384   0.073  15.992 -0.6222  0.3157 -0.7936
  600TMC3    H1 8897   3.523   0.436  16.168  1.5170 -0.6222  0.1908
  600TMC3    H2 8898   3.268   0.173  16.387  0.8683  0.1818  0.8814
  600TMC3    C7 8899   3.431   0.388  16.413  0.2266 -0.1468  0.1583
  600TMC3    C8 8900   3.259   4.712  16.207 -0.2405 -0.3281 -0.7654
  600TMC3    O1 8901   3.360   0.349  16.503 -0.5278  0.6988 -0.2097
  600TMC3    O2 8902   3.283   4.650  16.310 -0.0031 -0.4362  0.2839
  601MPD2     C 8903   1.031   3.101   0.525  0.3618  0.4520 -0.5461
  601MPD2    C1 8904   0.991   3.034   0.413  0.3397  0.3045  0.4487
  601MPD2    C2 8905   1.010   2.897   0.404  0.1141  0.2496  0.3537
  601MPD2    C3 8906   1.085   2.834   0.503 -0.0074 -0.5469 -0.4515
  601MPD2    C4 8907   1.115   2.900   0.623  0.1213  0.0584 -0.1891
  601MPD2    C5 8908   1.074   3.032   0.632  0.2364  0.5521 -0.1220
  601MPD2     H 8909   0.979   2.847   0.313  2.3123 -1.1429  0.3480
  601MPD2    H1 8910   1.188   2.864   0.695 -1.9598 -1.5712  1.0929
  601MPD2    H2 8911   1.002   3.205   0.536  1.3662  0.7623 -0.8930
  601MPD2    H3 8912   1.090   3.086   0.725 -0.5291  1.6560 -0.6312
  601MPD2     N 8913   1.127   2.700   0.484 -0.0094  0.3663  0.0516
  601MPD2    H5 8914   1.164   2.660   0.570 -2.1844 -1.3532  0.2057
  601MPD2    N1 8915   0.941   3.094   0.295  0.1910  0.1720  0.4554
  601MPD2    H7 8916   0.922   3.036   0.213  0.6801 -0.2523  0.6423
  602TMC3    C1 8917   0.918   3.264   0.125  0.8082  0.2616 -0.8144
  602TMC3    C2 8918   0.981   3.371   0.072  0.4435 -0.0951 -0.1388
  602TMC3    C3 8919   0.929   3.431  17.666 -0.0795 -0.0557 -0.3435
  602TMC3    C4 8920   0.809   3.205   0.067 -0.7034 -0.0729  0.2657
  602TMC3    C5 8921   0.773   3.257  17.657  0.0024 -0.0748  0.0967
  602TMC3    C6 8922   0.823   3.373  17.598  0.2867  0.5605  0.4539
  602TMC3     C 8923   0.953   3.228   0.265  0.3128 -0.4874  0.2412
  602TMC3     O 8924   1.012   3.316   0.324  0.1960 -0.5742  0.7573
  602TMC3     H 8925   1.060   3.422   0.125 -0.6925  0.2377  1.2576
  602TMC3    H1 8926   0.763   3.115   0.104 -0.8878 -0.5354 -1.0744
  602TMC3    H2 8927   0.772   3.422  17.517  0.0235  0.1100  0.3458
  602TMC3    C7 8928   0.660   3.193  17.587  0.4641  0.3253  0.1805
  602TMC3    C8 8929   0.997   3.554  17.613 -0.5187 -0.3901  0.2276
  602TMC3    O1 8930   0.570   3.131  17.648  0.0913  0.2921 -0.9078
  602TMC3    O2 8931   1.043   3.622  17.699 -0.3678 -0.4787  0.8350
  603TMC3    C1 8932   4.153   3.645  10.569 -0.4090  0.8028 -0.8232
  603TMC3    C2 8933   4.209   3.665  10.688 -0.0491 -1.3074  0.4994
  603TMC3    C3 8934   4.208   3.795  10.735 -0.2446  0.3356 -0.3916
  603TMC3    C4 8935   4.104   3.751  10.492 -0.0044  0.2477 -0.0399
  603TMC3    C5 8936   4.107   3.876  10.541 -0.5863 -0.5770 -0.1574
  603TMC3    C6 8937   4.146   3.897  10.667  0.3245 -0.7131  0.5746
  603TMC3     C 8938   4.132   3.503  10.535 -0.5044 -0.7931  0.0753
  603TMC3     O 8939   4.217   3.419  10.571 -0.1078 -0.0012 -0.0327
  603TMC3     H 8940   4.248   3.582  10.746  3.3149  0.0990  0.2837
  603TMC3    H1 8941   4.092   3.727  10.387  0.2260 -1.5206  0.3419
  603TMC3    H2 8942   4.172   4.000  10.688 -0.4482 -0.2835 -0.5618
  603TMC3    C7 8943   4.096   3.990  10.448 -0.1244  0.1244  0.0762
  603TMC3    C8 8944   4.204   3.800  10.878 -0.3561  0.2187 -0.0050
  603TMC3    O1 8945   4.145   4.092  10.493  0.3004 -0.1638  0.1655
  603TMC3    O2 8946   4.243   3.700  10.935  0.3140 -0.7294 -0.0509
  604MPD2     C 8947   4.581   1.968  16.285  0.3207  0.3720  0.5772
  604MPD2    C1 8948   4.539   2.079  16.208 -0.0703  0.0715 -0.6975
  604MPD2    C2 8949   4.564   2.067  16.073 -0.5683 -0.7370  0.6043
  604MPD2    C3 8950   4.634   1.962  16.017 -1.0516 -0.0403 -0.6287
  604MPD2    C4 8951   4.690   1.857  16.093 -0.1166  0.3125  0.0443
  604MPD2    C5 8952   4.655   1.864  16.225  0.6143  0.2648  0.5003
  604MPD2     H 8953   4.524   2.140  16.003 -1.9069 -1.6868  0.3687
  604MPD2    H1 8954   0.025   1.779  16.049  1.1147  0.7158  1.0440
  604MPD2    H2 8955   4.563   1.961  16.391 -0.3332 -3.4669  0.2273
  604MPD2    H3 8956   4.700   1.796  16.297  0.2317 -1.0931 -0.5437
  604MPD2     N 8957   4.653   1.962  15.876  0.4973  0.3723 -0.1233
  604MPD2    H5 8958   4.592   2.023  15.822  1.0058 -0.2922 -1.4513
  604MPD2    N1 8959   4.457   2.173  16.268 -0.0936 -0.1889 -0.0420
  604MPD2    H7 8960   4.434   2.151  16.365 -0.1392 -2.5789 -0.5778
  605TMC3    C1 8961   4.345   2.384  16.323 -0.0541 -0.3111  0.3490
  605TMC3    C2 8962   4.423   2.422  16.430  0.2884 -0.6894  0.2031
  605TMC3    C3 8963   4.400   2.544  16.484 -0.3473  0.3643 -0.1037
  605TMC3    C4 8964   4.245   2.466  16.271 -0.2832 -0.1018 -0.1769
  605TMC3    C5 8965   4.232   2.588  16.324 -0.9152 -0.0930 -0.5266
  605TMC3    C6 8966   4.299   2.625  16.437  0.1405  0.0509 -0.1288
  605TMC3     C 8967   4.404   2.291  16.219  0.7535 -0.1170 -0.2683
  605TMC3     O 8968   4.405   2.333  16.105 -0.0820  0.2258 -0.0257
  605TMC3     H 8969   4.515   2.375  16.463  0.8280  0.0812 -0.1952
  605TMC3    H1 8970   4.178   2.420  16.199  0.6753 -2.6545  0.5649
  605TMC3    H2 8971   4.293   2.729  16.465  1.8088 -0.1014  0.7584
  605TMC3    C7 8972   4.140   2.686  16.261 -0.4556 -0.0276  0.0245
  605TMC3    C8 8973   4.482   2.597  16.595  0.6963  0.1349 -0.2501
  605TMC3    O1 8974   4.132   2.801  16.308  0.4632  0.3660  0.0807
  605TMC3    O2 8975   4.549   2.508  16.650 -0.1257 -0.3733 -0.1531
  606TMC3    C1 8976   1.143   1.087  16.769 -0.0500  0.0370 -0.0709
  606TMC3    C2 8977   1.085   1.146  16.880 -0.1690 -0.0098  0.1564
  606TMC3    C3 8978   1.054   1.062  16.984  0.7401  0.1093  0.1209
  606TMC3    C4 8979   1.177   0.953  16.758 -0.8035 -0.1208 -0.4340
  606TMC3    C5 8980   1.150   0.879  16.871  0.0235 -0.1556  0.5291
  606TMC3    C6 8981   1.074   0.927  16.980 -0.0947 -0.5657  0.6377
  606TMC3     C 8982   1.169   1.178  16.654 -0.1381  0.2497 -0.2020
  606TMC3     O 8983   1.147   1.297  16.678  0.5477  0.0034 -0.5533
  606TMC3     H 8984   1.069   1.253  16.888  1.3573  0.1682  0.7154
  606TMC3    H1 8985   1.231   0.906  16.677 -1.1677  2.5709 -2.2468
  606TMC3    H2 8986   1.052   0.864  17.065  0.9937  0.5530  1.7276
  606TMC3    C7 8987   1.212   0.747  16.871 -0.2015 -0.1942  0.6271
  606TMC3    C8 8988   1.023   1.125  17.110  0.0058 -0.1978 -0.1131
  606TMC3    O1 8989   1.314   0.730  16.804 -0.0770  0.0685  0.6797
  606TMC3    O2 8990   0.939   1.212  17.107  0.1616  0.2598 -0.0647
  607MPD2     C 8991   3.038   3.912  11.355 -0.1746 -0.4253 -0.5482
  607MPD2    C1 8992   3.071   3.981  11.471  0.1916  0.2962  0.1721
  607MPD2    C2 8993   3.056   3.920  11.593 -0.7958 -0.0020  0.2565
  607MPD2    C3 8994   3.015   3.787  11.599 -0.7199 -1.1213 -0.2067
  607MPD2    C4 8995   2.983   3.719  11.486  0.9783 -0.3452 -0.0664
  607MPD2    C5 8996   2.991   3.788  11.369  0.2285  0.6925  0.1006
  607MPD2     H 8997   3.090   3.971  11.682  0.2102 -2.3976  1.2346
  607MPD2    H1 8998   2.952   3.616  11.490 -3.5080  0.9219 -1.4939
  607MPD2    H2 8999   3.045   3.945  11.251 -3.8476  2.8627  0.2353
  607MPD2    H3 9000   2.956   3.737  11.280 -0.2365  1.0649  0.0689
  607MPD2     N 9001   3.015   3.735  11.728  0.1141  0.0535  0.1682
  607MPD2    H5 9002   3.026   3.799  11.806  1.7707 -0.6789  0.5435
  607MPD2    N1 9003   3.130   4.109  11.477 -0.0519  0.1885  0.3824
  607MPD2    H7 9004   3.124   4.160  11.565 -0.5245  0.8614 -0.0476
  608TMC3    C1 9005   3.261   4.288  11.410 -0.0484 -0.4765 -0.4722
  608TMC3    C2 9006   3.275   4.315  11.546  0.7370 -0.1090  0.8304
  608TMC3    C3 9007   3.397   4.375  11.580  0.2310 -0.1304 -0.9541
  608TMC3    C4 9008   3.361   4.315  11.325  0.2673 -0.1326  0.0118
  608TMC3    C5 9009   3.482   4.365  11.362  0.0514 -0.8832  0.6344
  608TMC3    C6 9010   3.504   4.388  11.496  0.3381 -0.2125  0.0189
  608TMC3     C 9011   3.165   4.180  11.365  0.0791 -0.6962  0.0312
  608TMC3     O 9012   3.170   4.148  11.246  0.5443 -0.0082  0.1088
  608TMC3     H 9013   3.195   4.301  11.618  1.6073  2.4707  2.2703
  608TMC3    H1 9014   3.339   4.286  11.223  0.3377  2.1124 -0.6593
  608TMC3    H2 9015   3.590   4.444  11.531  0.5250 -0.1402 -0.5486
  608TMC3    C7 9016   3.588   4.404  11.265  0.6145  0.0472  0.1271
  608TMC3    C8 9017   3.428   4.379  11.721 -0.8051  0.3391 -0.4443
  608TMC3    O1 9018   3.554   4.411  11.146  0.8077  0.0281 -0.1850
  608TMC3    O2 9019   3.508   4.460  11.770  0.2709  0.1852 -0.3137
  609TMC3    C1 9020   1.899   2.562   9.056  0.3341 -0.7169  0.5621
  609TMC3    C2 9021   1.819   2.473   9.003  0.2141  0.0582 -0.4032
  609TMC3    C3 9022   1.884   2.352   8.979  0.2979 -0.0339 -0.3447
  609TMC3    C4 9023   2.033   2.542   9.080 -0.1735  0.2007  0.2339
  609TMC3    C5 9024   2.080   2.412   9.068  0.2182  0.8119  0.3041
  609TMC3    C6 9025   2.010   2.313   9.018 -0.3045 -0.3242 -0.0896
  609TMC3     C 9026   1.838   2.690   9.092  0.2250 -0.1862  0.1258
  609TMC3     O 9027   1.722   2.678   9.130  0.1662 -0.3411 -0.3879
  609TMC3     H 9028   1.717   2.496   8.977  0.0075  0.4926  0.8132
  609TMC3    H1 9029   2.095   2.611   9.136  0.1570 -0.3248  0.5210
  609TMC3    H2 9030   2.056   2.220   8.983 -0.5261 -0.8067  0.9179
  609TMC3    C7 9031   2.218   2.390   9.099 -0.5535 -0.1888 -0.1888
  609TMC3    C8 9032   1.818   2.262   8.888 -0.7742  0.8121 -0.3937
  609TMC3    O1 9033   2.271   2.458   9.189  0.3939 -0.5661  0.0277
  609TMC3    O2 9034   1.838   2.141   8.892  0.0706 -0.6726  0.1114
  610TMC3    C1 9035   3.591   3.667  12.265 -0.4432  0.1938 -0.2941
  610TMC3    C2 9036   3.612   3.760  12.172 -0.4434 -0.0357 -0.1482
  610TMC3    C3 9037   3.728   3.766  12.101  0.2067 -0.3354 -0.1925
  610TMC3    C4 9038   3.692   3.572  12.297  0.2359 -0.4287 -0.4583
  610TMC3    C5 9039   3.808   3.579  12.229 -0.3475 -1.4319 -0.3596
  610TMC3    C6 9040   3.825   3.674  12.129 -0.5883  0.3397 -0.0035
  610TMC3     C 9041   3.472   3.686  12.356 -0.3258  0.1172  0.0342
  610TMC3     O 9042   3.411   3.790  12.345 -0.0952 -0.1721 -0.3366
  610TMC3     H 9043   3.535   3.833  12.151  0.3249  0.3289 -1.7060
  610TMC3    H1 9044   3.685   3.496  12.373  1.3734  0.0265  0.1099
  610TMC3    H2 9045   3.919   3.669  12.075  0.2227 -0.7870  1.4964
  610TMC3    C7 9046   3.920   3.495  12.285 -0.5369  0.5283 -0.6480
  610TMC3    C8 9047   3.731   3.832  11.976 -0.4099 -0.4193 -0.6395
  610TMC3    O1 9048   3.893   3.378  12.311  0.0942  0.5996 -0.3676
  610TMC3    O2 9049   3.835   3.890  11.938 -0.7950  0.1720 -0.0290
  611MPD2     C 9050   3.187   3.603  10.209  1.0151 -0.4383  0.0641
  611MPD2    C1 9051   3.111   3.654  10.105 -0.0235  0.5512  0.0861
  611MPD2    C2 9052   3.171   3.751  10.023 -0.2775 -0.6988 -0.1088
  611MPD2    C3 9053   3.306   3.783  10.043  0.4392 -0.4895  0.9533
  611MPD2    C4 9054   3.374   3.726  10.147  0.1713  0.2157  0.4974
  611MPD2    C5 9055   3.320   3.643  10.240  0.0854 -0.1130 -0.1043
  611MPD2     H 9056   3.117   3.795   9.941 -0.2878 -1.0424 -0.2872
  611MPD2    H1 9057   3.471   3.762  10.180  0.5615 -0.6168  0.2642
  611MPD2    H2 9058   3.144   3.525  10.271 -1.0293  0.4145 -0.2636
  611MPD2    H3 9059   3.387   3.604  10.315 -1.8705 -1.1178  1.1292
  611MPD2     N 9060   3.378   3.858   9.946  0.2628  0.5001 -0.7290
  611MPD2    H5 9061   3.477   3.867   9.966 -0.2671 -1.5308  2.8430
  611MPD2    N1 9062   2.978   3.610  10.090 -0.2898 -0.4168 -0.3027
  611MPD2    H7 9063   2.941   3.539  10.152  0.0688 -1.2450 -1.0309
  612TMC3    C1 9064   3.419   4.004   9.756 -0.3526  0.8098 -0.0966
  612TMC3    C2 9065   3.533   4.046   9.822  0.7534  0.8085  0.5804
  612TMC3    C3 9066   3.620   4.131   9.764  0.2284 -0.2061 -0.7520
  612TMC3    C4 9067   3.396   4.064   9.635 -0.2897  0.0367 -0.4095
  612TMC3    C5 9068   3.490   4.150   9.576  0.8768 -0.7137  0.2364
  612TMC3    C6 9069   3.604   4.185   9.640 -0.1377  0.1073  0.2214
  612TMC3     C 9070   3.325   3.914   9.830  0.1406  0.4166  0.4317
  612TMC3     O 9071   3.215   3.898   9.779 -0.8703  0.3791  0.6329
  612TMC3     H 9072   3.538   4.025   9.928 -3.8235 -0.7466  0.5162
  612TMC3    H1 9073   3.301   4.047   9.586 -0.8379 -0.4011  0.7951
  612TMC3    H2 9074   3.682   4.249   9.601 -0.1764 -0.0231 -0.0644
  612TMC3    C7 9075   3.433   4.233   9.468 -0.1180  0.0578  0.0616
  612TMC3    C8 9076   3.741   4.176   9.830 -0.3279 -0.2692 -0.0945
  612TMC3    O1 9077   3.334   4.188   9.415  0.0036  0.1712  0.2798
  612TMC3    O2 9078   3.787   4.281   9.792  0.3535  0.1700  0.0393
  613MPD2     C 9079   2.363   1.224  16.585 -0.0477  0.1910  0.1519
  613MPD2    C1 9080   2.259   1.200  16.499  0.1560 -0.7232 -0.2167
  613MPD2    C2 9081   2.199   1.077  16.508  0.5468  0.1623  0.4298
  613MPD2    C3 9082   2.245   0.979  16.595  0.4802 -0.7716  0.8044
  613MPD2    C4 9083   2.347   1.012  16.682  0.7971 -0.5774  0.2275
  613MPD2    C5 9084   2.402   1.126  16.674 -0.3566 -0.5281  0.1990
  613MPD2     H 9085   2.126   1.051  16.432 -0.8919 -0.7263  2.1055
  613MPD2    H1 9086   2.382   0.941  16.757 -0.6432 -0.4370  1.0277
  613MPD2    H2 9087   2.409   1.322  16.576 -0.0908  0.0978 -1.0238
  613MPD2    H3 9088   2.472   1.153  16.752  0.1756 -1.6188  0.1021
  613MPD2     N 9089   2.207   0.842  16.589 -0.2587 -0.2423 -0.1395
  613MPD2    H5 9090   2.258   0.775  16.646  0.1077 -0.5124 -0.7813
  613MPD2    N1 9091   2.220   1.300  16.408 -0.2359 -0.3709 -0.2007
  613MPD2    H7 9092   2.282   1.380  16.406 -1.8660  0.9014  0.1809
  614TMC3    C1 9093   2.167   1.370  16.186  0.0613 -0.2448  0.1722
  614TMC3    C2 9094   2.292   1.346  16.141  0.1995 -0.2075  0.6027
  614TMC3    C3 9095   2.299   1.292  16.014  0.8428  0.1144 -0.0584
  614TMC3    C4 9096   2.064   1.375  16.100 -0.0176 -0.4684 -0.1429
  614TMC3    C5 9097   2.084   1.363  15.968  0.3853  0.0606  0.2395
  614TMC3    C6 9098   2.204   1.311  15.921 -0.4797  0.2966 -0.2414
  614TMC3     C 9099   2.122   1.293  16.308  0.1406  0.4467  0.2367
  614TMC3     O 9100   2.015   1.234  16.302  0.1483  0.2017  0.8181
  614TMC3     H 9101   2.368   1.323  16.214  1.7075  1.1401 -0.5548
  614TMC3    H1 9102   1.971   1.412  16.141  0.1024 -0.3875  0.0572
  614TMC3    H2 9103   2.222   1.291  15.816  3.2835  0.3636  0.3623
  614TMC3    C7 9104   2.003   1.442  15.882 -0.8019 -0.4632  0.5202
  614TMC3    C8 9105   2.348   1.158  16.018  0.1901 -0.1016  0.0732
  614TMC3    O1 9106   1.922   1.522  15.931 -0.6169  0.2565 -0.4711
  614TMC3    O2 9107   2.370   1.108  16.128 -0.5925  0.3807  0.4906
  615MPD2     C 9108   1.002   2.388  16.321 -0.4505  0.1321 -0.5519
  615MPD2    C1 9109   1.099   2.433  16.235 -0.5525  0.0752  0.1239
  615MPD2    C2 9110   1.079   2.404  16.094  0.1586 -0.1602  0.3615
  615MPD2    C3 9111   0.972   2.329  16.053 -0.1631  0.7902 -0.2422
  615MPD2    C4 9112   0.882   2.277  16.143  0.4721  0.0176 -0.2465
  615MPD2    C5 9113   0.897   2.305  16.275 -0.4441 -0.5303  0.0869
  615MPD2     H 9114   1.147   2.452  16.024 -0.3616 -2.3887 -1.6491
  615MPD2    H1 9115   0.795   2.217  16.118  0.0841  0.1672  0.7536
  615MPD2    H2 9116   1.009   2.415  16.426 -1.4670  0.8139 -0.6539
  615MPD2    H3 9117   0.821   2.260  16.338  0.1651  0.5927  1.6176
  615MPD2     N 9118   0.960   2.289  15.922  0.6391  1.0881 -0.0786
  615MPD2    H5 9119   0.901   2.209  15.904  0.6590  1.0319  0.1109
  615MPD2    N1 9120   1.211   2.510  16.273  0.5902  0.2928  0.3545
  615MPD2    H7 9121   1.272   2.547  16.200  0.0970  1.0403  0.3236
  616TMC3    C1 9122   1.402   2.544  16.396  0.7284  0.5791  0.5344
  616TMC3    C2 9123   1.438   2.648  16.311  0.4960  0.1928  0.2166
  616TMC3    C3 9124   1.571   2.686  16.307 -1.5129  0.1970  0.1713
  616TMC3    C4 9125   1.496   2.491  16.482 -0.4049 -0.8749 -0.2433
  616TMC3    C5 9126   1.621   2.544  16.484 -0.6699 -0.2740 -0.6196
  616TMC3    C6 9127   1.663   2.640  16.404  0.0601  0.5664  0.6746
  616TMC3     C 9128   1.268   2.493  16.394 -0.3521 -0.5336 -0.1638
  616TMC3     O 9129   1.226   2.432  16.496 -0.2766 -0.2017  0.3148
  616TMC3     H 9130   1.366   2.698  16.247 -1.2970 -2.0006  0.5121
  616TMC3    H1 9131   1.468   2.408  16.546 -1.6823 -0.7593 -0.6553
  616TMC3    H2 9132   1.751   2.700  16.422  1.0335 -0.1621 -1.6736
  616TMC3    C7 9133   1.711   2.490  16.586  0.6252 -0.5127  0.3595
  616TMC3    C8 9134   1.608   2.815  16.242 -0.3953  0.1024  0.2681
  616TMC3    O1 9135   1.665   2.433  16.687 -0.1917 -0.0167  0.4611
  616TMC3    O2 9136   1.520   2.898  16.239  0.1482  0.2173 -0.2230
  617MPD2     C 9137   4.575   1.158  13.946  0.3264 -0.2606  0.1171
  617MPD2    C1 9138   4.577   1.078  13.830 -0.5148 -0.0996  0.4642
  617MPD2    C2 9139   4.499   0.958  13.828 -0.4625 -0.0764 -0.1970
  617MPD2    C3 9140   4.432   0.915  13.944 -0.0582 -0.0056  0.2923
  617MPD2    C4 9141   4.434   0.995  14.056 -0.3040  0.3752 -0.4276
  617MPD2    C5 9142   4.493   1.123  14.052  0.3170 -0.1348  0.1764
  617MPD2     H 9143   4.493   0.894  13.741  1.4020 -0.1291 -0.2866
  617MPD2    H1 9144   4.378   0.972  14.146  1.9616  2.7731  1.6109
  617MPD2    H2 9145   4.633   1.249  13.955 -0.9310  0.2689  2.7524
  617MPD2    H3 9146   4.506   1.176  14.146 -0.4431  2.1009 -0.9869
  617MPD2     N 9147   4.364   0.789  13.951  0.8281  0.6519 -0.1277
  617MPD2    H5 9148   4.328   0.780  14.045  0.1826 -1.7628 -0.5947
  617MPD2    N1 9149   4.651   1.120  13.714 -0.0393  0.6991 -0.0914
  617MPD2    H7 9150   4.709   1.203  13.726  2.4745 -1.3104  1.5334
  618TMC3    C1 9151   0.027   1.104  13.497 -0.0007 -0.6206 -0.8907
  618TMC3    C2 9152   0.129   1.182  13.551 -0.4991  0.0947 -0.4362
  618TMC3    C3 9153   0.242   1.184  13.476 -0.3966  0.0014 -0.4769
  618TMC3    C4 9154   0.037   1.045  13.376 -0.1965  0.2031  0.7619
  618TMC3    C5 9155   0.142   1.054  13.298  0.0204 -0.5234 -1.3053
  618TMC3    C6 9156   0.249   1.124  13.348  0.2566 -0.1145 -0.1179
  618TMC3     C 9157   4.651   1.057  13.591  0.1019  0.0394  0.4756
  618TMC3     O 9158   4.584   0.959  13.557  0.3415  0.0395 -0.1382
  618TMC3     H 9159   0.134   1.209  13.656  0.9047 -0.7790 -0.2784
  618TMC3    H1 9160   4.680   0.985  13.341  0.6890 -0.0657 -0.8460
  618TMC3    H2 9161   0.343   1.121  13.294 -0.5434 -3.5789 -1.3575
  618TMC3    C7 9162   0.142   0.987  13.166 -0.5374 -0.3799 -0.0243
  618TMC3    C8 9163   0.364   1.219  13.548 -0.5844 -0.4299  0.1127
  618TMC3    O1 9164   0.039   0.921  13.138  0.1466 -0.4130 -0.3658
  618TMC3    O2 9165   0.339   1.290  13.647 -0.3584  0.2461  0.1290
  619MPD2     C 9166   1.116   1.960  13.448  0.4513  0.1538  0.0376
  619MPD2    C1 9167   1.028   2.070  13.434 -0.7908  0.1601  0.4024
  619MPD2    C2 9168   0.893   2.054  13.460 -0.5205 -0.2695  0.0258
  619MPD2    C3 9169   0.837   1.933  13.501 -0.4028  0.4752 -0.4304
  619MPD2    C4 9170   0.928   1.834  13.525 -0.3589 -0.8914  0.6863
  619MPD2    C5 9171   1.061   1.847  13.502  0.2004 -0.1622  0.7182
  619MPD2     H 9172   0.830   2.137  13.430 -0.2855  0.1064  0.5784
  619MPD2    H1 9173   0.888   1.737  13.553 -2.9714 -0.2790 -0.9172
  619MPD2    H2 9174   1.220   1.964  13.416  0.5857  1.9653  0.6727
  619MPD2    H3 9175   1.130   1.764  13.512  1.1533  0.5264 -0.0869
  619MPD2     N 9176   0.699   1.899  13.526 -0.4335  0.4650  0.1212
  619MPD2    H5 9177   0.689   1.801  13.551 -0.3429  0.6950  1.0612
  619MPD2    N1 9178   1.071   2.198  13.390 -0.0533  0.6792  0.1472
  619MPD2    H7 9179   1.000   2.268  13.409 -0.0037  0.2348  1.9302
  620TMC3    C1 9180   1.216   2.373  13.324  0.6982  0.6445  0.3768
  620TMC3    C2 9181   1.148   2.460  13.401 -0.5536 -0.0750  0.8422
  620TMC3    C3 9182   1.188   2.587  13.408 -0.4695 -0.1741  0.4693
  620TMC3    C4 9183   1.327   2.407  13.250  0.6590 -0.3399  0.4733
  620TMC3    C5 9184   1.362   2.542  13.252  0.3294  0.1443  0.4477
  620TMC3    C6 9185   1.291   2.627  13.335  0.2819 -0.3298  0.1754
  620TMC3     C 9186   1.193   2.231  13.343  0.3950  0.0076 -0.2409
  620TMC3     O 9187   1.272   2.153  13.296  0.0442 -0.1941  0.2569
  620TMC3     H 9188   1.060   2.432  13.457 -0.4542 -0.1973  0.9382
  620TMC3    H1 9189   1.379   2.332  13.191 -1.0175  0.1976 -1.6774
  620TMC3    H2 9190   1.316   2.733  13.342 -1.2338 -0.0313  1.1533
  620TMC3    C7 9191   1.451   2.579  13.141  0.0688  0.1611  0.1389
  620TMC3    C8 9192   1.146   2.659  13.524 -0.3119  0.0352 -0.6671
  620TMC3    O1 9193   1.490   2.488  13.073  0.1485 -0.2535 -0.2804
  620TMC3    O2 9194   1.234   2.715  13.590 -0.5783 -0.0343  0.4039
  621MPD2     C 9195   1.352   2.511   9.839 -0.1717 -0.1352  0.3944
  621MPD2    C1 9196   1.438   2.428   9.914  0.3728 -0.6479 -0.0438
  621MPD2    C2 9197   1.563   2.396   9.865  0.3304  0.3669 -0.4980
  621MPD2    C3 9198   1.602   2.449   9.745 -0.9470 -0.0061  0.0699
  621MPD2    C4 9199   1.517   2.534   9.682  0.9423 -0.1920  0.2956
  621MPD2    C5 9200   1.392   2.562   9.724  0.3965 -0.8285  0.4150
  621MPD2     H 9201   1.630   2.345   9.932 -1.8032  1.0016  2.1322
  621MPD2    H1 9202   1.547   2.580   9.588  1.6822  0.8268  1.0216
  621MPD2    H2 9203   1.252   2.539   9.870 -0.0576 -0.3869  0.9801
  621MPD2    H3 9204   1.324   2.615   9.658  0.0746 -0.2627  1.2083
  621MPD2     N 9205   1.729   2.432   9.691 -0.3513  0.2795 -0.4425
  621MPD2    H5 9206   1.809   2.411   9.750 -0.3540 -2.4809 -1.4126
  621MPD2    N1 9207   1.400   2.364  10.038 -0.2839  0.6433  0.2346
  621MPD2    H7 9208   1.456   2.288  10.075 -1.5332  0.5306  1.8679
  622TMC3    C1 9209   1.256   2.304  10.209  0.2802  0.4729 -0.2634
  622TMC3    C2 9210   1.148   2.324  10.290  0.1903  0.3174  0.9133
  622TMC3    C3 9211   1.087   2.228  10.366 -0.2985 -0.5070  0.1784
  622TMC3    C4 9212   1.297   2.176  10.199 -0.8470  0.6401 -0.1268
  622TMC3    C5 9213   1.235   2.072  10.270 -0.0064  0.3431  0.4081
  622TMC3    C6 9214   1.141   2.101  10.371 -0.2133  0.1534 -0.6551
  622TMC3     C 9215   1.285   2.398  10.104  0.1214 -0.9183 -0.2915
  622TMC3     O 9216   1.202   2.483  10.085 -0.3387  0.4763  0.2418
  622TMC3     H 9217   1.125   2.429  10.304 -1.0674  0.1761 -0.0861
  622TMC3    H1 9218   1.381   2.156  10.133 -1.1560 -1.5098  0.1234
  622TMC3    H2 9219   1.080   2.026  10.419 -0.8113  0.3608 -1.0896
  622TMC3    C7 9220   1.256   1.932  10.237  0.5914  0.2002 -0.2362
  622TMC3    C8 9221   0.958   2.257  10.421 -0.3585  0.6022  0.4332
  622TMC3    O1 9222   1.173   1.856  10.283 -0.2660 -0.1790 -0.0843
  622TMC3    O2 9223   0.897   2.169  10.490  1.1901  0.4337  0.9974
  623MPD2     C 9224   0.033   2.368  16.142 -0.7341 -0.4749 -0.2449
  623MPD2    C1 9225   0.001   2.474  16.223  0.3748 -0.8926 -0.8349
  623MPD2    C2 9226   0.034   2.479  16.356 -0.1402 -0.4234 -0.6543
  623MPD2    C3 9227   0.102   2.370  16.414 -0.1440 -0.4077  0.3589
  623MPD2    C4 9228   0.134   2.262  16.340 -0.7842  0.7543  0.0866
  623MPD2    C5 9229   0.100   2.262  16.207  0.0842  0.1170 -0.0587
  623MPD2     H 9230   0.010   2.566  16.416 -0.8170 -0.8536 -0.2933
  623MPD2    H1 9231   0.197   2.183  16.381  1.1628  2.5013  0.4576
  623MPD2    H2 9232   0.020   2.359  16.035  1.3984 -1.6412 -0.4066
  623MPD2    H3 9233   0.116   2.174  16.147 -1.7969 -0.2646  0.0016
  623MPD2     N 9234   0.133   2.382  16.557  0.7588 -0.3229  0.4950
  623MPD2    H5 9235   0.116   2.468  16.608  4.2005  1.2265 -0.9948
  623MPD2    N1 9236   4.662   2.592  16.177 -0.2949 -0.4957  0.3611
  623MPD2    H7 9237   4.656   2.670  16.242 -1.2554 -0.1445 -0.1612
  624TMC3    C1 9238   0.364   2.333  16.959  0.1041 -0.5479 -0.0774
  624TMC3    C2 9239   0.330   2.464  16.984  0.8471  0.2747 -0.1975
  624TMC3    C3 9240   0.265   2.533  16.884  0.2823  0.2030  0.3195
  624TMC3    C4 9241   0.332   2.275  16.838  0.2583  0.4946 -0.1610
  624TMC3    C5 9242   0.259   2.345  16.742  0.0949 -0.4234 -0.6652
  624TMC3    C6 9243   0.226   2.478  16.766 -0.0315 -0.7538 -0.1974
  624TMC3     C 9244   0.454   2.262  17.048  0.0855  0.0768  0.0827
  624TMC3     O 9245   0.493   2.316  17.147  0.4348 -0.2530 -0.6442
  624TMC3     H 9246   0.342   2.509  17.082 -1.1959  2.5124 -0.9719
  624TMC3    H1 9247   0.345   2.169  16.823  1.3278 -0.0588  4.8490
  624TMC3    H2 9248   0.162   2.544  16.709 -0.7158 -0.4443  0.9299
  624TMC3    C7 9249   0.196   2.282  16.631 -0.6940  0.0711  0.6576
  624TMC3    C8 9250   0.161   2.622  16.934  0.7892  0.2832 -0.1592
  624TMC3    O1 9251   0.209   2.167  16.615 -0.0687 -0.2947  0.1112
  624TMC3    O2 9252   0.052   2.573  16.973  0.2707 -0.0064  0.2319
  625MPD2     C 9253   0.252   3.580   0.416 -0.4005  0.3336 -0.0817
  625MPD2    C1 9254   0.376   3.634   0.414 -0.3558 -0.2485 -0.0317
  625MPD2    C2 9255   0.459   3.610   0.526  0.2230 -0.2931  0.2154
  625MPD2    C3 9256   0.420   3.518   0.621  0.4890 -0.1791 -0.6012
  625MPD2    C4 9257   0.303   3.451   0.613  0.0676 -0.4726 -0.0336
  625MPD2    C5 9258   0.215   3.484   0.512 -0.5245  0.3271 -0.1731
  625MPD2     H 9259   0.555   3.661   0.538  1.3474 -2.2605 -0.3838
  625MPD2    H1 9260   0.273   3.382   0.691  1.2158  1.3402  2.0389
  625MPD2    H2 9261   0.178   3.613   0.344  0.3785 -0.8479 -1.4265
  625MPD2    H3 9262   0.116   3.442   0.501 -1.5571  2.7180 -0.0376
  625MPD2     N 9263   0.514   3.493   0.726  0.4738  0.2493 -0.3968
  625MPD2    H5 9264   0.603   3.540   0.719  2.3253 -3.1085  0.6230
  625MPD2    N1 9265   0.417   3.724   0.309 -0.0891  0.6186  0.1444
  625MPD2    H7 9266   0.509   3.766   0.313  0.0496  0.5715 -2.2343
  626TMC3    C1 9267   0.398   3.862   0.125  0.2364  0.1459  0.8727
  626TMC3    C2 9268   0.341   3.887   0.002 -0.0696  0.4399 -0.2670
  626TMC3    C3 9269   0.377   4.007  17.646 -0.4831 -0.9848  0.0979
  626TMC3    C4 9270   0.470   3.959   0.195 -0.1265  0.4351 -0.2358
  626TMC3    C5 9271   0.500   4.073   0.128 -0.0672  0.3049 -0.2409
  626TMC3    C6 9272   0.451   4.104   0.004 -0.2375 -0.0750  0.3709
  626TMC3     C 9273   0.350   3.741   0.192 -0.2084 -0.4930 -0.6043
  626TMC3     O 9274   0.262   3.670   0.143  0.6200 -0.1706 -0.1415
  626TMC3     H 9275   0.277   3.814  17.657  2.3514 -0.3737 -2.2303
  626TMC3    H1 9276   0.524   3.950   0.289 -0.8890 -1.2412  0.0434
  626TMC3    H2 9277   0.456   4.199  17.657 -1.8171 -0.3587 -0.3197
  626TMC3    C7 9278   0.600   4.171   0.176  0.4774 -0.5930  0.3170
  626TMC3    C8 9279   0.300   4.039  17.525  0.2883  0.8794 -0.1712
  626TMC3    O1 9280   0.643   4.255   0.100 -0.1453 -0.2964 -0.2048
  626TMC3    O2 9281   0.302   3.965  17.428  0.2225  0.2939  0.4923
  627MPD2     C 9282   4.112   4.312  14.667  0.6603 -0.0136 -0.9624
  627MPD2    C1 9283   4.170   4.208  14.601 -0.2637  0.4085 -0.5836
  627MPD2    C2 9284   4.104   4.085  14.581 -0.2789 -0.0011 -0.1939
  627MPD2    C3 9285   3.975   4.069  14.628 -0.3235 -1.7494  0.2386
  627MPD2    C4 9286   3.919   4.171  14.697  0.0007  0.3534 -0.4441
  627MPD2    C5 9287   3.982   4.292  14.704 -0.4270 -0.0136 -0.1745
  627MPD2     H 9288   4.154   4.008  14.524 -0.1132 -0.1965  0.2100
  627MPD2    H1 9289   3.818   4.174  14.735  0.5022  2.3298  0.7524
  627MPD2    H2 9290   4.152   4.412  14.683  0.9976  0.0210 -2.0032
  627MPD2    H3 9291   3.928   4.377  14.746  0.7284  1.6042 -1.9470
  627MPD2     N 9292   3.906   3.945  14.632 -0.4187 -0.6116  0.6376
  627MPD2    H5 9293   3.814   3.951  14.674  1.4145 -0.6514  4.6362
  627MPD2    N1 9294   4.305   4.210  14.552  0.0250  0.0166 -0.4231
  627MPD2    H7 9295   4.344   4.124  14.514 -2.1898 -0.2234 -2.0916
  628TMC3    C1 9296   4.513   4.300  14.484  0.4881 -0.0161  0.9389
  628TMC3    C2 9297   4.601   4.206  14.521 -0.1818 -1.2389 -0.3853
  628TMC3    C3 9298   0.004   4.222  14.483 -0.0940 -0.4055 -0.5887
  628TMC3    C4 9299   4.550   4.413  14.413 -0.6107  0.0091  1.0187
  628TMC3    C5 9300   4.683   4.430  14.382 -0.6132 -0.0366 -0.5689
  628TMC3    C6 9301   0.048   4.328  14.399  0.1892 -0.5005 -0.0389
  628TMC3     C 9302   4.390   4.319  14.561 -0.9689  0.1056 -0.0929
  628TMC3     O 9303   4.371   4.429  14.611 -0.2255  0.0579  0.8531
  628TMC3     H 9304   4.566   4.134  14.595 -0.2482 -1.1319 -0.3135
  628TMC3    H1 9305   4.471   4.483  14.392  0.0432  0.5028  0.2041
  628TMC3    H2 9306   0.151   4.359  14.408 -0.2652  1.3388 -1.1906
  628TMC3    C7 9307   0.006   4.559  14.333 -0.4863 -0.4035  0.3174
  628TMC3    C8 9308   0.124   4.149  14.536  0.0039 -0.2116 -0.3137
  628TMC3    O1 9309   0.120   4.554  14.283 -0.8048  0.2133 -0.6290
  628TMC3    O2 9310   0.228   4.167  14.473  0.3387  0.1965  0.4821
  629MPD2     C 9311   1.976   3.156  16.133 -0.6190  0.7503  0.3833
  629MPD2    C1 9312   2.037   3.037  16.163  0.8949 -0.1985 -0.0372
  629MPD2    C2 9313   1.954   2.921  16.182 -0.1772 -0.5044  0.0190
  629MPD2    C3 9314   1.813   2.941  16.180 -0.5607 -0.0688 -0.2623
  629MPD2    C4 9315   1.757   3.064  16.160  0.1165  0.1178  1.2964
  629MPD2    C5 9316   1.839   3.176  16.139 -0.1167 -0.0198 -0.0662
  629MPD2     H 9317   2.004   2.827  16.201 -1.4723 -1.1734  0.1119
  629MPD2    H1 9318   1.649   3.068  16.158  0.1424  0.2463  0.4340
  629MPD2    H2 9319   2.042   3.240  16.118 -0.6272  0.5006 -1.0980
  629MPD2    H3 9320   1.788   3.272  16.139 -2.2078 -1.1133  4.1326
  629MPD2     N 9321   1.741   2.825  16.210  0.0130 -0.1851 -0.3455
  629MPD2    H5 9322   1.797   2.741  16.212 -0.1659 -0.2895  0.7136
  629MPD2    N1 9323   2.181   3.028  16.182  0.6407  0.0419 -0.1078
  629MPD2    H7 9324   2.233   3.110  16.153  0.4707  0.7818  1.6812
  630TMC3    C1 9325   2.390   2.922  16.214 -0.1796  0.3796  0.4468
  630TMC3    C2 9326   2.450   3.039  16.242  0.0620 -0.4280 -0.2219
  630TMC3    C3 9327   2.586   3.033  16.260  0.1049  0.0897  0.0666
  630TMC3    C4 9328   2.453   2.802  16.223  0.5460 -0.0498 -0.2823
  630TMC3    C5 9329   2.590   2.802  16.237  0.1889  0.9920 -0.2061
  630TMC3    C6 9330   2.660   2.920  16.248  0.5480  0.0067  0.8293
  630TMC3     C 9331   2.250   2.920  16.232  0.0954 -1.0888  0.6100
  630TMC3     O 9332   2.203   2.834  16.304 -0.0933 -0.1830  0.4478
  630TMC3     H 9333   2.401   3.134  16.262 -0.7730 -0.5016 -1.9402
  630TMC3    H1 9334   2.404   2.705  16.219  0.0297  0.2879 -2.1886
  630TMC3    H2 9335   2.767   2.934  16.249  0.2977  1.8273  1.6787
  630TMC3    C7 9336   2.660   2.678  16.261 -0.6962  0.3374  0.3783
  630TMC3    C8 9337   2.670   3.147  16.281 -0.7208 -0.0955  0.1639
  630TMC3    O1 9338   2.599   2.588  16.319 -0.3796  0.0767 -0.2518
  630TMC3    O2 9339   2.770   3.128  16.349 -1.1687 -0.1967 -0.0679
  631MPD2     C 9340   0.302   2.521  15.297  0.1773  0.5886 -0.2512
  631MPD2    C1 9341   0.413   2.547  15.223 -0.2708 -0.2401 -0.4473
  631MPD2    C2 9342   0.535   2.493  15.249  0.6137  0.0646  0.3530
  631MPD2    C3 9343   0.543   2.410  15.359 -0.5630  0.6865 -0.0392
  631MPD2    C4 9344   0.435   2.382  15.443  0.1280  0.0685 -0.1321
  631MPD2    C5 9345   0.316   2.433  15.404 -0.2594  0.0284 -0.0371
  631MPD2     H 9346   0.627   2.516  15.195  1.6148 -2.1471  1.1091
  631MPD2    H1 9347   0.438   2.312  15.526 -1.6179  0.3513  0.1749
  631MPD2    H2 9348   0.215   2.583  15.280 -0.6360 -0.5543 -0.2323
  631MPD2    H3 9349   0.227   2.407  15.460  0.4524  0.1599  1.1454
  631MPD2     N 9350   0.671   2.360  15.402 -0.6002  0.3317  0.3213
  631MPD2    H5 9351   0.747   2.373  15.336 -0.0976  2.1380  1.2733
  631MPD2    N1 9352   0.397   2.633  15.122 -0.7044  0.3109 -0.0537
  631MPD2    H7 9353   0.311   2.687  15.114 -0.0156  1.2089 -1.3918
  632TMC3    C1 9354   0.468   2.794  14.971 -0.1086  0.0439 -0.4669
  632TMC3    C2 9355   0.448   2.888  15.078  0.0621  0.1629  0.2142
  632TMC3    C3 9356   0.537   2.998  15.080  0.1895  0.1614  0.2660
  632TMC3    C4 9357   0.555   2.829  14.866 -0.6074  0.0620  0.0752
  632TMC3    C5 9358   0.645   2.928  14.883  0.2784 -0.8852 -1.0992
  632TMC3    C6 9359   0.642   3.022  14.991 -0.2798 -0.1658  0.0777
  632TMC3     C 9360   0.480   2.656  15.013 -0.0130  0.2504 -0.2346
  632TMC3     O 9361   0.583   2.601  14.970 -0.4192  0.2790 -0.4279
  632TMC3     H 9362   0.368   2.877  15.150  0.4548 -2.5556  0.2174
  632TMC3    H1 9363   0.583   2.753  14.795  0.8210 -0.4414  1.1616
  632TMC3    H2 9364   0.719   3.098  15.001 -0.7946  0.5535 -1.5288
  632TMC3    C7 9365   0.731   2.958  14.779  0.1565 -0.3537 -0.7219
  632TMC3    C8 9366   0.548   3.068  15.210 -0.4908  1.1709  0.0786
  632TMC3    O1 9367   0.690   2.928  14.669 -0.0083  0.2536  0.0982
  632TMC3    O2 9368   0.656   3.118  15.239  0.3684 -0.1588 -0.1455
  633MPD2     C 9369   0.510   0.716  17.367  0.2251  0.0046  0.2196
  633MPD2    C1 9370   0.527   0.634  17.255  0.0040 -0.3870  0.0301
  633MPD2    C2 9371   0.549   0.500  17.278  0.1423 -0.6197  0.3754
  633MPD2    C3 9372   0.577   0.450  17.403 -0.0701  0.1428 -0.3772
  633MPD2    C4 9373   0.568   0.534  17.514  0.0702  0.4658  0.9956
  633MPD2    C5 9374   0.541   0.670  17.496 -0.0997  0.0983 -0.2469
  633MPD2     H 9375   0.567   0.440  17.189  2.7564 -1.0808  1.2322
  633MPD2    H1 9376   0.593   0.499  17.614 -1.8226  3.2812  2.4860
  633MPD2    H2 9377   0.493   0.821  17.348  0.7707 -0.1614 -1.1416
  633MPD2    H3 9378   0.539   0.742  17.577 -1.3483  0.1192 -0.2933
  633MPD2     N 9379   0.635   0.324  17.422 -0.6948  0.8261  0.4655
  633MPD2    H5 9380   0.685   0.319  17.511  0.8868  0.8560 -0.4269
  633MPD2    N1 9381   0.503   0.672  17.119  0.5221 -0.4159  0.0542
  633MPD2    H7 9382   0.503   0.593  17.055 -4.3381  1.3585 -2.0806
  634TMC3    C1 9383   0.482   0.811  16.923  0.1105  0.0900  0.5394
  634TMC3    C2 9384   0.486   0.694  16.842  0.5659  0.5642 -0.2387
  634TMC3    C3 9385   0.499   0.705  16.704 -0.3535  0.5629  0.1655
  634TMC3    C4 9386   0.469   0.931  16.864  0.1854  0.0829 -0.0833
  634TMC3    C5 9387   0.457   0.933  16.728 -0.6143  0.0537  0.4477
  634TMC3    C6 9388   0.482   0.831  16.643  0.0001  0.1710 -0.1528
  634TMC3     C 9389   0.497   0.803  17.069  0.1560  0.0797  0.4902
  634TMC3     O 9390   0.489   0.902  17.136  0.2388 -0.4825  0.0841
  634TMC3     H 9391   0.524   0.602  16.884 -1.6822 -0.1461  0.2341
  634TMC3    H1 9392   0.481   1.018  16.929  1.1373  2.0066 -2.8370
  634TMC3    H2 9393   0.469   0.852  16.538  1.6200  0.2210 -0.3375
  634TMC3    C7 9394   0.417   1.058  16.662 -0.1077 -0.6159 -0.9126
  634TMC3    C8 9395   0.535   0.577  16.634  0.3197  0.5102 -1.3485
  634TMC3    O1 9396   0.453   1.073  16.547 -0.1852  0.4428 -0.1984
  634TMC3    O2 9397   0.520   0.467  16.688 -0.1913  0.1327  0.6972
  635TMC3    C1 9398   0.819   1.895  17.430 -0.2000 -0.0824 -0.3431
  635TMC3    C2 9399   0.827   1.754  17.423 -0.2145 -0.5795 -0.2451
  635TMC3    C3 9400   0.709   1.688  17.410 -0.7058 -0.4098 -0.3289
  635TMC3    C4 9401   0.700   1.965  17.419 -0.2346  0.3061  0.1594
  635TMC3    C5 9402   0.580   1.895  17.408  0.1905 -0.6251 -0.1666
  635TMC3    C6 9403   0.592   1.757  17.408  0.2408 -0.4654 -0.2458
  635TMC3     C 9404   0.928   1.973  17.491  0.5180 -0.6855 -0.7782
  635TMC3     O 9405   0.893   2.080  17.540  0.1115 -0.1492 -0.1866
  635TMC3     H 9406   0.926   1.710  17.435  0.1012  0.4403  0.9444
  635TMC3    H1 9407   0.706   2.073  17.418 -2.1768  0.4199  0.3653
  635TMC3    H2 9408   0.500   1.699  17.411  0.3856 -0.6685  0.3226
  635TMC3    C7 9409   0.479   1.942  17.500  0.2719 -0.2304 -0.2116
  635TMC3    C8 9410   0.702   1.546  17.429  0.0534  0.1644 -0.1411
  635TMC3    O1 9411   0.368   1.892  17.495  0.3734 -0.3906 -0.2149
  635TMC3    O2 9412   0.786   1.483  17.365 -0.5084 -0.5620 -0.2825
  636MPD2     C 9413   1.662   0.985  16.023  0.0805 -0.2300 -0.2927
  636MPD2    C1 9414   1.718   1.018  16.149  0.1687  0.2486 -0.7223
  636MPD2    C2 9415   1.789   0.922  16.218 -0.2070 -0.7899  0.4750
  636MPD2    C3 9416   1.815   0.801  16.159 -0.2394  0.4929 -0.1252
  636MPD2    C4 9417   1.758   0.767  16.036  0.2797  0.2911 -0.0871
  636MPD2    C5 9418   1.680   0.861  15.977 -0.2697 -0.5227  0.1240
  636MPD2     H 9419   1.836   0.943  16.313  2.1060  0.3042 -0.9105
  636MPD2    H1 9420   1.772   0.667  15.996  2.0759  0.4840  0.0591
  636MPD2    H2 9421   1.608   1.054  15.959 -1.2655 -0.9597  0.0641
  636MPD2    H3 9422   1.641   0.835  15.879 -2.1742 -0.1556  0.7876
  636MPD2     N 9423   1.903   0.714  16.228  0.0050  0.0429  0.1843
  636MPD2    H5 9424   1.945   0.752  16.312 -3.2149  1.0068  1.3490
  636MPD2    N1 9425   1.712   1.152  16.202  1.0457 -0.0489 -0.3472
  636MPD2    H7 9426   1.751   1.179  16.292  0.9215  0.0730 -0.3285
  637TMC3    C1 9427   2.054   0.549  16.279  0.3360 -0.0812 -0.2176
  637TMC3    C2 9428   2.033   0.602  16.406 -0.1686 -0.6798 -0.1031
  637TMC3    C3 9429   2.139   0.654  16.472  0.2310  0.1344  0.2600
  637TMC3    C4 9430   2.174   0.533  16.218 -0.2407  0.4918 -0.3801
  637TMC3    C5 9431   2.276   0.584  16.288  0.1488  0.0837 -0.1188
  637TMC3    C6 9432   2.260   0.632  16.413  0.0678  0.6086  0.1405
  637TMC3     C 9433   1.966   0.602  16.175 -0.6096  0.3020 -0.0412
  637TMC3     O 9434   1.974   0.553  16.063  0.4442 -0.6199 -0.1930
  637TMC3     H 9435   1.936   0.603  16.454  0.0514  2.2608  0.2486
  637TMC3    H1 9436   2.169   0.488  16.119  1.6161 -2.1021  0.7082
  637TMC3    H2 9437   2.352   0.674  16.452  0.5107  0.2301 -0.4825
  637TMC3    C7 9438   2.363   0.663  16.210  0.3500  0.1190  0.4176
  637TMC3    C8 9439   2.116   0.790  16.500  0.6419  0.4613 -0.3951
  637TMC3    O1 9440   2.412   0.763  16.265  0.2578  0.0372  0.2873
  637TMC3    O2 9441   2.033   0.846  16.429 -0.3211 -1.1409  0.2324
  638MPD2     C 9442   1.715   0.231  14.721  0.3567  0.7609  0.3954
  638MPD2    C1 9443   1.613   0.158  14.662 -0.0836  0.3201 -0.3317
  638MPD2    C2 9444   1.577   0.035  14.715  0.0438  0.1257 -0.0750
  638MPD2    C3 9445   1.639   4.708  14.823  0.2286  0.2834 -0.1746
  638MPD2    C4 9446   1.742   0.057  14.883 -0.7172  0.3924 -0.1734
  638MPD2    C5 9447   1.770   0.178  14.836  0.3442  0.8348  1.2100
  638MPD2     H 9448   1.517   4.693  14.655  0.5346  1.5901 -2.2348
  638MPD2    H1 9449   1.793   0.020  14.971 -0.2694 -0.0223 -0.6029
  638MPD2    H2 9450   1.752   0.328  14.690  0.9594  0.3554 -0.1519
  638MPD2    H3 9451   1.841   0.237  14.892 -1.0431  1.4782  2.3226
  638MPD2     N 9452   1.606   4.580  14.868  0.1034  0.3175 -0.5467
  638MPD2    H5 9453   1.518   4.539  14.839 -0.6982  1.1111  0.7143
  638MPD2    N1 9454   1.563   0.204  14.541  0.1454  0.7085 -0.0577
  638MPD2    H7 9455   1.621   0.275  14.498 -0.5779  0.8190 -0.8607
  639TMC3    C1 9456   1.599   4.380  14.975 -0.1840 -0.9380  0.9456
  639TMC3    C2 9457   1.472   4.371  14.936  0.3655 -0.1527 -0.2982
  639TMC3    C3 9458   1.410   4.253  14.968  0.3272 -0.3231 -1.1315
  639TMC3    C4 9459   1.656   4.284  15.060  0.1179 -0.3092  0.6937
  639TMC3    C5 9460   1.580   4.183  15.109 -0.2150  0.3861  0.0616
  639TMC3    C6 9461   1.454   4.164  15.062 -0.1551  0.6396  0.0909
  639TMC3     C 9462   1.678   4.501  14.954  1.2459  0.7607 -0.4129
  639TMC3     O 9463   1.784   4.526  15.012  0.1179  0.1071  0.0035
  639TMC3     H 9464   1.416   4.439  14.873 -1.1556 -2.0934 -1.0313
  639TMC3    H1 9465   1.752   4.301  15.107 -0.2835  1.8768  0.7348
  639TMC3    H2 9466   1.405   4.071  15.086  0.5335 -0.5221 -2.9770
  639TMC3    C7 9467   1.640   4.060  15.157 -0.3002  0.1369 -0.3911
  639TMC3    C8 9468   1.298   4.213  14.886 -0.2031  0.1995  0.7736
  639TMC3    O1 9469   1.573   3.973  15.215  0.4165 -0.3488  0.1829
  639TMC3    O2 9470   1.299   4.264  14.775  0.1454  0.3423 -0.5728
  640MPD2     C 9471   2.532   3.795   9.661  0.3708  1.1049  0.8181
  640MPD2    C1 9472   2.405   3.752   9.615  0.0224  0.2066  0.1909
  640MPD2    C2 9473   2.294   3.836   9.621  0.8746 -0.9415  0.2914
  640MPD2    C3 9474   2.307   3.974   9.658 -0.0089 -0.7560  0.5141
  640MPD2    C4 9475   2.434   4.016   9.687  0.3504 -0.1716 -0.3863
  640MPD2    C5 9476   2.538   3.928   9.691 -0.6597  0.2499  0.1527
  640MPD2     H 9477   2.197   3.797   9.591  0.3108  0.8226 -0.2447
  640MPD2    H1 9478   2.458   4.120   9.702  2.1485 -0.8420  1.4342
  640MPD2    H2 9479   2.628   3.745   9.651 -1.5650 -1.7681 -3.5375
  640MPD2    H3 9480   2.631   3.964   9.733  0.2281 -1.0263 -0.7319
  640MPD2     N 9481   2.196   4.061   9.656  0.0868  0.4261  0.6434
  640MPD2    H5 9482   2.214   4.161   9.661 -0.9902  0.7045 -1.0031
  640MPD2    N1 9483   2.406   3.621   9.555  0.6608  0.0878 -0.0421
  640MPD2    H7 9484   2.495   3.572   9.553  0.6476  0.0395  0.5714
  641TMC3    C1 9485   2.345   3.453   9.396  0.2793  0.2008  0.1369
  641TMC3    C2 9486   2.430   3.354   9.445 -0.6770  0.1859  0.4433
  641TMC3    C3 9487   2.456   3.243   9.363 -0.0413 -0.6592 -0.0213
  641TMC3    C4 9488   2.281   3.438   9.279  0.6152  0.0899  0.2093
  641TMC3    C5 9489   2.312   3.336   9.201  0.8302  0.1905 -0.3012
  641TMC3    C6 9490   2.386   3.229   9.240  0.0580  0.1245 -0.1952
  641TMC3     C 9491   2.298   3.560   9.487  0.6176  0.0784 -0.4796
  641TMC3     O 9492   2.186   3.606   9.474  0.4479  0.1200  0.3405
  641TMC3     H 9493   2.465   3.370   9.546 -0.0980  1.0135  0.1083
  641TMC3    H1 9494   2.220   3.518   9.238 -0.1279  0.0804  1.2832
  641TMC3    H2 9495   2.408   3.153   9.167  0.7110  1.6225 -1.5583
  641TMC3    C7 9496   2.259   3.343   9.067  0.2004  0.4183 -0.2194
  641TMC3    C8 9497   2.537   3.124   9.412 -0.6536  0.4314 -0.1206
  641TMC3    O1 9498   2.205   3.449   9.034  0.7784 -0.2834 -0.0498
  641TMC3    O2 9499   2.549   3.036   9.327  0.2972  0.2259 -0.1646
  642TMC3    C1 9500   3.052   4.574  12.022 -0.7712  0.3245 -0.7468
  642TMC3    C2 9501   3.103   4.526  12.142  0.1876  0.5885 -0.4409
  642TMC3    C3 9502   3.102   4.391  12.158 -0.0569  0.5214 -0.2301
  642TMC3    C4 9503   3.010   4.488  11.924  0.8497  0.8338 -0.1885
  642TMC3    C5 9504   3.020   4.350  11.949 -0.1720 -0.0534  0.0083
  642TMC3    C6 9505   3.055   4.295  12.066  0.8474  0.2200  0.0920
  642TMC3     C 9506   3.056   4.719  12.004  0.2963 -0.1727  0.6347
  642TMC3     O 9507   3.058   0.030  11.884 -0.4689  0.5110  0.2695
  642TMC3     H 9508   3.141   4.595  12.217  0.4003 -0.5635  0.5077
  642TMC3    H1 9509   2.961   4.529  11.837 -1.3506  2.1809  1.6838
  642TMC3    H2 9510   3.090   4.193  12.076  0.0676  0.0069  0.6660
  642TMC3    C7 9511   2.981   4.268  11.832 -0.9308 -1.1450  0.3535
  642TMC3    C8 9512   3.147   4.339  12.285 -0.4446  0.5245  0.3172
  642TMC3    O1 9513   2.985   4.318  11.721  0.1237  0.4164  0.4691
  642TMC3    O2 9514   3.103   4.230  12.319  0.1707  0.2928  0.3767
  643TMC3    C1 9515   2.264   3.315  17.366  0.0135 -0.4332  0.3794
  643TMC3    C2 9516   2.146   3.337  17.298  0.6367  0.6197  0.4973
  643TMC3    C3 9517   2.161   3.332  17.164 -0.8698  0.7057  0.3090
  643TMC3    C4 9518   2.380   3.281  17.299  0.6297  0.3256  0.3778
  643TMC3    C5 9519   2.389   3.286  17.163  0.0034 -0.1682 -0.0737
  643TMC3    C6 9520   2.278   3.318  17.091  0.0326  0.3068 -0.4146
  643TMC3     C 9521   2.279   3.411  17.470  0.3232 -0.7329  0.2295
  643TMC3     O 9522   2.213   3.512  17.438 -0.9208  0.2345  0.0926
  643TMC3     H 9523   2.054   3.353  17.352 -0.2942  1.1383 -1.2524
  643TMC3    H1 9524   2.470   3.265  17.357 -0.9151 -0.2381  2.6272
  643TMC3    H2 9525   2.282   3.313  16.983  1.4012  0.4757 -0.3671
  643TMC3    C7 9526   2.517   3.329  17.121  0.2741 -0.2052  0.8713
  643TMC3    C8 9527   2.080   3.425  17.101 -0.4576  0.0065 -0.6846
  643TMC3    O1 9528   2.615   3.285  17.177 -0.0464 -0.4089  0.4579
  643TMC3    O2 9529   2.024   3.384  16.998  0.6077 -0.2963  0.1123
  644MPD2     C 9530   2.689   3.190   8.903 -0.0114  0.0361 -0.2467
  644MPD2    C1 9531   2.699   3.259   9.023  0.3750  0.0802 -0.4988
  644MPD2    C2 9532   2.632   3.377   9.022  0.3917 -0.1664  0.0577
  644MPD2    C3 9533   2.555   3.423   8.918 -0.8273 -0.9662  0.2669
  644MPD2    C4 9534   2.548   3.355   8.793  0.2498 -0.3052  0.0842
  644MPD2    C5 9535   2.612   3.231   8.793 -0.2857  0.2439 -0.7854
  644MPD2     H 9536   2.628   3.441   9.109  0.1215  0.4458 -0.3985
  644MPD2    H1 9537   2.484   3.379   8.708  0.1682  1.4770  0.6345
  644MPD2    H2 9538   2.733   3.091   8.905 -1.8234 -0.7545  1.0679
  644MPD2    H3 9539   2.590   3.167   8.709 -0.9722 -1.3233  0.5858
  644MPD2     N 9540   2.488   3.548   8.929 -0.0272 -0.2142  0.7171
  644MPD2    H5 9541   2.480   3.586   9.023 -1.4316  0.3427  0.3688
  644MPD2    N1 9542   2.770   3.213   9.138 -0.3059  0.6527 -0.0395
  644MPD2    H7 9543   2.828   3.133   9.114 -2.3995 -0.9435  0.2029
  645TMC3    C1 9544   2.359   3.740   8.891 -0.9995  0.2751  0.5103
  645TMC3    C2 9545   2.236   3.770   8.843 -0.1020  0.5808  0.0596
  645TMC3    C3 9546   2.184   3.893   8.872 -0.0854 -0.2344 -0.8883
  645TMC3    C4 9547   2.442   3.831   8.945 -1.0897  0.3125  0.6771
  645TMC3    C5 9548   2.393   3.957   8.957  0.3870  0.1623 -0.1052
  645TMC3    C6 9549   2.262   3.995   8.923  0.1781 -0.5176 -1.0684
  645TMC3     C 9550   2.423   3.619   8.832 -0.0795  0.2828 -0.2151
  645TMC3     O 9551   2.415   3.602   8.712  0.2970  0.4279  0.3301
  645TMC3     H 9552   2.190   3.687   8.791  1.3348 -0.4762  0.4536
  645TMC3    H1 9553   2.547   3.819   8.967 -0.8560  0.7491 -0.2283
  645TMC3    H2 9554   2.221   4.093   8.941 -2.0380 -1.9393  1.6301
  645TMC3    C7 9555   2.486   4.057   9.012  0.2998 -0.5254 -0.0408
  645TMC3    C8 9556   2.057   3.926   8.816  0.2451 -0.0094  0.5106
  645TMC3    O1 9557   2.570   4.015   9.087 -0.0036 -0.1728 -0.3873
  645TMC3    O2 9558   2.045   4.045   8.780  0.1169 -0.3186 -0.3016
  646MPD2     C 9559   1.664   3.441  14.378  0.8507  0.0263  0.0136
  646MPD2    C1 9560   1.577   3.417  14.481  0.7071  0.2393 -0.3161
  646MPD2    C2 9561   1.444   3.462  14.475 -0.5463  0.3340 -0.0361
  646MPD2    C3 9562   1.398   3.530  14.359 -0.0469  0.1510 -0.6840
  646MPD2    C4 9563   1.489   3.550  14.254 -0.0262  0.1071 -0.2008
  646MPD2    C5 9564   1.619   3.506  14.265  0.9926  0.0465  0.1130
  646MPD2     H 9565   1.369   3.444  14.550  0.3789 -0.9498  0.5918
  646MPD2    H1 9566   1.462   3.613  14.171  1.2173  2.2713  1.0314
  646MPD2    H2 9567   1.766   3.405  14.380  1.0102  0.6109  2.0405
  646MPD2    H3 9568   1.694   3.526  14.190  0.6889  1.6466  0.2443
  646MPD2     N 9569   1.271   3.583  14.350  0.0426  0.0747 -0.6997
  646MPD2    H5 9570   1.215   3.552  14.429 -1.1712  0.1272 -1.5436
  646MPD2    N1 9571   1.627   3.354  14.595  0.2594 -0.1163 -0.2081
  646MPD2    H7 9572   1.722   3.317  14.590  0.0780 -0.7771  1.2395
  647TMC3    C1 9573   1.651   3.243  14.799 -0.4549 -0.0282 -0.3934
  647TMC3    C2 9574   1.591   3.142  14.869  0.5485 -0.3349 -0.4244
  647TMC3    C3 9575   1.673   3.077  14.958 -0.3807  0.4987  0.0785
  647TMC3    C4 9576   1.784   3.281  14.802 -0.8507 -0.2932 -0.8619
  647TMC3    C5 9577   1.858   3.204  14.886 -0.1896 -0.2279 -0.5141
  647TMC3    C6 9578   1.811   3.095  14.957  0.0453  0.3212  0.6317
  647TMC3     C 9579   1.563   3.320  14.708 -0.1144  0.5105 -0.1083
  647TMC3     O 9580   1.444   3.325  14.737  0.9375 -0.6110  0.0758
  647TMC3     H 9581   1.490   3.116  14.840 -0.6680  0.4517  3.1394
  647TMC3    H1 9582   1.819   3.373  14.755  0.8050  0.1571  1.2489
  647TMC3    H2 9583   1.874   3.048  15.031  0.9690 -1.2710 -1.1525
  647TMC3    C7 9584   2.000   3.225  14.895 -0.0075  0.0647 -0.7848
  647TMC3    C8 9585   1.621   2.978  15.055  0.1678 -0.3701 -0.0374
  647TMC3    O1 9586   2.046   3.166  14.991  0.6083 -0.2771  0.4913
  647TMC3    O2 9587   1.702   2.898  15.107 -0.1026 -0.5032  1.1753
  648TMC3    C1 9588   0.956   0.855  15.932 -0.0387 -0.1587  0.3463
  648TMC3    C2 9589   1.078   0.802  15.884 -0.2124 -0.2783  0.6270
  648TMC3    C3 9590   1.129   0.870  15.781  0.7369  0.5088  0.0557
  648TMC3    C4 9591   0.896   0.964  15.878  0.8194  0.1369  0.1738
  648TMC3    C5 9592   0.941   1.007  15.756 -0.4371  0.1054 -0.7105
  648TMC3    C6 9593   1.062   0.971  15.712  0.4042 -0.4477  0.3376
  648TMC3     C 9594   0.894   0.803  16.050  0.1226 -0.2179 -0.2398
  648TMC3     O 9595   0.880   0.678  16.043  0.1826 -0.5619  0.1198
  648TMC3     H 9596   1.117   0.709  15.925  0.5538  0.0104  0.5564
  648TMC3    H1 9597   0.812   0.997  15.937  1.1908  1.7904 -0.2374
  648TMC3    H2 9598   1.114   1.016  15.629  1.3792  1.0621  1.7593
  648TMC3    C7 9599   0.875   1.119  15.684 -0.2286  0.6000  0.0933
  648TMC3    C8 9600   1.259   0.830  15.746  0.2822 -0.3822 -0.0799
  648TMC3    O1 9601   0.918   1.139  15.572 -0.7443 -0.1983  0.4878
  648TMC3    O2 9602   1.278   0.857  15.627 -0.0726 -0.2788 -0.3440
  649TMC3    C1 9603   0.150   2.227  12.851  0.8093  1.1731 -0.5482
  649TMC3    C2 9604   0.279   2.223  12.888  0.0711  1.0535  0.1417
  649TMC3    C3 9605   0.308   2.182  13.016  0.2775 -0.0074 -0.1059
  649TMC3    C4 9606   0.051   2.192  12.941  0.7101 -0.3385 -0.2268
  649TMC3    C5 9607   0.086   2.165  13.069 -0.3391  0.1288 -0.1019
  649TMC3    C6 9608   0.216   2.157  13.108 -0.1713  0.4975  1.0234
  649TMC3     C 9609   0.104   2.257  12.717 -0.7232 -0.2023  0.8787
  649TMC3     O 9610   4.707   2.272  12.707  0.0699 -0.6047  0.3510
  649TMC3     H 9611   0.355   2.250  12.816 -0.4360  1.4746 -0.2299
  649TMC3    H1 9612   4.670   2.190  12.921  1.2094  0.2667 -2.9113
  649TMC3    H2 9613   0.243   2.116  13.205  0.4591  0.8317  0.9866
  649TMC3    C7 9614   4.701   2.115  13.153  0.4289 -0.6829  0.1032
  649TMC3    C8 9615   0.448   2.159  13.053  0.2595  0.4634 -0.4681
  649TMC3    O1 9616   4.610   2.190  13.185 -0.6192 -0.0267  0.5112
  649TMC3    O2 9617   0.469   2.082  13.145 -0.0983  0.2752  0.6390
  650TMC3    C1 9618   2.466   4.011  12.716  0.0731  0.1699 -0.0797
  650TMC3    C2 9619   2.412   4.124  12.782 -0.0575  0.8350  0.2982
  650TMC3    C3 9620   2.423   4.242  12.714  0.1244 -0.4307  0.0765
  650TMC3    C4 9621   2.525   4.017  12.594 -0.0685 -0.4614 -0.6889
  650TMC3    C5 9622   2.532   4.141  12.532 -0.9314 -0.3526  0.6679
  650TMC3    C6 9623   2.487   4.258  12.592 -0.1331  0.4533 -0.5518
  650TMC3     C 9624   2.483   3.887  12.792  0.7896  0.2284  0.8247
  650TMC3     O 9625   2.439   3.900  12.904 -0.6626 -0.0246 -0.2118
  650TMC3     H 9626   2.361   4.122  12.878 -2.2762 -1.1568 -0.9230
  650TMC3    H1 9627   2.540   3.926  12.537  2.7844  1.3818 -2.8412
  650TMC3    H2 9628   2.502   4.358  12.552 -1.6708  1.2965  0.9816
  650TMC3    C7 9629   2.564   4.137  12.387  0.2336  0.0547  0.1530
  650TMC3    C8 9630   2.383   4.370  12.765  0.2009  0.2547  0.1766
  650TMC3    O1 9631   2.595   4.032  12.333  0.2602  0.0901 -0.1276
  650TMC3    O2 9632   2.478   4.455  12.773 -0.1280 -0.4476 -0.3871
  651MPD2     C 9633   1.754   0.847  10.776 -0.0540 -0.2488  0.3081
  651MPD2    C1 9634   1.726   0.980  10.804  0.7931 -0.0773 -0.2682
  651MPD2    C2 9635   1.827   1.078  10.794 -0.4123  0.0352 -0.6037
  651MPD2    C3 9636   1.948   1.041  10.751 -0.2406 -0.3853 -0.6988
  651MPD2    C4 9637   1.981   0.904  10.739  0.2702 -0.8612  0.7129
  651MPD2    C5 9638   1.885   0.815  10.763 -0.0510 -0.0581 -0.2594
  651MPD2     H 9639   1.805   1.182  10.813 -0.3463 -0.2637  1.0619
  651MPD2    H1 9640   2.081   0.871  10.715  0.3115 -1.3622  1.5483
  651MPD2    H2 9641   1.680   0.767  10.776 -0.2154 -0.0788  2.6736
  651MPD2    H3 9642   1.910   0.710  10.756 -4.5045 -1.2293  1.2883
  651MPD2     N 9643   2.037   1.149  10.729  0.0254  0.1790 -0.1156
  651MPD2    H5 9644   2.017   1.239  10.772  0.9954 -0.4586  1.6744
  651MPD2    N1 9645   1.598   1.027  10.835  0.4200 -0.3323  0.1441
  651MPD2    H7 9646   1.584   1.126  10.850 -0.4771  0.0443 -3.0477
  652TMC3    C1 9647   2.391   1.402  10.576 -0.3990 -0.2338 -0.0698
  652TMC3    C2 9648   2.330   1.283  10.572  0.4711  0.0551 -0.0788
  652TMC3    C3 9649   2.203   1.283  10.618 -1.0293 -0.5369  0.0498
  652TMC3    C4 9650   2.328   1.518  10.610  0.5831  0.3288 -0.0437
  652TMC3    C5 9651   2.199   1.515  10.646 -0.3506 -1.0513  0.4615
  652TMC3    C6 9652   2.135   1.395  10.660  0.9395 -0.0194 -0.5129
  652TMC3     C 9653   2.540   1.384  10.572 -0.4926  0.3620  0.2153
  652TMC3     O 9654   2.591   1.275  10.599 -0.0361  0.3974 -0.2740
  652TMC3     H 9655   2.382   1.194  10.538 -1.7955 -0.8144 -1.3044
  652TMC3    H1 9656   2.388   1.606  10.631 -0.3878  0.9479  0.1742
  652TMC3    H2 9657   2.032   1.395  10.693  1.4923 -0.6732  1.2572
  652TMC3    C7 9658   2.154   1.631  10.728  0.2006 -0.0754 -0.3960
  652TMC3    C8 9659   2.149   1.151  10.642 -0.1455  0.1640  0.0800
  652TMC3    O1 9660   2.078   1.604  10.818  0.1103  0.1796 -0.0098
  652TMC3    O2 9661   2.187   1.059  10.571  0.4011  0.5344 -0.1342
  653MPD2     C 9662   0.167   0.621  17.417  0.0067 -1.0328 -0.6329
  653MPD2    C1 9663   0.104   0.742  17.380  0.3458 -0.3543  0.5165
  653MPD2    C2 9664   0.004   0.736  17.285  0.3007  0.2738  0.9631
  653MPD2    C3 9665   4.704   0.618  17.220  0.1187  0.4274  0.4378
  653MPD2    C4 9666   0.046   0.502  17.250  0.6769 -0.4416  0.0637
  653MPD2    C5 9667   0.142   0.508  17.346 -0.7017  0.1709 -0.7764
  653MPD2     H 9668   4.667   0.822  17.271 -1.4202 -1.6450 -3.1013
  653MPD2    H1 9669   0.023   0.408  17.200 -0.4798 -0.8219  1.3120
  653MPD2    H2 9670   0.241   0.622  17.497  0.1282 -1.7423 -0.7347
  653MPD2    H3 9671   0.186   0.413  17.373  0.3093  0.3486 -1.8104
  653MPD2     N 9672   4.617   0.629  17.104 -0.2364  0.1762  0.2079
  653MPD2    H5 9673   4.585   0.723  17.083  1.3310  0.9910  1.5001
  653MPD2    N1 9674   0.118   0.860  17.449 -0.0568 -0.0234 -0.3007
  653MPD2    H7 9675   0.065   0.938  17.412 -0.2368  0.0437  0.1014
  654TMC3    C1 9676   4.512   0.557  16.904  0.7717 -1.4798 -0.1423
  654TMC3    C2 9677   4.498   0.689  16.865 -0.6789 -0.6811  0.4282
  654TMC3    C3 9678   4.470   0.715  16.729  0.6553  0.5719  0.3499
  654TMC3    C4 9679   4.514   0.454  16.813 -0.0769 -0.2318 -0.4559
  654TMC3    C5 9680   4.492   0.487  16.684  0.0177  0.8335 -0.0993
  654TMC3    C6 9681   4.477   0.617  16.637  0.9823 -0.7444 -1.2874
  654TMC3     C 9682   4.575   0.524  17.029  0.5302  0.0598  0.2157
  654TMC3     O 9683   4.576   0.404  17.059 -0.0382 -0.2172 -1.0244
  654TMC3     H 9684   4.487   0.768  16.938 -1.3352  1.8578 -2.4113
  654TMC3    H1 9685   4.542   0.354  16.845 -0.3720 -0.9772 -2.5525
  654TMC3    H2 9686   4.434   0.628  16.539 -0.0607 -0.6385 -0.8182
  654TMC3    C7 9687   4.526   0.395  16.576 -0.1607  0.4540 -0.1111
  654TMC3    C8 9688   4.407   0.837  16.687  0.2327  0.4091 -0.0671
  654TMC3    O1 9689   4.532   0.446  16.463  0.3700  0.3974 -0.2584
  654TMC3    O2 9690   4.341   0.890  16.777  0.7227 -0.4582  0.2328
  655MPD2     C 9691   1.477   1.449  15.761 -0.2053  0.3419  0.2219
  655MPD2    C1 9692   1.385   1.535  15.703 -0.4793 -0.0484 -0.2569
  655MPD2    C2 9693   1.371   1.527  15.569  0.2287  0.2508 -0.0060
  655MPD2    C3 9694   1.451   1.443  15.492  0.4506  0.4476 -0.5639
  655MPD2    C4 9695   1.540   1.363  15.550 -0.1057 -0.0336 -0.1734
  655MPD2    C5 9696   1.562   1.368  15.681  0.1018 -0.1402  0.5178
  655MPD2     H 9697   1.298   1.593  15.524  1.7661  1.3148 -0.9565
  655MPD2    H1 9698   1.596   1.290  15.492 -1.4625 -2.0609  1.0687
  655MPD2    H2 9699   1.497   1.455  15.868 -1.0452  0.8789  0.3447
  655MPD2    H3 9700   1.639   1.300  15.717 -0.9586 -1.2244  0.7074
  655MPD2     N 9701   1.436   1.427  15.352 -0.1258 -0.2665  0.0997
  655MPD2    H5 9702   1.494   1.355  15.309 -2.1813 -0.5585 -2.2464
  655MPD2    N1 9703   1.319   1.636  15.778 -0.8335  0.8944  0.1054
  655MPD2    H7 9704   1.259   1.703  15.732 -0.9299 -0.2579 -1.4476
  656TMC3    C1 9705   1.197   1.716  15.955  0.5872 -0.1009  0.5271
  656TMC3    C2 9706   1.110   1.629  16.027 -0.5550  0.4088  0.5008
  656TMC3    C3 9707   0.973   1.652  16.024  0.1648 -0.7712 -0.9364
  656TMC3    C4 9708   1.144   1.810  15.870 -0.3133  0.3970  0.0526
  656TMC3    C5 9709   1.002   1.820  15.864 -0.5280 -0.4172 -0.4642
  656TMC3    C6 9710   0.918   1.749  15.947  0.2963  0.6233 -0.0266
  656TMC3     C 9711   1.317   1.648  15.913 -0.3309 -0.8509 -0.1582
  656TMC3     O 9712   1.381   1.589  15.999  0.4864  0.0050  0.2089
  656TMC3     H 9713   1.154   1.545  16.081 -1.7303 -0.6215 -0.1496
  656TMC3    H1 9714   1.202   1.890  15.824 -0.3734  0.9669  0.9642
  656TMC3    H2 9715   0.811   1.746  15.934  0.1938  0.3935  0.8786
  656TMC3    C7 9716   0.960   1.839  15.730  0.5558 -0.6192 -0.1950
  656TMC3    C8 9717   0.887   1.548  16.085 -0.3140 -0.5826 -0.7647
  656TMC3    O1 9718   1.040   1.814  15.644 -0.0020 -0.2232  0.0055
  656TMC3    O2 9719   0.928   1.432  16.081 -0.3605  0.3725 -0.2604
  657TMC3    C1 9720   0.463   0.621  14.952  0.7601 -0.0424  0.3556
  657TMC3    C2 9721   0.489   0.517  15.041 -0.0242  0.2029  0.0962
  657TMC3    C3 9722   0.384   0.433  15.052  0.3949  0.3402 -0.6294
  657TMC3    C4 9723   0.345   0.644  14.890  0.2245  0.0071 -0.3172
  657TMC3    C5 9724   0.247   0.552  14.897  0.0388  0.1211  0.5139
  657TMC3    C6 9725   0.268   0.440  14.982 -0.0295 -0.0771  0.6784
  657TMC3     C 9726   0.574   0.707  14.925  0.5551  0.3190 -0.0529
  657TMC3     O 9727   0.557   0.824  14.898  0.1332  0.2587 -0.2305
  657TMC3     H 9728   0.570   0.516  15.113  0.9287  0.0455 -0.9613
  657TMC3    H1 9729   0.330   0.737  14.837  0.7064  0.7557  0.8555
  657TMC3    H2 9730   0.200   0.356  14.987 -1.2829  0.8095 -1.4175
  657TMC3    C7 9731   0.124   0.585  14.830  0.2839  0.7378 -1.2441
  657TMC3    C8 9732   0.386   0.317  15.144 -0.0859  0.1800 -0.6133
  657TMC3    O1 9733   0.127   0.681  14.753 -0.5351 -0.6220 -0.1084
  657TMC3    O2 9734   0.282   0.270  15.180  0.2938 -0.0505 -0.3686
  658MPD2     C 9735   1.810   1.162  14.752 -0.7569  0.2329 -0.2409
  658MPD2    C1 9736   1.705   1.240  14.714  0.1237  0.4260  0.5883
  658MPD2    C2 9737   1.704   1.285  14.583 -0.3992  0.4014 -0.0153
  658MPD2    C3 9738   1.808   1.265  14.493 -0.2848 -0.0082 -0.1836
  658MPD2    C4 9739   1.909   1.185  14.530 -0.2836  0.1033  1.2246
  658MPD2    C5 9740   1.909   1.138  14.658 -0.2710  0.1332 -0.4954
  658MPD2     H 9741   1.632   1.360  14.551 -1.0703  0.2501  1.1500
  658MPD2    H1 9742   1.983   1.153  14.457  0.3406  1.1736  1.3806
  658MPD2    H2 9743   1.823   1.130  14.855 -0.3657  1.2910  0.0386
  658MPD2    H3 9744   2.002   1.086  14.679 -1.0696 -0.7456  0.7852
  658MPD2     N 9745   1.797   1.321  14.363 -0.0952  0.0405 -0.1000
  658MPD2    H5 9746   1.711   1.371  14.343 -1.7946 -2.2311  1.4839
  658MPD2    N1 9747   1.597   1.268  14.800  0.0858  0.3837  0.3469
  658MPD2    H7 9748   1.518   1.319  14.765 -1.1997 -1.2682  0.8302
  659TMC3    C1 9749   1.470   1.297  14.979 -0.5048  0.1648  0.2158
  659TMC3    C2 9750   1.483   1.371  15.094  0.9047 -0.3135  0.3330
  659TMC3    C3 9751   1.372   1.441  15.130 -0.5657 -0.2861 -0.3670
  659TMC3    C4 9752   1.352   1.273  14.911  0.1478 -0.6560 -0.4594
  659TMC3    C5 9753   1.246   1.351  14.955  0.1047  0.7750 -0.0818
  659TMC3    C6 9754   1.256   1.439  15.059  0.2765 -0.1113  0.1797
  659TMC3     C 9755   1.592   1.241  14.930 -1.0205 -0.6636 -0.4186
  659TMC3     O 9756   1.675   1.212  15.018  0.2868  0.0012 -0.2119
  659TMC3     H 9757   1.579   1.384  15.143  0.5125 -2.3294  1.6562
  659TMC3    H1 9758   1.344   1.207  14.825  0.9063  0.3981 -1.3387
  659TMC3    H2 9759   1.169   1.496  15.091  0.2007 -1.0345  1.6398
  659TMC3    C7 9760   1.120   1.288  14.947  0.0438  0.5676 -0.6086
  659TMC3    C8 9761   1.342   1.484  15.267 -0.3499  0.7193 -0.2705
  659TMC3    O1 9762   1.115   1.164  14.934  0.1441 -0.6032 -0.6798
  659TMC3    O2 9763   1.244   1.549  15.300 -0.4111 -0.5405  0.2848
  660MPD2     C 9764   4.480   4.342  12.621  0.0001  0.2523  0.4332
  660MPD2    C1 9765   4.346   4.354  12.583  0.2484 -0.0838 -0.6154
  660MPD2    C2 9766   4.255   4.298  12.659  0.2504  0.1985 -0.5490
  660MPD2    C3 9767   4.285   4.218  12.763  0.4029  0.2709 -0.4334
  660MPD2    C4 9768   4.417   4.182  12.787 -0.4520  0.5861 -0.2083
  660MPD2    C5 9769   4.512   4.253  12.715  0.0599 -0.0790 -0.0508
  660MPD2     H 9770   4.150   4.323  12.645 -0.4004 -3.0367 -1.4964
  660MPD2    H1 9771   4.456   4.113  12.861  0.2183 -0.3889 -1.4766
  660MPD2    H2 9772   4.561   4.397  12.575  0.0761  0.9265  1.3794
  660MPD2    H3 9773   4.615   4.243  12.749 -0.2799  0.8957  1.2476
  660MPD2     N 9774   4.184   4.160  12.843  0.0047 -0.1571 -0.6970
  660MPD2    H5 9775   4.209   4.097  12.919  1.5157 -0.5743 -1.5280
  660MPD2    N1 9776   4.320   4.462  12.489  0.0950 -0.0065 -0.0349
  660MPD2    H7 9777   4.408   4.500  12.455  1.5426 -1.5205  1.9670
  661TMC3    C1 9778   4.191   4.604  12.348 -0.3061  0.2959 -0.1497
  661TMC3    C2 9779   4.298   4.619  12.263 -0.0748  0.3505  0.4438
  661TMC3    C3 9780   4.280   4.694  12.150 -0.0949  0.4871 -0.1733
  661TMC3    C4 9781   4.065   4.651  12.312 -0.4996 -0.4785  0.2969
  661TMC3    C5 9782   4.048   4.713  12.190 -0.0283 -0.4042 -0.3556
  661TMC3    C6 9783   4.157   0.011  12.108 -0.2691 -0.5365 -0.3528
  661TMC3     C 9784   4.193   4.510  12.457 -0.0561  0.1700  0.1000
  661TMC3     O 9785   4.087   4.463  12.493 -0.1705  0.3739  0.0981
  661TMC3     H 9786   4.389   4.561  12.278  0.3421  0.6334 -1.0663
  661TMC3    H1 9787   3.984   4.635  12.382  0.1624  0.4197  1.2584
  661TMC3    H2 9788   4.148   0.067  12.017  0.1564  0.6647  0.3490
  661TMC3    C7 9789   3.910   4.723  12.138 -0.8416 -0.2891 -0.3170
  661TMC3    C8 9790   4.383   4.668  12.048  0.0881 -0.0744  0.0751
  661TMC3    O1 9791   3.826   4.692  12.216 -0.1295  0.6712  0.6923
  661TMC3    O2 9792   4.343   4.672  11.935  0.4743  0.1659  0.2308
  662MPD2     C 9793   4.400   4.405  17.042  0.6966 -0.1524  0.0606
  662MPD2    C1 9794   4.389   4.343  17.164  0.4377 -0.0043 -0.6356
  662MPD2    C2 9795   4.314   4.406  17.258 -1.1600 -0.3932  0.2539
  662MPD2    C3 9796   4.248   4.520  17.232  0.2060 -0.4241 -0.5619
  662MPD2    C4 9797   4.264   4.587  17.110 -0.2034  0.0529  0.7070
  662MPD2    C5 9798   4.335   4.523  17.010 -0.8165  0.6088 -0.2234
  662MPD2     H 9799   4.309   4.352  17.352 -0.1519 -0.2441  0.3979
  662MPD2    H1 9800   4.202   4.674  17.091 -1.9709 -0.7926  2.6134
  662MPD2    H2 9801   4.471   4.367  16.969 -0.8278  0.1373 -1.6024
  662MPD2    H3 9802   4.358   4.569  16.914  1.4003 -2.1451 -1.0175
  662MPD2     N 9803   4.175   4.585  17.328 -0.1785 -0.2814  0.1770
  662MPD2    H5 9804   4.139   4.676  17.301 -0.3698  0.2393  2.1628
  662MPD2    N1 9805   4.452   4.216  17.188 -0.9573 -0.1880  0.0444
  662MPD2    H7 9806   4.442   4.186  17.285  1.3164 -0.1774  0.2863
  663TMC3    C1 9807   4.575   4.019  17.157  0.1832  0.0159 -0.0276
  663TMC3    C2 9808   4.626   4.021  17.284 -0.1989  0.3108 -0.5316
  663TMC3    C3 9809   4.702   3.916  17.329 -0.0593  0.4168  0.4608
  663TMC3    C4 9810   4.584   3.909  17.080 -0.1405 -0.2020 -0.0615
  663TMC3    C5 9811   4.641   3.798  17.136  0.1519  0.3048 -0.3384
  663TMC3    C6 9812   4.699   3.802  17.260 -0.1424  0.5881  0.2804
  663TMC3     C 9813   4.513   4.130  17.098 -0.1458  0.5883 -0.7610
  663TMC3     O 9814   4.511   4.129  16.979 -0.1096  0.4902  0.1334
  663TMC3     H 9815   4.645   4.118  17.329  0.1352  1.0901 -2.3627
  663TMC3    H1 9816   4.550   3.906  16.977  0.8976 -1.0307 -0.3852
  663TMC3    H2 9817   0.046   3.725  17.281 -0.1777 -0.1119 -2.1378
  663TMC3    C7 9818   4.646   3.676  17.054 -0.1101  0.4318 -0.1388
  663TMC3    C8 9819   4.687   3.892  17.470  0.7415 -0.2534 -0.3704
  663TMC3    O1 9820   4.650   3.686  16.932  0.5549  0.2929  0.4729
  663TMC3    O2 9821   4.724   3.783  17.514  0.1230  0.2720  0.2059
  664MPD2     C 9822   2.687   2.073  17.301 -0.6232  0.0429 -0.2276
  664MPD2    C1 9823   2.798   2.162  17.315 -0.0101  0.2403  0.0187
  664MPD2    C2 9824   2.850   2.181  17.445 -0.0812 -0.4847  0.1015
  664MPD2    C3 9825   2.800   2.118  17.554  0.4644 -0.0373 -0.5860
  664MPD2    C4 9826   2.700   2.020  17.531 -0.7397 -0.5740 -0.1616
  664MPD2    C5 9827   2.638   2.009  17.406 -0.4138 -0.2061  0.0004
  664MPD2     H 9828   2.946   2.229  17.464  0.2749 -0.5795 -1.4569
  664MPD2    H1 9829   2.659   1.954  17.606 -0.9273  1.0782  1.1880
  664MPD2    H2 9830   2.636   2.071  17.206  1.7890  0.5402 -1.5340
  664MPD2    H3 9831   2.560   1.936  17.387 -0.2202 -0.3319 -0.3222
  664MPD2     N 9832   2.850   2.147  17.686 -0.6277 -0.0791 -0.1400
  664MPD2    H5 9833   2.919   2.221  17.692  0.5912 -1.0883 -1.5181
  664MPD2    N1 9834   2.858   2.229  17.205  0.3581  0.3307 -0.0263
  664MPD2    H7 9835   2.927   2.302  17.219  0.8311  0.4031 -2.8107
  665TMC3    C1 9836   2.828   2.153   0.219 -0.3162 -0.1916 -0.0781
  665TMC3    C2 9837   2.725   2.150   0.307  0.3298 -0.6486 -0.3066
  665TMC3    C3 9838   2.738   2.217   0.426  0.4034 -0.5868  0.0815
  665TMC3    C4 9839   2.945   2.217   0.242  0.3703  0.2673 -0.3848
  665TMC3    C5 9840   2.956   2.272   0.367 -0.0701  0.4534  0.2349
  665TMC3    C6 9841   2.856   2.277   0.459 -0.0969 -0.8208  0.9188
  665TMC3     C 9842   2.802   2.091   0.093  0.4712  1.0151 -1.1980
  665TMC3     O 9843   2.745   1.982   0.103 -0.1840 -0.0228 -0.3939
  665TMC3     H 9844   2.642   2.084   0.288 -0.1307  0.3004 -1.5623
  665TMC3    H1 9845   3.035   2.212   0.182  0.2520 -2.3939 -0.3370
  665TMC3    H2 9846   2.871   2.311   0.561  1.8770  1.9200 -0.2699
  665TMC3    C7 9847   3.084   2.322   0.400 -0.7199  0.2468 -0.1420
  665TMC3    C8 9848   2.652   2.190   0.536  0.3019  0.2515 -0.0684
  665TMC3    O1 9849   3.175   2.278   0.332 -0.0444 -0.1684  0.7966
  665TMC3    O2 9850   2.689   2.221   0.646  0.0648 -0.1877 -0.1151
  666TMC3    C1 9851   1.907   2.485   9.533  0.7076  0.1893  0.6201
  666TMC3    C2 9852   2.004   2.431   9.613  0.5911 -0.3435 -1.0229
  666TMC3    C3 9853   2.131   2.472   9.596 -0.0840 -0.3360  0.1143
  666TMC3    C4 9854   1.931   2.586   9.439  0.4957 -0.3106  0.3870
  666TMC3    C5 9855   2.060   2.628   9.425 -0.4050  0.4389 -0.4840
  666TMC3    C6 9856   2.158   2.569   9.497  0.8888  0.2330 -0.6210
  666TMC3     C 9857   1.765   2.466   9.562  0.8986 -0.4005  0.0581
  666TMC3     O 9858   1.691   2.465   9.468 -0.2557 -0.2265  0.0755
  666TMC3     H 9859   1.991   2.358   9.692 -0.8961  0.9650 -0.0367
  666TMC3    H1 9860   1.849   2.639   9.391 -0.7415 -2.6539 -0.0671
  666TMC3    H2 9861   2.258   2.593   9.461  1.8884 -1.7601  0.8141
  666TMC3    C7 9862   2.083   2.771   9.415 -0.1008 -0.1226 -0.3341
  666TMC3    C8 9863   2.223   2.466   9.709  0.4606 -0.1584 -0.3352
  666TMC3    O1 9864   2.185   2.821   9.359  0.3723  0.3194  0.2828
  666TMC3    O2 9865   2.199   2.377   9.787 -0.0014 -0.1735  0.6851
  667MPD2     C 9866   3.330   2.487  14.575 -0.4960 -0.3728 -0.5328
  667MPD2    C1 9867   3.259   2.488  14.691 -0.5777 -0.0692 -0.1911
  667MPD2    C2 9868   3.160   2.385  14.703 -0.2873  0.0944 -0.3139
  667MPD2    C3 9869   3.132   2.279  14.620 -0.4756 -0.1831 -0.5926
  667MPD2    C4 9870   3.215   2.279  14.509 -0.4129  0.3663  0.1019
  667MPD2    C5 9871   3.306   2.378  14.494 -0.5886 -0.4809 -0.1515
  667MPD2     H 9872   3.098   2.390  14.792  1.3607  0.1495  0.8251
  667MPD2    H1 9873   3.223   2.195  14.441 -1.2440 -0.0206  0.4794
  667MPD2    H2 9874   3.409   2.553  14.541 -1.8858  0.0106 -2.9546
  667MPD2    H3 9875   3.360   2.380  14.399 -0.2576  1.2565  0.0693
  667MPD2     N 9876   3.040   2.179  14.636 -0.3551 -0.6222  0.7154
  667MPD2    H5 9877   3.031   2.100  14.572 -1.5574  1.4855 -1.7385
  667MPD2    N1 9878   3.274   2.574  14.805  0.3405  0.0352 -0.3043
  667MPD2    H7 9879   3.246   2.540  14.897  2.3472 -0.4884  0.1067
  668TMC3    C1 9880   3.392   2.726  14.941  0.5328 -0.1692 -1.0014
  668TMC3    C2 9881   3.515   2.787  14.956 -0.5193 -0.1532 -0.1706
  668TMC3    C3 9882   3.540   2.839  15.084 -0.3810  0.1449 -0.7144
  668TMC3    C4 9883   3.293   2.721  15.042 -0.1950  0.0145 -0.0227
  668TMC3    C5 9884   3.329   2.765  15.166 -0.0858  0.3287  0.0036
  668TMC3    C6 9885   3.449   2.826  15.184 -0.0893 -0.5709 -0.4247
  668TMC3     C 9886   3.361   2.680  14.804  0.2119 -0.3977  0.4032
  668TMC3     O 9887   3.429   2.713  14.709 -0.3773  0.3018 -0.5933
  668TMC3     H 9888   3.578   2.801  14.868  0.5347 -0.7033  0.4912
  668TMC3    H1 9889   3.194   2.683  15.022 -1.5631  2.5647  1.9129
  668TMC3    H2 9890   3.465   2.879  15.278 -0.3223 -1.6236  0.2055
  668TMC3    C7 9891   3.257   2.718  15.283  0.3867  0.3013 -0.3098
  668TMC3    C8 9892   3.651   2.925  15.111  0.7151  0.6354  0.0754
  668TMC3    O1 9893   3.317   2.713  15.390 -0.3839 -0.6086  0.3760
  668TMC3    O2 9894   3.691   2.934  15.228  0.2947  0.2110  0.5409
  669TMC3    C1 9895   1.958   2.493  14.837  0.0099 -0.5506  0.3111
  669TMC3    C2 9896   1.854   2.575  14.819  0.2166  0.0763 -0.1919
  669TMC3    C3 9897   1.883   2.705  14.819  0.7114  0.0053 -0.1948
  669TMC3    C4 9898   2.089   2.533  14.861 -0.1293  0.2477  0.1673
  669TMC3    C5 9899   2.113   2.671  14.858  0.8259  0.0428 -0.5226
  669TMC3    C6 9900   2.012   2.760  14.838  0.4045  0.5131  0.1555
  669TMC3     C 9901   1.926   2.361  14.891 -0.2483  0.2804 -0.5648
  669TMC3     O 9902   1.815   2.352  14.936 -0.3941 -0.2731 -0.2696
  669TMC3     H 9903   1.752   2.541  14.811  0.2901 -0.3361  0.6054
  669TMC3    H1 9904   2.168   2.462  14.883  0.3875  0.0767 -2.3284
  669TMC3    H2 9905   2.025   2.866  14.859 -0.8164  0.7216 -0.1100
  669TMC3    C7 9906   2.244   2.713  14.819  0.4983  0.8794  0.0615
  669TMC3    C8 9907   1.776   2.797  14.777  0.2053  0.1193 -0.3820
  669TMC3    O1 9908   2.249   2.835  14.820 -0.0220 -0.4435  0.2789
  669TMC3    O2 9909   1.659   2.756  14.776 -0.4387 -0.1531  0.0794
  670MPD2     C 9910   4.252   0.146  12.787  0.0598 -0.1315 -0.3820
  670MPD2    C1 9911   4.357   0.205  12.856  0.1467 -0.0867  0.1250
  670MPD2    C2 9912   4.348   0.218  12.994  0.5626 -0.3653  0.2932
  670MPD2    C3 9913   4.245   0.158  13.065  0.1537  0.6089  0.4002
  670MPD2    C4 9914   4.151   0.082  12.998  0.2282 -0.2007  0.4555
  670MPD2    C5 9915   4.148   0.090  12.859 -0.3714  0.0400  0.0365
  670MPD2     H 9916   4.415   0.290  13.039  0.3157  1.2499 -1.9515
  670MPD2    H1 9917   4.066   0.034  13.045  0.2035 -0.1957  0.4156
  670MPD2    H2 9918   4.242   0.141  12.679  3.2134  0.9277 -0.7422
  670MPD2    H3 9919   4.056   0.047  12.821 -0.6947  0.1988  0.6508
  670MPD2     N 9920   4.233   0.167  13.199  0.0188 -0.3721 -0.3659
  670MPD2    H5 9921   4.158   0.116  13.246  0.7664 -0.4412  0.7429
  670MPD2    N1 9922   4.470   0.263  12.793  0.2459  0.5839  0.0970
  670MPD2    H7 9923   4.547   0.298  12.849  0.5106  1.2029 -0.6521
  671TMC3    C1 9924   4.280   0.226  13.422 -1.2379  0.0056 -0.2026
  671TMC3    C2 9925   4.351   0.298  13.520  0.1315 -0.2535 -0.4057
  671TMC3    C3 9926   4.352   0.256  13.650 -0.4151  0.1417 -0.3098
  671TMC3    C4 9927   4.194   0.121  13.460 -0.7209 -0.0102 -0.1612
  671TMC3    C5 9928   4.203   0.076  13.586 -0.1242 -0.5984 -0.2379
  671TMC3    C6 9929   4.277   0.146  13.680  0.3724 -0.3094  0.9868
  671TMC3     C 9930   4.297   0.259  13.281  1.1102 -0.2696  0.0287
  671TMC3     O 9931   4.376   0.350  13.259  0.6455  0.2537 -0.1794
  671TMC3     H 9932   4.430   0.365  13.486 -1.2241  0.1984 -2.6869
  671TMC3    H1 9933   4.125   0.073  13.391  0.3829 -2.2264  0.2776
  671TMC3    H2 9934   4.254   0.137  13.785 -0.9996 -1.9786  0.5454
  671TMC3    C7 9935   4.109   4.707  13.635 -0.4247  0.1023  0.3499
  671TMC3    C8 9936   4.479   0.264  13.717  0.3142 -0.3252 -0.4718
  671TMC3    O1 9937   4.021   4.688  13.548 -0.4984  0.0176  0.3575
  671TMC3    O2 9938   4.556   0.359  13.712  0.0630  0.1634 -0.3387
  672MPD2     C 9939   0.911   0.730   0.602  0.2989  0.1438  0.1666
  672MPD2    C1 9940   0.899   0.593   0.616  0.0389 -0.2472 -0.7303
  672MPD2    C2 9941   0.860   0.546   0.739 -0.2408 -0.2053 -0.4111
  672MPD2    C3 9942   0.844   0.626   0.849  0.5630 -0.1671  0.1731
  672MPD2    C4 9943   0.861   0.758   0.836  0.4891  0.0515 -0.0104
  672MPD2    C5 9944   0.887   0.809   0.711  0.4185  0.8639 -0.3574
  672MPD2     H 9945   0.841   0.439   0.747  0.3638 -0.3640 -1.0824
  672MPD2    H1 9946   0.842   0.833   0.912 -1.1528  0.4944 -0.8811
  672MPD2    H2 9947   0.937   0.768   0.505 -0.7924 -0.6344 -0.4394
  672MPD2    H3 9948   0.894   0.917   0.701 -0.7815  1.2516  3.2172
  672MPD2     N 9949   0.802   0.585   0.982  0.2838 -0.1481 -0.1405
  672MPD2    H5 9950   0.783   0.657   1.050  1.4503  0.7243 -0.7358
  672MPD2    N1 9951   0.903   0.499   0.514  0.0193  0.3778 -0.4642
  672MPD2    H7 9952   0.897   0.401   0.542  1.1235 -0.2449 -2.4136
  673TMC3    C1 9953   0.906   0.405   0.297 -0.5802 -0.2525  0.3509
  673TMC3    C2 9954   0.971   0.288   0.343  0.2274  0.2552 -0.2275
  673TMC3    C3 9955   0.924   0.168   0.304 -0.2195 -1.1644  0.4350
  673TMC3    C4 9956   0.794   0.393   0.212 -0.0507  0.7162 -0.1250
  673TMC3    C5 9957   0.755   0.265   0.186 -0.0379  0.0506 -0.3780
  673TMC3    C6 9958   0.828   0.155   0.212  0.6829 -1.2065 -0.3086
  673TMC3     C 9959   0.917   0.524   0.379  0.1889 -0.0338 -0.0334
  673TMC3     O 9960   0.904   0.633   0.326  0.2758 -0.1354  0.9604
  673TMC3     H 9961   1.046   0.301   0.421 -0.5181 -0.7743  0.6594
  673TMC3    H1 9962   0.731   0.479   0.193  0.3823  1.3079  1.1061
  673TMC3    H2 9963   0.791   0.061   0.172  0.6360 -1.2005 -0.2801
  673TMC3    C7 9964   0.642   0.242   0.094  0.1006 -0.5314  0.3584
  673TMC3    C8 9965   1.002   0.042   0.324  0.6169  0.2390  0.0221
  673TMC3    O1 9966   0.652   0.161   0.001 -0.1154  0.4340 -0.1688
  673TMC3    O2 9967   0.998   4.683   0.240  0.4190  0.0447  0.0331
  674MPD2     C 9968   4.593   0.379   0.025  0.3417 -0.8461  0.2093
  674MPD2    C1 9969   4.612   0.277   0.115  0.8155 -0.2135  0.2715
  674MPD2    C2 9970   4.552   0.297   0.240 -0.5040  0.0875 -0.0347
  674MPD2    C3 9971   4.472   0.407   0.270  0.1154  0.8552 -0.4887
  674MPD2    C4 9972   4.468   0.514   0.178  0.2225  0.4256  0.4707
  674MPD2    C5 9973   4.525   0.495   0.051  0.0615 -0.0923 -0.3631
  674MPD2     H 9974   4.547   0.215   0.310 -0.1533  0.2543  0.1883
  674MPD2    H1 9975   4.411   0.605   0.195 -1.7776 -0.6791 -0.3237
  674MPD2    H2 9976   4.634   0.362  17.631 -1.3100  0.1144 -0.6573
  674MPD2    H3 9977   4.520   0.574  17.681 -2.5007  0.1162  0.0483
  674MPD2     N 9978   4.397   0.404   0.379 -0.8916 -0.4504  0.0217
  674MPD2    H5 9979   4.401   0.318   0.432 -2.4904  0.3339  1.4361
  674MPD2    N1 9980   4.694   0.168   0.078 -0.2774 -0.6835  0.7006
  674MPD2    H7 9981   4.717   0.164  17.684  1.2519  0.6934  1.0059
  675TMC3    C1 9982   0.124   4.712   0.106 -0.7936 -0.5773 -0.1129
  675TMC3    C2 9983   0.148   4.600   0.188 -0.6236 -0.1852 -0.0946
  675TMC3    C3 9984   0.262   4.528   0.164 -0.0553 -0.4382  0.4890
  675TMC3    C4 9985   0.183   4.725  17.686 -0.1312 -0.6424 -0.2843
  675TMC3    C5 9986   0.282   4.638  17.656 -0.5591  0.0040 -0.5455
  675TMC3    C6 9987   0.333   4.555   0.047 -0.9732 -0.2627 -0.3281
  675TMC3     C 9988   0.014   0.071   0.157  0.5018  0.1318  0.2665
  675TMC3     O 9989   4.698   0.051   0.271  0.4641 -0.4095  0.1674
  675TMC3     H 9990   0.096   4.583   0.281  0.5976 -0.4329  0.5412
  675TMC3    H1 9991   0.150   0.065  17.606  1.6088  1.7870  0.9887
  675TMC3    H2 9992   0.415   4.485   0.033  0.0251  0.6167  1.0779
  675TMC3    C7 9993   0.337   4.645  17.522  0.5075  0.4934  0.1468
  675TMC3    C8 9994   0.276   4.391   0.225 -0.5236  0.2342 -0.3886
  675TMC3    O1 9995   0.290   4.715  17.435  0.2961  0.2874  0.7297
  675TMC3    O2 9996   0.292   4.301   0.139  0.6635 -0.1424 -0.3491
  676MPD2     C 9997   2.983   3.653  10.537 -0.2072 -0.7768 -0.2590
  676MPD2    C1 9998   2.847   3.627  10.546 -0.0240 -0.4480 -0.2605
  676MPD2    C2 9999   2.809   3.502  10.555  0.1903  0.0896  0.4197
  676MPD2    C310000   2.901   3.398  10.552  0.1344 -0.0622 -0.6851
  676MPD2    C410001   3.035   3.419  10.539  0.0172  0.4330  0.3449
  676MPD2    C510002   3.074   3.551  10.537 -0.0607  0.3371  0.1134
  676MPD2     H10003   2.702   3.484  10.557  0.3452 -0.9220 -0.2152
  676MPD2    H110004   3.113   3.344  10.532 -1.8693 -1.2910 -1.7652
  676MPD2    H210005   3.032   3.749  10.523  0.1232 -0.9504 -0.2809
  676MPD2    H310006   3.176   3.575  10.510 -1.1035  3.9241 -0.6042
  676MPD2     N10007   2.862   3.262  10.553  0.5917  1.1173 -0.1027
  676MPD2    H510008   2.935   3.199  10.520  1.3531 -0.6544  4.8898
  676MPD2    N110009   2.752   3.728  10.535  0.0672  0.2554 -0.0855
  676MPD2    H710010   2.657   3.692  10.546 -0.1979  0.9098 -0.2138
  677TMC3    C110011   2.643   3.936  10.494 -0.7407 -0.2121  0.2618
  677TMC3    C210012   2.542   3.861  10.440 -0.0385 -0.0541 -0.3929
  677TMC3    C310013   2.412   3.904  10.463 -0.6434  0.1590 -0.8940
  677TMC3    C410014   2.619   4.044  10.571 -0.1899 -0.4892 -0.3679
  677TMC3    C510015   2.485   4.089  10.576 -0.5084 -0.5898 -0.1318
  677TMC3    C610016   2.384   4.020  10.526  0.1458  0.2138  0.9650
  677TMC3     C10017   2.770   3.866  10.513 -0.2617 -0.1075  0.6375
  677TMC3     O10018   2.868   3.938  10.493 -0.3040  0.5529 -0.9369
  677TMC3     H10019   2.561   3.766  10.391 -0.0385 -0.6038  0.6943
  677TMC3    H110020   2.698   4.092  10.626 -0.3064 -1.6214  0.7768
  677TMC3    H210021   2.280   4.052  10.528 -0.1515 -0.7042 -0.0664
  677TMC3    C710022   2.441   4.177  10.686  0.2838 -0.3159  0.2827
  677TMC3    C810023   2.298   3.826  10.418  1.0160  0.0398  0.2384
  677TMC3    O110024   2.329   4.162  10.732  0.2187  0.1264 -0.3494
  677TMC3    O210025   2.322   3.779  10.305  0.1024 -0.1313 -0.7041
  678MPD2     C10026   3.945   4.087   1.140 -0.4343  0.2075 -0.4344
  678MPD2    C110027   4.026   3.992   1.091 -0.2013  0.1826 -0.0566
  678MPD2    C210028   3.968   3.892   1.010  0.2124 -0.3285 -0.8177
  678MPD2    C310029   3.830   3.879   0.991  0.2588  0.3561  0.1945
  678MPD2    C410030   3.753   3.979   1.040  0.3073  0.4425 -0.4839
  678MPD2    C510031   3.813   4.076   1.116  0.0437 -0.0645 -0.2182
  678MPD2     H10032   4.038   3.821   0.967 -2.0489 -2.4357 -0.9538
  678MPD2    H110033   3.645   3.972   1.033  0.4541 -0.3192 -1.8849
  678MPD2    H210034   3.977   4.160   1.214 -0.6327 -0.3607  0.2176
  678MPD2    H310035   3.752   4.151   1.165  0.0129  0.8382 -1.6470
  678MPD2     N10036   3.791   3.771   0.917 -0.2051  0.5395 -0.1600
  678MPD2    H510037   3.865   3.713   0.880 -0.3408 -0.3762  0.9812
  678MPD2    N110038   4.168   3.987   1.107 -0.1013  0.5318 -0.4669
  678MPD2    H710039   4.205   3.895   1.085  0.9406  1.0594 -0.9141
  679TMC3    C110040   4.544   3.868   1.209  0.5542 -0.8613  0.1761
  679TMC3    C210041   4.412   3.912   1.202  0.1662 -0.5837  0.7113
  679TMC3    C310042   4.379   4.046   1.188  0.0145  0.1644  0.2174
  679TMC3    C410043   4.644   3.963   1.198 -0.3304  0.7032 -0.3898
  679TMC3    C510044   4.609   4.092   1.191 -0.2938 -0.3448 -0.2420
  679TMC3    C610045   4.480   4.143   1.193  0.2808 -0.1389  0.1092
  679TMC3     C10046   4.575   3.725   1.217  0.0345 -0.3793  0.3692
  679TMC3     O10047   4.487   3.642   1.199  0.1806  0.0094  0.2222
  679TMC3     H10048   4.333   3.840   1.219 -1.2957  0.7349 -0.3988
  679TMC3    H110049   0.024   3.942   1.183 -0.0375  1.3854  0.6813
  679TMC3    H210050   4.452   4.248   1.192  0.6730 -0.0490 -2.8719
  679TMC3    C710051   4.710   4.181   1.132 -0.5189 -0.4763 -0.8234
  679TMC3    C810052   4.247   4.089   1.162 -0.4580 -0.3959  0.5171
  679TMC3    O110053   0.099   4.150   1.161  0.0432 -0.0635 -0.1613
  679TMC3    O210054   4.220   4.209   1.166  0.6004 -0.3142 -0.2485
  680MPD2     C10055   3.954   2.540  13.397  0.1283 -0.3637 -0.2984
  680MPD2    C110056   4.043   2.461  13.463  0.1232 -0.5341  0.3891
  680MPD2    C210057   4.161   2.522  13.512 -0.0998  0.7375  0.6168
  680MPD2    C310058   4.179   2.658  13.511 -1.0068  0.2238 -0.2008
  680MPD2    C410059   4.086   2.735  13.440  0.1747  0.8800 -0.0029
  680MPD2    C510060   3.974   2.675  13.389 -0.1178 -0.3197  0.5441
  680MPD2     H10061   4.224   2.452  13.568  0.2450  0.2642 -0.3627
  680MPD2    H110062   4.099   2.841  13.422  1.1095  0.8924  0.7163
  680MPD2    H210063   3.862   2.501  13.353  1.0334 -2.7593 -0.0799
  680MPD2    H310064   3.908   2.746  13.341 -0.6869 -0.7290  0.7216
  680MPD2     N10065   4.300   2.715  13.560  0.3510 -0.4235  0.6238
  680MPD2    H510066   4.323   2.801  13.512 -1.1132 -1.0536 -1.1809
  680MPD2    N110067   4.027   2.325  13.484  0.3150  0.4419  0.2663
  680MPD2    H710068   4.111   2.274  13.510 -0.3166 -0.3715  0.6914
  681TMC3    C110069   3.937   2.116  13.508  0.4345  0.3265 -0.1332
  681TMC3    C210070   3.854   2.064  13.598 -0.4729  0.2031  0.1885
  681TMC3    C310071   3.871   1.936  13.630  0.1899 -0.6022  0.1009
  681TMC3    C410072   4.039   2.044  13.451  0.2215  0.2717 -0.5504
  681TMC3    C510073   4.051   1.911  13.483 -0.4057  0.1683 -0.2380
  681TMC3    C610074   3.962   1.855  13.572  0.0839 -0.0244  0.2168
  681TMC3     C10075   3.909   2.256  13.468 -0.0551 -0.8091 -0.3601
  681TMC3     O10076   3.795   2.302  13.454  0.1306  0.3570 -0.3458
  681TMC3     H10077   3.773   2.127  13.632 -0.4857  1.4810 -2.2568
  681TMC3    H110078   4.105   2.084  13.374 -0.1552  0.3259 -0.8439
  681TMC3    H210079   3.971   1.755  13.612 -0.8720 -0.4107 -0.5463
  681TMC3    C710080   4.157   1.831  13.434  1.2813  0.3106  0.1640
  681TMC3    C810081   3.820   1.882  13.754 -0.2109 -0.3623 -0.1068
  681TMC3    O110082   4.151   1.717  13.463  0.2184 -0.0959 -0.3369
  681TMC3    O210083   3.817   1.764  13.783  0.9420 -0.1836 -0.5940
  682MPD2     C10084   1.351   3.662  10.274 -0.0302  0.3847  1.0974
  682MPD2    C110085   1.365   3.530  10.288  0.8213 -0.1995  0.0264
  682MPD2    C210086   1.349   3.469  10.413  0.4931 -0.6285 -0.0462
  682MPD2    C310087   1.315   3.550  10.519 -0.6457  0.2847 -0.3526
  682MPD2    C410088   1.300   3.689  10.508 -0.3558 -0.1830  1.0254
  682MPD2    C510089   1.326   3.746  10.388 -0.2881 -0.1690 -0.2756
  682MPD2     H10090   1.369   3.363  10.423 -0.4843 -0.6613  1.6629
  682MPD2    H110091   1.285   3.749  10.597  2.7338  0.3863  1.1565
  682MPD2    H210092   1.367   3.701  10.174 -1.4851  0.8461  1.0368
  682MPD2    H310093   1.302   3.851  10.373 -1.0425 -0.3162 -0.0611
  682MPD2     N10094   1.313   3.504  10.656 -0.6179 -0.9254 -0.2938
  682MPD2    H510095   1.309   3.578  10.725  0.9852 -0.1672 -0.9990
  682MPD2    N110096   1.392   3.441  10.181 -0.0481 -0.3711  0.6877
  682MPD2    H710097   1.402   3.343  10.205 -1.6192 -1.6211 -3.8756
  683TMC3    C110098   1.413   3.438  11.066  0.4206 -0.0547  0.0370
  683TMC3    C210099   1.424   3.308  11.110  0.5176 -0.2135 -0.1110
  683TMC3    C310100   1.413   3.206  11.019 -0.7701 -0.5365 -0.0366
  683TMC3    C410101   1.378   3.466  10.936  0.1130  0.4030  0.2206
  683TMC3    C510102   1.363   3.360  10.850  0.1632  0.9732  0.0792
  683TMC3    C610103   1.380   3.227  10.889 -0.2397  0.8628 -0.4223
  683TMC3     C10104   1.450   3.546  11.153  0.4136 -0.4986  0.1802
  683TMC3     O10105   1.410   3.662  11.125 -0.3478  0.3679  0.4761
  683TMC3     H10106   1.455   3.285  11.211 -1.3873  0.1982  0.5464
  683TMC3    H110107   1.361   3.567  10.900 -1.2997 -0.0693 -0.4407
  683TMC3    H210108   1.389   3.140  10.825  0.5087  0.4412  0.2583
  683TMC3    C710109   1.351   3.378  10.706 -0.8455 -0.1517 -0.1179
  683TMC3    C810110   1.438   3.067  11.053  0.3664 -0.2862  1.0267
  683TMC3    O110111   1.368   3.275  10.642 -0.1198 -0.3573  0.0329
  683TMC3    O210112   1.385   2.980  10.988 -0.0924 -0.1590  0.0715
  684MPD2     C10113   4.319   3.140  16.511  0.2429 -0.5108  0.2397
  684MPD2    C110114   4.314   3.181  16.380  0.0986  0.4255  0.5078
  684MPD2    C210115   4.286   3.317  16.356  0.0871  0.0723 -0.3680
  684MPD2    C310116   4.279   3.415  16.454 -0.3630  0.3029 -0.5495
  684MPD2    C410117   4.277   3.365  16.581  0.0328  0.0499 -0.0802
  684MPD2    C510118   4.298   3.236  16.605  0.0751 -0.0149  0.4900
  684MPD2     H10119   4.293   3.346  16.251  0.9577  0.7940 -0.1081
  684MPD2    H110120   4.260   3.442  16.656 -1.9005 -0.5194  0.0598
  684MPD2    H210121   4.331   3.038  16.546  0.2851 -0.0538  1.5797
  684MPD2    H310122   4.291   3.211  16.710 -0.6626  1.0929  0.7056
  684MPD2     N10123   4.290   3.553  16.430  0.4150  0.5868 -0.6956
  684MPD2    H510124   4.289   3.617  16.509 -0.0551  0.8237 -0.8948
  684MPD2    N110125   4.341   3.094  16.271 -0.2520 -0.1477  0.9270
  684MPD2    H710126   4.351   3.140  16.181  1.4626 -0.4566  0.9479
  685TMC3    C110127   4.412   2.897  16.156 -0.5580 -0.6715  0.3690
  685TMC3    C210128   4.368   2.946  16.038  0.3192 -0.0537  1.2461
  685TMC3    C310129   4.402   2.886  15.920 -0.6793 -0.0064 -0.2500
  685TMC3    C410130   4.483   2.782  16.167 -0.0632 -0.0292 -0.5956
  685TMC3    C510131   4.524   2.728  16.049 -0.6892  0.1245 -0.1003
  685TMC3    C610132   4.487   2.780  15.930  0.1773 -0.9952  0.0696
  685TMC3     C10133   4.382   2.961  16.283 -0.0633 -0.6702  0.5168
  685TMC3     O10134   4.420   2.895  16.382  0.0822 -0.6764  0.0714
  685TMC3     H10135   4.297   3.028  16.043  0.0122 -0.1120 -2.1718
  685TMC3    H110136   4.494   2.729  16.261 -1.5569 -0.7417 -0.8147
  685TMC3    H210137   4.525   2.739  15.837  0.2312  1.2402 -0.8950
  685TMC3    C710138   4.610   2.615  16.049  0.8909  0.6403 -0.5297
  685TMC3    C810139   4.324   2.896  15.800 -0.9691 -0.3087  0.0660
  685TMC3    O110140   4.634   2.556  15.940 -0.4680  0.1758 -0.2697
  685TMC3    O210141   4.366   2.846  15.696 -0.2536  0.4599  0.6116
  686MPD2     C10142   0.776   2.742  15.307 -0.2833  1.0717 -0.2524
  686MPD2    C110143   0.845   2.697  15.424  0.2239  0.4991  0.2603
  686MPD2    C210144   0.954   2.610  15.413  0.2794  0.2729 -0.0919
  686MPD2    C310145   0.986   2.560  15.288 -0.4220  0.4020 -0.4360
  686MPD2    C410146   0.918   2.611  15.177 -0.9046  0.1680  0.5868
  686MPD2    C510147   0.821   2.708  15.184  0.3577  0.1789 -0.1915
  686MPD2     H10148   1.009   2.568  15.496 -1.0259 -0.9842  0.1484
  686MPD2    H110149   0.945   2.573  15.079 -0.2046  2.4409 -0.1051
  686MPD2    H210150   0.692   2.810  15.309 -0.2974  1.0881 -1.9287
  686MPD2    H310151   0.768   2.734  15.092 -2.1091  0.9752  1.4460
  686MPD2     N10152   1.082   2.456  15.268  0.3736 -0.3446 -0.0585
  686MPD2    H510153   1.118   2.446  15.174 -2.7679 -3.5194 -0.8924
  686MPD2    N110154   0.787   2.731  15.550  0.7203  0.1905 -0.1867
  686MPD2    H710155   0.707   2.794  15.545  0.5916  0.1033  0.9014
  687TMC3    C110156   1.046   2.321  15.467 -0.1450 -0.4241 -0.2045
  687TMC3    C210157   0.924   2.288  15.432  0.1886 -0.6963 -0.6603
  687TMC3    C310158   0.838   2.257  15.534  0.4223  0.2518  0.7294
  687TMC3    C410159   1.093   2.310  15.594 -0.4177  0.4804 -0.0567
  687TMC3    C510160   1.009   2.271  15.692 -0.0242  0.1512 -0.3732
  687TMC3    C610161   0.879   2.240  15.662  0.6109  0.1348 -0.3992
  687TMC3     C10162   1.137   2.377  15.364  0.2383 -0.3312 -0.3172
  687TMC3     O10163   1.252   2.344  15.385  0.1509 -0.1596  0.6449
  687TMC3     H10164   0.889   2.315  15.333  1.0659 -0.1890 -0.8274
  687TMC3    H110165   1.195   2.338  15.618 -0.0559 -2.0249  1.2816
  687TMC3    H210166   0.807   2.216  15.739  2.4225  0.3221  1.3611
  687TMC3    C710167   1.038   2.328  15.814 -0.0242 -0.1692  0.4914
  687TMC3    C810168   0.697   2.289  15.515 -0.0451  0.1305  0.0753
  687TMC3    O110169   1.118   2.423  15.804 -0.3831 -0.4549 -0.2866
  687TMC3    O210170   0.629   2.282  15.614  0.4187 -0.0458  0.0077
  688MPD2     C10171   0.260   1.578  17.351 -0.2867  0.4275  0.3394
  688MPD2    C110172   0.284   1.441  17.337  0.2053 -0.4280 -0.3203
  688MPD2    C210173   0.378   1.401  17.238 -0.0973 -0.2034  0.8693
  688MPD2    C310174   0.428   1.495  17.149 -0.7588  0.1343  0.0647
  688MPD2    C410175   0.400   1.630  17.155 -0.7090  0.4433  0.7318
  688MPD2    C510176   0.312   1.666  17.254  0.0370 -0.2022  0.0521
  688MPD2     H10177   0.394   1.294  17.231  1.1712 -0.0530  1.6631
  688MPD2    H110178   0.444   1.708  17.094 -0.4453 -0.6615 -0.4847
  688MPD2    H210179   0.193   1.609  17.429 -1.7569  0.1858 -0.8217
  688MPD2    H310180   0.278   1.768  17.263 -3.1960 -1.4423  1.9138
  688MPD2     N10181   0.519   1.462  17.041 -0.3286 -0.4364  0.1016
  688MPD2    H510182   0.540   1.531  16.969  0.7403 -1.3259 -0.4457
  688MPD2    N110183   0.246   1.341  17.427  0.1005 -0.1628  0.2520
  688MPD2    H710184   0.286   1.251  17.405  2.1346  1.6076 -3.3843
  689TMC3    C110185   0.134   1.238  17.597 -0.8276 -0.6851 -0.0800
  689TMC3    C210186   0.137   1.257   0.027 -0.7808 -0.2834 -0.2544
  689TMC3    C310187   0.166   1.148   0.109  0.6516  0.0580  0.0515
  689TMC3    C410188   0.162   1.112  17.542  0.1910 -0.3966  0.3434
  689TMC3    C510189   0.183   1.010  17.627  0.3873 -0.0463 -0.2818
  689TMC3    C610190   0.183   1.023   0.058 -0.1415  0.0748  0.0052
  689TMC3     C10191   0.158   1.362  17.531 -1.0980  0.0973 -0.0714
  689TMC3     O10192   0.097   1.463  17.562 -0.0379  0.5789  0.4874
  689TMC3     H10193   0.111   1.360   0.052 -0.6071 -0.0279 -1.1040
  689TMC3    H110194   0.166   1.102  17.435 -2.5114 -1.8110  0.3755
  689TMC3    H210195   0.189   0.940   0.128  1.2467 -0.5225 -0.8344
  689TMC3    C710196   0.178   0.871  17.574 -0.0881 -0.0185 -0.0173
  689TMC3    C810197   0.128   1.152   0.249 -0.2883  0.5216  0.1856
  689TMC3    O110198   0.213   0.783  17.650 -0.6552 -0.4667 -0.3013
  689TMC3    O210199   0.138   1.042   0.308  0.4795 -0.0133 -0.1572
  690MPD2     C10200   2.700   3.383  15.849 -0.4282  0.7130  0.5269
  690MPD2    C110201   2.690   3.377  15.708 -0.9019  0.7276 -0.0784
  690MPD2    C210202   2.797   3.426  15.630  0.3743  0.4521 -0.3147
  690MPD2    C310203   2.907   3.483  15.681 -0.4589 -0.4897 -0.1720
  690MPD2    C410204   2.916   3.481  15.819  0.2843 -0.1339  0.3994
  690MPD2    C510205   2.818   3.432  15.902 -0.1286 -0.5296 -0.1157
  690MPD2     H10206   2.797   3.423  15.521  1.5583  0.2147 -0.3078
  690MPD2    H110207   3.000   3.519  15.875  1.3307  0.1027 -1.3126
  690MPD2    H210208   2.618   3.343  15.908  0.7063  2.3742  3.1773
  690MPD2    H310209   2.831   3.441  16.010 -1.9090  1.1260 -0.0381
  690MPD2     N10210   2.995   3.547  15.590  0.1048  0.1357 -0.5604
  690MPD2    H510211   2.974   3.552  15.491  0.0255 -0.9265 -0.5924
  690MPD2    N110212   2.572   3.332  15.650  0.1372 -0.0353 -0.9732
  690MPD2    H710213   2.584   3.305  15.553 -0.1135 -0.1207 -0.9828
  691TMC3    C110214   2.357   3.269  15.613  0.1413 -0.0694  0.4490
  691TMC3    C210215   2.226   3.309  15.621 -0.8564  1.1120 -0.1005
  691TMC3    C310216   2.131   3.229  15.567 -0.8119  0.5761 -0.4458
  691TMC3    C410217   2.396   3.158  15.534 -0.0691 -0.4691  0.0502
  691TMC3    C510218   2.294   3.082  15.485  0.3629 -0.2263 -0.1681
  691TMC3    C610219   2.163   3.116  15.499 -0.0675  0.1800  0.2804
  691TMC3     C10220   2.445   3.336  15.704 -0.1406  0.7662  0.5631
  691TMC3     O10221   2.403   3.385  15.807  0.0462  0.4072 -0.0298
  691TMC3     H10222   2.204   3.409  15.656 -3.3172  0.8822 -0.9912
  691TMC3    H110223   2.497   3.118  15.540  0.4658  1.1784  1.8983
  691TMC3    H210224   2.074   3.066  15.465  0.7911 -1.0129 -0.2187
  691TMC3    C710225   2.324   2.941  15.475 -0.2100  0.1103  0.2822
  691TMC3    C810226   2.001   3.240  15.622  0.4687  0.3870  0.1096
  691TMC3    O110227   2.438   2.912  15.448 -0.9004  0.1721 -0.4155
  691TMC3    O210228   1.929   3.144  15.620 -0.1358 -0.2360  0.4768
  692TMC3    C110229   4.137   4.653  15.750 -0.0346  1.1010  0.0715
  692TMC3    C210230   4.249   4.682  15.824 -0.1880 -0.1648 -0.0188
  692TMC3    C310231   4.366   4.618  15.792 -0.3817 -0.0835 -0.1780
  692TMC3    C410232   4.135   4.559  15.653 -0.2623 -0.4014 -0.4133
  692TMC3    C510233   4.249   4.495  15.629  0.6853  0.6832  0.0483
  692TMC3    C610234   4.369   4.546  15.674  0.5413 -0.2541  0.3783
  692TMC3     C10235   4.021   0.016  15.765 -0.5805 -0.1339 -0.1089
  692TMC3     O10236   3.909   4.712  15.727 -0.2471  0.7226 -0.1409
  692TMC3     H10237   4.231   4.723  15.923 -0.7194  1.5171 -0.8107
  692TMC3    H110238   4.045   4.520  15.608 -0.3205 -1.0917  0.3043
  692TMC3    H210239   4.460   4.489  15.659  1.4417  0.7302  2.0608
  692TMC3    C710240   4.233   4.353  15.586  0.5504 -0.0565  0.2406
  692TMC3    C810241   4.426   4.524  15.885  0.0607 -0.4382  0.0369
  692TMC3    O110242   4.139   4.330  15.510  0.5453  0.3136 -0.2327
  692TMC3    O210243   4.475   4.417  15.849  0.7561  0.0559  0.7473
  693MPD2     C10244   4.102   3.000  10.885 -0.0189  0.9375  0.1812
  693MPD2    C110245   4.029   2.889  10.838 -0.5301 -0.8434 -0.6566
  693MPD2    C210246   4.089   2.766  10.861 -0.1380  0.2243 -0.3758
  693MPD2    C310247   4.211   2.744  10.919 -0.2036  0.1765  0.3543
  693MPD2    C410248   4.273   2.855  10.972  0.3981  0.2003 -0.5213
  693MPD2    C510249   4.221   2.982  10.959 -0.0117 -0.4709 -0.5209
  693MPD2     H10250   4.041   2.680  10.815  1.1022 -0.3338 -0.6120
  693MPD2    H110251   4.370   2.849  11.021  0.0408  1.8519  0.3707
  693MPD2    H210252   4.055   3.097  10.874  1.9380  1.6137 -1.9916
  693MPD2    H310253   4.267   3.072  10.998  0.7872 -0.5164 -1.3649
  693MPD2     N10254   4.274   2.623  10.925 -0.2309  0.0863  0.0917
  693MPD2    H510255   4.359   2.614  10.980 -0.1795 -0.6067 -0.0912
  693MPD2    N110256   3.893   2.907  10.795 -0.4252 -0.2696 -0.1669
  693MPD2    H710257   3.847   2.998  10.790 -0.7993 -0.3672  1.5855
  694TMC3    C110258   3.671   2.843  10.760  0.3412  0.7031 -0.2120
  694TMC3    C210259   3.593   2.750  10.688 -0.3373 -0.3174  0.3315
  694TMC3    C310260   3.509   2.678  10.764 -0.6439  0.1113  0.2950
  694TMC3    C410261   3.649   2.878  10.890  0.5583 -0.2017 -0.0249
  694TMC3    C510262   3.558   2.808  10.955  0.4737 -0.2532 -0.2963
  694TMC3    C610263   3.486   2.715  10.895  0.0813  0.0325 -0.2072
  694TMC3     C10264   3.808   2.803  10.747  0.1553  0.7170 -0.3550
  694TMC3     O10265   3.838   2.691  10.702 -0.1260  0.5496  0.2010
  694TMC3     H10266   3.624   2.712  10.592  1.7740 -0.0429  0.8937
  694TMC3    H110267   3.698   2.956  10.947 -1.8365  0.4970  1.1002
  694TMC3    H210268   3.392   2.677  10.934 -0.3144  1.3974  0.1656
  694TMC3    C710269   3.556   2.818  11.102  0.9923 -0.3226  0.4836
  694TMC3    C810270   3.412   2.594  10.701  0.2695  0.8360 -0.3891
  694TMC3    O110271   3.634   2.897  11.149  0.1198  0.2775  0.4795
  694TMC3    O210272   3.335   2.536  10.768 -0.0300  0.2080  0.0834
  695MPD2     C10273   4.495   4.134  13.429 -0.0033 -0.5748  0.3385
  695MPD2    C110274   4.415   4.140  13.538  0.7956  0.1588  0.7245
  695MPD2    C210275   4.287   4.184  13.521  0.4946 -0.1082  0.0055
  695MPD2    C310276   4.239   4.230  13.402  0.1127 -0.0115 -0.2810
  695MPD2    C410277   4.320   4.206  13.290  0.8527 -0.4949  0.0097
  695MPD2    C510278   4.451   4.163  13.305  0.3108  0.1677 -0.1839
  695MPD2     H10279   4.226   4.205  13.608 -0.2614 -0.3341 -0.4785
  695MPD2    H110280   4.298   4.229  13.186  0.5667 -0.2533  0.1222
  695MPD2    H210281   4.601   4.110  13.433 -0.3091 -1.8190  0.8379
  695MPD2    H310282   4.516   4.157  13.218  0.7881  1.9309  0.0374
  695MPD2     N10283   4.107   4.283  13.399 -0.3383  0.0839  0.4185
  695MPD2    H510284   4.075   4.297  13.494  2.1606  0.7386  1.1855
  695MPD2    N110285   4.468   4.114  13.664 -0.9396 -0.1412  0.2843
  695MPD2    H710286   4.412   4.129  13.747 -0.6487  1.1923  0.2412
  696TMC3    C110287   3.914   4.400  13.337  0.0681 -0.6637  0.1191
  696TMC3    C210288   3.857   4.363  13.463  0.1478 -0.1882  0.9674
  696TMC3    C310289   3.750   4.435  13.504  0.4515 -0.0824  0.3477
  696TMC3    C410290   3.866   4.502  13.257 -0.3012  0.0895 -0.8052
  696TMC3    C510291   3.757   4.573  13.303  1.1964  0.0324  0.5729
  696TMC3    C610292   3.699   4.532  13.416 -0.3916  0.0470 -0.1433
  696TMC3     C10293   4.030   4.331  13.294 -0.4829 -0.0581  0.2984
  696TMC3     O10294   4.055   4.347  13.175 -0.1636  0.5232  0.6425
  696TMC3     H10295   3.901   4.284  13.522 -1.1960 -0.4140  1.6627
  696TMC3    H110296   3.918   4.545  13.172  2.4079  0.5450  1.0521
  696TMC3    H210297   3.610   4.590  13.435  0.4516  1.3877 -0.2747
  696TMC3    C710298   3.774   4.712  13.262  0.2134  0.5760 -0.4508
  696TMC3    C810299   3.659   4.384  13.611  0.8466  0.2147  0.0055
  696TMC3    O110300   3.780   0.007  13.146 -0.4320 -0.6093  0.7175
  696TMC3    O210301   3.545   4.358  13.577  0.4123 -0.2077  0.5143
  697MPD2     C10302   3.917   1.601  15.823 -0.9176 -0.5584  0.5562
  697MPD2    C110303   3.951   1.548  15.700  0.3264  0.3958  0.1366
  697MPD2    C210304   3.962   1.627  15.590 -0.5649  0.1893 -0.2420
  697MPD2    C310305   3.940   1.761  15.595  0.1523  0.9774 -0.4996
  697MPD2    C410306   3.888   1.811  15.713 -0.6948  0.9145  0.2074
  697MPD2    C510307   3.876   1.732  15.827 -0.5251 -0.6165  0.8044
  697MPD2     H10308   3.998   1.580  15.499 -0.6538  3.8285 -2.1717
  697MPD2    H110309   3.854   1.914  15.718  1.1302  1.5338 -0.2503
  697MPD2    H210310   3.928   1.544  15.915  0.7121 -0.2116  0.5868
  697MPD2    H310311   3.835   1.779  15.916 -2.9477 -0.5071 -0.3602
  697MPD2     N10312   3.988   1.843  15.487  0.8457 -0.7278 -0.5716
  697MPD2    H510313   4.015   1.790  15.404  0.7354  0.5805 -1.4528
  697MPD2    N110314   3.981   1.411  15.681  0.0354 -0.8338  0.2274
  697MPD2    H710315   4.009   1.387  15.586 -1.2040  2.1162 -0.8975
  698TMC3    C110316   4.030   2.037  15.361  0.2309  0.2319 -0.4479
  698TMC3    C210317   4.126   2.130  15.358 -0.9792  0.1271 -0.8059
  698TMC3    C310318   4.207   2.134  15.249  1.2955 -0.4846 -0.4736
  698TMC3    C410319   4.003   1.963  15.249 -0.0591 -0.5645 -0.0353
  698TMC3    C510320   4.082   1.973  15.142 -0.2574 -0.1045  0.3428
  698TMC3    C610321   4.182   2.070  15.138 -0.1413  0.1069  0.1696
  698TMC3     C10322   4.010   1.980  15.495 -0.1765  0.3843  0.1991
  698TMC3     O10323   4.018   2.054  15.595  0.0843  0.2950 -0.0665
  698TMC3     H10324   4.142   2.203  15.437 -0.4935 -0.3950 -0.4272
  698TMC3    H110325   3.934   1.879  15.252 -0.1497 -0.5154 -0.8745
  698TMC3    H210326   4.247   2.077  15.052 -0.7789  1.3757 -0.2094
  698TMC3    C710327   4.049   1.887  15.029 -0.3983  0.7397 -0.5314
  698TMC3    C810328   4.339   2.189  15.269 -0.4715 -0.6570  0.1863
  698TMC3    O110329   3.930   1.845  15.031  0.3147 -0.2437  0.0471
  698TMC3    O210330   4.377   2.190  15.386  0.2084 -0.0322  0.3028
  699TMC3    C110331   3.975   4.105  12.937  0.0059  0.1612  0.2723
  699TMC3    C210332   4.035   4.056  13.047 -0.9461  0.2082  0.2119
  699TMC3    C310333   3.972   3.952  13.116  0.4031  0.2730  0.0747
  699TMC3    C410334   3.848   4.068  12.900  0.2428  0.2622  0.2956
  699TMC3    C510335   3.789   3.965  12.968  0.4261 -0.3429  0.5075
  699TMC3    C610336   3.849   3.907  13.078  0.2490  0.0583  0.2452
  699TMC3     C10337   4.050   4.167  12.829 -0.7238  0.5120 -0.1662
  699TMC3     O10338   3.984   4.198  12.730  0.1175 -0.3662 -0.2573
  699TMC3     H10339   4.129   4.097  13.082 -0.1496 -1.2543 -0.2141
  699TMC3    H110340   3.805   4.125  12.818 -0.0486 -1.9247 -1.0635
  699TMC3    H210341   3.804   3.833  13.144 -0.0829  0.9108  0.9858
  699TMC3    C710342   3.645   3.943  12.951  0.1961 -0.1013  0.3541
  699TMC3    C810343   4.023   3.895  13.236 -1.1121 -0.5637 -0.0664
  699TMC3    O110344   3.578   4.043  12.929 -0.1735 -0.4251  0.1232
  699TMC3    O210345   3.947   3.854  13.325  0.0987  0.0428 -0.5024
  700TMC3    C110346   3.050   1.783  17.225 -0.4343 -0.1921  0.0138
  700TMC3    C210347   3.136   1.677  17.211  0.8290 -0.6257 -0.1602
  700TMC3    C310348   3.251   1.664  17.284  0.3068  0.2606 -0.9553
  700TMC3    C410349   3.074   1.866  17.330 -0.3635 -0.3561 -0.2562
  700TMC3    C510350   3.191   1.863  17.403  0.5615  0.0244  0.5042
  700TMC3    C610351   3.283   1.756  17.379 -0.6014  0.0691  0.6973
  700TMC3     C10352   3.034   1.853  17.104 -0.0766 -0.6307 -0.9568
  700TMC3     O10353   2.997   1.786  17.005  0.0247 -0.6031 -0.2219
  700TMC3     H10354   3.118   1.616  17.124 -1.0011 -1.7411  0.9969
  700TMC3    H110355   3.000   1.939  17.360  1.9650  1.5136  0.9260
  700TMC3    H210356   3.381   1.759  17.425  0.2719  0.4390 -1.1954
  700TMC3    C710357   3.231   1.990  17.464 -0.7751 -0.8026 -0.0603
  700TMC3    C810358   3.352   1.575  17.227 -0.4615  0.0911 -0.0359
  700TMC3    O110359   3.173   2.091  17.425  0.3405  0.2400  0.1032
  700TMC3    O210360   3.320   1.512  17.127 -0.1544  0.6301 -0.6815
  701TMC3    C110361   3.128   0.682  15.569  0.4934  0.0041 -0.5682
  701TMC3    C210362   3.056   0.719  15.456  0.5204 -0.0077 -0.2089
  701TMC3    C310363   3.104   0.803  15.364  0.1709  0.8213  0.2084
  701TMC3    C410364   3.261   0.719  15.587  0.5602 -0.1502 -0.1015
  701TMC3    C510365   3.311   0.800  15.486  0.4382  0.5499 -0.1397
  701TMC3    C610366   3.234   0.836  15.373  0.3109  0.5119 -1.3144
  701TMC3     C10367   3.068   0.629  15.686 -0.4922  0.3528 -0.3250
  701TMC3     O10368   3.119   0.650  15.792  0.0779 -0.2042  0.2981
  701TMC3     H10369   2.950   0.700  15.446  0.8116 -2.0541  0.5947
  701TMC3    H110370   3.310   0.706  15.683  0.0825 -0.2852  0.1234
  701TMC3    H210371   3.277   0.894  15.292  1.2443  0.3977 -0.9042
  701TMC3    C710372   3.399   0.906  15.530 -0.1242  0.0459 -0.1579
  701TMC3    C810373   3.053   0.809  15.225  0.2295 -0.3186  0.0014
  701TMC3    O110374   3.449   0.972  15.438 -0.0774  0.4558  0.5527
  701TMC3    O210375   3.096   0.900  15.154  0.5818  0.0914 -0.0248
  702MPD2     C10376   2.380   3.018  10.095  0.2955  0.2546 -0.4446
  702MPD2    C110377   2.509   3.058  10.129 -0.5145 -0.0347  0.3307
  702MPD2    C210378   2.572   3.158  10.053  0.3052 -0.8285  0.4827
  702MPD2    C310379   2.511   3.231   9.956 -0.1423 -0.0367  0.6820
  702MPD2    C410380   2.388   3.189   9.915 -0.4897 -1.0257 -0.5734
  702MPD2    C510381   2.324   3.086   9.990 -0.2079  0.0140  0.3515
  702MPD2     H10382   2.674   3.179  10.084  0.3578  2.2224 -1.8681
  702MPD2    H110383   2.324   3.241   9.844 -1.8007 -1.2778  0.4230
  702MPD2    H210384   2.331   2.938  10.148 -2.2482  0.0476 -3.1069
  702MPD2    H310385   2.226   3.052   9.959 -0.1367  1.5347 -1.5757
  702MPD2     N10386   2.566   3.349   9.914  0.0468  0.5193 -0.3347
  702MPD2    H510387   2.659   3.374   9.948  0.3650  0.2450 -1.0099
  702MPD2    N110388   2.585   3.009  10.240 -0.4789 -0.2791 -0.4210
  702MPD2    H710389   2.677   3.047  10.257 -1.1240  1.6164 -1.1798
  703TMC3    C110390   2.542   3.566   9.918 -0.5526 -0.0090  0.8395
  703TMC3    C210391   2.497   3.560  10.050 -0.5369 -0.0886  0.2985
  703TMC3    C310392   2.581   3.591  10.158 -0.6486 -0.2750 -0.2270
  703TMC3    C410393   2.675   3.590   9.902 -0.7208 -0.3759  0.5702
  703TMC3    C510394   2.758   3.613  10.010  0.7009  0.0999 -0.2974
  703TMC3    C610395   2.712   3.620  10.138  0.3381  0.0457 -0.0551
  703TMC3     C10396   2.505   3.446   9.842 -0.3627  0.2288 -0.2647
  703TMC3     O10397   2.397   3.438   9.785 -0.3482 -0.3081  0.7395
  703TMC3     H10398   2.393   3.531  10.062 -1.4290  2.5930 -0.8655
  703TMC3    H110399   2.726   3.588   9.806 -1.3844  1.3318  0.1839
  703TMC3    H210400   2.785   3.635  10.218  1.7479  0.6189 -1.4410
  703TMC3    C710401   2.898   3.657   9.987  0.3322 -0.3029  0.3273
  703TMC3    C810402   2.552   3.502  10.265  0.1682 -0.0565  0.5841
  703TMC3    O110403   2.917   3.693   9.870 -0.0029  0.1731  0.0781
  703TMC3    O210404   2.640   3.424  10.297  0.5071  0.0177  0.5586
  704TMC3    C110405   0.530   1.254  12.271 -0.3844 -0.1895 -0.3278
  704TMC3    C210406   0.665   1.247  12.280 -0.1731 -0.0860 -0.2929
  704TMC3    C310407   0.720   1.148  12.353 -0.1489 -0.5009 -0.6584
  704TMC3    C410408   0.454   1.164  12.349 -0.1475  0.9840  0.1272
  704TMC3    C510409   0.513   1.067  12.423  0.1944  0.5519  0.1315
  704TMC3    C610410   0.647   1.058  12.427  0.3776 -0.4100  0.0477
  704TMC3     C10411   0.467   1.371  12.217 -0.2999 -0.7379 -0.3179
  704TMC3     O10412   0.358   1.399  12.264  0.0081 -0.6857  0.2002
  704TMC3     H10413   0.727   1.322  12.232 -2.3841  0.3574 -2.4230
  704TMC3    H110414   0.346   1.170  12.340 -0.0855 -0.5446 -1.7437
  704TMC3    H210415   0.691   0.966  12.465 -1.2070 -0.3256  2.1356
  704TMC3    C710416   0.463   0.936  12.388 -1.2379  0.1421 -0.1249
  704TMC3    C810417   0.859   1.113  12.314  0.3898 -0.1203  0.3020
  704TMC3    O110418   0.532   0.850  12.342 -0.2228  0.0797  0.5826
  704TMC3    O210419   0.893   1.173  12.211 -0.2264 -0.8338  0.5845
  705MPD2     C10420   4.724   3.963  16.566 -0.1765  0.1099 -0.1535
  705MPD2    C110421   4.655   4.010  16.456 -0.2645 -0.0207 -0.0568
  705MPD2    C210422   4.518   4.024  16.465  0.1249  1.5985  0.9718
  705MPD2    C310423   4.448   3.994  16.584 -0.6431  0.1309  0.0212
  705MPD2    C410424   4.516   3.967  16.700 -0.3084 -0.0856  0.1970
  705MPD2    C510425   4.653   3.953  16.685  0.0211  0.1001 -0.5820
  705MPD2     H10426   4.460   4.063  16.383 -1.8259 -1.2421  0.9890
  705MPD2    H110427   4.461   3.944  16.791  0.0760  1.2167  0.7627
  705MPD2    H210428   0.105   3.947  16.555 -0.3670 -0.5240 -1.0002
  705MPD2    H310429   4.710   3.921  16.771 -0.0883 -4.4555 -2.1926
  705MPD2     N10430   4.304   4.001  16.593 -0.1922 -0.2475 -0.0162
  705MPD2    H510431   4.264   3.988  16.685  0.0222 -1.2853 -0.0700
  705MPD2    N110432   4.714   4.039  16.336  1.2437 -0.0561 -0.6313
  705MPD2    H710433   4.661   4.074  16.256  0.2894  1.6904  0.7748
  706TMC3    C110434   0.292   4.035  16.003  0.2995  0.3611  0.4960
  706TMC3    C210435   0.223   4.122  15.926 -0.1456  0.0629 -1.2471
  706TMC3    C310436   0.119   4.191  15.979  0.6468  0.3010  0.1081
  706TMC3    C410437   0.266   4.014  16.132  0.6186  0.3589  0.2152
  706TMC3    C510438   0.154   4.073  16.180  0.2760  0.2955  0.0275
  706TMC3    C610439   0.080   4.163  16.109 -0.4270  0.5392  0.0798
  706TMC3     C10440   0.399   3.958  15.944 -0.2085 -0.3989  0.7757
  706TMC3     O10441   0.510   3.945  15.997  0.3105 -0.7050  0.0893
  706TMC3     H10442   0.250   4.151  15.825  1.8714  1.5495 -0.2943
  706TMC3    H110443   0.329   3.946  16.187 -0.2189 -0.1163  0.5737
  706TMC3    H210444   4.719   4.210  16.154 -1.2896 -0.2058 -0.8156
  706TMC3    C710445   0.122   4.043  16.312 -0.8722  0.4213 -0.2586
  706TMC3    C810446   0.112   4.327  15.940 -0.2632  0.9578 -0.7762
  706TMC3    O110447   0.223   4.040  16.385 -0.7216 -0.2596 -0.1445
  706TMC3    O210448   0.105   4.357  15.821 -0.0677 -0.3079  0.0488
  707TMC3    C110449   1.854   2.950   1.103 -0.3079  0.1388  0.6396
  707TMC3    C210450   1.820   2.818   1.127 -0.4868  0.7617 -0.3000
  707TMC3    C310451   1.694   2.786   1.170  0.8131  0.6107  0.1361
  707TMC3    C410452   1.769   3.047   1.131 -0.5874  0.2496 -0.1615
  707TMC3    C510453   1.640   3.017   1.173  0.2780  0.4991  0.3029
  707TMC3    C610454   1.602   2.885   1.201  0.4043 -1.0545 -0.3754
  707TMC3     C10455   1.991   2.975   1.067 -0.2020 -0.3357 -0.5313
  707TMC3     O10456   2.036   2.895   0.990  0.3076  0.0657 -0.4447
  707TMC3     H10457   1.892   2.742   1.102  0.7438  1.8094  0.0876
  707TMC3    H110458   1.785   3.146   1.090  2.7234  0.1159  0.8694
  707TMC3    H210459   1.502   2.851   1.223 -0.3604  2.4882  1.5870
  707TMC3    C710460   1.550   3.132   1.191  0.1368 -0.0136 -0.4547
  707TMC3    C810461   1.655   2.648   1.162  1.0377 -0.5247  0.4495
  707TMC3    O110462   1.589   3.239   1.145 -0.2695 -0.1471 -0.3363
  707TMC3    O210463   1.535   2.636   1.139 -0.5369 -0.2018  0.1390
  708MPD2     C10464   3.245   3.092  13.602  0.0995 -0.4996  0.1746
  708MPD2    C110465   3.148   3.013  13.656  0.2353 -0.7429  0.5141
  708MPD2    C210466   3.188   2.916  13.751  0.1272 -0.1752  0.2529
  708MPD2    C310467   3.321   2.913  13.797  0.4330 -0.0800 -0.0066
  708MPD2    C410468   3.414   3.003  13.747 -0.5111 -0.4783  0.2009
  708MPD2    C510469   3.375   3.084  13.646  0.4830  0.5224  0.1026
  708MPD2     H10470   3.108   2.853  13.789 -0.9024 -0.3556 -2.2485
  708MPD2    H110471   3.512   3.014  13.791  0.8559 -1.9721 -2.5013
  708MPD2    H210472   3.219   3.177  13.539  0.3149 -0.9311 -0.4896
  708MPD2    H310473   3.454   3.151  13.614  0.9715  0.5800  1.4146
  708MPD2     N10474   3.359   2.827  13.913 -0.4605 -0.5587 -0.3235
  708MPD2    H510475   3.457   2.834  13.938 -0.3695  0.1211 -0.8886
  708MPD2    N110476   3.011   3.029  13.612  0.1795  0.7898 -0.0845
  708MPD2    H710477   2.950   2.965  13.662  1.5239 -0.6949 -0.3373
  709TMC3    C110478   2.823   3.047  13.488  0.0523  0.1581  0.4815
  709TMC3    C210479   2.810   2.971  13.378  0.4248 -0.1434 -0.0226
  709TMC3    C310480   2.728   2.858  13.375 -1.0396 -0.5263  0.1777
  709TMC3    C410481   2.751   3.019  13.610 -0.5875  0.7129  0.5620
  709TMC3    C510482   2.675   2.901  13.604  0.5406 -1.0301  0.6431
  709TMC3    C610483   2.671   2.828  13.490  0.1057  0.3524 -1.1463
  709TMC3     C10484   2.966   3.089  13.496 -0.2101 -0.2980 -0.7513
  709TMC3     O10485   3.030   3.129  13.397 -0.8213  0.6108  0.9243
  709TMC3     H10486   2.872   2.995  13.292  1.5056 -1.4700  0.3993
  709TMC3    H110487   2.758   3.073  13.703  2.8523  1.1591  0.0398
  709TMC3    H210488   2.615   2.735  13.499  0.4105  0.2028 -0.7836
  709TMC3    C710489   2.736   2.821  13.708  0.1975  0.6044 -0.0834
  709TMC3    C810490   2.727   2.773  13.264 -0.5284  0.6278  0.5101
  709TMC3    O110491   2.859   2.829  13.709  0.3335 -1.3607 -0.6790
  709TMC3    O210492   2.689   2.656  13.280 -0.0086 -0.4984 -0.2763
  710TMC3    C110493   4.344   4.603   0.320  0.0593 -0.0135 -0.3252
  710TMC3    C210494   4.431   4.565   0.221 -0.0301 -0.4317  0.4220
  710TMC3    C310495   4.553   4.520   0.258  0.9137 -0.1563 -0.2129
  710TMC3    C410496   4.376   4.612   0.453  0.0041  0.4167  0.6024
  710TMC3    C510497   4.502   4.570   0.483  0.4512 -0.1890 -0.0289
  710TMC3    C610498   4.599   4.521   0.389 -0.1659 -0.0743  0.2326
  710TMC3     C10499   4.214   4.547   0.286  0.1375  0.6150  0.0284
  710TMC3     O10500   4.204   4.485   0.183 -0.1323 -0.6038 -0.0465
  710TMC3     H10501   4.406   4.591   0.118 -0.7668  1.6507  1.1177
  710TMC3    H110502   4.308   4.656   0.525  2.0832 -0.0749  2.8326
  710TMC3    H210503   4.691   4.471   0.415 -0.3893 -0.6425 -0.0672
  710TMC3    C710504   4.530   4.544   0.625  0.3505  0.0083 -0.1750
  710TMC3    C810505   4.602   4.421   0.164 -0.7973  0.3195 -0.9574
  710TMC3    O110506   4.431   4.512   0.689  0.1978 -0.1116  0.0179
  710TMC3    O210507   4.583   4.443   0.045 -0.0074  0.1281 -0.3334
  711TMC3    C110508   3.683   0.551  14.785 -0.0278  0.2980  0.3125
  711TMC3    C210509   3.735   0.600  14.905 -0.2681 -0.4991  0.0112
  711TMC3    C310510   3.862   0.567  14.948 -0.6902  0.7086  0.6966
  711TMC3    C410511   3.775   0.476  14.710  0.4883  0.1792 -0.2429
  711TMC3    C510512   3.890   0.434  14.767 -0.0556 -0.6796 -0.7181
  711TMC3    C610513   3.945   0.483  14.878 -0.3554 -0.2693  0.8701
  711TMC3     C10514   3.551   0.486  14.786 -0.2997  1.2055 -0.3443
  711TMC3     O10515   3.540   0.382  14.725  0.9134  0.0860  0.0188
  711TMC3     H10516   3.676   0.655  14.977  0.2999  0.8510 -0.5616
  711TMC3    H110517   3.745   0.431  14.616 -0.1870  0.5010 -0.1769
  711TMC3    H210518   4.045   0.455  14.907  0.4630  1.3059 -0.4761
  711TMC3    C710519   3.916   0.289  14.742  0.6961  0.0668 -0.2702
  711TMC3    C810520   3.861   0.528  15.084  0.3287 -0.4546 -0.3876
  711TMC3    O110521   4.025   0.254  14.785  0.4281  0.6612  0.2366
  711TMC3    O210522   3.755   0.513  15.142  0.5533 -0.1322 -0.0381
  712MPD2     C10523   0.272   1.359  13.069 -0.5556 -0.4247 -0.0821
  712MPD2    C110524   0.170   1.375  13.158 -0.5804 -0.1384 -0.0224
  712MPD2    C210525   0.194   1.458  13.272  0.7867  0.3910 -0.8229
  712MPD2    C310526   0.322   1.507  13.301 -0.0178  0.2130  0.3343
  712MPD2    C410527   0.422   1.479  13.209 -0.2404 -0.0658  0.0680
  712MPD2    C510528   0.398   1.414  13.094 -0.3094  0.3359 -0.5260
  712MPD2     H10529   0.108   1.489  13.330  0.9767  1.5003 -1.1299
  712MPD2    H110530   0.525   1.511  13.221  0.5401 -2.1483 -1.0159
  712MPD2    H210531   0.256   1.296  12.982  3.2166 -0.2035 -0.9322
  712MPD2    H310532   0.479   1.412  13.022  0.2620 -2.9389  0.2015
  712MPD2     N10533   0.359   1.596  13.409 -0.2057 -0.1537  0.3615
  712MPD2    H510534   0.454   1.632  13.401  0.2086 -1.5947 -1.2824
  712MPD2    N110535   0.045   1.316  13.120 -0.5198  0.0642 -0.2897
  712MPD2    H710536   0.049   1.273  13.028 -1.2979  2.0417 -1.2485
  713TMC3    C110537   0.308   1.765  13.568  0.4193  0.3358  0.0614
  713TMC3    C210538   0.444   1.801  13.561 -0.1902  0.2249 -0.3336
  713TMC3    C310539   0.474   1.934  13.569  1.1041  0.4588 -0.2241
  713TMC3    C410540   0.204   1.855  13.580 -1.0516 -0.3811  1.1026
  713TMC3    C510541   0.246   1.985  13.601  0.2882 -0.5628 -0.6107
  713TMC3    C610542   0.378   2.022  13.592 -0.2570  0.5565  0.1187
  713TMC3     C10543   0.272   1.638  13.512 -0.1887  0.8359  0.6413
  713TMC3     O10544   0.159   1.607  13.542 -0.7803 -0.6804  0.3561
  713TMC3     H10545   0.522   1.732  13.530 -0.8634 -0.3169 -0.8356
  713TMC3    H110546   0.099   1.833  13.568 -0.9648 -0.3145  0.2323
  713TMC3    H210547   0.402   2.126  13.611 -0.5716  0.6150  0.1924
  713TMC3    C710548   0.149   2.090  13.586  0.0005 -0.0857  0.3844
  713TMC3    C810549   0.601   1.994  13.526 -0.3238  0.0312  0.3404
  713TMC3    O110550   0.050   2.060  13.525 -0.7077 -0.0620  0.1846
  713TMC3    O210551   0.609   2.113  13.499  0.2958  0.0562  0.2759
  714MPD2     C10552   2.189   4.491   1.191 -0.2117 -0.2780 -0.8203
  714MPD2    C110553   2.242   4.487   1.062 -0.2505  0.2330  0.1455
  714MPD2    C210554   2.165   4.532   0.957  0.0994 -0.2453  0.0009
  714MPD2    C310555   2.041   4.587   0.985  1.1684  0.2508 -0.8085
  714MPD2    C410556   1.988   4.591   1.113  0.3241 -0.8282 -0.1421
  714MPD2    C510557   2.061   4.542   1.216  0.0476  0.0176  0.4967
  714MPD2     H10558   2.199   4.529   0.855 -0.0830  0.9764 -0.0976
  714MPD2    H110559   1.886   4.605   1.146  1.0034 -0.5204  1.8322
  714MPD2    H210560   2.243   4.450   1.276 -0.0170 -0.1058 -0.8613
  714MPD2    H310561   2.020   4.532   1.316  1.7759 -1.5474  1.0469
  714MPD2     N10562   1.961   4.620   0.868 -0.1848  0.7087  0.1077
  714MPD2    H510563   2.011   4.614   0.780 -0.3188 -0.3592  0.1017
  714MPD2    N110564   2.368   4.431   1.051 -0.5919  0.0005  0.3799
  714MPD2    H710565   2.419   4.410   1.136  0.6470  1.0405 -0.1140
  715TMC3    C110566   2.566   4.331   0.960  0.5626  0.2954  0.3960
  715TMC3    C210567   2.615   4.237   0.873  0.3367 -0.0085  0.5946
  715TMC3    C310568   2.740   4.183   0.903 -0.5291  0.2706  0.2879
  715TMC3    C410569   2.636   4.362   1.073 -0.6501 -0.2093 -0.1612
  715TMC3    C510570   2.750   4.295   1.111 -0.2855 -0.5168 -0.1423
  715TMC3    C610571   2.814   4.207   1.022 -0.1074  0.3249 -0.6114
  715TMC3     C10572   2.431   4.388   0.937 -0.2701  0.2456  0.0056
  715TMC3     O10573   2.380   4.357   0.830  0.2959 -0.3475 -0.2930
  715TMC3     H10574   2.571   4.231   0.774  1.9938 -0.3832 -0.1193
  715TMC3    H110575   2.607   4.451   1.127  1.2935 -0.5766  1.5003
  715TMC3    H210576   2.913   4.166   1.042 -1.3727 -2.9874 -1.1225
  715TMC3    C710577   2.810   4.327   1.244  0.2180  0.4450 -0.0472
  715TMC3    C810578   2.805   4.101   0.799 -0.4331 -0.4036  1.9569
  715TMC3    O110579   2.921   4.280   1.268  0.0313  0.1318  0.0120
  715TMC3    O210580   2.736   4.030   0.732  0.2218  0.1670 -0.5867
  716MPD2     C10581   2.739   3.091   9.717  0.9871  0.0795 -0.0151
  716MPD2    C110582   2.675   3.049   9.603 -0.5742 -0.2837  0.5538
  716MPD2    C210583   2.707   2.923   9.554  0.2797 -1.3150 -0.2068
  716MPD2    C310584   2.791   2.844   9.621 -0.1748 -0.0322  0.4725
  716MPD2    C410585   2.845   2.885   9.742 -0.3894 -0.2595 -1.0667
  716MPD2    C510586   2.834   3.015   9.782  0.3870 -0.6473  0.2216
  716MPD2     H10587   2.678   2.886   9.457 -1.7585  2.4422 -1.0467
  716MPD2    H110588   2.912   2.821   9.798 -2.0510 -0.8822  0.2271
  716MPD2    H210589   2.727   3.194   9.750 -1.0789 -0.2174  0.1749
  716MPD2    H310590   2.897   3.050   9.863  1.5305  2.8902 -2.1784
  716MPD2     N10591   2.818   2.720   9.555 -0.7624 -0.0606  0.8589
  716MPD2    H510592   2.763   2.699   9.472  0.7223 -1.9202  0.3597
  716MPD2    N110593   2.596   3.147   9.539  0.2337  0.2520 -0.4784
  716MPD2    H710594   2.584   3.232   9.592 -0.3728  0.7623 -1.4307
  717TMC3    C110595   2.932   2.521   9.517 -0.2430 -0.0406 -0.2045
  717TMC3    C210596   2.869   2.523   9.396  0.2284  0.7515  0.9243
  717TMC3    C310597   2.861   2.402   9.335 -0.4713 -0.5706 -0.4159
  717TMC3    C410598   2.973   2.408   9.582 -0.3379 -1.1699  0.1130
  717TMC3    C510599   2.962   2.285   9.514  0.2797 -0.2721  0.7944
  717TMC3    C610600   2.911   2.286   9.388  0.1388 -0.6048 -0.3599
  717TMC3     C10601   2.900   2.624   9.608 -0.4010  0.2114  0.0197
  717TMC3     O10602   2.948   2.608   9.717 -0.0360  0.2114  0.3674
  717TMC3     H10603   2.845   2.615   9.344 -3.1027 -0.1632  0.8658
  717TMC3    H110604   3.019   2.415   9.680  1.1022  0.6819 -0.6952
  717TMC3    H210605   2.876   2.189   9.354 -1.1691  0.0885 -0.9683
  717TMC3    C710606   3.025   2.159   9.567  0.5970 -0.5021  0.3327
  717TMC3    C810607   2.741   2.388   9.253  0.1204 -0.1065 -0.5721
  717TMC3    O110608   3.002   2.057   9.503  0.1352  0.5660 -0.4408
  717TMC3    O210609   2.659   2.473   9.278  0.6412  0.0537 -0.3222
  718MPD2     C10610   2.142   1.231  12.712 -0.2507  0.0471 -0.3622
  718MPD2    C110611   2.076   1.271  12.594  0.7618 -0.1308  0.0537
  718MPD2    C210612   1.941   1.262  12.604 -0.2824 -0.0648  0.2276
  718MPD2    C310613   1.862   1.229  12.714  0.2723  0.4097 -0.7751
  718MPD2    C410614   1.929   1.203  12.832 -0.4913 -0.8675 -0.7982
  718MPD2    C510615   2.068   1.200  12.827 -0.4048  0.4992  0.2502
  718MPD2     H10616   1.886   1.269  12.510  2.0108  1.8518 -0.9681
  718MPD2    H110617   1.881   1.187  12.928 -3.1225 -1.0039 -2.1560
  718MPD2    H210618   2.250   1.241  12.708 -0.0461 -2.1442 -0.3347
  718MPD2    H310619   2.112   1.179  12.924 -0.9781  1.1801  0.6568
  718MPD2     N10620   1.727   1.253  12.702  0.0193  0.3938  0.4959
  718MPD2    H510621   1.693   1.276  12.609 -1.5130  1.1617  1.2269
  718MPD2    N110622   2.129   1.306  12.472 -0.2463 -0.0597 -0.2218
  718MPD2    H710623   2.065   1.330  12.397 -0.7518 -0.4017  0.1002
  719TMC3    C110624   2.273   1.396  12.321  0.4820 -0.5263 -0.3407
  719TMC3    C210625   2.169   1.386  12.235  0.3815  0.5581  0.5560
  719TMC3    C310626   2.112   1.497  12.176  0.1341 -0.4432  0.7521
  719TMC3    C410627   2.335   1.510  12.344  0.3734  0.1630 -0.6575
  719TMC3    C510628   2.270   1.623  12.291 -0.2236 -0.1042  0.1657
  719TMC3    C610629   2.163   1.619  12.209 -0.6214 -0.6198 -0.2025
  719TMC3     C10630   2.263   1.328  12.444  0.6540 -0.1671 -0.7164
  719TMC3     O10631   2.356   1.331  12.520 -0.3505 -0.4587  0.0610
  719TMC3     H10632   2.122   1.291  12.214  0.0992  0.5245  1.3285
  719TMC3    H110633   2.417   1.511  12.415  1.0782 -0.1784 -1.4726
  719TMC3    H210634   2.126   1.714  12.172  0.6710 -0.5655 -1.3617
  719TMC3    C710635   2.326   1.759  12.312  0.0634  0.3248 -0.6247
  719TMC3    C810636   1.970   1.494  12.197 -0.4659 -0.2978  1.0209
  719TMC3    O110637   2.291   1.862  12.252  0.2287 -0.3104 -0.4753
  719TMC3    O210638   1.941   1.409  12.278  0.1495 -0.0568  0.3462
  720MPD2     C10639   0.253   3.234  13.716  0.1858  0.4072  0.6992
  720MPD2    C110640   0.360   3.267  13.643 -0.2762  0.0143 -0.1246
  720MPD2    C210641   0.479   3.243  13.700 -0.2872 -0.3377  0.6008
  720MPD2    C310642   0.492   3.202  13.838 -0.0814  0.1183  0.6921
  720MPD2    C410643   0.383   3.172  13.912 -0.1924  0.1252 -0.1876
  720MPD2    C510644   0.264   3.187  13.845 -0.5507  0.2666 -0.7065
  720MPD2     H10645   0.568   3.258  13.640  0.7899 -1.5420  1.8712
  720MPD2    H110646   0.390   3.148  14.018  1.7874 -0.2598 -0.3965
  720MPD2    H210647   0.155   3.226  13.671  0.5071 -0.9713  0.2514
  720MPD2    H310648   0.170   3.168  13.895 -0.4184 -0.8496 -0.8903
  720MPD2     N10649   0.621   3.221  13.886  0.1593 -0.2677 -0.2943
  720MPD2    H510650   0.690   3.254  13.820 -1.4907 -0.9885 -2.4098
  720MPD2    N110651   0.354   3.322  13.511 -0.4120  0.1888  0.1609
  720MPD2    H710652   0.444   3.343  13.470 -0.1051  1.8030  1.6473
  721TMC3    C110653   0.805   3.224  14.021  0.0786  0.3278  1.0087
  721TMC3    C210654   0.851   3.247  14.144  0.2283  0.0947 -0.5905
  721TMC3    C310655   0.987   3.256  14.165 -0.2416 -0.5286 -0.7292
  721TMC3    C410656   0.891   3.208  13.914  0.1485 -0.0053  0.5804
  721TMC3    C510657   1.022   3.201  13.936 -0.3441  0.2045  0.1933
  721TMC3    C610658   1.069   3.236  14.057  0.2797 -0.0655 -0.3021
  721TMC3     C10659   0.666   3.187  14.011  0.1812  0.2035  0.0998
  721TMC3     O10660   0.610   3.149  14.113  0.2508 -0.5127 -0.5895
  721TMC3     H10661   0.782   3.259  14.228  2.1608  2.5146  0.6569
  721TMC3    H110662   0.848   3.188  13.816  0.5570 -0.6748  0.5365
  721TMC3    H210663   1.173   3.214  14.075  0.6018  1.3101 -0.5529
  721TMC3    C710664   1.114   3.119  13.843 -0.0711 -0.2034 -0.5426
  721TMC3    C810665   1.047   3.256  14.301  0.2843 -0.0977  0.2288
  721TMC3    O110666   1.058   3.047  13.764  0.0763 -0.1680 -0.0096
  721TMC3    O210667   1.162   3.297  14.307 -0.4297 -0.2364  0.5129
  722MPD2     C10668   4.111   2.006  13.093 -0.5614 -1.0251  0.1330
  722MPD2    C110669   4.046   2.119  13.056  0.6278  0.6683  0.1409
  722MPD2    C210670   3.935   2.109  12.987  0.1685 -0.1958 -0.1132
  722MPD2    C310671   3.882   1.985  12.955  0.2298  0.0391  0.0859
  722MPD2    C410672   3.949   1.875  12.988  0.4388  0.3591 -0.9092
  722MPD2    C510673   4.066   1.888  13.052 -0.4214  0.6218 -0.6012
  722MPD2     H10674   3.887   2.197  12.944 -1.3751 -1.1804 -0.3979
  722MPD2    H110675   3.926   1.774  12.954 -2.9952  0.3878  1.4480
  722MPD2    H210676   4.211   2.006  13.134  0.3367 -0.6408 -2.0493
  722MPD2    H310677   4.119   1.798  13.079 -0.3085  1.0745  0.6883
  722MPD2     N10678   3.768   1.989  12.876  0.5827  0.1060 -0.7365
  722MPD2    H510679   3.720   2.077  12.864  1.2384  0.7188  1.1964
  722MPD2    N110680   4.094   2.253  13.089  0.1447 -0.5140 -0.0184
  722MPD2    H710681   4.048   2.336  13.054 -1.4448 -1.4544 -0.1420
  723TMC3    C110682   3.594   1.903  12.741 -0.1178 -0.3479  0.2776
  723TMC3    C210683   3.501   1.802  12.753  0.6318 -0.6642 -0.3208
  723TMC3    C310684   3.379   1.823  12.713 -0.1186 -0.4044 -0.6563
  723TMC3    C410685   3.555   2.032  12.699  0.8635  0.0338 -0.2033
  723TMC3    C510686   3.427   2.040  12.656  0.2941 -0.2177  0.1499
  723TMC3    C610687   3.335   1.943  12.669  0.1742  0.9184  0.1019
  723TMC3     C10688   3.706   1.878  12.831 -0.1644 -0.0802 -0.0544
  723TMC3     O10689   3.735   1.761  12.843 -0.5431  0.0500  0.0427
  723TMC3     H10690   3.528   1.705  12.793  2.3463 -0.2495 -0.4678
  723TMC3    H110691   3.628   2.100  12.655 -0.1753  0.9905 -0.4384
  723TMC3    H210692   3.240   1.945  12.618 -0.7702  0.3327  1.8694
  723TMC3    C710693   3.375   2.171  12.620 -0.1882 -0.6010  0.4803
  723TMC3    C810694   3.274   1.721  12.713 -0.3337  0.1544  0.5606
  723TMC3    O110695   3.262   2.181  12.575  0.0846 -0.2665 -0.5689
  723TMC3    O210696   3.157   1.755  12.712 -0.5642 -0.5219  0.0469
  724TMC3    C110697   4.527   0.188   9.662  0.2669 -0.7201  0.9153
  724TMC3    C210698   4.455   0.297   9.628  0.2467  0.2103  0.4355
  724TMC3    C310699   4.521   0.414   9.600  0.2581 -0.0760 -0.1105
  724TMC3    C410700   4.664   0.188   9.652  0.0722 -0.4611 -0.2049
  724TMC3    C510701   0.006   0.307   9.624  0.0520  0.1298  0.0149
  724TMC3    C610702   4.660   0.420   9.595 -0.7657 -0.0173  0.3914
  724TMC3     C10703   4.467   0.104   9.767  0.2163  0.3960  0.3056
  724TMC3     O10704   4.541   0.074   9.859 -0.2355 -0.3892  0.9561
  724TMC3     H10705   4.354   0.312   9.665  0.7150  0.3949  1.6349
  724TMC3    H110706   4.723   0.104   9.688 -1.8011 -1.3370  0.8400
  724TMC3    H210707   4.705   0.516   9.570 -0.6936 -0.2282 -0.2884
  724TMC3    C710708   0.143   0.304   9.592 -0.4081  0.2644  0.3873
  724TMC3    C810709   4.440   0.530   9.560 -0.2684  0.6248 -0.0914
  724TMC3    O110710   0.195   0.197   9.560  0.1929 -0.6822  0.0355
  724TMC3    O210711   4.336   0.500   9.503 -0.2416  0.2480  0.0458
  725TMC3    C110712   0.850   4.045  12.338 -0.3019 -0.1917  0.3497
  725TMC3    C210713   0.845   4.038  12.203  0.5125  0.0457  0.2688
  725TMC3    C310714   0.780   3.934  12.142  0.1871 -0.9985  0.3301
  725TMC3    C410715   0.813   3.934  12.405 -0.2616  0.0182  0.5110
  725TMC3    C510716   0.763   3.825  12.349  0.3773 -0.3291  0.0463
  725TMC3    C610717   0.750   3.823  12.213 -0.5400  0.0073 -0.3447
  725TMC3     C10718   0.977   4.100  12.396  0.6907  0.0464 -0.2821
  725TMC3     O10719   0.970   4.139  12.513 -0.1068  0.4867  0.5675
  725TMC3     H10720   0.871   4.119  12.136 -1.5086 -0.1924 -0.8260
  725TMC3    H110721   0.822   3.943  12.513 -1.4226  0.9115  0.5349
  725TMC3    H210722   0.694   3.745  12.162 -0.0737 -0.8072  0.3729
  725TMC3    C710723   0.734   3.700  12.419 -0.2648 -0.2460 -0.2321
  725TMC3    C810724   0.748   3.926  11.999 -0.0293  0.8392 -0.4173
  725TMC3    O110725   0.638   3.634  12.389  0.5351 -0.6454  0.3055
  725TMC3    O210726   0.671   3.838  11.963 -0.3166  0.3552 -0.4640
  726MPD2     C10727   4.096   0.625  10.221 -0.3153  0.7804 -0.1127
  726MPD2    C110728   4.028   0.742  10.199  0.7140 -0.2604  0.0705
  726MPD2    C210729   3.906   0.743  10.144  0.2924  0.0833  0.3132
  726MPD2    C310730   3.843   0.628  10.106  0.4074  0.4797  0.4992
  726MPD2    C410731   3.904   0.514  10.128  0.1560  0.4076  0.5844
  726MPD2    C510732   4.031   0.514  10.184 -0.3391 -0.5352  0.0461
  726MPD2     H10733   3.860   0.836  10.113 -1.0069 -0.6828 -0.0587
  726MPD2    H110734   3.876   0.412  10.107  1.9716  0.3889 -1.6773
  726MPD2    H210735   4.200   0.623  10.252 -0.1557 -0.7523 -0.7642
  726MPD2    H310736   4.089   0.422  10.186  0.0160 -0.3234 -0.5819
  726MPD2     N10737   3.719   0.624  10.048  0.2261 -0.3376  0.4850
  726MPD2    H510738   3.669   0.537  10.066  1.7695 -0.9126  2.0123
  726MPD2    N110739   4.087   0.868  10.210 -0.1774 -0.2913 -0.4937
  726MPD2    H710740   4.033   0.952  10.191 -0.2603 -0.8049 -2.5318
  727TMC3    C110741   4.234   1.035  10.252 -0.2252 -0.1565  0.0694
  727TMC3    C210742   4.292   1.100  10.355  0.2956 -0.2838 -0.2493
  727TMC3    C310743   4.292   1.242  10.360 -0.1602  0.4336 -0.4107
  727TMC3    C410744   4.165   1.102  10.155  0.7139  0.2404 -0.2118
  727TMC3    C510745   4.160   1.237  10.167 -0.1060  0.2993  0.5093
  727TMC3    C610746   4.223   1.308  10.262  0.8002  0.2851 -0.2979
  727TMC3     C10747   4.202   0.896  10.272 -0.1574 -0.5609  0.1955
  727TMC3     O10748   4.280   0.827  10.338  0.3358  0.5485  0.1419
  727TMC3     H10749   4.342   1.054  10.439  1.5624  0.5840 -0.5245
  727TMC3    H110750   4.128   1.043  10.072  0.1097  2.0911 -1.2589
  727TMC3    H210751   4.246   1.413  10.245 -0.3991  0.7253  0.8116
  727TMC3    C710752   4.063   1.298  10.089 -0.3570 -0.0912 -0.0164
  727TMC3    C810753   4.411   1.315  10.417 -0.6042  0.2479 -0.2126
  727TMC3    O110754   3.993   1.229  10.017 -0.2924 -0.9239 -0.4217
  727TMC3    O210755   4.503   1.249  10.457  1.1299  0.2803  0.3522
  728TMC3    C110756   3.152   3.720  15.540 -0.1784 -0.3141 -0.0193
  728TMC3    C210757   3.205   3.838  15.584  0.6613  1.7683 -0.6395
  728TMC3    C310758   3.247   3.917  15.486 -0.2589 -0.1416 -0.0668
  728TMC3    C410759   3.137   3.687  15.402  0.5568  0.5350 -0.1688
  728TMC3    C510760   3.186   3.780  15.309  0.6726 -0.2660  0.1192
  728TMC3    C610761   3.247   3.895  15.353 -0.2214  0.6458 -0.2525
  728TMC3     C10762   3.096   3.631  15.635  0.1022  0.2124 -0.6227
  728TMC3     O10763   3.121   3.669  15.749 -0.0301 -0.2017  0.8818
  728TMC3     H10764   3.221   3.854  15.690  0.7122 -0.9057 -0.2398
  728TMC3    H110765   3.116   3.586  15.369  0.9712  0.4672 -0.2254
  728TMC3    H210766   3.278   3.970  15.281 -0.5072  1.8693  0.8966
  728TMC3    C710767   3.122   3.770  15.179 -0.1407 -0.3583 -0.0742
  728TMC3    C810768   3.332   4.031  15.529  0.3013  0.0809  0.6197
  728TMC3    O110769   3.060   3.669  15.162  0.2273 -0.5105  0.3672
  728TMC3    O210770   3.410   4.069  15.441 -0.0674  0.4395 -0.4947
  729MPD2     C10771   0.334   4.547  16.804  0.2749  0.1769  0.1860
  729MPD2    C110772   0.469   4.523  16.790 -0.4904 -0.5915 -0.3731
  729MPD2    C210773   0.563   4.560  16.892  1.0007  0.4704  0.3078
  729MPD2    C310774   0.516   4.628  16.999 -0.1314  0.1248 -0.4863
  729MPD2    C410775   0.385   4.669  17.008  0.3247  0.1649 -0.7054
  729MPD2    C510776   0.298   4.623  16.909 -0.1209 -0.1306  0.1894
  729MPD2     H10777   0.668   4.533  16.889  1.2074  1.1705  1.0999
  729MPD2    H110778   0.350   4.725  17.095  0.0112 -2.3450  0.7946
  729MPD2    H210779   0.262   4.518  16.728  0.2868 -3.3708  1.5397
  729MPD2    H310780   0.193   4.640  16.928 -0.3740 -1.0408 -0.3752
  729MPD2     N10781   0.597   4.665  17.105 -0.5583  0.1294  0.1627
  729MPD2    H510782   0.561   0.009  17.169 -1.3738 -0.2481  0.1150
  729MPD2    N110783   0.519   4.484  16.663 -0.6289 -0.6702 -0.4479
  729MPD2    H710784   0.463   4.494  16.579  0.5014 -0.8350 -1.2130
  730TMC3    C110785   0.773   4.668  17.255  0.0241 -0.8333 -0.0818
  730TMC3    C210786   0.902   4.705  17.240  0.2539 -0.3182  0.1513
  730TMC3    C310787   0.941   0.095  17.297  0.3196 -0.3385 -0.0011
  730TMC3    C410788   0.685   0.007  17.336  0.0757  0.2289 -0.0243
  730TMC3    C510789   0.726   0.128  17.378  0.0476  0.4865 -1.0188
  730TMC3    C610790   0.850   0.177  17.362  0.5920  0.9677 -0.5637
  730TMC3     C10791   0.719   4.602  17.140  0.6142 -0.1780 -0.6231
  730TMC3     O10792   0.801   4.540  17.068 -0.2669  0.1565  0.0031
  730TMC3     H10793   0.963   4.647  17.172  1.2599  0.5860  0.2905
  730TMC3    H110794   0.583   4.699  17.348  0.3998 -1.3755 -1.9125
  730TMC3    H210795   0.892   0.272  17.395  0.2592  0.2182  2.0218
  730TMC3    C710796   0.626   0.221  17.342  0.5694  0.5394 -0.2506
  730TMC3    C810797   1.061   0.150  17.245 -0.3435 -0.0422 -0.6267
  730TMC3    O110798   0.542   0.184  17.266  0.2365 -0.1993 -0.3301
  730TMC3    O210799   1.155   0.075  17.237 -0.7672  0.6825 -0.3680
  731MPD2     C10800   0.514   3.132  11.880 -0.6351  0.5783  0.4163
  731MPD2    C110801   0.653   3.121  11.870 -0.2524 -0.1407 -0.1989
  731MPD2    C210802   0.719   3.057  11.979  0.3933  0.1558  0.0896
  731MPD2    C310803   0.649   3.032  12.098 -0.0957 -0.6527  0.3543
  731MPD2    C410804   0.508   3.032  12.097 -0.0756  0.2392 -0.7617
  731MPD2    C510805   0.439   3.082  11.986 -0.0632 -0.5171 -0.2263
  731MPD2     H10806   0.827   3.045  11.982  0.2749 -1.3136 -1.6557
  731MPD2    H110807   0.447   2.997  12.180  0.8781 -0.0953 -0.1967
  731MPD2    H210808   0.461   3.151  11.787 -1.1096 -0.4993  0.4650
  731MPD2    H310809   0.331   3.082  11.980 -0.0909  0.2058  0.3115
  731MPD2     N10810   0.721   2.998  12.211 -0.5351 -0.2622 -0.9275
  731MPD2    H510811   0.820   2.982  12.194 -0.8831 -2.4466 -0.7992
  731MPD2    N110812   0.715   3.165  11.752  0.9942  0.1024  0.3244
  731MPD2    H710813   0.650   3.214  11.691  2.5298  1.5360 -0.1763
  732TMC3    C110814   0.878   3.217  11.592  0.4055  0.9061 -0.4950
  732TMC3    C210815   0.797   3.170  11.493  0.2002  0.2039 -0.2350
  732TMC3    C310816   0.786   3.236  11.375 -1.2207  0.4128  0.7452
  732TMC3    C410817   0.967   3.322  11.566  0.5201  0.2383 -0.9307
  732TMC3    C510818   0.964   3.374  11.440  0.4044  0.4604 -0.0221
  732TMC3    C610819   0.883   3.328  11.339 -0.5412 -0.4756  0.1424
  732TMC3     C10820   0.848   3.183  11.730 -0.4425  0.0699 -0.1235
  732TMC3     O10821   0.932   3.208  11.821 -0.1217  0.3851  0.3373
  732TMC3     H10822   0.733   3.090  11.528  1.5004  0.3452  2.4248
  732TMC3    H110823   1.019   3.368  11.650 -0.1193 -0.1475 -0.3229
  732TMC3    H210824   0.870   3.382  11.246  1.2565  1.1732  0.8426
  732TMC3    C710825   1.032   3.505  11.414 -0.6541  0.4994 -0.4660
  732TMC3    C810826   0.683   3.206  11.274  0.5631 -0.1322  0.9565
  732TMC3    O110827   0.973   3.571  11.330  0.5734  0.1306 -0.0724
  732TMC3    O210828   0.724   3.216  11.158 -0.5730  0.3587 -0.0688
  733TMC3    C110829   1.294   1.414  12.801 -0.0378 -0.5031  0.1778
  733TMC3    C210830   1.402   1.328  12.834 -0.1181 -0.4514  0.4027
  733TMC3    C310831   1.524   1.354  12.774 -0.2880  0.2698 -0.3974
  733TMC3    C410832   1.307   1.520  12.719 -0.0722  0.0194 -0.0529
  733TMC3    C510833   1.429   1.531  12.657  0.4510 -0.0185  0.2352
  733TMC3    C610834   1.542   1.453  12.683  0.2191  0.0854  0.3552
  733TMC3     C10835   1.178   1.421  12.883  0.1923 -0.6614 -0.0154
  733TMC3     O10836   1.153   1.530  12.925  0.1691 -0.2278 -0.2914
  733TMC3     H10837   1.380   1.245  12.901  2.5096 -1.8795 -0.4940
  733TMC3    H110838   1.222   1.581  12.690  0.3650 -0.0160 -1.4001
  733TMC3    H210839   1.641   1.471  12.642  1.0032 -2.5065  1.1374
  733TMC3    C710840   1.428   1.605  12.532  0.8639  0.0533 -0.5020
  733TMC3    C810841   1.646   1.273  12.810 -0.4433  0.0352 -0.0908
  733TMC3    O110842   1.369   1.714  12.522 -0.5823  0.1943 -0.1317
  733TMC3    O210843   1.632   1.200  12.906  0.0050  0.3506  0.2691
  734MPD2     C10844   3.400   4.102  12.152  0.5194 -0.4635  0.9273
  734MPD2    C110845   3.318   4.054  12.054 -0.1292 -0.3527  0.3197
  734MPD2    C210846   3.317   4.105  11.926  0.3015 -0.0574 -0.6605
  734MPD2    C310847   3.393   4.217  11.904 -0.0984  0.3090 -1.3245
  734MPD2    C410848   3.459   4.288  12.004 -0.0613  0.2232 -0.9441
  734MPD2    C510849   3.477   4.217  12.124 -0.0921  0.0626 -0.3951
  734MPD2     H10850   3.265   4.058  11.843  0.6651  1.4268 -1.7230
  734MPD2    H110851   3.529   4.366  11.978 -0.6839  1.5917  1.5136
  734MPD2    H210852   3.407   4.056  12.250 -0.1562  0.4878  1.4209
  734MPD2    H310853   3.537   4.261  12.203 -0.0318  0.7956 -0.8506
  734MPD2     N10854   3.386   4.262  11.772  0.3440 -0.0958 -0.7476
  734MPD2    H510855   3.336   4.202  11.707  0.7395  0.1012 -1.2329
  734MPD2    N110856   3.238   3.943  12.090  0.1158  0.9482  0.1960
  734MPD2    H710857   3.235   3.909  12.186  0.4051  2.0101  0.5858
  735TMC3    C110858   3.087   3.756  12.061  0.8142 -0.2556 -0.2184
  735TMC3    C210859   3.003   3.718  11.957 -0.5009  0.4492 -0.2070
  735TMC3    C310860   3.017   3.597  11.899 -0.4711 -0.8705  0.3013
  735TMC3    C410861   3.193   3.676  12.098  0.5556  0.1625  1.2234
  735TMC3    C510862   3.209   3.561  12.023 -0.3521  0.3671 -1.0501
  735TMC3    C610863   3.117   3.515  11.932 -0.3543  0.3405  0.1628
  735TMC3     C10864   3.140   3.884  12.013  0.2014 -0.0975 -0.7942
  735TMC3     O10865   3.085   3.928  11.912 -0.2703  0.2940  0.5959
  735TMC3     H10866   2.911   3.774  11.948  0.0653  1.4780  0.4427
  735TMC3    H110867   3.260   3.704  12.178  2.6765  1.6760 -1.1113
  735TMC3    H210868   3.123   3.416  11.889 -0.9578 -0.3937  1.7913
  735TMC3    C710869   3.349   3.536  11.992 -0.1717  0.3741 -0.0153
  735TMC3    C810870   2.997   3.600  11.756  0.1474 -0.1927 -0.1454
  735TMC3    O110871   3.426   3.632  11.982 -0.5223 -0.0475  0.6806
  735TMC3    O210872   3.000   3.502  11.685  0.0497  0.2732  0.0509
  736MPD2     C10873   3.521   3.221  12.078  0.3335  0.2745 -0.6185
  736MPD2    C110874   3.503   3.344  12.011 -0.3711 -0.1127 -0.1672
  736MPD2    C210875   3.615   3.415  11.960  0.6857 -0.5162  0.1116
  736MPD2    C310876   3.739   3.362  11.982 -0.2058 -0.1004  0.8454
  736MPD2    C410877   3.758   3.242  12.055  0.1429  0.2578 -0.7325
  736MPD2    C510878   3.649   3.166  12.087 -0.0402 -0.0300  0.2165
  736MPD2     H10879   3.610   3.507  11.903 -0.6523 -0.6412  0.0134
  736MPD2    H110880   3.850   3.191  12.080 -1.7557 -2.0906  1.4857
  736MPD2    H210881   3.432   3.168  12.111  0.2386  1.1566  0.5323
  736MPD2    H310882   3.667   3.073  12.139  2.7152 -0.2522 -1.1098
  736MPD2     N10883   3.859   3.407  11.937  0.4072  0.1585 -0.4371
  736MPD2    H510884   3.939   3.349  11.961 -0.8647 -1.4464 -0.0367
  736MPD2    N110885   3.372   3.402  12.020 -0.1783  0.2449 -0.6800
  736MPD2    H710886   3.299   3.344  12.059  1.1111 -1.3465 -0.6551
  737TMC3    C110887   3.993   3.553  11.805 -0.0319  0.4219  0.0136
  737TMC3    C210888   3.990   3.668  11.726 -0.6087 -0.4891 -0.1148
  737TMC3    C310889   4.080   3.670  11.610 -0.4188 -0.2849 -0.2490
  737TMC3    C410890   4.082   3.449  11.779  0.0409 -0.2884 -0.1718
  737TMC3    C510891   4.159   3.457  11.666  0.2494  0.2486  0.8052
  737TMC3    C610892   4.154   3.561  11.580  0.6990  0.0639  0.1365
  737TMC3     C10893   3.863   3.516  11.850 -0.3167 -0.4346  0.4604
  737TMC3     O10894   3.775   3.587  11.798  0.6610 -0.2188 -0.1494
  737TMC3     H10895   3.926   3.754  11.744 -1.5096 -0.7667 -2.0184
  737TMC3    H110896   4.086   3.361  11.842 -1.2400 -0.0559  0.2456
  737TMC3    H210897   4.203   3.554  11.484 -0.2379  0.6534 -0.3879
  737TMC3    C710898   4.216   3.331  11.629  0.3174 -0.2605 -0.7049
  737TMC3    C810899   4.081   3.791  11.530  0.1186  0.0132 -0.7326
  737TMC3    O110900   4.170   3.230  11.676 -0.1234  0.7061 -0.3652
  737TMC3    O210901   4.032   3.889  11.583 -0.1660 -0.1088 -0.1321
  738MPD2     C10902   4.628   2.253  15.267  0.0374  0.1671  0.3962
  738MPD2    C110903   4.540   2.246  15.154  0.2949  0.0233  0.1159
  738MPD2    C210904   4.593   2.272  15.030  0.0805 -0.6910 -0.2101
  738MPD2    C310905   4.725   2.303  15.013 -0.3446 -0.1262  0.5996
  738MPD2    C410906   0.088   2.303  15.130 -0.6540  1.8980 -0.0727
  738MPD2    C510907   0.032   2.275  15.248 -0.0231 -0.1348 -0.2522
  738MPD2     H10908   4.531   2.266  14.942  1.3941 -0.0985 -1.1797
  738MPD2    H110909   0.195   2.323  15.133 -0.3977  0.7543 -1.1267
  738MPD2    H210910   4.581   2.236  15.363 -0.3361  0.8656  0.3399
  738MPD2    H310911   0.095   2.283  15.336 -0.3876 -0.5814  0.0471
  738MPD2     N10912   0.062   2.319  14.891 -0.1658 -0.2257 -0.0986
  738MPD2    H510913   0.163   2.324  14.893 -0.0019 -3.1198 -0.3671
  738MPD2    N110914   4.404   2.218  15.154 -0.5603 -0.2869 -0.5727
  738MPD2    H710915   4.351   2.203  15.069 -0.5198 -0.6195 -0.5389
  739TMC3    C110916   0.089   2.333  14.658  0.1224  0.2247 -0.6329
  739TMC3    C210917   0.084   2.432  14.565 -0.1212  0.1160 -0.7843
  739TMC3    C310918   0.198   2.458  14.491 -0.4734  0.2452 -0.1478
  739TMC3    C410919   0.203   2.264  14.689  0.4022 -0.0169 -0.1782
  739TMC3    C510920   0.317   2.290  14.612 -0.2411  0.3775 -0.2137
  739TMC3    C610921   0.318   2.399  14.519  0.4172 -0.4782 -0.1614
  739TMC3     C10922   4.722   2.331  14.770  0.3932  0.7829  0.0895
  739TMC3     O10923   4.603   2.362  14.751  0.0984  0.4246 -0.2111
  739TMC3     H10924   4.710   2.469  14.544  0.3837  0.8006 -1.9725
  739TMC3    H110925   0.205   2.179  14.755 -0.6216 -1.6921 -2.3109
  739TMC3    H210926   0.416   2.414  14.477 -0.4154 -1.1768 -2.3470
  739TMC3    C710927   0.423   2.192  14.605  0.2717  0.4171  0.5224
  739TMC3    C810928   0.187   2.560  14.392 -0.7184  0.4258 -0.6880
  739TMC3    O110929   0.501   2.200  14.511 -0.2796  0.3090  0.0722
  739TMC3    O210930   0.074   2.599  14.367 -0.2239 -0.7154 -0.2764
  740TMC3    C110931   0.429   3.704  14.112  0.6582  0.6746 -0.3503
  740TMC3    C210932   0.485   3.644  14.221 -0.2558 -0.4883 -0.2544
  740TMC3    C310933   0.611   3.584  14.213  0.1575  0.0980 -0.2501
  740TMC3    C410934   0.500   3.709  13.989  0.1407  0.2104  0.0142
  740TMC3    C510935   0.605   3.623  13.981  0.2115  0.1976 -0.0830
  740TMC3    C610936   0.671   3.566  14.091 -0.4670  0.1460  0.3546
  740TMC3     C10937   0.299   3.772  14.122 -0.2330 -0.2086  0.0985
  740TMC3     O10938   0.268   3.838  14.022  0.5886  0.7780  0.2654
  740TMC3     H10939   0.440   3.643  14.320 -1.0231 -1.1578 -0.6080
  740TMC3    H110940   0.471   3.771  13.904 -2.0435 -1.4676 -0.4476
  740TMC3    H210941   0.768   3.519  14.083  0.0881  1.3093  0.3332
  740TMC3    C710942   0.666   3.591  13.850  0.9729 -0.4921 -0.6760
  740TMC3    C810943   0.694   3.564  14.328  0.2446  0.2809  0.1854
  740TMC3    O110944   0.760   3.507  13.846 -0.1184 -0.0616 -0.7272
  740TMC3    O210945   0.803   3.513  14.306 -0.5854  0.2824  0.2531
  741TMC3    C110946   0.060   2.766  14.710  0.4372  0.3597 -0.1453
  741TMC3    C210947   4.656   2.754  14.668 -0.6659 -0.2524  0.1639
  741TMC3    C310948   4.555   2.701  14.746  0.0193 -0.2609  0.5192
  741TMC3    C410949   0.094   2.736  14.828 -0.5812  0.4382  0.2638
  741TMC3    C510950   4.725   2.671  14.909 -0.1369  0.0957  0.0373
  741TMC3    C610951   4.595   2.668  14.872 -0.3665 -0.4045  0.2587
  741TMC3     C10952   0.159   2.826  14.629 -0.0736 -0.4401 -0.2090
  741TMC3     O10953   0.272   2.795  14.657  0.1128  0.4739 -0.1852
  741TMC3     H10954   4.625   2.786  14.569 -1.2232 -0.8224  0.1530
  741TMC3    H110955   0.198   2.742  14.860  0.3144  1.0050 -2.7438
  741TMC3    H210956   4.518   2.634  14.940 -0.9498  1.3107  0.4631
  741TMC3    C710957   0.031   2.693  15.052 -0.0016 -0.0274  0.1428
  741TMC3    C810958   4.441   2.629  14.683 -0.2294  0.5025 -0.5792
  741TMC3    O110959   0.140   2.740  15.081 -0.1639 -0.0059  0.0367
  741TMC3    O210960   4.451   2.621  14.558  0.0382 -0.1953  0.3263
  742TMC3    C110961   4.344   1.345  15.308  0.1275 -1.0936 -0.9615
  742TMC3    C210962   4.253   1.328  15.206  0.4813  0.1723  0.6015
  742TMC3    C310963   4.301   1.282  15.084  0.7417  0.3533  0.1566
  742TMC3    C410964   4.471   1.311  15.301  0.1816  0.7629 -0.6061
  742TMC3    C510965   4.514   1.263  15.179 -0.1555  0.0133  0.1960
  742TMC3    C610966   4.430   1.253  15.067  0.4002 -0.9624 -1.3368
  742TMC3     C10967   4.307   1.420  15.430 -0.4122  0.1636 -0.3294
  742TMC3     O10968   4.187   1.436  15.455 -0.0339 -0.0777 -0.5845
  742TMC3     H10969   4.160   1.381  15.220  0.9158  1.0685  0.0889
  742TMC3    H110970   4.539   1.301  15.384  0.3998 -2.4479 -1.1709
  742TMC3    H210971   4.477   1.215  14.977  0.9270 -0.6230 -1.2074
  742TMC3    C710972   4.619   1.160  15.203 -0.0660  0.5646 -0.4518
  742TMC3    C810973   4.219   1.253  14.968  0.1109 -0.0882 -0.2882
  742TMC3    O110974   4.711   1.187  15.280  0.0672 -0.7924 -0.3974
  742TMC3    O210975   4.273   1.234  14.863 -0.0516  0.3782  0.0027
  743MPD2     C10976   2.652   2.477   1.635  0.6770  0.1947 -0.7255
  743MPD2    C110977   2.684   2.360   1.569  0.0692  0.5943 -0.5511
  743MPD2    C210978   2.812   2.309   1.585 -0.1132  0.0709 -0.3266
  743MPD2    C310979   2.899   2.384   1.666 -0.6512 -0.7787  0.4103
  743MPD2    C410980   2.859   2.494   1.736 -0.5166  0.1726 -0.5068
  743MPD2    C510981   2.732   2.541   1.726 -0.2781 -0.1606 -0.3735
  743MPD2     H10982   2.845   2.217   1.538  0.2100 -0.2313  0.4794
  743MPD2    H110983   2.927   2.553   1.796 -2.6411  1.3005  0.7809
  743MPD2    H210984   2.553   2.518   1.625  0.2451 -0.6727 -0.0032
  743MPD2    H310985   2.688   2.624   1.780 -0.5680  0.1427 -1.0637
  743MPD2     N10986   3.033   2.341   1.688  1.1890  0.2348  0.0847
  743MPD2    H510987   3.051   2.254   1.637  0.9285  0.3472 -0.2029
  743MPD2    N110988   2.593   2.298   1.484 -0.1087 -0.1688 -0.1038
  743MPD2    H710989   2.501   2.338   1.474  0.6403  1.2696 -1.3052
  744TMC3    C110990   2.490   2.150   1.338  0.4671 -0.3426  0.6571
  744TMC3    C210991   2.369   2.188   1.385  0.2482 -0.2024 -0.1717
  744TMC3    C310992   2.262   2.158   1.304  0.3657  0.2870 -0.1171
  744TMC3    C410993   2.514   2.082   1.226 -0.0061 -0.2409  0.7290
  744TMC3    C510994   2.406   2.063   1.144 -0.0745  0.2653  0.0328
  744TMC3    C610995   2.282   2.104   1.179  0.0179  0.8323  0.4481
  744TMC3     C10996   2.614   2.188   1.400  0.1556 -0.1101  0.0498
  744TMC3     O10997   2.703   2.106   1.390 -0.1107 -0.4191  0.4583
  744TMC3     H10998   2.353   2.247   1.475  2.6338  0.1150  0.0332
  744TMC3    H110999   2.615   2.060   1.193 -0.9100 -2.1482 -0.7735
  744TMC3    H211000   2.201   2.108   1.108  0.6049  0.2958 -0.2471
  744TMC3    C711001   2.434   2.045   1.004  0.0691 -0.4074 -0.2244
  744TMC3    C811002   2.133   2.224   1.326  0.5906  0.2151  0.8465
  744TMC3    O111003   2.551   2.033   0.968  0.3061  0.1097 -0.3450
  744TMC3    O211004   2.139   2.322   1.404 -0.3686 -0.2702  0.3265
  745TMC3    C111005   4.532   1.275  13.146 -0.3361 -0.5597  0.3707
  745TMC3    C211006   4.451   1.250  13.247  0.1544 -0.5077 -0.4795
  745TMC3    C311007   4.331   1.313  13.254  0.2285 -0.3303 -0.2575
  745TMC3    C411008   4.487   1.349  13.043  0.7102 -0.4160 -0.3379
  745TMC3    C511009   4.357   1.410  13.048  0.1705 -0.7940  0.0006
  745TMC3    C611010   4.282   1.394  13.157  0.4294 -0.4177  0.4115
  745TMC3     C11011   4.658   1.318  13.204  0.0606  0.3171 -0.6247
  745TMC3     O11012   4.653   1.365  13.316 -1.1576  0.3905  0.2669
  745TMC3     H11013   4.475   1.179  13.326  1.5516 -0.2168 -0.6482
  745TMC3    H111014   4.555   1.348  12.958  0.6925  1.8266 -0.3787
  745TMC3    H211015   4.184   1.438  13.177 -0.4087 -2.0399 -0.1247
  745TMC3    C711016   4.361   1.549  13.002 -0.1303  0.4344 -0.7456
  745TMC3    C811017   4.290   1.343  13.386 -0.5228 -0.0928 -0.5587
  745TMC3    O111018   4.259   1.619  12.996 -0.6812 -0.0984 -0.3012
  745TMC3    O211019   4.168   1.346  13.403  0.2823  0.3783 -0.3800
  746TMC3    C111020   2.719   3.089  10.617  0.2205  0.1991  0.0732
  746TMC3    C211021   2.695   3.045  10.487 -0.6378  0.4466  0.0657
  746TMC3    C311022   2.613   2.932  10.462 -0.2969  0.6599 -0.1705
  746TMC3    C411023   2.639   3.051  10.719 -0.2355  0.1232  0.3145
  746TMC3    C511024   2.559   2.943  10.688  0.2223 -0.2197 -0.1965
  746TMC3    C611025   2.553   2.872  10.569  0.3699 -0.2349 -0.5950
  746TMC3     C11026   2.751   3.221  10.628  0.2152  0.3035  0.0593
  746TMC3     O11027   2.671   3.282  10.693  0.9563 -0.1654 -0.1293
  746TMC3     H11028   2.735   3.102  10.404 -0.5854  1.6137  0.8821
  746TMC3    H111029   2.649   3.089  10.820 -2.3125 -0.6315  0.8087
  746TMC3    H211030   2.484   2.790  10.554 -1.5490  1.4644 -1.1185
  746TMC3    C711031   2.441   2.930  10.771  0.8020  0.1344  0.2966
  746TMC3    C811032   2.535   2.924  10.334 -0.0966  0.1865  0.3907
  746TMC3    O111033   2.371   2.832  10.754 -0.3697  0.5288 -0.3757
  746TMC3    O211034   2.427   2.867  10.343 -0.5664 -0.6606 -0.0497
  747TMC3    C111035   0.185   3.201  10.819  0.2483  0.4846  0.1640
  747TMC3    C211036   0.074   3.153  10.879 -0.2724  0.3445  0.5047
  747TMC3    C311037   0.039   3.198  11.006 -0.0983  0.5856 -0.4467
  747TMC3    C411038   0.263   3.294  10.885  1.1904 -0.3336  0.6186
  747TMC3    C511039   0.211   3.344  11.003 -0.2282 -0.5684 -0.0060
  747TMC3    C611040   0.104   3.286  11.075 -0.8860  0.2659  0.4248
  747TMC3     C11041   0.194   3.231  10.674 -0.3719 -0.1670  0.0081
  747TMC3     O11042   0.248   3.335  10.642  0.3094  0.1977  0.8077
  747TMC3     H11043   0.003   3.098  10.819  0.9669  0.8215 -1.4083
  747TMC3    H111044   0.352   3.328  10.833 -0.2112  0.4523 -1.2944
  747TMC3    H211045   0.092   3.300  11.182  1.8797  0.7207  0.6731
  747TMC3    C711046   0.273   3.461  11.071 -0.1031  0.3274  0.5407
  747TMC3    C811047   4.642   3.141  11.061 -0.1586  0.6363 -0.9247
  747TMC3    O111048   0.225   3.509  11.175  0.7173  0.0816 -0.2718
  747TMC3    O211049   4.594   3.048  10.997  0.1617  0.6363 -0.2354
  748MPD2     C11050   1.629   3.689   1.573  0.0953  0.1323 -0.1612
  748MPD2    C111051   1.639   3.562   1.503  0.1193 -0.0216  0.1068
  748MPD2    C211052   1.724   3.549   1.391  0.3995 -0.0494  0.1933
  748MPD2    C311053   1.805   3.652   1.353  0.2376 -0.3736  0.3418
  748MPD2    C411054   1.795   3.777   1.422 -0.4998 -0.1037  0.1967
  748MPD2    C511055   1.702   3.795   1.520  0.3387  0.2267 -0.1712
  748MPD2     H11056   1.721   3.462   1.327 -1.4325  0.8295 -0.9267
  748MPD2    H111057   1.849   3.864   1.389 -0.0049 -0.6300 -0.3805
  748MPD2    H211058   1.568   3.701   1.662  1.0453 -0.1254  0.5352
  748MPD2    H311059   1.702   3.899   1.550 -0.6500  0.2932 -0.4049
  748MPD2     N11060   1.886   3.638   1.243 -0.2807 -0.2435  0.3412
  748MPD2    H511061   1.886   3.547   1.198 -0.3505 -0.2418  0.3368
  748MPD2    N111062   1.574   3.454   1.562 -0.2936  0.0395 -0.4582
  748MPD2    H711063   1.509   3.462   1.640 -1.7824 -1.0016 -1.5848
  749TMC3    C111064   2.039   3.680   1.065  0.2511  0.3755 -0.5204
  749TMC3    C211065   2.139   3.589   1.104 -0.1518 -0.3204  0.8276
  749TMC3    C311066   2.262   3.601   1.045 -0.3350  0.1741  0.0775
  749TMC3    C411067   2.047   3.765   0.957 -0.2235  0.1679  0.0997
  749TMC3    C511068   2.173   3.757   0.894 -1.0458  0.1746 -0.9003
  749TMC3    C611069   2.281   3.676   0.936 -0.3394 -0.4419 -0.6677
  749TMC3     C11070   1.955   3.738   1.175  0.2921 -0.0105  0.0346
  749TMC3     O11071   1.949   3.862   1.182  0.9834 -0.5590 -0.8013
  749TMC3     H11072   2.140   3.531   1.196  0.6630 -0.4793  0.7150
  749TMC3    H111073   1.959   3.815   0.918  0.4967 -0.2392 -2.0418
  749TMC3    H211074   2.372   3.694   0.879  0.8747 -1.0027  1.1072
  749TMC3    C711075   2.184   3.854   0.795 -0.3091  0.0865  0.3906
  749TMC3    C811076   2.373   3.608   1.138  0.3188  0.1045  0.4264
  749TMC3    O111077   2.091   3.935   0.780 -0.4712  0.2118 -0.4539
  749TMC3    O211078   2.346   3.630   1.255  0.6195  0.2091  0.1418
  750MPD2     C11079   2.108   0.328  10.646  0.0441  0.2629  0.0456
  750MPD2    C111080   2.119   0.241  10.755 -0.4887 -0.2515 -0.7504
  750MPD2    C211081   2.178   0.125  10.737  0.6233  0.7788  0.0163
  750MPD2    C311082   2.217   0.082  10.605 -1.1497  0.3085  0.2597
  750MPD2    C411083   2.213   0.171  10.500  0.2606 -0.2720  0.0544
  750MPD2    C511084   2.165   0.299  10.526 -0.3344  0.0186  0.0322
  750MPD2     H11085   2.190   0.060  10.823  0.8127  3.0446  1.7229
  750MPD2    H111086   2.227   0.151  10.395  2.9519 -0.7629  0.5211
  750MPD2    H211087   2.077   0.432  10.653 -0.4242  0.1647 -0.6537
  750MPD2    H311088   2.155   0.368  10.443 -0.2659  1.4088  1.1861
  750MPD2     N11089   2.260   4.680  10.579  0.2768  0.7420 -0.1822
  750MPD2    H511090   2.272   4.664  10.479  0.7532 -1.3978  0.2215
  750MPD2    N111091   2.061   0.283  10.877 -0.0507  0.5302  0.0791
  750MPD2    H711092   1.989   0.354  10.867 -0.7687 -0.0460  1.1286
  751TMC3    C111093   2.254   4.459  10.573 -0.3602  0.2999 -0.6019
  751TMC3    C211094   2.150   4.374  10.588 -0.6425 -1.0203 -0.7930
  751TMC3    C311095   2.118   4.295  10.481  0.3134  0.3133 -0.4869
  751TMC3    C411096   2.328   4.462  10.455 -0.5497  0.0680 -0.0754
  751TMC3    C511097   2.303   4.367  10.362 -0.1925  0.3407 -0.1418
  751TMC3    C611098   2.200   4.275  10.374  0.0808  0.2770  0.5833
  751TMC3     C11099   2.260   4.570  10.661  0.1276 -0.0067 -0.3780
  751TMC3     O11100   2.213   4.560  10.778  0.2621 -0.6447 -0.3801
  751TMC3     H11101   2.092   4.383  10.679 -2.5946 -0.9524 -2.0409
  751TMC3    H111102   2.413   4.529  10.448 -0.1212 -0.2832  1.7472
  751TMC3    H211103   2.170   4.205  10.296 -1.5672 -1.0861  2.4657
  751TMC3    C711104   2.413   4.336  10.275 -0.1946  0.0206 -0.6020
  751TMC3    C811105   1.999   4.207  10.488  0.0875 -0.6699 -0.1599
  751TMC3    O111106   2.517   4.397  10.307  0.5117 -0.1652 -0.5365
  751TMC3    O211107   2.007   4.102  10.426 -0.0388  0.3374 -0.7149
  752TMC3    C111108   1.165   3.714  16.715  0.0402  0.2392  1.2403
  752TMC3    C211109   1.171   3.596  16.638 -0.3712  0.0958  0.4434
  752TMC3    C311110   1.184   3.482  16.714  0.3550 -0.6426  0.4490
  752TMC3    C411111   1.171   3.707  16.851 -0.2962 -0.0804  0.7928
  752TMC3    C511112   1.188   3.590  16.918  1.0219  0.0017  0.1807
  752TMC3    C611113   1.190   3.473  16.853 -0.4991 -0.3224 -0.8691
  752TMC3     C11114   1.154   3.839  16.652 -0.0686  0.7644 -0.0520
  752TMC3     O11115   1.092   3.924  16.707  0.4054  0.3960 -0.0485
  752TMC3     H11116   1.147   3.597  16.532 -1.9094 -4.5076  0.7536
  752TMC3    H111117   1.165   3.796  16.913  0.2467  0.3201  0.2644
  752TMC3    H211118   1.181   3.379  16.907  0.7445 -1.3268 -2.4276
  752TMC3    C711119   1.260   3.579  17.037  0.2393  0.0500  0.1111
  752TMC3    C811120   1.159   3.362  16.638  0.1661 -0.7202 -0.1904
  752TMC3    O111121   1.286   3.466  17.076  0.3012 -0.4128 -0.9169
  752TMC3    O211122   1.090   3.358  16.541 -0.0443  0.7785 -0.4803
  753TMC3    C111123   3.471   1.189  13.395  0.3838 -0.5142  0.4540
  753TMC3    C211124   3.514   1.153  13.521  0.2527 -0.1295 -0.3473
  753TMC3    C311125   3.518   1.020  13.546  0.2237 -0.1859  1.1225
  753TMC3    C411126   3.441   1.098  13.297 -0.0680 -0.3023  0.4943
  753TMC3    C511127   3.456   0.969  13.324 -0.4403 -0.2075 -1.0634
  753TMC3    C611128   3.492   0.926  13.449  0.5807  0.1577  0.5148
  753TMC3     C11129   3.457   1.335  13.363 -0.2901 -0.3529 -1.1488
  753TMC3     O11130   3.406   1.361  13.258  0.4450 -0.3150 -0.1269
  753TMC3     H11131   3.539   1.230  13.593  0.6916 -1.1411  0.5723
  753TMC3    H111132   3.418   1.133  13.198  0.5202 -1.0123  0.1092
  753TMC3    H211133   3.507   0.823  13.480 -0.2256 -0.0965  0.0461
  753TMC3    C711134   3.380   0.881  13.234  0.3980 -0.5708  0.0425
  753TMC3    C811135   3.522   0.974  13.686 -0.6887  0.4305  0.3685
  753TMC3    O111136   3.352   0.923  13.122  0.5119 -0.0900 -0.2601
  753TMC3    O211137   3.510   0.851  13.692 -0.1093 -0.2158 -0.0508
  754MPD2     C11138   2.187   4.675  13.087 -0.2807 -0.0211  0.0966
  754MPD2    C111139   2.152   4.542  13.092 -0.7082  0.3346  0.5670
  754MPD2    C211140   2.033   4.506  13.026 -0.3761 -0.2560 -0.1666
  754MPD2    C311141   1.949   4.600  12.979 -0.3428  0.0099  0.0040
  754MPD2    C411142   1.997   0.005  12.964  0.3731  0.4771 -0.0137
  754MPD2    C511143   2.117   0.045  13.015  0.1498  0.2575  0.0038
  754MPD2     H11144   2.004   4.401  13.029 -0.9390 -0.1365 -1.4172
  754MPD2    H111145   1.936   0.082  12.918 -0.2735 -0.1041 -0.1294
  754MPD2    H211146   2.277   4.706  13.138 -0.0430 -1.9413  0.8253
  754MPD2    H311147   2.154   0.145  12.995  2.2695  0.2137  3.7308
  754MPD2     N11148   1.819   4.574  12.938 -0.8330 -0.5134 -0.3328
  754MPD2    H511149   1.762   4.655  12.914 -1.7467 -0.4351  2.1570
  754MPD2    N111150   2.226   4.465  13.185 -0.3911  0.0492  0.0529
  754MPD2    H711151   2.295   4.514  13.241  1.1597 -0.8831 -1.0621
  755MPD2     C11152   1.060   0.374  12.952 -0.3617  0.9379  0.0956
  755MPD2    C111153   1.100   0.305  13.071 -0.2860 -0.5956  0.4261
  755MPD2    C211154   1.182   0.201  13.052  0.1567 -0.3457 -0.0318
  755MPD2    C311155   1.213   0.147  12.928  0.2758 -0.1506  0.3275
  755MPD2    C411156   1.155   0.202  12.815 -0.4439  0.4264 -0.0145
  755MPD2    C511157   1.082   0.323  12.826 -0.0019 -0.1908  0.2314
  755MPD2     H11158   1.207   0.135  13.134 -1.1366  1.9408  2.2029
  755MPD2    H111159   1.162   0.155  12.718 -0.5452  1.0519 -0.3298
  755MPD2    H211160   1.011   0.470  12.965 -1.7871  0.2718 -0.2678
  755MPD2    H311161   1.040   0.380  12.744  1.2338  2.0316  1.1394
  755MPD2     N11162   1.304   0.040  12.906  0.1838 -0.2744 -0.0729
  755MPD2    H511163   1.305   0.007  12.810 -0.6104  3.2384 -1.2863
  755MPD2    N111164   1.069   0.356  13.200 -1.3483 -0.7193  0.0919
  755MPD2    H711165   1.130   0.334  13.278 -1.6341 -0.1135  0.4823
  756MPD2     C11166   2.838   0.357   9.454  0.1272  0.4901  0.3137
  756MPD2    C111167   2.771   0.281   9.547 -0.0448 -0.0569 -0.2598
  756MPD2    C211168   2.673   0.193   9.504 -0.1609 -0.2624 -0.7671
  756MPD2    C311169   2.634   0.190   9.369 -0.0563  0.7145  0.8714
  756MPD2    C411170   2.707   0.267   9.272 -0.1668  0.5361 -0.2648
  756MPD2    C511171   2.811   0.339   9.320  0.3472 -0.4076 -0.6923
  756MPD2     H11172   2.618   0.132   9.575  0.3861  0.2815  0.1207
  756MPD2    H111173   2.699   0.248   9.166  0.4166  0.9553 -0.3858
  756MPD2    H211174   2.913   0.433   9.470  0.0661  0.6063  0.0490
  756MPD2    H311175   2.870   0.379   9.238 -1.2507  3.8468  0.2257
  756MPD2     N11176   2.525   0.107   9.335  0.1729  0.0673  0.1659
  756MPD2    H511177   2.483   0.045   9.404 -1.2210  1.4576  0.5778
  756MPD2    N111178   2.803   0.292   9.689 -0.2797  0.3480 -0.1617
  756MPD2    H711179   2.761   0.216   9.743  0.3728  1.5634  2.0715
  757MPD2     C11180   1.523   0.069   9.072  0.4370  0.1410 -0.4687
  757MPD2    C111181   1.559   4.696   9.155  0.7360 -0.0742  0.0920
  757MPD2    C211182   1.687   4.644   9.151 -0.1506  0.0151 -0.4672
  757MPD2    C311183   1.783   4.713   9.072 -0.1639  0.7917  0.3568
  757MPD2    C411184   1.747   0.091   8.988 -0.0764  0.3026 -0.2075
  757MPD2    C511185   1.614   0.126   8.985 -0.2074  0.3011 -0.1215
  757MPD2     H11186   1.706   4.568   9.226 -0.5804  1.8153  1.4815
  757MPD2    H111187   1.816   0.153   8.931  1.1913  0.7808  1.8451
  757MPD2    H211188   1.422   0.107   9.082  0.2799 -1.1168  2.8014
  757MPD2    H311189   1.577   0.213   8.933 -0.6695 -0.0844 -0.4428
  757MPD2     N11190   1.922   4.680   9.087 -0.0906  0.5798  0.3528
  757MPD2    H511191   1.947   4.600   9.143 -1.3366  0.3253  0.5399
  757MPD2    N111192   1.456   4.651   9.240 -0.0306 -0.1615  0.1527
  757MPD2    H711193   1.362   4.682   9.219 -0.2266 -0.2049  0.9666
  758MPD2     C11194   1.892   4.284  15.757 -0.2621  0.0835 -0.2702
  758MPD2    C111195   1.831   4.180  15.832  0.6930  0.2567 -0.3760
  758MPD2    C211196   1.722   4.206  15.912 -0.5884  0.6679 -0.2925
  758MPD2    C311197   1.697   4.337  15.944  0.2675 -0.3492  0.5456
  758MPD2    C411198   1.758   4.444  15.878  0.1308  0.3781 -0.0606
  758MPD2    C511199   1.846   4.413  15.776  0.0705 -0.8695 -0.9030
  758MPD2     H11200   1.670   4.125  15.962 -0.6339  2.1849  2.1406
  758MPD2    H111201   1.730   4.543  15.911 -0.6981  0.1538 -0.0900
  758MPD2    H211202   1.970   4.268  15.684  1.3118 -0.0321  1.4371
  758MPD2    H311203   1.894   4.494  15.721  0.3182 -0.7448 -0.5096
  758MPD2     N11204   1.601   4.374  16.050  0.1552  0.3121 -0.1394
  758MPD2    H511205   1.593   4.467  16.091 -2.5692 -0.8189  1.8981
  758MPD2    N111206   1.888   4.052  15.806  0.4164  0.9071  0.9080
  758MPD2    H711207   1.964   4.047  15.740 -0.2123  0.0116  0.2520
  759MPD2     C11208   1.088   2.874  10.044 -0.0982  0.5451  0.2028
  759MPD2    C111209   1.019   2.982   9.994  0.1701  0.0100  0.1545
  759MPD2    C211210   1.072   3.052   9.886 -0.6781 -0.3005  0.4981
  759MPD2    C311211   1.181   3.005   9.813 -0.3263  0.6460  0.1645
  759MPD2    C411212   1.236   2.881   9.852  1.0566 -0.0896  0.1034
  759MPD2    C511213   1.195   2.824   9.970  0.0882 -0.3260 -0.1078
  759MPD2     H11214   1.030   3.148   9.858  0.3410 -0.3192 -1.1154
  759MPD2    H111215   1.310   2.831   9.790 -0.4797 -0.2848 -1.5778
  759MPD2    H211216   1.069   2.825  10.138  1.1400 -0.2750  0.0286
  759MPD2    H311217   1.251   2.740  10.010 -0.9039 -0.9777 -0.0788
  759MPD2     N11218   1.213   3.074   9.699  0.2128 -0.3372  0.6414
  759MPD2    H511219   1.162   3.157   9.671 -1.4808 -1.3681  0.6890
  759MPD2    N111220   0.907   3.029  10.066  0.6642 -0.5437 -0.2550
  759MPD2    H711221   0.890   2.976  10.151 -0.6063 -0.8904 -0.7329
  760MPD2     C11222   0.728   0.336  11.449  0.0220 -0.3324  0.3800
  760MPD2    C111223   0.827   0.337  11.358  0.2037 -0.0203 -0.2630
  760MPD2    C211224   0.890   0.222  11.328 -0.1218 -0.5498 -0.3419
  760MPD2    C311225   0.869   0.103  11.401 -0.5996  0.1498  0.7550
  760MPD2    C411226   0.775   0.111  11.503 -0.4125  0.3570  0.1360
  760MPD2    C511227   0.700   0.225  11.521 -0.0878  0.7284  0.6846
  760MPD2     H11228   0.967   0.221  11.252 -1.3603  1.7116 -1.6280
  760MPD2    H111229   0.761   0.034  11.578  2.6136 -1.0439 -0.7387
  760MPD2    H211230   0.680   0.424  11.491  0.5444 -0.9333  2.2163
  760MPD2    H311231   0.634   0.231  11.607  1.4068 -0.4839  1.9215
  760MPD2     N11232   0.929   4.702  11.366  0.6671 -0.0550  0.3046
  760MPD2    H511233   0.929   4.626  11.433 -1.5013 -0.7393 -0.4873
  760MPD2    N111234   0.875   0.450  11.296 -0.0596  0.4010  0.0859
  760MPD2    H711235   0.955   0.440  11.234 -0.4075 -0.2281 -0.2519
  761MPD2     C11236   1.590   4.079  10.766  0.6747 -0.0397  0.1746
  761MPD2    C111237   1.669   4.004  10.685 -0.2283  0.0306 -0.6339
  761MPD2    C211238   1.773   4.061  10.614  0.1623  0.0238  0.6514
  761MPD2    C311239   1.798   4.197  10.641  0.0538 -0.1277  0.4580
  761MPD2    C411240   1.722   4.271  10.725 -0.4555 -0.1203  0.4399
  761MPD2    C511241   1.622   4.209  10.787  0.2246 -0.0681  0.3251
  761MPD2     H11242   1.844   3.995  10.567  0.4003  1.3969 -0.9146
  761MPD2    H111243   1.731   4.375  10.756  1.4715  0.3695 -1.7696
  761MPD2    H211244   1.497   4.047  10.811  1.7515 -0.2500  2.2110
  761MPD2    H311245   1.571   4.267  10.862 -0.9621 -0.9365  0.1818
  761MPD2     N11246   1.906   4.259  10.579  0.0056  0.2403 -0.6602
  761MPD2    H511247   1.923   4.352  10.617 -0.3049 -0.2354  0.6507
  761MPD2    N111248   1.630   3.872  10.669  0.2271  0.4862  0.3209
  761MPD2    H711249   1.565   3.838  10.738 -0.1200  1.4092  0.4432
  762MPD2     C11250   2.210   3.226  10.529 -0.1848  0.5842  0.0935
  762MPD2    C111251   2.156   3.349  10.502  0.3655 -0.2247  0.2636
  762MPD2    C211252   2.227   3.444  10.433  0.3615  0.4866 -0.1309
  762MPD2    C311253   2.357   3.419  10.395 -0.1596  0.0453  0.1559
  762MPD2    C411254   2.417   3.294  10.417 -0.0556  0.7210 -0.1165
  762MPD2    C511255   2.338   3.200  10.481 -0.2407  0.4395  0.0118
  762MPD2     H11256   2.189   3.542  10.405 -0.8064 -0.0691 -0.4569
  762MPD2    H111257   2.513   3.271  10.373 -0.8580 -0.4573 -1.2606
  762MPD2    H211258   2.159   3.143  10.577  1.4667 -0.6671 -0.3347
  762MPD2    H311259   2.362   3.095  10.494 -0.4654 -0.0280 -3.3975
  762MPD2     N11260   2.424   3.516  10.314  0.0510 -0.0232  0.5793
  762MPD2    H511261   2.374   3.603  10.296  0.0326 -0.6062 -2.1027
  762MPD2    N111262   2.022   3.369  10.544 -0.0836 -0.3755  0.1457
  762MPD2    H711263   1.980   3.295  10.600 -3.7474  0.5462 -1.3478
  763MPD2     C11264   4.038   4.094  15.924 -0.2896 -0.2274  0.3916
  763MPD2    C111265   3.979   4.212  15.874  0.5555 -0.2698  0.2895
  763MPD2    C211266   4.002   4.334  15.934  0.5611 -0.1981  0.7989
  763MPD2    C311267   4.061   4.333  16.059  0.1762 -0.5030 -0.7030
  763MPD2    C411268   4.113   4.217  16.110  1.4903 -0.5643  0.1117
  763MPD2    C511269   4.100   4.091  16.048  0.4399  0.2918  0.0609
  763MPD2     H11270   3.974   4.430  15.891  1.4184 -0.0638  0.5466
  763MPD2    H111271   4.162   4.202  16.206 -0.8251  0.4461  1.4490
  763MPD2    H211272   4.039   4.005  15.862 -0.5413  0.4862 -0.6501
  763MPD2    H311273   4.150   4.000  16.080 -0.6814 -0.3323  0.0395
  763MPD2     N11274   4.079   4.439  16.147  0.2977 -0.0922 -0.1576
  763MPD2    H511275   4.134   4.419  16.230 -1.0143  1.0090  0.9689
  763MPD2    N111276   3.906   4.217  15.755  0.0081 -0.5742  0.5668
  763MPD2    H711277   3.864   4.309  15.742 -1.0281 -1.4591 -2.3348
  764MPD2     C11278   2.317   0.816  17.446 -0.2210 -0.0566 -0.0477
  764MPD2    C111279   2.213   0.888  17.397 -0.1087 -0.0146 -0.4121
  764MPD2    C211280   2.092   0.880  17.463  0.2776  0.0086  0.6910
  764MPD2    C311281   2.073   0.808  17.580 -0.0138 -0.2219  0.5354
  764MPD2    C411282   2.178   0.743  17.634 -0.1213 -0.3002  0.7768
  764MPD2    C511283   2.298   0.748  17.566  0.9043  0.0944 -0.0018
  764MPD2     H11284   2.009   0.927  17.412  0.4558 -1.3617 -0.8772
  764MPD2    H111285   2.169   0.678   0.016 -1.3793 -0.1667  0.7555
  764MPD2    H211286   2.412   0.808  17.393 -0.7907 -0.4399 -1.0148
  764MPD2    H311287   2.385   0.701  17.610 -0.8720 -3.1647  0.0491
  764MPD2     N11288   1.942   0.802  17.646 -0.6995  0.9684  0.2966
  764MPD2    H511289   1.929   0.748   0.027  3.1543 -1.4089 -0.5962
  764MPD2    N111290   2.210   0.955  17.275  0.2077 -0.3434 -0.6658
  764MPD2    H711291   2.121   0.999  17.253 -0.0618 -0.2921  0.5715
  765MPD2     C11292   1.640   3.498  15.853  0.5690  0.0456 -0.1809
  765MPD2    C111293   1.692   3.578  15.751 -0.5510  0.3544  0.4801
  765MPD2    C211294   1.805   3.529  15.680 -1.1221  0.2300  0.1786
  765MPD2    C311295   1.854   3.404  15.710 -0.6601 -0.0771  0.0322
  765MPD2    C411296   1.799   3.328  15.812  0.1900  0.0663  0.0291
  765MPD2    C511297   1.695   3.370  15.881  0.4389 -0.1210  0.1423
  765MPD2     H11298   1.842   3.591  15.599  0.3012 -2.1136 -0.9672
  765MPD2    H111299   1.852   3.239  15.844  0.0231 -0.0398  0.0101
  765MPD2    H211300   1.549   3.529  15.904  0.7849  1.1470 -0.4732
  765MPD2    H311301   1.647   3.304  15.953  2.6722  0.3410  2.0578
  765MPD2     N11302   1.968   3.369  15.643  0.0332 -0.2638  0.0345
  765MPD2    H511303   2.015   3.440  15.586  1.5425 -0.5216  0.9565
  765MPD2    N111304   1.625   3.696  15.713  0.1609  0.1481  0.2778
  765MPD2    H711305   1.543   3.725  15.766  0.9774 -0.1024  1.6593
  766MPD2     C11306   1.143   3.759  15.187  0.4536  0.4399  0.0269
  766MPD2    C111307   1.268   3.812  15.173  0.0439  0.8707  0.7187
  766MPD2    C211308   1.346   3.793  15.061 -0.6831 -0.5449  0.5816
  766MPD2    C311309   1.282   3.733  14.950 -0.0830 -0.8317  0.1614
  766MPD2    C411310   1.159   3.667  14.970  0.1698 -0.4367 -0.2513
  766MPD2    C511311   1.093   3.677  15.085 -0.6495  0.7576 -0.3119
  766MPD2     H11312   1.442   3.843  15.056 -1.4624  0.9517  0.6122
  766MPD2    H111313   1.103   3.619  14.890  1.7208 -1.5648 -0.6521
  766MPD2    H211314   1.080   3.764  15.276  0.5723  1.4003  0.0525
  766MPD2    H311315   0.996   3.630  15.089 -0.8483  1.2536  0.6804
  766MPD2     N11316   1.341   3.727  14.817  0.0302 -0.2466  0.4627
  766MPD2    H511317   1.288   3.694  14.737 -1.9765 -0.6128  1.9569
  766MPD2    N111318   1.330   3.879  15.280 -0.4247 -0.3935 -0.0630
  766MPD2    H711319   1.420   3.924  15.265 -1.3408  1.8691  1.1415
  767MPD2     C11320   1.010   3.995  14.957 -0.5605 -0.1025 -0.8728
  767MPD2    C111321   1.100   4.057  14.877 -0.3251  1.0672 -0.3308
  767MPD2    C211322   1.106   4.025  14.745  0.0722  0.2965 -0.7956
  767MPD2    C311323   1.000   3.958  14.689  0.6463 -0.7133  0.0609
  767MPD2    C411324   0.898   3.907  14.769  0.1519  0.1301 -0.2046
  767MPD2    C511325   0.905   3.927  14.904 -0.1379  0.1117  0.2217
  767MPD2     H11326   1.177   4.079  14.683  0.6827 -0.6952 -0.9610
  767MPD2    H111327   0.815   3.846  14.736 -0.6688  0.7252  0.7891
  767MPD2    H211328   1.013   4.014  15.064 -1.7663 -1.5022 -0.6116
  767MPD2    H311329   0.832   3.877  14.966  2.5686 -1.3451  2.2153
  767MPD2     N11330   1.005   3.924  14.553 -0.0041 -0.0645  0.4760
  767MPD2    H511331   1.089   3.934  14.497 -1.7351  1.9223 -1.8144
  767MPD2    N111332   1.202   4.131  14.944 -0.3496 -0.4262 -0.2651
  767MPD2    H711333   1.212   4.134  15.045  1.8509 -0.9142 -0.4574
  768MPD2     C11334   1.876   2.343  11.106  0.3512  0.0499 -0.0884
  768MPD2    C111335   1.936   2.453  11.051  0.4318  0.3561 -0.1715
  768MPD2    C211336   2.077   2.466  11.056  0.4450 -0.1271 -0.1640
  768MPD2    C311337   2.153   2.365  11.116  0.7283  0.5693  0.2354
  768MPD2    C411338   2.087   2.253  11.172  0.3136 -0.6144 -0.4653
  768MPD2    C511339   1.956   2.245  11.171  0.3647  0.3129  0.5542
  768MPD2     H11340   2.125   2.558  11.025 -0.7680  0.9539  1.1508
  768MPD2    H111341   2.142   2.179  11.227 -1.0701  0.7224  2.7150
  768MPD2    H211342   1.768   2.329  11.108  0.5388 -1.5695 -0.9979
  768MPD2    H311343   1.901   2.156  11.200  0.3191  0.2501  0.2802
  768MPD2     N11344   2.293   2.367  11.122 -0.1514 -0.1217 -0.1639
  768MPD2    H511345   2.329   2.289  11.175 -0.0101  1.1674  1.6348
  768MPD2    N111346   1.872   2.555  10.986  0.6316 -0.0105  0.1519
  768MPD2    H711347   1.932   2.631  10.956 -0.3780  0.8057  0.1890
  769MPD2     C11348   2.683   0.747  14.879 -0.0054  0.4161  0.4022
  769MPD2    C111349   2.690   0.631  14.952 -0.1414 -0.1158  0.3768
  769MPD2    C211350   2.770   0.631  15.063 -0.2520  0.1563  0.6280
  769MPD2    C311351   2.847   0.744  15.096  0.0865 -0.1169  0.5405
  769MPD2    C411352   2.836   0.854  15.017  0.2001 -0.2040 -0.2253
  769MPD2    C511353   2.748   0.863  14.914  0.3865  0.2098 -0.3833
  769MPD2     H11354   2.779   0.540  15.121  1.7079 -0.8921 -1.3265
  769MPD2    H111355   2.887   0.948  15.037  0.9128 -0.5816 -0.2704
  769MPD2    H211356   2.637   0.744  14.782  1.0054 -0.7718 -0.0320
  769MPD2    H311357   2.736   0.954  14.857 -0.3333  1.0080  1.0456
  769MPD2     N11358   2.947   0.732  15.200  0.2119  0.6553  0.7906
  769MPD2    H511359   2.931   0.658  15.268  0.8178  0.3933  0.6508
  769MPD2    N111360   2.598   0.534  14.911  0.7461  0.5092 -0.0691
  769MPD2    H711361   2.532   0.559  14.838 -0.0881 -0.1433  0.4605
  770MPD2     C11362   2.772   4.372  15.180 -0.2251 -0.1021  0.0916
  770MPD2    C111363   2.678   4.341  15.085  0.6471  0.0919  0.1477
  770MPD2    C211364   2.596   4.442  15.033 -0.0819  0.7653 -0.2550
  770MPD2    C311365   2.617   4.568  15.080 -0.5983  0.1144 -0.3600
  770MPD2    C411366   2.706   4.598  15.181 -0.4551 -0.4322  0.0966
  770MPD2    C511367   2.777   4.497  15.236 -0.0864  0.0874 -0.1071
  770MPD2     H11368   2.527   4.423  14.952  0.8851 -0.3196 -0.8125
  770MPD2    H111369   2.730   4.700  15.208  1.8360 -0.9381 -0.1048
  770MPD2    H211370   2.835   4.295  15.223  2.1908  0.9025 -1.6732
  770MPD2    H311371   2.845   4.521  15.317 -0.8754 -0.8225  0.8235
  770MPD2     N11372   2.546   4.683  15.039  0.0040  0.1896  0.3603
  770MPD2    H511373   2.576   0.045  15.080 -0.6207  0.9526 -0.8309
  770MPD2    N111374   2.658   4.203  15.052  0.1700  0.1994  0.1699
  770MPD2    H711375   2.701   4.137  15.116 -0.3177 -0.6317 -0.3546
  771MPD2     C11376   3.801   3.001  13.717  0.3665 -0.4807  0.2485
  771MPD2    C111377   3.904   3.066  13.660 -0.2740  0.0611 -0.6374
  771MPD2    C211378   3.922   3.073  13.520  1.2294  0.0245 -0.3684
  771MPD2    C311379   3.843   2.999  13.433  0.1421 -0.1775 -0.4034
  771MPD2    C411380   3.745   2.922  13.498  0.8672  0.3768  0.3416
  771MPD2    C511381   3.730   2.920  13.632  0.0952  0.4142 -0.2035
  771MPD2     H11382   3.997   3.133  13.469 -0.0563  0.4265 -1.8008
  771MPD2    H111383   3.672   2.864  13.443  0.5824  2.5430 -1.5946
  771MPD2    H211384   3.761   3.014  13.816  0.6955 -1.3820  0.5007
  771MPD2    H311385   3.651   2.860  13.674 -0.2092  2.5696  2.3788
  771MPD2     N11386   3.862   2.999  13.292  0.3591 -0.5852 -0.1330
  771MPD2    H511387   3.933   3.068  13.269 -0.9799  0.4023 -1.3633
  771MPD2    N111388   3.974   3.173  13.726 -0.5450 -0.3840 -0.4934
  771MPD2    H711389   4.050   3.219  13.677  1.9567 -2.7951  1.1170
  772MPD2     C11390   3.692   3.818  14.160 -0.3563  1.1854 -0.6133
  772MPD2    C111391   3.675   3.702  14.088  0.2592  0.7525 -0.2347
  772MPD2    C211392   3.543   3.664  14.051 -1.1040 -0.3958  0.2439
  772MPD2    C311393   3.434   3.737  14.091 -0.8832 -0.2861  0.1564
  772MPD2    C411394   3.461   3.853  14.161  0.7639 -0.1282  0.1731
  772MPD2    C511395   3.586   3.900  14.183 -0.8909 -0.0981 -0.2826
  772MPD2     H11396   3.534   3.565  14.008 -2.1392 -0.5953  0.9124
  772MPD2    H111397   3.373   3.913  14.186  0.2437 -1.0696  0.5959
  772MPD2    H211398   3.784   3.856  14.202 -0.4382  0.4313  0.2386
  772MPD2    H311399   3.614   3.995  14.227 -0.5694 -0.1866 -0.2982
  772MPD2     N11400   3.301   3.710  14.061 -0.7413 -0.3602 -0.5189
  772MPD2    H511401   3.234   3.775  14.100  0.8229  0.8923  0.1199
  772MPD2    N111402   3.782   3.618  14.046 -0.2133  0.1782  0.0471
  772MPD2    H711403   3.749   3.533  14.000 -1.2482  1.1758 -1.0409
  773MPD2     C11404   2.591   4.172  17.676  0.7137  0.0879 -0.3670
  773MPD2    C111405   2.558   4.096  17.566 -0.4573  0.0188  0.4226
  773MPD2    C211406   2.611   3.968  17.561 -0.4764 -0.4705 -0.5788
  773MPD2    C311407   2.701   3.919  17.658 -0.0114 -0.1844  0.0679
  773MPD2    C411408   2.721   4.002   0.061  0.9069 -0.0968 -0.7486
  773MPD2    C511409   2.674   4.124   0.070  0.3304  0.3969 -0.5442
  773MPD2     H11410   2.584   3.900  17.481 -0.6471 -1.4792  0.3345
  773MPD2    H111411   2.776   3.974   0.150 -0.4172 -1.2654 -0.2825
  773MPD2    H211412   2.564   4.276  17.691  0.4705 -0.1499  0.8933
  773MPD2    H311413   2.700   4.182   0.158 -2.1703 -0.1431  0.5623
  773MPD2     N11414   2.747   3.795  17.645  0.3250 -0.0070 -0.0950
  773MPD2    H511415   2.713   3.749  17.561  2.1006  0.5821 -1.1376
  773MPD2    N111416   2.476   4.146  17.461  0.3451  0.7670 -0.3930
  773MPD2    H711417   2.464   4.082  17.384  0.2758 -0.1123  0.3457
  774MPD2     C11418   1.659   3.755  13.547 -1.0188  0.7972 -0.3214
  774MPD2    C111419   1.793   3.730  13.530  0.5643 -0.6335  0.5717
  774MPD2    C211420   1.883   3.837  13.520  0.3182 -0.1437 -0.6140
  774MPD2    C311421   1.845   3.965  13.542  0.1980 -0.0820  0.2755
  774MPD2    C411422   1.711   3.994  13.564 -0.6374 -0.3881 -0.1390
  774MPD2    C511423   1.620   3.888  13.566  0.2281  0.1474 -0.2924
  774MPD2     H11424   1.989   3.813  13.514  0.2073  0.0561 -3.2238
  774MPD2    H111425   1.672   4.093  13.586 -0.2960  0.1623 -1.9653
  774MPD2    H211426   1.579   3.682  13.551 -1.5689  1.4104  0.0497
  774MPD2    H311427   1.516   3.919  13.564 -0.4204 -1.9756  0.7499
  774MPD2     N11428   1.949   4.060  13.545  0.3328  0.4180 -0.1694
  774MPD2    H511429   2.036   4.028  13.505 -0.8358 -1.4589 -1.1812
  774MPD2    N111430   1.833   3.603  13.501 -1.1138 -0.1783 -0.2591
  774MPD2    H711431   1.750   3.545  13.492 -0.9538 -0.5347  0.5387
  775MPD2     C11432   3.505   0.432  15.691  0.2133 -0.3786 -1.0690
  775MPD2    C111433   3.494   0.537  15.782 -0.2457  0.6738 -0.3351
  775MPD2    C211434   3.584   0.642  15.766  0.7095  0.1071 -0.0100
  775MPD2    C311435   3.686   0.640  15.675 -0.0475 -0.1273 -0.5966
  775MPD2    C411436   3.701   0.529  15.587  0.6066 -0.5301  1.0002
  775MPD2    C511437   3.607   0.426  15.597  0.1238 -0.3523 -0.1697
  775MPD2     H11438   3.572   0.725  15.834 -0.5358  2.1955 -2.8070
  775MPD2    H111439   3.787   0.518  15.522  0.4879 -1.8041  1.0700
  775MPD2    H211440   3.438   0.347  15.696 -1.2106  0.7209 -1.3979
  775MPD2    H311441   3.626   0.343  15.530  1.7552 -0.9520  1.0209
  775MPD2     N11442   3.775   0.753  15.664  0.1143  0.6813  0.2872
  775MPD2    H511443   3.860   0.743  15.609  0.4342  1.2546  0.6819
  775MPD2    N111444   3.385   0.534  15.875 -0.1646  0.0044  0.1342
  775MPD2    H711445   3.329   0.449  15.881  0.1462 -0.2450 -0.5555
  776MPD2     C11446   2.300   0.573  11.577 -0.2283  0.7810 -0.0563
  776MPD2    C111447   2.263   0.624  11.449  0.3060 -0.1875 -0.1536
  776MPD2    C211448   2.329   0.737  11.400  0.9142 -0.5919 -0.6207
  776MPD2    C311449   2.437   0.793  11.475 -0.8685 -0.4731  0.4784
  776MPD2    C411450   2.467   0.746  11.600 -0.1755  0.0526 -0.2909
  776MPD2    C511451   2.399   0.638  11.647  0.0891 -0.2937  0.6967
  776MPD2     H11452   2.311   0.782  11.303  1.0398 -0.6701 -0.6807
  776MPD2    H111453   2.539   0.804  11.657 -0.0324 -0.5876  0.1867
  776MPD2    H211454   2.260   0.487  11.628 -1.5154  1.4911  0.1365
  776MPD2    H311455   2.425   0.597  11.744 -0.6541 -0.5318  0.8018
  776MPD2     N11456   2.513   0.907  11.432  0.2368  0.1857  0.3046
  776MPD2    H511457   2.575   0.937  11.506  1.0139 -0.9114  0.1083
  776MPD2    N111458   2.150   0.567  11.387  0.3259 -0.1623 -0.7139
  776MPD2    H711459   2.105   0.489  11.434 -0.9828  1.3348  0.5368
  777MPD2     C11460   3.375   2.657   0.654 -0.0150 -0.3155  0.5023
  777MPD2    C111461   3.246   2.697   0.672 -0.7317  0.4112 -0.6330
  777MPD2    C211462   3.151   2.620   0.613  0.1420  0.1630 -0.4153
  777MPD2    C311463   3.183   2.511   0.531 -0.3396 -0.1779 -0.0355
  777MPD2    C411464   3.314   2.477   0.521 -0.4201 -0.0359 -0.1693
  777MPD2    C511465   3.414   2.549   0.578  0.8762  0.5469 -0.0080
  777MPD2     H11466   3.045   2.639   0.626  0.5335  1.9924  0.1128
  777MPD2    H111467   3.339   2.386   0.468  0.5478  0.2284 -0.1672
  777MPD2    H211468   3.462   2.704   0.699  0.1088  0.0528 -0.1254
  777MPD2    H311469   3.517   2.514   0.568  1.4602  1.7263  1.8316
  777MPD2     N11470   3.080   2.439   0.478  0.2396  0.0692 -0.0612
  777MPD2    H511471   2.989   2.479   0.497 -0.0527 -0.5918 -0.0624
  777MPD2    N111472   3.224   2.823   0.734  0.2350 -0.1606 -0.2291
  777MPD2    H711473   3.301   2.866   0.786 -0.1066  0.3580 -0.1522
  778MPD2     C11474   3.864   3.134  15.104 -0.2090  0.4608 -0.4510
  778MPD2    C111475   3.817   3.068  14.996 -0.0052  0.2139  0.3174
  778MPD2    C211476   3.863   3.104  14.870 -0.4324 -0.3313  0.2697
  778MPD2    C311477   3.951   3.203  14.846 -0.1278  0.0382 -0.1760
  778MPD2    C411478   3.993   3.277  14.955 -0.2815 -0.7851  0.1360
  778MPD2    C511479   3.952   3.239  15.084  0.6674 -0.1508  0.5484
  778MPD2     H11480   3.830   3.041  14.789 -0.8411  0.0896  0.1067
  778MPD2    H111481   4.067   3.353  14.933 -0.9222  0.2296  1.4663
  778MPD2    H211482   3.837   3.124  15.208  1.3237  0.7582 -0.0257
  778MPD2    H311483   3.991   3.294  15.168  0.0377 -0.0666  0.7837
  778MPD2     N11484   3.977   3.227  14.713  0.3493 -0.0208 -0.3109
  778MPD2    H511485   3.940   3.157  14.650  0.9496  0.1228 -0.8161
  778MPD2    N111486   3.717   2.969  14.996 -0.5103 -0.2049  0.1385
  778MPD2    H711487   3.690   2.935  14.904 -0.1132 -0.8319  0.2519
  779MPD2     C11488   3.331   2.005  14.177  0.0133  0.1948  0.1519
  779MPD2    C111489   3.430   1.991  14.271  0.4379 -0.4822 -0.0965
  779MPD2    C211490   3.529   2.090  14.287  0.3174 -0.0595  0.0365
  779MPD2    C311491   3.522   2.202  14.204 -0.3192 -0.4538  0.7965
  779MPD2    C411492   3.409   2.217  14.126 -0.3246  0.1773  0.2573
  779MPD2    C511493   3.323   2.117  14.111  0.0673  0.4409 -0.1853
  779MPD2     H11494   3.619   2.075  14.345  1.2733  2.9701 -0.6474
  779MPD2    H111495   3.393   2.304  14.063  0.2033  1.0527  1.3195
  779MPD2    H211496   3.264   1.925  14.149 -0.1430  0.4447 -0.1920
  779MPD2    H311497   3.252   2.123  14.029  1.1905  0.7124 -1.1224
  779MPD2     N11498   3.631   2.296  14.210 -0.1181 -0.1573  0.4958
  779MPD2    H511499   3.700   2.280  14.283  0.4962 -3.0164 -0.7110
  779MPD2    N111500   3.430   1.864  14.334 -0.4945  0.2551 -0.0316
  779MPD2    H711501   3.352   1.802  14.314 -0.4511 -0.1324  1.0197
  780MPD2     C11502   2.264   1.614   0.490  0.2066  0.1924  0.1965
  780MPD2    C111503   2.322   1.590   0.368  0.4674 -0.2259 -0.4919
  780MPD2    C211504   2.447   1.651   0.348 -0.4661  0.5847  0.2887
  780MPD2    C311505   2.518   1.722   0.447  0.4246 -0.0296 -0.2658
  780MPD2    C411506   2.451   1.732   0.571  0.6422  0.1848 -0.3495
  780MPD2    C511507   2.323   1.684   0.588  0.4572 -0.2273  0.5837
  780MPD2     H11508   2.493   1.655   0.250 -1.6666  0.0720 -0.3017
  780MPD2    H111509   2.493   1.777   0.661  1.5149 -0.9305 -0.2080
  780MPD2    H211510   2.160   1.588   0.511  1.1150 -2.4360  1.4590
  780MPD2    H311511   2.267   1.701   0.680  0.3331 -0.2789  0.5174
  780MPD2     N11512   2.648   1.773   0.415  0.3156 -0.3778  0.4209
  780MPD2    H511513   2.677   1.755   0.319 -0.2020 -1.9821  0.5710
  780MPD2    N111514   2.248   1.521   0.272 -0.7966  0.4671 -0.1763
  780MPD2    H711515   2.168   1.473   0.311 -0.6415 -0.0350 -0.4701
  781MPD2     C11516   4.478   4.001  11.942 -0.1565 -1.2072 -0.0092
  781MPD2    C111517   4.607   3.963  11.958  0.2792  0.4266 -0.0838
  781MPD2    C211518   4.692   3.987  11.851 -0.3290  0.1233 -1.1656
  781MPD2    C311519   4.652   4.040  11.732  0.6469  1.6503  0.6259
  781MPD2    C411520   4.516   4.064  11.716  0.2870 -0.3391 -0.0985
  781MPD2    C511521   4.432   4.046  11.825  0.3127  0.0212  0.1890
  781MPD2     H11522   0.069   3.954  11.865 -1.4387 -2.5045  0.7597
  781MPD2    H111523   4.478   4.096  11.620  1.2793  2.1456  0.3251
  781MPD2    H211524   4.405   3.992  12.022 -0.6497  0.9731 -0.2011
  781MPD2    H311525   4.334   4.088  11.808  1.6256  1.7295 -3.1823
  781MPD2     N11526   0.011   4.063  11.618 -0.3062 -0.3781  0.1794
  781MPD2    H511527   4.703   4.113  11.536  1.1917  2.0933  1.0692
  781MPD2    N111528   4.652   3.894  12.068 -0.0071 -0.2772 -0.1041
  781MPD2    H711529   0.025   3.867  12.066 -0.6729 -2.5920 -2.0895
  782MPD2     C11530   3.184   0.044   9.521 -0.9262  0.0820  0.6802
  782MPD2    C111531   3.182   0.016   9.661 -0.1960  0.3289 -0.5922
  782MPD2    C211532   3.200   0.126   9.743 -0.1071 -0.1859  0.6656
  782MPD2    C311533   3.230   0.255   9.694  0.3391  0.4532  0.0474
  782MPD2    C411534   3.243   0.275   9.553 -0.2806  0.0253  0.1282
  782MPD2    C511535   3.217   0.171   9.470  0.4582  0.7596  0.3971
  782MPD2     H11536   3.202   0.101   9.849 -1.9434 -2.6450  0.1230
  782MPD2    H111537   3.263   0.373   9.513 -0.2358 -0.1558 -0.2976
  782MPD2    H211538   3.176   4.688   9.450  0.7990 -0.5866  1.2537
  782MPD2    H311539   3.236   0.185   9.364 -0.4569 -0.2039  0.1083
  782MPD2     N11540   3.268   0.348   9.790  0.3304 -0.0651 -0.6650
  782MPD2    H511541   3.250   0.320   9.886  2.2417 -1.5443 -0.7432
  782MPD2    N111542   3.170   4.607   9.703  0.2534 -0.2320 -0.0612
  782MPD2    H711543   3.180   4.542   9.626 -1.1496 -1.8677  1.1318
  783MPD2     C11544   2.489   4.037  10.096  0.1122 -0.3814 -0.0455
  783MPD2    C111545   2.506   4.167  10.138  0.0796  0.1854  0.1863
  783MPD2    C211546   2.630   4.228  10.121 -0.1423  0.1802  0.3530
  783MPD2    C311547   2.734   4.149  10.066 -0.3925  0.1086 -0.2042
  783MPD2    C411548   2.711   4.012  10.033  0.1130 -0.1852  0.1275
  783MPD2    C511549   2.585   3.957  10.043 -0.7356  0.2509  0.4364
  783MPD2     H11550   2.642   4.335  10.132  1.8706 -0.1157  1.0513
  783MPD2    H111551   2.787   3.945   9.994 -0.1394  0.3215 -1.2304
  783MPD2    H211552   2.390   3.996  10.083  0.5211 -1.6631  0.8770
  783MPD2    H311553   2.565   3.855  10.012 -0.0520  0.5164 -0.8556
  783MPD2     N11554   2.863   4.207  10.051  0.4625 -0.0076  0.5319
  783MPD2    H511555   2.874   4.307  10.067  0.0077  0.2969 -1.0842
  783MPD2    N111556   2.396   4.231  10.200  0.2848 -0.1655  0.1964
  783MPD2    H711557   2.307   4.183  10.206 -0.5530  1.2130 -1.1324
  784MPD2     C11558   1.357   4.496   0.561  0.0604  0.0906  0.3696
  784MPD2    C111559   1.297   4.574   0.657  0.5825  0.2058  0.0454
  784MPD2    C211560   1.197   4.658   0.620  1.2356 -0.7103  0.2663
  784MPD2    C311561   1.163   4.674   0.487 -0.4540 -0.3702  0.0105
  784MPD2    C411562   1.228   4.594   0.394  0.8234 -0.4007 -0.0689
  784MPD2    C511563   1.322   4.504   0.429 -0.2477  0.4020 -0.5817
  784MPD2     H11564   1.143   4.707   0.700  1.4575  0.3013 -0.1934
  784MPD2    H111565   1.200   4.596   0.289  0.6665  0.3964 -0.0140
  784MPD2    H211566   1.437   4.426   0.582 -0.4618 -1.3822 -2.5319
  784MPD2    H311567   1.365   4.436   0.356  3.0715  2.4599 -0.4915
  784MPD2     N11568   1.064   0.036   0.448 -0.1911  0.9911 -0.5095
  784MPD2    H511569   1.028   0.094   0.523  0.8252  1.0565 -0.0809
  784MPD2    N111570   1.333   4.567   0.791 -0.7481 -0.4590 -0.3380
  784MPD2    H711571   1.268   4.615   0.852  1.1787 -0.6035  1.8158
  785MPD2     C11572   0.981   3.972  10.391  0.0097  0.0553 -0.3731
  785MPD2    C111573   0.882   3.947  10.481  0.5606 -0.0457  0.8782
  785MPD2    C211574   0.822   3.822  10.482  0.7456 -0.1328 -0.3024
  785MPD2    C311575   0.856   3.729  10.388 -1.0379 -0.7626  0.1461
  785MPD2    C411576   0.950   3.764  10.291 -0.0947 -0.9493 -0.4341
  785MPD2    C511577   1.005   3.890  10.287 -0.1489 -0.0805 -0.1306
  785MPD2     H11578   0.742   3.796  10.551  0.7729 -0.2973 -0.3315
  785MPD2    H111579   0.990   3.700  10.214  1.5566  2.4152 -2.3696
  785MPD2    H211580   1.036   4.065  10.396 -2.3312  1.4547 -0.4927
  785MPD2    H311581   1.076   3.917  10.210  1.1246  0.7089  1.3026
  785MPD2     N11582   0.781   3.609  10.383 -0.0245  0.0841 -1.0789
  785MPD2    H511583   0.717   3.600  10.461 -0.7003  1.5564 -1.4501
  785MPD2    N111584   0.852   4.045  10.571 -0.4214  0.2961  0.0038
  785MPD2    H711585   0.885   4.139  10.556  1.3912 -0.3219  0.1013
  786MPD2     C11586   3.799   1.267  14.663 -0.7241 -0.3412 -0.1800
  786MPD2    C111587   3.919   1.201  14.652  0.2058  0.0721 -0.0264
  786MPD2    C211588   4.014   1.205  14.750  0.3605  0.4654  0.2858
  786MPD2    C311589   3.986   1.256  14.878  0.4631  0.6526 -0.1513
  786MPD2    C411590   3.860   1.306  14.895  0.0896 -0.3161 -0.0427
  786MPD2    C511591   3.770   1.316  14.786 -0.1636  0.0961 -0.2420
  786MPD2     H11592   4.110   1.159  14.727  0.1109  0.1397 -0.1016
  786MPD2    H111593   3.830   1.351  14.989 -1.6848  0.9992 -1.2551
  786MPD2    H211594   3.720   1.268  14.589  0.5616  0.4697 -1.5533
  786MPD2    H311595   3.671   1.358  14.804  0.0464  0.5735 -0.2003
  786MPD2     N11596   4.079   1.265  14.988 -0.4119 -0.3332  0.4637
  786MPD2    H511597   4.027   1.291  15.071 -1.6324 -0.4926 -0.2401
  786MPD2    N111598   3.957   1.140  14.530 -0.4056 -0.0197 -0.1521
  786MPD2    H711599   4.055   1.117  14.516 -0.8179 -1.3686 -0.8056
  787MPD2     C11600   4.039   0.408  14.370  0.4592 -0.1546 -0.2053
  787MPD2    C111601   4.123   0.517  14.354  0.1706  0.1499 -0.3081
  787MPD2    C211602   4.251   0.513  14.401  0.0507  0.4137  0.5527
  787MPD2    C311603   4.300   0.392  14.447  0.2143  0.1715 -0.4336
  787MPD2    C411604   4.224   0.279  14.453 -0.4943  0.3785  0.0138
  787MPD2    C511605   4.088   0.288  14.422 -0.6478 -0.2406  0.3779
  787MPD2     H11606   4.312   0.602  14.407  1.7280 -1.0012  4.1833
  787MPD2    H111607   4.262   0.187  14.496 -1.4412  0.9555  2.0938
  787MPD2    H211608   3.937   0.401  14.334  0.0076 -0.0157  1.0453
  787MPD2    H311609   4.017   0.208  14.439  0.9232 -1.4620  1.2291
  787MPD2     N11610   4.435   0.401  14.499 -0.0231 -0.4345  0.3174
  787MPD2    H511611   4.485   0.490  14.492 -1.6464  0.6611  2.9503
  787MPD2    N111612   4.070   0.637  14.306 -0.1205  0.1916  0.4664
  787MPD2    H711613   3.968   0.636  14.305 -0.1071  0.3713 -1.6198
  788MPD2     C11614   1.018   3.886   1.011 -0.1445 -0.1397 -0.1132
  788MPD2    C111615   0.958   3.812   0.913 -0.3959 -0.0792  0.2445
  788MPD2    C211616   0.973   3.847   0.782 -0.6323 -0.1760  0.4291
  788MPD2    C311617   1.050   3.959   0.745  0.1048 -0.4179  0.1967
  788MPD2    C411618   1.122   4.023   0.848 -0.2744 -0.3852  0.3925
  788MPD2    C511619   1.101   3.982   0.978  0.3795  0.3044  0.7641
  788MPD2     H11620   0.943   3.781   0.701 -2.8632  1.0686  0.2164
  788MPD2    H111621   1.192   4.103   0.825 -1.3153  0.4129 -0.0109
  788MPD2    H211622   1.001   3.860   1.115 -1.1571  0.5985 -0.0994
  788MPD2    H311623   1.149   4.039   1.056  1.1618  1.3163 -0.4461
  788MPD2     N11624   1.077   3.990   0.609 -0.0899 -0.3361 -0.6811
  788MPD2    H511625   1.158   4.050   0.598  1.6456 -3.0072 -2.4580
  788MPD2    N111626   0.885   3.695   0.934  0.3820  0.3316  0.0156
  788MPD2    H711627   0.830   3.667   0.853 -1.2189  0.7716  0.9585
  789MPD2     C11628   1.343   3.362  15.506  0.3879 -0.5568  0.0618
  789MPD2    C111629   1.324   3.350  15.644  0.3879 -0.5944  0.2004
  789MPD2    C211630   1.236   3.442  15.711  0.3475  0.9055 -0.0930
  789MPD2    C311631   1.181   3.542  15.630  0.7468 -0.4224  0.7036
  789MPD2    C411632   1.202   3.548  15.496  0.1351 -0.1283  0.3085
  789MPD2    C511633   1.286   3.463  15.435 -0.0886  0.2933 -0.0109
  789MPD2     H11634   1.220   3.433  15.818  1.9384 -0.5686  0.0209
  789MPD2    H111635   1.147   3.615  15.431 -0.9867  0.1318  1.5282
  789MPD2    H211636   1.391   3.287  15.444 -0.5232 -0.9540 -0.1587
  789MPD2    H311637   1.288   3.475  15.327 -2.3073  0.2716 -0.0723
  789MPD2     N11638   1.096   3.637  15.692  0.2057  0.2029 -0.3420
  789MPD2    H511639   1.047   3.706  15.637  0.3483 -0.7584 -1.6676
  789MPD2    N111640   1.380   3.247  15.717  0.4243  0.3702  0.9412
  789MPD2    H711641   1.353   3.231  15.814  2.6464 -0.7534  1.3718
  790MPD2     C11642   2.767   0.886  13.654 -0.0673 -0.7176 -0.4690
  790MPD2    C111643   2.768   0.751  13.638  0.9396  0.2465  0.9469
  790MPD2    C211644   2.728   0.691  13.517 -0.3426  0.2985  1.0041
  790MPD2    C311645   2.674   0.772  13.420 -0.1420 -0.8906  0.5894
  790MPD2    C411646   2.665   0.908  13.438 -0.6779  0.6078 -0.1071
  790MPD2    C511647   2.721   0.964  13.549  0.0614 -0.2579 -0.4281
  790MPD2     H11648   2.730   0.583  13.508 -0.5133  0.5181 -1.7445
  790MPD2    H111649   2.629   0.975  13.362 -0.0092 -0.9720 -1.8069
  790MPD2    H211650   2.803   0.926  13.748  2.2373 -2.7151 -0.5151
  790MPD2    H311651   2.724   1.072  13.565  0.0039 -0.0077 -2.0877
  790MPD2     N11652   2.625   0.713  13.299 -0.0337 -0.0622  0.3685
  790MPD2    H511653   2.655   0.618  13.280 -1.2946 -0.4467  0.2465
  790MPD2    N111654   2.805   0.675  13.753  0.2783 -0.7807  0.2938
  790MPD2    H711655   2.812   0.726  13.840  1.4343  1.2276 -0.9651
  791MPD2     C11656   1.939   0.836  12.919  0.8725  0.6927  0.5078
  791MPD2    C111657   1.995   0.716  12.895  0.2655  0.0300  0.4914
  791MPD2    C211658   1.921   0.620  12.828  0.1242  0.1318  0.1740
  791MPD2    C311659   1.795   0.652  12.776  0.7688  0.3740 -0.6067
  791MPD2    C411660   1.734   0.769  12.807  0.2356  0.0604 -0.2281
  791MPD2    C511661   1.804   0.853  12.888 -0.4031 -0.6269  0.5076
  791MPD2     H11662   1.958   0.518  12.816  1.1975  0.2937  2.0647
  791MPD2    H111663   1.637   0.803  12.772  0.4073  0.8571  0.0625
  791MPD2    H211664   1.990   0.923  12.961  0.9879  0.7548  0.2354
  791MPD2    H311665   1.758   0.950  12.901  0.4658 -0.1000 -0.3379
  791MPD2     N11666   1.734   0.557  12.700 -0.0694 -0.0208  0.1412
  791MPD2    H511667   1.775   0.465  12.705 -0.4440 -0.1875  0.1565
  791MPD2    N111668   2.119   0.687  12.952 -0.0511 -0.2387 -0.0224
  791MPD2    H711669   2.153   0.751  13.023  0.7301  0.2166 -0.8048
  792MPD2     C11670   3.091   0.839  11.404 -0.2576 -0.2341 -0.2650
  792MPD2    C111671   3.017   0.896  11.297 -1.0432 -0.2563  0.4129
  792MPD2    C211672   2.915   0.817  11.241  0.0971  0.0090 -0.1514
  792MPD2    C311673   2.880   0.695  11.287 -0.4345 -0.8396  0.5436
  792MPD2    C411674   2.957   0.637  11.384 -0.4740  0.4939  0.2091
  792MPD2    C511675   3.062   0.707  11.444  0.2035 -0.1429 -0.5934
  792MPD2     H11676   2.860   0.867  11.162 -0.8144 -0.5030  0.1762
  792MPD2    H111677   2.925   0.542  11.425  0.8619 -0.3848 -0.8130
  792MPD2    H211678   3.167   0.893  11.459 -0.1135  2.1205 -2.8071
  792MPD2    H311679   3.112   0.671  11.534 -1.5753 -3.0530 -0.7911
  792MPD2     N11680   2.768   0.624  11.232 -0.2275 -0.0563 -0.2596
  792MPD2    H511681   2.747   0.539  11.283 -1.6744 -0.8567 -2.2046
  792MPD2    N111682   3.054   1.021  11.248  0.2604  0.1799  0.0919
  792MPD2    H711683   3.133   1.060  11.298 -1.4387  1.9632  1.4054
  793MPD2     C11684   2.635   0.115  10.416 -0.6994 -0.4277  0.5788
  793MPD2    C111685   2.669   0.246  10.428  0.0944  0.9732  0.0990
  793MPD2    C211686   2.656   0.305  10.550 -0.1951  1.0156 -0.2086
  793MPD2    C311687   2.595   0.243  10.657  0.3025 -0.4835  0.4721
  793MPD2    C411688   2.565   0.112  10.647  0.4112 -0.5344  0.0585
  793MPD2    C511689   2.577   0.045  10.523 -0.4174 -0.0425 -0.0728
  793MPD2     H11690   2.678   0.410  10.565 -1.2495  1.2099 -0.0032
  793MPD2    H111691   2.536   0.052  10.732  1.3430  0.3575  1.0040
  793MPD2    H211692   2.648   0.056  10.326  1.1280  0.2720  0.3941
  793MPD2    H311693   2.565   4.663  10.517 -2.7917  0.3781 -2.7991
  793MPD2     N11694   2.573   0.324  10.770  0.4629  0.3477  0.6614
  793MPD2    H511695   2.621   0.413  10.770 -0.6763  0.9610 -0.0991
  793MPD2    N111696   2.722   0.316  10.315  0.6007 -0.2285 -0.1908
  793MPD2    H711697   2.733   0.417  10.317 -0.2690 -0.1254 -0.6340
  794MPD2     C11698   2.081   0.127  17.192 -0.6622  0.4601 -0.4212
  794MPD2    C111699   2.088   0.046  17.080 -0.2565 -0.1324  0.1934
  794MPD2    C211700   2.017   0.070  16.962  0.5782 -0.2888 -0.1201
  794MPD2    C311701   1.945   0.188  16.961  0.1642  0.0937 -0.0163
  794MPD2    C411702   1.948   0.278  17.067 -0.4007 -0.0102  0.0982
  794MPD2    C511703   2.012   0.250  17.182 -0.0107  0.5557 -0.7215
  794MPD2     H11704   2.029   0.009  16.873 -0.9475  0.2500 -0.7023
  794MPD2    H111705   1.898   0.374  17.058  1.4665  1.0179  0.6812
  794MPD2    H211706   2.108   0.107  17.295 -2.0020 -0.0441 -0.1796
  794MPD2    H311707   1.990   0.323  17.259 -0.9535 -1.1104  0.5781
  794MPD2     N11708   1.877   0.245  16.850 -0.2996  0.2176 -0.2077
  794MPD2    H511709   1.851   0.341  16.866 -0.8830  0.1534 -0.7851
  794MPD2    N111710   2.143   4.644  17.089  0.0782  0.1181 -0.0047
  794MPD2    H711711   2.115   4.575  17.020 -2.7839  0.1801  1.0975
  795MPD2     C11712   0.049   2.587  13.476 -0.6840  0.1302 -0.0655
  795MPD2    C111713   4.714   2.475  13.427  0.0292 -0.2671  0.1494
  795MPD2    C211714   0.031   2.348  13.470  0.2100  0.2614 -0.2605
  795MPD2    C311715   0.137   2.334  13.563  0.7684  0.3624  0.7718
  795MPD2    C411716   0.201   2.448  13.608  0.8112 -0.2703 -0.1940
  795MPD2    C511717   0.158   2.571  13.562 -0.0586  0.0442  0.7316
  795MPD2     H11718   4.710   2.261  13.425  0.1923  0.0342  0.1867
  795MPD2    H111719   0.290   2.443  13.669  0.5533  0.6310  0.2558
  795MPD2    H211720   0.036   2.689  13.443 -1.4594 -0.4963 -1.6878
  795MPD2    H311721   0.212   2.658  13.598  1.9565 -0.6830 -0.5763
  795MPD2     N11722   0.192   2.212  13.606  0.1596  0.1567  0.4957
  795MPD2    H511723   0.276   2.214  13.663 -0.1455  0.9727  0.9102
  795MPD2    N111724   4.616   2.476  13.331  0.3647  0.6631  0.2516
  795MPD2    H711725   4.594   2.382  13.299  2.3423 -0.2805  1.6876
  796MPD2     C11726   4.232   3.872  15.728 -0.0136  0.3228 -0.8641
  796MPD2    C111727   4.313   3.947  15.815  0.3906  0.3516 -0.1637
  796MPD2    C211728   4.346   4.074  15.777  0.0202  0.2963  1.0253
  796MPD2    C311729   4.294   4.131  15.669 -0.3428  0.2104 -0.3599
  796MPD2    C411730   4.229   4.052  15.572  0.1507  0.0256 -0.2336
  796MPD2    C511731   4.193   3.923  15.608  0.0048 -0.5529  0.4498
  796MPD2     H11732   4.418   4.136  15.829  1.0175  1.2387 -1.4934
  796MPD2    H111733   4.192   4.093  15.479 -1.8116 -0.0465  0.5041
  796MPD2    H211734   4.198   3.777  15.766  0.3881  0.1764 -0.8655
  796MPD2    H311735   4.122   3.873  15.543  0.7641 -0.9776 -0.0541
  796MPD2     N11736   4.310   4.269  15.661 -0.4272  0.0414 -0.6588
  796MPD2    H511737   4.371   4.307  15.733 -0.0066 -0.4224 -0.7710
  796MPD2    N111738   4.363   3.870  15.920 -0.4000  0.4096  0.1477
  796MPD2    H711739   4.332   3.774  15.933  1.3713  0.1908  2.8107
  797MPD2     C11740   0.433   3.162  17.374  0.0192  0.2917  0.1549
  797MPD2    C111741   0.559   3.232  17.357 -0.8835 -0.0152  0.6282
  797MPD2    C211742   0.582   3.314  17.252 -0.1170  0.3083 -0.2517
  797MPD2    C311743   0.476   3.350  17.167 -0.2539 -0.1128  0.0929
  797MPD2    C411744   0.361   3.287  17.182 -0.4241  0.7661 -0.6282
  797MPD2    C511745   0.333   3.198  17.286  0.4184 -1.0324  0.9633
  797MPD2     H11746   0.674   3.370  17.257 -0.5344  0.7969  1.8871
  797MPD2    H111747   0.275   3.302  17.118 -0.9832  0.4140  0.0377
  797MPD2    H211748   0.411   3.096  17.457 -2.5824 -1.0134 -1.5606
  797MPD2    H311749   0.234   3.154  17.277 -0.3856  1.2704 -1.3238
  797MPD2     N11750   0.497   3.457  17.073 -0.6207 -0.1608  0.3889
  797MPD2    H511751   0.591   3.493  17.085 -1.1055  0.9284  0.8791
  797MPD2    N111752   0.664   3.231  17.455 -0.3344 -0.3002 -0.4276
  797MPD2    H711753   0.752   3.278  17.434 -1.3915  1.0482 -1.8162
  798MPD2     C11754   0.987   3.906  17.247 -0.5397  0.4599  0.4725
  798MPD2    C111755   0.928   3.793  17.202  0.2425 -0.1474  0.1871
  798MPD2    C211756   0.928   3.674  17.275  0.4098 -0.6862  0.8203
  798MPD2    C311757   0.995   3.676  17.395  0.5362  0.1146 -0.4692
  798MPD2    C411758   1.053   3.788  17.446 -0.2418 -0.1157  0.4247
  798MPD2    C511759   1.050   3.906  17.371  0.3333 -0.2660  0.0329
  798MPD2     H11760   0.893   3.579  17.239 -2.1536  1.0757 -1.3220
  798MPD2    H111761   1.098   3.792  17.544  2.6611 -1.1151 -0.8869
  798MPD2    H211762   0.984   4.000  17.193  0.5784 -0.0172 -0.4211
  798MPD2    H311763   1.103   3.995  17.401  0.5342 -0.2402 -0.4032
  798MPD2     N11764   0.981   3.563  17.477 -0.2956  0.1207  0.0026
  798MPD2    H511765   0.944   3.480  17.432 -0.1926  0.7570 -1.2539
  798MPD2    N111766   0.851   3.801  17.087 -0.0375  0.3396 -0.1239
  798MPD2    H711767   0.837   3.896  17.053  4.6501  1.3437  0.7027
  799MPD2     C11768   0.052   0.111  14.257  0.9491  0.1400 -0.2257
  799MPD2    C111769   4.653   0.057  14.270  0.5713  0.9132 -0.2885
  799MPD2    C211770   4.546   0.123  14.217  0.2727 -0.0692  0.4543
  799MPD2    C311771   4.562   0.244  14.149 -0.3637 -0.3626  0.1300
  799MPD2    C411772   4.687   0.297  14.149 -0.6375 -0.3880  0.4110
  799MPD2    C511773   0.069   0.229  14.193  0.4975  0.3560  0.0612
  799MPD2     H11774   4.449   0.076  14.230  0.6537 -0.2801  2.5139
  799MPD2    H111775   4.718   0.388  14.099  1.3044 -1.4007 -0.2576
  799MPD2    H211776   0.132   0.053  14.301  0.3862  1.0782  2.0219
  799MPD2    H311777   0.168   0.273  14.184  2.6282 -3.9254  2.3036
  799MPD2     N11778   4.461   0.326  14.086 -0.4036 -0.9094  0.0194
  799MPD2    H511779   4.492   0.412  14.042  2.1024 -1.5589  0.5710
  799MPD2    N111780   4.633   4.650  14.322  0.8669 -0.3123  0.3103
  799MPD2    H711781   4.538   4.626  14.348  0.8555 -0.0521  0.5072
  800MPD2     C11782   4.369   1.511  13.864 -0.1740 -0.5391  0.2180
  800MPD2    C111783   4.494   1.483  13.802  0.2947 -0.6241  0.2419
  800MPD2    C211784   4.495   1.423  13.680  0.4752 -0.2255 -0.2955
  800MPD2    C311785   4.376   1.393  13.617 -0.0861  0.4672  0.5731
  800MPD2    C411786   4.255   1.418  13.676 -0.3757 -0.6565  0.2692
  800MPD2    C511787   4.249   1.482  13.798  0.5619  0.3783  0.1579
  800MPD2     H11788   4.590   1.422  13.629  0.2758  0.2761 -0.6775
  800MPD2    H111789   4.159   1.402  13.628 -0.2041  0.6317 -0.5231
  800MPD2    H211790   4.359   1.573  13.952 -1.2933  1.0974 -1.0655
  800MPD2    H311791   4.158   1.523  13.839  0.0056 -1.0865  0.3933
  800MPD2     N11792   4.391   1.360  13.480  0.1249 -0.6101 -0.0909
  800MPD2    H511793   4.488   1.353  13.449  0.2360  0.5133  0.0184
  800MPD2    N111794   4.609   1.529  13.868  0.3986 -0.0278 -0.5178
  800MPD2    H711795   4.590   1.594  13.943  1.3237 -0.9116  0.4930
  801MPD2     C11796   0.122   2.230  13.948  0.1528  0.3058 -0.5634
  801MPD2    C111797   0.041   2.126  13.992 -1.0319 -0.4096  0.2327
  801MPD2    C211798   4.650   2.150  14.064 -0.1729 -1.2463 -0.2785
  801MPD2    C311799   4.622   2.273  14.113  0.4303  0.3952  0.6272
  801MPD2    C411800   4.710   2.378  14.082 -0.0877  0.6270  0.3837
  801MPD2    C511801   0.082   2.358  13.989 -0.6471  0.2891  0.7842
  801MPD2     H11802   4.595   2.063  14.097  1.4429 -2.0217  0.3575
  801MPD2    H111803   4.712   2.473  14.134 -4.3751  0.5952  0.6517
  801MPD2    H211804   0.206   2.202  13.886  1.6445  1.1873  1.0662
  801MPD2    H311805   0.145   2.438  13.955  0.7024 -0.8827  0.5147
  801MPD2     N11806   4.524   2.305  14.209 -0.3877 -0.6106 -0.3594
  801MPD2    H511807   4.526   2.396  14.255 -0.4955 -0.6796 -0.2168
  801MPD2    N111808   0.076   1.989  13.974  0.0678 -0.3591 -0.7331
  801MPD2    H711809   0.007   1.920  14.003  0.5741 -0.1443  0.9739
  802MPD2     C11810   3.751   2.166  17.507  0.1458 -0.3820 -0.8046
  802MPD2    C111811   3.861   2.117  17.571  0.9049 -0.5341  0.7421
  802MPD2    C211812   3.945   2.028  17.508 -0.4917 -0.0997  0.5581
  802MPD2    C311813   3.925   1.988  17.376  0.0758 -0.3442 -0.3640
  802MPD2    C411814   3.806   2.032  17.315  0.1561  0.2144 -0.3409
  802MPD2    C511815   3.727   2.132  17.374  1.0171 -0.3259 -0.3444
  802MPD2     H11816   4.038   2.001  17.557  0.1066 -0.7574 -0.9284
  802MPD2    H111817   3.789   2.001  17.212  1.6189 -0.3212 -0.4248
  802MPD2    H211818   3.673   2.212  17.567  0.7834 -0.1292 -0.1587
  802MPD2    H311819   3.639   2.167  17.323  1.0151 -1.8147 -1.3602
  802MPD2     N11820   4.017   1.902  17.321 -0.2820  0.4205  0.0073
  802MPD2    H511821   4.094   1.883  17.384 -1.5080  0.9788  1.6605
  802MPD2    N111822   3.881   2.148  17.702  0.0568  0.2274  0.7823
  802MPD2    H711823   3.950   2.094   0.049 -2.5416 -2.1825  1.7769
  803MPD2     C11824   0.864   0.964  11.614 -0.4535  0.5796 -0.3825
  803MPD2    C111825   0.935   0.857  11.651  0.0355  0.3646  0.4748
  803MPD2    C211826   0.863   0.747  11.683 -0.1820 -0.3486 -0.0004
  803MPD2    C311827   0.721   0.746  11.685  0.0406 -0.1287  0.4407
  803MPD2    C411828   0.650   0.865  11.660  0.3592  0.1536  0.1273
  803MPD2    C511829   0.724   0.974  11.619 -0.1111 -0.1001  0.1485
  803MPD2     H11830   0.920   0.665  11.723  1.4909  0.4999 -0.6494
  803MPD2    H111831   0.546   0.871  11.688  0.2525 -0.0938 -0.2299
  803MPD2    H211832   0.916   1.054  11.585  1.2570  0.2618  1.7071
  803MPD2    H311833   0.673   1.066  11.594 -1.7872 -1.0281  0.1768
  803MPD2     N11834   0.642   0.638  11.742  0.1680  0.1177 -0.4772
  803MPD2    H511835   0.546   0.668  11.758  0.1515 -0.6462  0.7733
  803MPD2    N111836   1.074   0.862  11.686 -0.1889  0.6285 -0.8810
  803MPD2    H711837   1.125   0.782  11.720 -0.9138  0.4515 -0.2108
  804MPD2     C11838   4.703   1.812  16.941 -0.7571 -0.1602  0.3864
  804MPD2    C111839   4.721   1.743  17.062 -0.2131 -0.4237 -0.6711
  804MPD2    C211840   0.034   1.807  17.175 -0.0342 -0.0703 -0.3938
  804MPD2    C311841   0.060   1.947  17.173  0.6623  0.0282  0.0791
  804MPD2    C411842   0.049   2.010  17.047  0.7916  0.4104  0.3999
  804MPD2    C511843   4.725   1.943  16.934  0.2147  0.0021  0.3728
  804MPD2     H11844   0.042   1.753  17.269 -0.7063  2.0069  0.8528
  804MPD2    H111845   0.067   2.116  17.036  1.5346  0.3168  0.7143
  804MPD2    H211846   4.688   1.751  16.852 -2.3312 -1.1491  1.3285
  804MPD2    H311847   4.710   1.984  16.835 -2.6621  1.3555  1.3730
  804MPD2     N11848   0.093   2.017  17.293  0.2596  0.3233  0.0691
  804MPD2    H511849   0.085   1.966  17.380 -0.3159  1.5842  0.7488
  804MPD2    N111850   4.697   1.604  17.084  0.1103 -0.0357 -0.0541
  804MPD2    H711851   4.707   1.566  17.177 -1.1305  0.6729  0.3719
  805MPD2     C11852   3.921   0.393  15.347 -0.1181 -0.7537  0.2400
  805MPD2    C111853   4.015   0.456  15.273  0.1927  0.2446  0.2616
  805MPD2    C211854   4.148   0.454  15.322 -0.1339  0.5266  0.1408
  805MPD2    C311855   4.179   0.384  15.437  0.6800 -0.5670 -0.3965
  805MPD2    C411856   4.076   0.307  15.495  0.5733  0.5646 -0.3234
  805MPD2    C511857   3.952   0.320  15.456 -0.0919  0.7454  0.3320
  805MPD2     H11858   4.217   0.516  15.265  0.6900 -0.7888 -0.2708
  805MPD2    H111859   4.098   0.246  15.582  1.3790  1.3001 -0.0188
  805MPD2    H211860   3.819   0.373  15.316 -0.6047 -1.0654  1.9756
  805MPD2    H311861   3.871   0.262  15.499  0.3783  0.6244  1.0597
  805MPD2     N11862   4.309   0.393  15.490 -0.3334 -0.5467 -0.0948
  805MPD2    H511863   4.379   0.436  15.431 -1.3020  1.1068 -0.0399
  805MPD2    N111864   3.987   0.518  15.145  0.0373  0.7655 -0.1686
  805MPD2    H711865   4.065   0.547  15.086  1.3927  2.2763  2.3970
  806MPD2     C11866   0.382   4.080   0.615 -0.1504  0.0059 -0.1468
  806MPD2    C111867   0.396   4.209   0.658 -0.1424  0.9960 -0.9434
  806MPD2    C211868   0.346   4.306   0.572  0.0757 -1.1790  0.0651
  806MPD2    C311869   0.300   4.284   0.445  0.3625  0.5938  0.5986
  806MPD2    C411870   0.287   4.145   0.408  0.8961 -0.0784  0.6780
  806MPD2    C511871   0.323   4.053   0.499 -0.6149 -0.6578  1.0003
  806MPD2     H11872   0.348   4.409   0.605 -0.0260 -0.7479 -1.2816
  806MPD2    H111873   0.251   4.114   0.310 -1.9811  3.2091  0.6984
  806MPD2    H211874   0.417   3.995   0.673  1.9452 -0.0074 -1.4418
  806MPD2    H311875   0.310   3.948   0.475 -2.1316 -0.4358  0.8383
  806MPD2     N11876   0.291   4.399   0.358 -0.7194  0.6578  0.1353
  806MPD2    H511877   0.288   4.493   0.396  1.0155 -0.1116  2.2223
  806MPD2    N111878   0.467   4.246   0.778 -0.0874  0.2897 -0.2460
  806MPD2    H711879   0.488   4.344   0.794  0.3317 -0.0247  1.1546
  807MPD2     C11880   0.445   0.098   1.100  0.1325  0.2937 -0.3342
  807MPD2    C111881   0.430   4.688   1.144 -0.1189 -0.5194  0.2708
  807MPD2    C211882   0.319   4.660   1.214  0.5575 -0.1911 -0.1717
  807MPD2    C311883   0.224   0.028   1.238  0.0238  0.1048 -0.4516
  807MPD2    C411884   0.230   0.160   1.186 -0.7926  0.2748  0.0415
  807MPD2    C511885   0.346   0.191   1.124 -0.0003  0.4176 -0.0996
  807MPD2     H11886   0.302   4.563   1.260 -1.0398 -0.0946 -0.5349
  807MPD2    H111887   0.155   0.238   1.183  0.9097  2.0220  2.5227
  807MPD2    H211888   0.528   0.138   1.044  1.0050 -1.7027 -0.4635
  807MPD2    H311889   0.346   0.282   1.065 -1.4138  0.4258 -0.0895
  807MPD2     N11890   0.109   4.706   1.318 -0.2428 -0.0175  0.1975
  807MPD2    H511891   0.129   4.611   1.347  2.4152 -0.0381 -1.7255
  807MPD2    N111892   0.517   4.584   1.116 -0.1634 -0.6286 -0.3206
  807MPD2    H711893   0.487   4.495   1.154 -1.1391 -0.5269 -0.8627
  808MPD2     C11894   0.457   1.465  10.055  0.3540  0.1365 -0.7182
  808MPD2    C111895   0.358   1.546   9.994 -0.3926 -0.3625  1.2484
  808MPD2    C211896   0.389   1.678   9.961 -0.3929  0.0188 -0.0898
  808MPD2    C311897   0.517   1.718   9.974 -0.0206 -0.0291 -0.1490
  808MPD2    C411898   0.617   1.636  10.022  0.2653 -0.4936 -0.1793
  808MPD2    C511899   0.582   1.512  10.070  0.0508  0.5769 -0.1613
  808MPD2     H11900   0.310   1.736   9.915 -1.2930 -0.3588  0.9559
  808MPD2    H111901   0.719   1.669  10.032  0.3665  0.0585 -3.0201
  808MPD2    H211902   0.441   1.364  10.092 -0.0201  0.2802 -0.4890
  808MPD2    H311903   0.655   1.439  10.105 -0.8443 -0.2729 -0.0642
  808MPD2     N11904   0.571   1.838   9.924 -0.3187 -0.0946  0.2617
  808MPD2    H511905   0.670   1.855   9.936 -0.1243 -0.4359 -0.8339
  808MPD2    N111906   0.225   1.509   9.965 -0.0569  0.4453  0.0184
  808MPD2    H711907   0.166   1.586   9.935  0.5899  1.6869  1.8739
  809MPD2     C11908   1.164   2.138   9.184 -0.0357  0.7272 -0.5959
  809MPD2    C111909   1.166   2.048   9.287 -0.2275 -0.1231  0.4189
  809MPD2    C211910   1.066   2.059   9.382  0.7167 -0.0664 -0.8480
  809MPD2    C311911   0.970   2.159   9.374  0.2572  0.5500 -0.6671
  809MPD2    C411912   0.977   2.250   9.281 -0.2481  0.7406 -0.7595
  809MPD2    C511913   1.070   2.239   9.181 -0.1631 -0.4090  0.2423
  809MPD2     H11914   1.059   1.989   9.464  1.9430  0.4336 -0.3190
  809MPD2    H111915   0.904   2.330   9.277  0.4267  1.2486 -3.0338
  809MPD2    H211916   1.235   2.125   9.102 -0.8544 -0.9197 -1.0448
  809MPD2    H311917   1.087   2.306   9.097 -1.3320 -2.4759 -1.6624
  809MPD2     N11918   0.867   2.175   9.467  0.1186 -0.2028  0.2102
  809MPD2    H511919   0.803   2.253   9.461  0.1216 -0.2584 -0.6056
  809MPD2    N111920   1.268   1.954   9.319  0.5517 -0.7147  0.2106
  809MPD2    H711921   1.263   1.909   9.409 -0.8929  0.0128  0.4795
  810MPD2     C11922   0.446   0.830  10.236  0.7040  0.1249 -0.6179
  810MPD2    C111923   0.329   0.901  10.244 -0.0814  0.3629 -0.0305
  810MPD2    C211924   0.332   1.039  10.267 -0.2492 -0.2566 -0.2541
  810MPD2    C311925   0.456   1.100  10.290  0.4441 -0.2903  0.3166
  810MPD2    C411926   0.573   1.024  10.283  0.1510  0.3278 -0.0179
  810MPD2    C511927   0.566   0.892  10.250 -0.2328  0.5440 -0.6883
  810MPD2     H11928   0.243   1.100  10.256 -0.6229 -0.2179  3.1373
  810MPD2    H111929   0.666   1.078  10.296 -0.1560  0.4898  1.4946
  810MPD2    H211930   0.445   0.724  10.217 -0.0458  0.3524 -1.8363
  810MPD2    H311931   0.661   0.840  10.246  1.0098  2.8773 -1.5408
  810MPD2     N11932   0.461   1.235  10.323 -0.0213  0.2048 -0.2874
  810MPD2    H511933   0.549   1.282  10.343 -0.3017  0.5998  0.0212
  810MPD2    N111934   0.206   0.840  10.226 -0.0030  0.5980 -0.1106
  810MPD2    H711935   0.121   0.895  10.222 -0.1860  0.1508 -2.5533
  811MPD2     C11936   4.196   0.828   9.832 -0.3555  0.5704 -0.0172
  811MPD2    C111937   4.318   0.875   9.881  0.0338  0.4804  0.6936
  811MPD2    C211938   4.347   1.011   9.867  0.6066  0.4025 -0.7475
  811MPD2    C311939   4.258   1.101   9.801 -0.4511 -0.1666 -0.0690
  811MPD2    C411940   4.151   1.044   9.738  0.1600  1.2067 -0.2410
  811MPD2    C511941   4.125   0.911   9.757  0.6779  0.1338  0.1168
  811MPD2     H11942   4.445   1.049   9.893 -1.4105  4.6546  0.7142
  811MPD2    H111943   4.069   1.096   9.691 -0.3612  1.9843  1.5341
  811MPD2    H211944   4.166   0.725   9.848  2.7930 -0.4859 -0.9301
  811MPD2    H311945   4.033   0.863   9.725  0.5708  0.4932 -0.1039
  811MPD2     N11946   4.296   1.237   9.808  0.4974  0.7060  0.0129
  811MPD2    H511947   4.370   1.266   9.871 -0.1484  1.0348  0.6155
  811MPD2    N111948   4.389   0.780   9.965  0.2124 -0.1711 -0.0481
  811MPD2    H711949   4.357   0.684   9.972 -0.3659 -0.0659 -1.3394
  812MPD2     C11950   3.521   0.680  12.080 -0.0335 -0.0161  0.0190
  812MPD2    C111951   3.424   0.703  12.178 -0.3588  0.0712  0.0690
  812MPD2    C211952   3.391   0.614  12.278 -0.2956  0.0798  0.5469
  812MPD2    C311953   3.442   0.486  12.275 -0.2361 -1.1279 -0.7027
  812MPD2    C411954   3.540   0.460  12.177  0.0220  0.2598  0.1514
  812MPD2    C511955   3.578   0.556  12.083  0.3156  0.0401 -0.0026
  812MPD2     H11956   3.322   0.645  12.356 -0.3935 -1.2315  0.9799
  812MPD2    H111957   3.582   0.360  12.172 -1.6415 -0.4231 -0.3286
  812MPD2    H211958   3.545   0.759  12.009  1.2311  0.3570  0.8679
  812MPD2    H311959   3.647   0.540  12.001  0.1516 -4.5656  0.7842
  812MPD2     N11960   3.403   0.390  12.370 -0.2068 -0.4554 -0.3124
  812MPD2    H511961   3.383   0.428  12.463 -0.2079  2.6154 -1.5517
  812MPD2    N111962   3.374   0.837  12.175  0.1115 -0.7438  0.3876
  812MPD2    H711963   3.399   0.900  12.099  0.4376 -0.1703  0.9754
  813MPD2     C11964   2.580   2.620  12.453  0.8389 -0.6834  0.0754
  813MPD2    C111965   2.586   2.755  12.476 -0.1030 -0.5282 -0.1107
  813MPD2    C211966   2.538   2.803  12.604  0.0467  0.6887 -0.2521
  813MPD2    C311967   2.496   2.722  12.704 -0.1609 -0.0217 -0.0718
  813MPD2    C411968   2.494   2.585  12.676  0.7422 -0.6233  0.0677
  813MPD2    C511969   2.544   2.535  12.551 -0.4161  0.9592  0.0037
  813MPD2     H11970   2.551   2.909  12.626 -0.2190  0.0853  2.9309
  813MPD2    H111971   2.441   2.514  12.737 -1.6606  0.6678 -0.4791
  813MPD2    H211972   2.612   2.575  12.360 -1.5203 -1.7071 -0.2441
  813MPD2    H311973   2.535   2.431  12.519 -1.7784  0.8787  0.6576
  813MPD2     N11974   2.450   2.776  12.821  0.4088 -0.2189 -0.5472
  813MPD2    H511975   2.446   2.877  12.815 -3.7909 -0.2970  1.0090
  813MPD2    N111976   2.650   2.839  12.385  0.3724  0.3296 -0.0300
  813MPD2    H711977   2.723   2.790  12.334 -1.7911 -3.1238  0.2345
  814MPD2     C11978   2.672   3.910  11.637 -0.4121  0.5523  0.0446
  814MPD2    C111979   2.732   4.009  11.570  0.0565 -0.4596 -0.1826
  814MPD2    C211980   2.815   4.096  11.654 -0.4224 -0.4454 -0.3979
  814MPD2    C311981   2.830   4.079  11.792  0.3613  0.1039 -0.0015
  814MPD2    C411982   2.773   3.963  11.848 -0.1432 -0.2299 -0.1589
  814MPD2    C511983   2.687   3.890  11.772 -0.2673 -0.3827  0.1796
  814MPD2     H11984   2.857   4.177  11.596 -0.1038  0.0353  0.5064
  814MPD2    H111985   2.771   3.942  11.955  0.3148 -0.7801 -0.2579
  814MPD2    H211986   2.612   3.836  11.585  2.3301 -0.0006 -2.3424
  814MPD2    H311987   2.628   3.807  11.811 -0.0909 -0.8860 -0.6339
  814MPD2     N11988   2.910   4.159  11.873  0.0493 -0.0407  0.3593
  814MPD2    H511989   2.921   4.136  11.971  1.2521 -1.1124 -0.0214
  814MPD2    N111990   2.730   4.027  11.426  0.4520 -0.7667 -0.0836
  814MPD2    H711991   2.791   4.098  11.387 -0.0805  0.2283  0.9239
  815MPD2     C11992   3.498   2.787  12.089 -0.7904  0.6904 -0.2510
  815MPD2    C111993   3.482   2.667  12.025 -0.7460  0.7046  0.5776
  815MPD2    C211994   3.360   2.606  12.040 -0.9607  0.0819  0.1340
  815MPD2    C311995   3.255   2.665  12.116 -0.0442  0.7073  0.2566
  815MPD2    C411996   3.283   2.784  12.183  0.0021  0.4322 -0.4369
  815MPD2    C511997   3.405   2.842  12.171 -0.1148  0.4212  0.3492
  815MPD2     H11998   3.338   2.516  11.984  0.4204 -1.2834  1.7808
  815MPD2    H111999   3.203   2.828  12.242  0.0253  1.0563 -0.8811
  815MPD2    H212000   3.589   2.838  12.059  0.5897 -2.1876 -1.0234
  815MPD2    H312001   3.431   2.924  12.237 -1.3442  0.5547  0.6573
  815MPD2     N12002   3.126   2.603  12.115  0.3748  0.2444 -0.2874
  815MPD2    H512003   3.104   2.551  12.032 -1.6250 -1.9480  1.6254
  815MPD2    N112004   3.590   2.616  11.946  0.0250 -0.2723  0.3108
  815MPD2    H712005   3.669   2.676  11.923 -0.1108  0.5921  2.1007
  816MPD2     C12006   3.708   1.530  17.332  0.2437 -0.5278 -0.1954
  816MPD2    C112007   3.595   1.523  17.249 -0.1788 -0.1550 -0.3197
  816MPD2    C212008   3.618   1.480  17.117 -0.3900 -0.1657 -1.0677
  816MPD2    C312009   3.746   1.459  17.077 -0.4205 -0.7305 -0.3270
  816MPD2    C412010   3.855   1.455  17.167 -0.3169  0.5858 -0.1718
  816MPD2    C512011   3.837   1.503  17.297 -0.0221  0.5384 -0.3508
  816MPD2     H12012   3.533   1.476  17.050 -0.8709 -1.3908 -0.3805
  816MPD2    H112013   3.956   1.444  17.130  0.0638 -1.2167  1.4244
  816MPD2    H212014   3.681   1.572  17.428 -2.0660  0.1753 -1.1671
  816MPD2    H312015   3.918   1.522  17.365 -0.3096 -0.7255  0.3478
  816MPD2     N12016   3.777   1.450  16.941 -0.2425 -1.1399  0.8959
  816MPD2    H512017   3.698   1.481  16.885  1.4128 -0.9967 -1.3664
  816MPD2    N112018   3.467   1.570  17.300  0.9753  0.0534  0.4710
  816MPD2    H712019   3.473   1.610  17.393 -2.8568 -0.3320  0.8508
  817MPD2     C12020   3.495   3.421   9.908  0.5949 -0.0420 -0.6689
  817MPD2    C112021   3.529   3.315   9.830 -0.2747 -0.0973  0.5939
  817MPD2    C212022   3.436   3.273   9.742 -0.5438 -1.4055 -0.1919
  817MPD2    C312023   3.304   3.313   9.748  0.9370  0.1047  0.1817
  817MPD2    C412024   3.260   3.406   9.839 -0.1336  0.4483 -0.3185
  817MPD2    C512025   3.363   3.461   9.917  0.0028  0.2857  0.4864
  817MPD2     H12026   3.463   3.195   9.672 -2.7453 -1.4376 -0.9835
  817MPD2    H112027   3.160   3.436   9.866  0.3203 -1.1130  3.1860
  817MPD2    H212028   3.553   3.463   9.989  0.8666 -2.2874  0.2948
  817MPD2    H312029   3.322   3.528   9.993  0.5980  0.4129  0.6954
  817MPD2     N12030   3.220   3.258   9.652 -0.6343 -0.1623  0.0920
  817MPD2    H512031   3.271   3.198   9.588  0.7126  1.3657 -0.2795
  817MPD2    N112032   3.657   3.262   9.829 -0.4302 -0.0756 -0.1019
  817MPD2    H712033   3.677   3.182   9.770 -1.8467 -0.1324 -0.5052
  818MPD2     C12034   1.851   3.229   9.500 -0.2738  0.7340 -0.6663
  818MPD2    C112035   1.810   3.127   9.582  0.7885 -0.1502 -0.6153
  818MPD2    C212036   1.847   3.000   9.559 -0.4377 -0.9849 -0.6850
  818MPD2    C312037   1.947   2.967   9.471  0.6608  0.2618  0.0088
  818MPD2    C412038   2.014   3.067   9.406 -0.0499  0.1875 -0.2951
  818MPD2    C512039   1.966   3.198   9.419  0.4249 -0.6200  0.3869
  818MPD2     H12040   1.800   2.918   9.613 -1.7800 -2.3505 -3.9006
  818MPD2    H112041   2.096   3.060   9.334  0.2925  1.8588 -0.0517
  818MPD2    H212042   1.813   3.331   9.501 -1.8123  0.1260  1.5986
  818MPD2    H312043   2.000   3.257   9.335 -0.0599  1.6269  1.7538
  818MPD2     N12044   1.972   2.827   9.466 -0.5338 -0.3304 -0.1314
  818MPD2    H512045   1.910   2.769   9.522 -1.6289  0.5078 -0.4650
  818MPD2    N112046   1.715   3.141   9.690  0.2237  0.0070  0.7482
  818MPD2    H712047   1.691   3.054   9.735 -1.0540 -0.2741 -0.5034
  819MPD2     C12048   4.672   4.546  14.728 -0.1476 -0.0794  0.3399
  819MPD2    C112049   4.669   4.460  14.835 -0.0995 -0.1856 -0.0244
  819MPD2    C212050   0.059   4.408  14.875 -0.5601 -0.5655 -0.4149
  819MPD2    C312051   0.186   4.437  14.818 -0.1834  0.6669  0.2321
  819MPD2    C412052   0.182   4.530  14.713  0.0691  0.2667 -0.1962
  819MPD2    C512053   0.062   4.577  14.669 -0.5662 -0.0112  0.4012
  819MPD2     H12054   0.053   4.343  14.961  2.1139  1.4074  1.2703
  819MPD2    H112055   0.269   4.563  14.657  0.6157 -1.4145 -0.3307
  819MPD2    H212056   4.586   4.591  14.681 -0.3071 -0.1715  0.5413
  819MPD2    H312057   0.060   4.631  14.575 -3.2473 -1.3339 -0.3102
  819MPD2     N12058   0.301   4.379  14.875 -0.0377  0.2203 -0.6600
  819MPD2    H512059   0.279   4.309  14.945 -1.2900  0.8562 -0.4184
  819MPD2    N112060   4.544   4.441  14.900  0.0784  0.4658 -0.4730
  819MPD2    H712061   4.462   4.466  14.847 -1.1158  2.2432  2.2090
  820MPD2     C12062   3.639   0.074  14.820 -0.5516 -0.0753 -0.9582
  820MPD2    C112063   3.770   0.101  14.794 -0.0083 -0.4807  0.0555
  820MPD2    C212064   3.869   0.005  14.828 -0.1637 -0.0023 -0.0875
  820MPD2    C312065   3.835   4.618  14.905  0.2810 -0.1799 -0.3722
  820MPD2    C412066   3.705   4.594  14.937  0.1681  0.1151  0.2256
  820MPD2    C512067   3.611   4.685  14.894  0.3935 -0.4896 -0.4509
  820MPD2     H12068   3.971   0.021  14.798  0.7147 -2.2457  1.6926
  820MPD2    H112069   3.673   4.506  14.992  0.2239  0.5040  0.8850
  820MPD2    H212070   3.557   0.141  14.798 -1.1326  0.4545  2.8096
  820MPD2    H312071   3.509   4.660  14.921 -0.1989  1.8314 -0.5401
  820MPD2     N12072   3.934   4.528  14.956  0.0110  1.1059  0.4297
  820MPD2    H512073   3.906   4.454  15.020  0.4362  0.2404 -0.3735
  820MPD2    N112074   3.791   0.226  14.749  0.0252 -0.2199  0.4347
  820MPD2    H712075   3.709   0.285  14.738 -0.4787 -0.9681  0.1721
  821MPD2     C12076   4.453   1.808  12.862 -0.6376  0.7482 -0.6521
  821MPD2    C112077   4.534   1.711  12.917  0.1361 -0.1923  0.3030
  821MPD2    C212078   4.672   1.727  12.903  0.3417  0.4319  0.2046
  821MPD2    C312079   0.005   1.831  12.832 -0.6627 -0.5848  0.3142
  821MPD2    C412080   4.649   1.922  12.773  0.3318 -0.3028  0.0700
  821MPD2    C512081   4.513   1.902  12.781 -0.1819 -0.0554 -0.2222
  821MPD2     H12082   0.004   1.651  12.955  0.3832 -0.3400 -0.9739
  821MPD2    H112083   4.685   2.003  12.710 -1.2865 -0.9231 -1.6444
  821MPD2    H212084   4.346   1.797  12.872 -0.7571  3.0610  0.5754
  821MPD2    H312085   4.457   1.986  12.744  0.8870  0.3420 -0.9414
  821MPD2     N12086   0.145   1.836  12.801  0.2852 -0.0696  0.1435
  821MPD2    H512087   0.167   1.907  12.733 -1.0346  2.2564  2.1373
  821MPD2    N112088   4.487   1.590  12.988 -0.5274  0.0459  0.4071
  821MPD2    H712089   4.561   1.533  13.028 -0.9669  0.3972  1.6964
  822MPD2     C12090   0.747   1.386  15.622 -0.7002  0.7267 -0.0924
  822MPD2    C112091   0.718   1.316  15.738  1.0454 -0.3121  0.5319
  822MPD2    C212092   0.636   1.368  15.836  0.5791  0.6519  0.5416
  822MPD2    C312093   0.587   1.497  15.820 -0.3432  1.3226 -0.1481
  822MPD2    C412094   0.601   1.564  15.703  0.2581 -0.6618 -0.0927
  822MPD2    C512095   0.688   1.513  15.609 -0.0621 -0.1326 -0.3836
  822MPD2     H12096   0.622   1.324  15.934 -0.9423  1.4438  0.6701
  822MPD2    H112097   0.553   1.660  15.687  0.4178 -0.2863  1.6744
  822MPD2    H212098   0.810   1.345  15.544 -1.5660 -0.8606  0.0304
  822MPD2    H312099   0.706   1.567  15.517 -1.0420 -0.3369 -0.6981
  822MPD2     N12100   0.511   1.547  15.931  0.1138 -0.0641  0.5250
  822MPD2    H512101   0.495   1.480  16.005  2.4659 -0.7329  0.4326
  822MPD2    N112102   0.790   1.192  15.767 -0.8353  0.7202 -0.5148
  822MPD2    H712103   0.778   1.151  15.859  1.4001 -0.6518 -0.8308
  823MPD2     C12104   0.171   1.500  16.698  0.2436 -0.1784 -0.7402
  823MPD2    C112105   0.224   1.438  16.590 -0.2052  0.5954  0.5392
  823MPD2    C212106   0.283   1.313  16.596  0.2584  0.0378  0.2914
  823MPD2    C312107   0.295   1.257  16.727 -0.2057 -0.7558 -0.0244
  823MPD2    C412108   0.241   1.320  16.832 -0.8875  0.3255  0.0872
  823MPD2    C512109   0.186   1.447  16.822  0.6195 -0.9859  0.6036
  823MPD2     H12110   0.319   1.265  16.505 -0.3596 -1.3977  0.7972
  823MPD2    H112111   0.271   1.294  16.933 -0.5708  1.1000  0.1863
  823MPD2    H212112   0.141   1.602  16.675 -1.3547 -0.4132  0.2669
  823MPD2    H312113   0.160   1.513  16.905 -0.5812 -1.2767  0.4685
  823MPD2     N12114   0.351   1.133  16.754 -0.2897  0.3335 -0.7062
  823MPD2    H512115   0.336   1.093  16.847 -0.7772 -0.0979 -0.9704
  823MPD2    N112116   0.224   1.515  16.473  0.0547  0.7197  0.2042
  823MPD2    H712117   0.170   1.601  16.482 -1.9768 -0.7754  2.2113
  824MPD2     C12118   1.476   0.602  15.942 -0.2562  0.3782 -0.5443
  824MPD2    C112119   1.428   0.659  15.821 -0.2386 -0.1878 -0.6568
  824MPD2    C212120   1.479   0.623  15.700 -0.2032  0.3485  0.6214
  824MPD2    C312121   1.566   0.516  15.689 -0.5679  0.4438  0.3388
  824MPD2    C412122   1.617   0.462  15.807 -0.4569 -0.5279  0.3210
  824MPD2    C512123   1.577   0.510  15.931  0.1123 -0.4283 -0.3190
  824MPD2     H12124   1.433   0.672  15.615 -1.9219  0.1576  1.4415
  824MPD2    H112125   1.701   0.394  15.806 -0.4765 -0.5321 -1.2045
  824MPD2    H212126   1.442   0.644  16.036 -0.4908 -0.7680 -0.1177
  824MPD2    H312127   1.610   0.455  16.019  1.0427  0.8659  0.1337
  824MPD2     N12128   1.601   0.464  15.557 -0.3449  0.1479  0.3154
  824MPD2    H512129   1.576   0.518  15.475 -1.3609  0.1955  0.6573
  824MPD2    N112130   1.328   0.754  15.842  1.0456 -0.4528 -0.3849
  824MPD2    H712131   1.297   0.751  15.938  0.2220 -0.6478 -0.6563
  825MPD2     C12132   2.239   0.641  15.110  0.7055 -0.1428  0.5019
  825MPD2    C112133   2.104   0.671  15.118  0.2573  0.2187  0.0158
  825MPD2    C212134   2.066   0.802  15.091  0.4645 -0.2545  0.9941
  825MPD2    C312135   2.157   0.901  15.065 -0.4216  0.4046 -0.1421
  825MPD2    C412136   2.290   0.868  15.055  0.4709 -0.1370  0.3357
  825MPD2    C512137   2.328   0.738  15.079 -0.1131  0.7270  0.1219
  825MPD2     H12138   1.962   0.831  15.081  0.1695 -1.1269  1.5486
  825MPD2    H112139   2.365   0.946  15.049  0.7422 -0.4232  0.0424
  825MPD2    H212140   2.268   0.538  15.128 -0.4915 -0.4161  0.8753
  825MPD2    H312141   2.434   0.719  15.069 -0.3974 -0.3640 -0.8099
  825MPD2     N12142   2.117   1.034  15.030  0.1799 -0.2651  0.6332
  825MPD2    H512143   2.021   1.061  15.052  0.5276 -0.7995  2.8696
  825MPD2    N112144   2.014   0.561  15.142  0.6762 -0.9892 -0.4379
  825MPD2    H712145   2.049   0.468  15.162 -0.3786 -1.4501 -0.7272
  826MPD2     C12146   1.420   0.701  13.612 -0.2632 -0.6578 -0.2092
  826MPD2    C112147   1.357   0.692  13.489 -0.5756  0.1880 -0.3412
  826MPD2    C212148   1.287   0.801  13.445 -0.2918  0.0814 -0.2120
  826MPD2    C312149   1.271   0.918  13.520  0.5444  0.0634 -0.0524
  826MPD2    C412150   1.321   0.919  13.649  0.3075  0.4223 -0.6726
  826MPD2    C512151   1.404   0.816  13.689 -0.0346  0.3811  0.1569
  826MPD2     H12152   1.245   0.784  13.347 -0.1365  2.1038 -0.6366
  826MPD2    H112153   1.311   1.000  13.719 -0.7266  1.2859 -1.8161
  826MPD2    H212154   1.483   0.625  13.656 -0.8429  0.3335  2.3344
  826MPD2    H312155   1.466   0.819  13.778 -0.9890  0.0714  0.8319
  826MPD2     N12156   1.203   1.038  13.477  0.0294  0.2017  0.7240
  826MPD2    H512157   1.181   1.114  13.541  0.3902 -1.8279  3.3055
  826MPD2    N112158   1.398   0.584  13.411 -0.0738 -0.2753 -0.0387
  826MPD2    H712159   1.479   0.533  13.442 -0.3276 -0.4328  0.3608
  827MPD2     C12160   2.536   2.198  10.095 -0.3617  0.2274  0.2474
  827MPD2    C112161   2.577   2.072  10.144  0.3072 -0.2493  0.4139
  827MPD2    C212162   2.570   1.961  10.065 -0.3265 -0.8278 -0.3155
  827MPD2    C312163   2.496   1.969   9.947 -0.6978 -1.0689  0.3660
  827MPD2    C412164   2.442   2.087   9.901  0.3124 -0.2012  0.4411
  827MPD2    C512165   2.464   2.199   9.977  0.0333  0.2495 -0.5369
  827MPD2     H12166   2.613   1.867  10.097  1.4867  0.2772  0.4709
  827MPD2    H112167   2.385   2.096   9.809 -1.1922 -0.1048  1.3742
  827MPD2    H212168   2.543   2.293  10.146 -1.6853  0.4198  0.0558
  827MPD2    H312169   2.420   2.290   9.940 -0.0836 -0.0605 -1.1690
  827MPD2     N12170   2.494   1.851   9.869 -0.2215  0.4564 -1.1034
  827MPD2    H512171   2.548   1.770   9.899  0.5070  1.3231 -0.0933
  827MPD2    N112172   2.629   2.087  10.275 -0.1418  0.1642  0.2705
  827MPD2    H712173   2.643   2.183  10.305  1.6704 -0.3373  1.0289
  828MPD2     C12174   0.929   1.393  12.535  0.7939 -0.3600 -0.1037
  828MPD2    C112175   0.950   1.477  12.427 -0.1425 -0.0676 -0.2176
  828MPD2    C212176   1.061   1.460  12.350 -0.2788  0.2441  0.3291
  828MPD2    C312177   1.157   1.360  12.378 -0.6282  0.0720  0.2174
  828MPD2    C412178   1.139   1.282  12.490  0.2563 -0.4910  0.3395
  828MPD2    C512179   1.024   1.297  12.560  0.1289 -0.6729  0.0713
  828MPD2     H12180   1.079   1.536  12.275  0.5299  0.7346  1.0201
  828MPD2    H112181   1.212   1.214  12.532  0.5590 -0.0089  0.5903
  828MPD2    H212182   0.845   1.398  12.604 -0.9538 -2.1911 -2.0873
  828MPD2    H312183   1.020   1.219  12.635  0.6489 -2.8682 -2.1626
  828MPD2     N12184   1.280   1.350  12.303  0.3137 -0.3575  0.1499
  828MPD2    H512185   1.342   1.286  12.352  2.9621  2.1719  0.0778
  828MPD2    N112186   0.852   1.578  12.396 -0.2926  0.3651  0.4650
  828MPD2    H712187   0.890   1.634  12.319 -0.5848 -0.8039 -0.5260
  829MPD2     C12188   1.006   2.142  11.805 -0.4055 -0.1367 -0.1518
  829MPD2    C112189   0.887   2.201  11.848  0.5475  0.2166 -0.5393
  829MPD2    C212190   0.824   2.146  11.958  0.4757  0.2620  0.1538
  829MPD2    C312191   0.858   2.019  12.005  0.1814 -0.1781  0.1110
  829MPD2    C412192   0.971   1.959  11.948  0.0274  0.1504 -0.0929
  829MPD2    C512193   1.048   2.025  11.864 -0.3796 -0.2450  0.2969
  829MPD2     H12194   0.744   2.206  11.999 -0.0429 -0.3447  0.0199
  829MPD2    H112195   1.007   1.858  11.966  1.6898  0.6094 -0.8240
  829MPD2    H212196   1.069   2.193  11.734 -1.6036  0.4115 -0.8303
  829MPD2    H312197   1.148   1.995  11.835 -0.1390 -0.0300  0.9019
  829MPD2     N12198   0.787   1.951  12.107 -0.8253 -0.2645  0.3554
  829MPD2    H512199   0.826   1.861  12.133  1.9304  0.5741 -0.8910
  829MPD2    N112200   0.841   2.312  11.779 -0.0412 -0.3840  0.6903
  829MPD2    H712201   0.908   2.342  11.709 -0.8984 -0.3098 -0.0958
  830MPD2     C12202   0.996   4.392  14.531  0.1292  0.5960  1.0392
  830MPD2    C112203   0.998   4.399  14.670 -0.1062  0.6160 -0.1458
  830MPD2    C212204   1.083   4.487  14.733 -0.3123  0.0872  0.4363
  830MPD2    C312205   1.148   4.581  14.653 -0.2865 -0.1028  0.2568
  830MPD2    C412206   1.139   4.574  14.515 -0.3112 -0.4161 -0.2638
  830MPD2    C512207   1.071   4.476  14.451  0.0300 -0.6927  0.1144
  830MPD2     H12208   1.092   4.482  14.841  0.4083 -1.5109  0.3034
  830MPD2    H112209   1.189   4.647  14.452  1.3550 -0.9575  0.4330
  830MPD2    H212210   0.950   4.308  14.480 -0.8167  0.6182  1.8582
  830MPD2    H312211   1.087   4.468  14.344  0.9609  1.8543  0.0693
  830MPD2     N12212   1.231   4.681  14.706  0.1876 -0.2122  0.1540
  830MPD2    H512213   1.264   0.030  14.645  2.2675 -1.4745 -0.2702
  830MPD2    N112214   0.898   4.329  14.738 -0.1391  0.3265  0.7410
  830MPD2    H712215   0.838   4.272  14.679  1.1378 -1.4431  1.1343
  831MPD2     C12216   0.660   1.589  16.372  0.2126  0.6563 -0.3513
  831MPD2    C112217   0.721   1.523  16.264 -0.8954  0.5136 -0.0182
  831MPD2    C212218   0.694   1.392  16.247 -0.2612 -0.9756 -0.0912
  831MPD2    C312219   0.621   1.316  16.331  0.3825  0.0138  0.5212
  831MPD2    C412220   0.575   1.382  16.444  0.4154 -0.8433 -0.4216
  831MPD2    C512221   0.595   1.512  16.464 -0.4100  0.7143 -0.4420
  831MPD2     H12222   0.736   1.349  16.156 -0.2685  0.2030 -0.6429
  831MPD2    H112223   0.519   1.323  16.515 -0.8702  1.3471  0.3798
  831MPD2    H212224   0.682   1.694  16.386 -0.0457  0.4908  1.3263
  831MPD2    H312225   0.552   1.558  16.552  1.8587 -0.4323  1.2420
  831MPD2     N12226   0.576   1.181  16.306 -0.2443 -0.2451  0.1046
  831MPD2    H512227   0.507   1.142  16.370 -1.4509  0.6245 -0.6744
  831MPD2    N112228   0.798   1.599  16.177 -0.3850  0.3314  0.4420
  831MPD2    H712229   0.794   1.700  16.186 -2.3251  0.2735  0.2739
  832MPD2     C12230   4.135   2.425  17.288 -0.0622 -0.2749 -0.0547
  832MPD2    C112231   4.114   2.558  17.269 -0.5178 -0.0816 -0.0756
  832MPD2    C212232   4.001   2.601  17.208  0.0287  0.1368  0.0023
  832MPD2    C312233   3.915   2.513  17.153 -0.4108 -0.6512  0.1093
  832MPD2    C412234   3.939   2.378  17.162 -0.0066 -0.1284  0.1638
  832MPD2    C512235   4.043   2.335  17.243 -0.0122 -0.2119  0.4011
  832MPD2     H12236   3.986   2.708  17.203  1.6356  0.4075  0.8464
  832MPD2    H112237   3.868   2.303  17.130 -1.1272  0.7068  0.6793
  832MPD2    H212238   4.205   2.374  17.353 -0.8096  0.8163  1.5794
  832MPD2    H312239   4.066   2.231  17.264 -2.0712 -0.9059 -0.6983
  832MPD2     N12240   3.796   2.547  17.082  0.5909  0.0552 -0.9391
  832MPD2    H512241   3.736   2.473  17.048 -0.1471 -0.1046  0.7076
  832MPD2    N112242   4.208   2.641  17.329 -0.2326  0.1552 -0.1511
  832MPD2    H712243   4.272   2.613  17.402  0.5259  0.6849 -0.6193
  833MPD2     C12244   1.388   4.566  12.232 -0.4963  0.0336 -0.2299
  833MPD2    C112245   1.350   4.595  12.099 -0.6377 -0.3319 -0.2385
  833MPD2    C212246   1.427   4.560  11.992 -0.1365  0.0474  0.3835
  833MPD2    C312247   1.542   4.487  12.006 -0.1494  0.3105  0.5526
  833MPD2    C412248   1.584   4.457  12.137 -0.1960 -0.4247 -0.2091
  833MPD2    C512249   1.509   4.491  12.247 -0.5432 -0.2097 -0.3658
  833MPD2     H12250   1.382   4.574  11.894 -0.1289 -1.9501  0.0821
  833MPD2    H112251   1.679   4.406  12.150  0.0888  1.0427  3.5074
  833MPD2    H212252   1.333   4.596  12.320 -0.2142  1.7439 -0.6228
  833MPD2    H312253   1.546   4.474  12.347 -3.3005 -0.6398  0.5735
  833MPD2     N12254   1.618   4.426  11.902  0.0537  0.1178  0.5617
  833MPD2    H512255   1.696   4.365  11.924 -0.0158 -0.2293 -0.1460
  833MPD2    N112256   1.228   4.661  12.072  0.1267  0.4759 -0.3100
  833MPD2    H712257   1.214   4.697  11.978  0.1599  0.7313 -0.2189
  834MPD2     C12258   1.650   3.543  11.446  0.7223 -0.5780  0.6261
  834MPD2    C112259   1.564   3.604  11.357 -0.2166 -0.4620  0.5043
  834MPD2    C212260   1.522   3.739  11.377  0.2813 -0.3796 -0.7537
  834MPD2    C312261   1.581   3.815  11.483  0.2210  0.5208  0.7411
  834MPD2    C412262   1.668   3.751  11.567 -0.2711 -0.0681 -0.4245
  834MPD2    C512263   1.696   3.621  11.549 -0.1594  0.0872  0.6443
  834MPD2     H12264   1.455   3.785  11.305  0.8717  1.2473 -0.2570
  834MPD2    H112265   1.720   3.803  11.647  0.6582 -0.3159 -0.8808
  834MPD2    H212266   1.671   3.437  11.444 -1.5811 -1.0368  0.6042
  834MPD2    H312267   1.751   3.569  11.627  1.5228  1.2680  0.2550
  834MPD2     N12268   1.553   3.952  11.498  0.0704 -0.1145  0.7392
  834MPD2    H512269   1.491   3.990  11.427 -0.5474 -1.5644  0.5102
  834MPD2    N112270   1.526   3.514  11.255  0.0425 -0.3122 -0.0856
  834MPD2    H712271   1.577   3.428  11.242  1.7186  0.6293  0.1846
  835MPD2     C12272   1.568   2.160  11.305 -0.0964  0.1163  0.5817
  835MPD2    C112273   1.489   2.252  11.240  0.2594 -0.6156 -0.5989
  835MPD2    C212274   1.438   2.360  11.306 -0.1432 -0.7766 -0.0059
  835MPD2    C312275   1.479   2.388  11.439 -0.3053 -0.3601  0.4585
  835MPD2    C412276   1.562   2.298  11.504  0.2535 -0.6364 -0.3954
  835MPD2    C512277   1.606   2.190  11.435  0.0736 -0.2357  0.0233
  835MPD2     H12278   1.374   2.433  11.257  1.6059  2.0337  1.8449
  835MPD2    H112279   1.612   2.321  11.597 -0.0157  0.1563 -0.4401
  835MPD2    H212280   1.603   2.064  11.268  1.2621  1.3272 -1.2636
  835MPD2    H312281   1.673   2.122  11.487 -0.0608 -1.8562 -1.8814
  835MPD2     N12282   1.441   2.502  11.510  0.2308  0.2009 -0.4291
  835MPD2    H512283   1.466   2.486  11.608 -0.3986 -1.0838 -0.4686
  835MPD2    N112284   1.461   2.235  11.100 -0.1042  0.0951 -0.2764
  835MPD2    H712285   1.395   2.294  11.049 -2.3842 -3.5868 -1.5713
  836MPD2     C12286   0.722   2.846  11.597  0.1205 -0.5723 -0.7892
  836MPD2    C112287   0.807   2.821  11.698  0.1754  0.5300 -0.1340
  836MPD2    C212288   0.757   2.781  11.821 -0.3152  0.6136 -0.0489
  836MPD2    C312289   0.618   2.757  11.831  0.1781 -0.0877 -0.1564
  836MPD2    C412290   0.537   2.792  11.726 -0.0216  0.3316  0.7832
  836MPD2    C512291   0.589   2.841  11.609 -0.5307  0.0787 -0.3684
  836MPD2     H12292   0.815   2.760  11.910  1.1779  2.3130 -0.5982
  836MPD2    H112293   0.430   2.780  11.718  0.3025  1.2991 -4.8882
  836MPD2    H212294   0.759   2.885  11.503 -1.5567  1.4593 -0.6134
  836MPD2    H312295   0.528   2.872  11.525  0.1933 -1.9660 -1.6382
  836MPD2     N12296   0.568   2.728  11.962  0.6180  0.3400 -0.5927
  836MPD2    H512297   0.632   2.712  12.038  0.7622  0.5645 -0.6677
  836MPD2    N112298   0.945   2.835  11.670 -0.1796 -0.2834 -0.1039
  836MPD2    H712299   0.980   2.853  11.577 -1.5291  1.3449 -0.2910
  837MPD2     C12300   4.377   1.908  10.270 -0.4372  0.2870 -0.0120
  837MPD2    C112301   4.383   1.929  10.134 -0.8298  1.2017  0.2700
  837MPD2    C212302   4.393   2.056  10.088 -0.3674 -0.3022  0.2346
  837MPD2    C312303   4.372   2.160  10.173  0.1961 -0.8316  0.7272
  837MPD2    C412304   4.345   2.139  10.306 -0.1882  0.1028  0.0366
  837MPD2    C512305   4.359   2.012  10.357 -0.0720 -1.1973  0.2891
  837MPD2     H12306   4.400   2.078   9.983  1.5412 -0.3832  0.3338
  837MPD2    H112307   4.346   2.218  10.379 -1.1903  0.5072 -0.3882
  837MPD2    H212308   4.372   1.807  10.311 -1.7503  0.2864 -0.1520
  837MPD2    H312309   4.361   2.000  10.465  2.2090 -1.3812  0.2244
  837MPD2     N12310   4.354   2.283  10.114  0.2982 -0.1598 -0.0087
  837MPD2    H512311   4.393   2.282  10.020  0.6352  2.0319  0.0999
  837MPD2    N112312   4.377   1.831  10.038 -0.0622 -0.2833  0.0557
  837MPD2    H712313   4.403   1.857   9.943 -1.1690  2.0916  0.3998
  838MPD2     C12314   3.155   0.299  11.381  0.5155  0.5449  0.2863
  838MPD2    C112315   3.029   0.266  11.341 -0.1764 -0.3964 -0.0760
  838MPD2    C212316   2.932   0.242  11.437 -1.0089 -0.3689  0.0534
  838MPD2    C312317   2.968   0.237  11.575 -0.1930  0.2159  0.0286
  838MPD2    C412318   3.102   0.247  11.606  0.0383  0.0934 -0.0737
  838MPD2    C512319   3.195   0.294  11.518 -0.3133  0.3219 -0.2547
  838MPD2     H12320   2.828   0.217  11.420 -1.4817  1.2711  0.4978
  838MPD2    H112321   3.143   0.233  11.706 -1.8815 -0.2242  0.6824
  838MPD2    H212322   3.226   0.333  11.306  0.0974 -0.2080 -0.4519
  838MPD2    H312323   3.298   0.312  11.545 -0.1759  1.0518 -1.2740
  838MPD2     N12324   2.879   0.217  11.683  0.1992 -1.0518 -0.2088
  838MPD2    H512325   2.918   0.198  11.775  0.6008  2.6234  0.3841
  838MPD2    N112326   2.992   0.242  11.204 -0.3784 -0.1464  0.6010
  838MPD2    H712327   2.905   0.191  11.198 -1.6876  2.3135 -1.3628
  839MPD2     C12328   2.438   4.384  10.907 -0.5336 -0.4255  0.0977
  839MPD2    C112329   2.538   4.368  10.814  0.2947 -0.1710 -0.1638
  839MPD2    C212330   2.632   4.465  10.801 -0.1518  0.4732 -0.0507
  839MPD2    C312331   2.643   4.565  10.895 -0.3727  0.0534  0.0460
  839MPD2    C412332   2.551   4.569  10.996 -0.6057  0.3822 -0.2844
  839MPD2    C512333   2.451   4.479  11.006  0.2752 -0.2318 -0.9589
  839MPD2     H12334   2.703   4.465  10.720  0.6516  2.5708  0.6740
  839MPD2    H112335   2.559   4.649  11.069  2.0445  0.2371 -0.4237
  839MPD2    H212336   2.353   4.316  10.916 -1.2121  0.3456 -0.4970
  839MPD2    H312337   2.385   4.472  11.092  0.6673 -0.1984 -0.6539
  839MPD2     N12338   2.738   4.663  10.895 -0.2286 -0.2071  0.4382
  839MPD2    H512339   2.725   0.019  10.955  0.9287 -0.3008  0.8322
  839MPD2    N112340   2.537   4.267  10.715  0.4398 -0.1693 -0.0889
  839MPD2    H712341   2.610   4.270  10.645 -0.8183 -1.0844 -1.4254
  840MPD2     C12342   3.137   2.456  10.291 -0.4547 -0.1899 -0.0009
  840MPD2    C112343   3.131   2.410  10.421 -1.4416  0.1908  0.6066
  840MPD2    C212344   3.223   2.456  10.513  0.2260  0.4840 -0.4645
  840MPD2    C312345   3.323   2.545  10.475  0.3050  0.0279 -0.1319
  840MPD2    C412346   3.331   2.586  10.346  0.4433 -0.6660  0.8818
  840MPD2    C512347   3.238   2.543  10.254 -0.0138 -0.9950 -0.0451
  840MPD2     H12348   3.210   2.420  10.615 -0.8200 -3.8303 -2.1053
  840MPD2    H112349   3.405   2.661  10.318  0.6543 -0.5503  1.7370
  840MPD2    H212350   3.061   2.428  10.218  1.0743 -1.3439 -1.1276
  840MPD2    H312351   3.240   2.586  10.155  1.7469  1.4124  1.0278
  840MPD2     N12352   3.422   2.596  10.565 -0.1394  0.0630 -0.6425
  840MPD2    H512353   3.486   2.666  10.528 -0.0596  1.0858  1.4481
  840MPD2    N112354   3.028   2.315  10.450  0.4536  0.3121  0.1360
  840MPD2    H712355   2.986   2.270  10.369  0.5244  0.7795 -0.1611
  841MPD2     C12356   2.313   1.693  14.165 -0.1816 -0.0854 -0.8025
  841MPD2    C112357   2.382   1.591  14.224  0.2698  0.5764  0.5182
  841MPD2    C212358   2.484   1.629  14.313 -0.3106 -0.2252  0.5199
  841MPD2    C312359   2.519   1.761  14.327  0.0053  0.3285 -0.3177
  841MPD2    C412360   2.453   1.855  14.252 -0.0053  0.2808 -0.2858
  841MPD2    C512361   2.354   1.817  14.166 -0.8835  0.3647 -0.0327
  841MPD2     H12362   2.543   1.547  14.351  0.2548 -0.1638 -0.2398
  841MPD2    H112363   2.471   1.961  14.263 -0.6164  0.4003 -0.4184
  841MPD2    H212364   2.218   1.681  14.115 -0.6224 -0.5547  0.1314
  841MPD2    H312365   2.287   1.892  14.125 -0.5571 -1.0917 -3.2760
  841MPD2     N12366   2.603   1.798  14.436 -0.2431  1.1492 -0.5005
  841MPD2    H512367   2.625   1.723  14.501 -0.2551  1.7387  0.1745
  841MPD2    N112368   2.373   1.453  14.189  0.7463  1.0689  0.6565
  841MPD2    H712369   2.448   1.397  14.230  1.6163  0.7674 -1.3297
  842MPD2     C12370   3.014   2.628  16.217  0.5831 -0.5950 -0.3663
  842MPD2    C112371   2.889   2.605  16.271  0.4762 -0.0136  0.4478
  842MPD2    C212372   2.881   2.522  16.381 -0.2549  0.5465 -0.6279
  842MPD2    C312373   3.006   2.464  16.423 -0.0092 -0.5458  0.5489
  842MPD2    C412374   3.131   2.482  16.363  0.4767 -0.4125  0.3143
  842MPD2    C512375   3.136   2.571  16.263 -0.0557 -0.0892  0.1230
  842MPD2     H12376   2.786   2.508  16.431 -0.0989  2.4826  0.2493
  842MPD2    H112377   3.219   2.429  16.398  1.5681 -0.3619 -2.3455
  842MPD2    H212378   3.032   2.678  16.122 -1.0477  1.3958  0.3908
  842MPD2    H312379   3.232   2.586  16.215 -0.5832  0.2164 -0.8416
  842MPD2     N12380   3.005   2.394  16.541 -0.2918 -0.2688 -0.2072
  842MPD2    H512381   3.089   2.371  16.593 -0.8296  0.3197  0.9278
  842MPD2    N112382   2.785   2.688  16.224 -0.7689  0.3322 -0.7496
  842MPD2    H712383   2.820   2.762  16.164  0.7229 -0.1092 -0.4238
  843MPD2     C12384   4.633   2.728  17.512 -0.4084 -0.1687  0.1874
  843MPD2    C112385   4.644   2.742  17.651 -0.1817 -0.2440  0.0780
  843MPD2    C212386   0.001   2.841  17.697 -0.5684  0.5436 -0.3038
  843MPD2    C312387   0.065   2.932  17.609  0.1020 -0.3187 -0.3360
  843MPD2    C412388   0.044   2.917  17.474  0.2314 -0.0463  0.8097
  843MPD2    C512389   4.692   2.816  17.425 -0.7454 -0.1634 -0.0923
  843MPD2     H12390   0.013   2.846   0.100  2.0779 -1.8305 -0.5138
  843MPD2    H112391   0.100   2.984  17.410 -0.9265 -1.1975 -1.4219
  843MPD2    H212392   4.576   2.648  17.466 -0.2113  0.7288 -1.6311
  843MPD2    H312393   4.676   2.790  17.321 -2.2541  2.7434 -0.5837
  843MPD2     N12394   0.157   3.034  17.639  0.3969  0.2474  0.6783
  843MPD2    H512395   0.160   3.107  17.568  2.6324 -0.9532 -0.4330
  843MPD2    N112396   4.565   2.656   0.027 -0.3829  0.3200  0.3552
  843MPD2    H712397   4.512   2.580  17.689 -1.3014  0.4905  1.2080
  844MPD2     C12398   3.717   2.699  16.243 -0.3495 -0.7213  0.2001
  844MPD2    C112399   3.786   2.589  16.294 -0.9335  0.2232  0.0934
  844MPD2    C212400   3.836   2.590  16.424 -0.1201 -0.6834  0.7401
  844MPD2    C312401   3.830   2.709  16.501 -0.1555  1.0169  0.6475
  844MPD2    C412402   3.764   2.814  16.453  0.2052 -0.7423  0.4057
  844MPD2    C512403   3.703   2.814  16.327 -0.1882  0.7420  0.4869
  844MPD2     H12404   3.890   2.506  16.465  3.3653  0.9547 -0.4780
  844MPD2    H112405   3.763   2.902  16.515  0.4939  0.0127 -0.6640
  844MPD2    H212406   3.679   2.702  16.141 -0.8196 -0.9519  0.3671
  844MPD2    H312407   3.647   2.899  16.289  1.3999  0.9193 -1.4399
  844MPD2     N12408   3.910   2.712  16.620  0.4263 -0.5023 -0.5041
  844MPD2    H512409   3.968   2.631  16.636  0.6943 -0.2545 -0.2093
  844MPD2    N112410   3.799   2.473  16.211 -0.0431  0.1788 -0.1332
  844MPD2    H712411   3.851   2.393  16.245 -0.2697 -0.6109 -1.6126
  845MPD2     C12412   4.314   3.507  17.016 -0.5765 -0.7491 -0.0644
  845MPD2    C112413   4.204   3.448  17.084 -0.0475 -0.5695 -0.1842
  845MPD2    C212414   4.181   3.309  17.067 -0.0529 -0.3385 -0.2888
  845MPD2    C312415   4.267   3.239  16.989 -0.1588  0.8955 -0.2796
  845MPD2    C412416   4.378   3.293  16.932  0.0761  0.2191  0.1183
  845MPD2    C512417   4.391   3.431  16.933 -0.5224 -0.5022 -0.5295
  845MPD2     H12418   4.092   3.261  17.104  1.1998 -3.0194 -0.7364
  845MPD2    H112419   4.436   3.226  16.869 -0.4994 -0.4804  0.3240
  845MPD2    H212420   4.331   3.614  17.019  0.8923 -0.9211 -2.7059
  845MPD2    H312421   4.468   3.474  16.871  0.7065  1.6895  2.4806
  845MPD2     N12422   4.222   3.106  16.961  0.6517 -0.2807 -0.1210
  845MPD2    H512423   4.134   3.070  16.996 -1.0634  1.1025 -2.9146
  845MPD2    N112424   4.125   3.537  17.160 -0.0546 -0.3857 -0.4897
  845MPD2    H712425   4.157   3.632  17.175  1.2475 -1.4695  3.5389
  846MPD2     C12426   0.690   3.599  13.337 -0.3732 -0.0895 -0.6021
  846MPD2    C112427   0.627   3.715  13.384 -0.0391 -0.1490  0.0669
  846MPD2    C212428   0.585   3.720  13.516 -0.2699 -0.0122 -1.4158
  846MPD2    C312429   0.629   3.625  13.606  0.4027 -0.7534 -0.3708
  846MPD2    C412430   0.705   3.519  13.565 -0.2539  0.0019  0.2220
  846MPD2    C512431   0.729   3.506  13.433  0.3026  0.4874  0.4866
  846MPD2     H12432   0.539   3.811  13.551 -0.5544 -1.5533  2.2162
  846MPD2    H112433   0.727   3.442  13.638  2.4986  2.5169  2.0585
  846MPD2    H212434   0.711   3.587  13.232 -0.9117  0.9014 -0.8216
  846MPD2    H312435   0.779   3.415  13.402 -0.6828  0.0904  0.0548
  846MPD2     N12436   0.609   3.654  13.744 -0.0071  0.2585  0.5500
  846MPD2    H512437   0.522   3.706  13.756  0.0106  0.3275  0.3797
  846MPD2    N112438   0.609   3.824  13.302  1.0045 -0.0090 -0.1062
  846MPD2    H712439   0.575   3.902  13.356 -1.2006 -1.6420  0.8585
  847MPD2     C12440   0.644   0.369  13.367 -0.2676  0.9695  0.5753
  847MPD2    C112441   0.679   0.329  13.497 -0.5473 -0.5379 -0.1311
  847MPD2    C212442   0.678   0.193  13.520  0.3143 -0.1072 -0.3058
  847MPD2    C312443   0.637   0.098  13.426  0.1072 -0.4838  0.7395
  847MPD2    C412444   0.603   0.144  13.299 -0.6829 -1.0395 -0.3217
  847MPD2    C512445   0.602   0.279  13.273 -0.4116 -0.3974 -0.4803
  847MPD2     H12446   0.696   0.156  13.620 -2.4970 -0.9824 -0.1179
  847MPD2    H112447   0.568   0.078  13.220  0.6186 -2.1918  0.0734
  847MPD2    H212448   0.664   0.468  13.329  0.9916  0.1628 -0.8879
  847MPD2    H312449   0.569   0.314  13.176 -0.6316 -0.3287 -0.3795
  847MPD2     N12450   0.623   4.686  13.471  0.4498  0.4316  0.8570
  847MPD2    H512451   0.656   4.673  13.566  1.5695 -0.3572  0.3498
  847MPD2    N112452   0.726   0.422  13.597 -0.1150 -0.6663 -0.3435
  847MPD2    H712453   0.772   0.389  13.681  0.8814  1.9208  0.1472
  848MPD2     C12454   3.400   2.859  16.462  0.1412 -0.2295 -0.5135
  848MPD2    C112455   3.452   2.934  16.563  0.1569 -0.0131 -0.0650
  848MPD2    C212456   3.458   3.067  16.540  0.2443  1.0504 -0.7227
  848MPD2    C312457   3.404   3.126  16.429  0.3595 -0.5175 -0.3278
  848MPD2    C412458   3.357   3.045  16.329  0.8776  0.0162 -0.1682
  848MPD2    C512459   3.355   2.907  16.343  0.4720  0.0208 -0.3423
  848MPD2     H12460   3.491   3.138  16.615  0.0201  0.2017  0.1738
  848MPD2    H112461   3.313   3.091  16.241  1.2101 -2.3342 -1.5554
  848MPD2    H212462   3.403   2.751  16.470 -1.5206 -0.5247 -4.1306
  848MPD2    H312463   3.309   2.845  16.267  0.3482  2.4648 -2.2463
  848MPD2     N12464   3.392   3.267  16.408  0.4655 -0.2215  0.0124
  848MPD2    H512465   3.329   3.289  16.331  2.9639 -3.7333 -3.0826
  848MPD2    N112466   3.488   2.881  16.690 -0.2883 -0.1008  0.2353
  848MPD2    H712467   3.556   2.933  16.745 -0.1666 -0.1638  0.1436
  849MPD2     C12468   2.573   2.704  14.025  0.3226 -0.9195  0.1356
  849MPD2    C112469   2.673   2.731  13.933  0.1666 -0.1692  0.4082
  849MPD2    C212470   2.797   2.697  13.965  0.5811  0.4006  1.3187
  849MPD2    C312471   2.834   2.652  14.093 -0.0281  0.6266  0.0333
  849MPD2    C412472   2.730   2.627  14.182  0.1967 -0.1658  0.4109
  849MPD2    C512473   2.604   2.647  14.143 -0.2481  0.2627  0.4860
  849MPD2     H12474   2.877   2.718  13.894  0.1330  0.2259  0.7638
  849MPD2    H112475   2.751   2.574  14.274 -0.1037  0.0017  0.5766
  849MPD2    H212476   2.471   2.728  13.996  1.0410  1.9370 -0.0884
  849MPD2    H312477   2.524   2.631  14.214  0.6618  1.2564  1.7352
  849MPD2     N12478   2.970   2.625  14.119  0.5449 -0.3169  0.6877
  849MPD2    H512479   3.043   2.649  14.053  1.3485 -2.6263  0.7051
  849MPD2    N112480   2.644   2.786  13.807  0.2330  0.4307  0.0430
  849MPD2    H712481   2.549   2.816  13.789  0.6329  1.8767  0.3833
  850MPD2     C12482   0.611   1.244  14.982  0.0107 -0.5161  0.4059
  850MPD2    C112483   0.712   1.175  15.050 -0.7320  0.7062  0.0119
  850MPD2    C212484   0.842   1.224  15.033  0.0602 -0.5268 -1.1184
  850MPD2    C312485   0.875   1.333  14.949  0.0546 -0.3706 -0.2788
  850MPD2    C412486   0.770   1.391  14.884 -0.3938 -0.2727 -0.2356
  850MPD2    C512487   0.640   1.351  14.900 -0.4876  0.3202 -0.2015
  850MPD2     H12488   0.916   1.174  15.095 -0.7830 -0.9405 -0.4546
  850MPD2    H112489   0.791   1.475  14.818  1.1719  0.0609  0.6764
  850MPD2    H212490   0.508   1.210  14.984 -1.1507  2.9749  0.4515
  850MPD2    H312491   0.561   1.397  14.842 -1.5867 -1.5674 -0.2170
  850MPD2     N12492   1.010   1.377  14.927 -0.5955  0.5157 -0.5038
  850MPD2    H512493   1.023   1.471  14.893 -1.2448  0.3887 -1.0906
  850MPD2    N112494   0.667   1.064  15.129 -0.4844 -0.2741  0.4491
  850MPD2    H712495   0.570   1.033  15.121 -0.4690  0.3460 -2.0023
  851MPD2     C12496   1.093   0.495  15.557  0.2686  0.3450  0.6983
  851MPD2    C112497   1.014   0.487  15.445  0.2560  0.7511 -0.2028
  851MPD2    C212498   1.054   0.420  15.329  0.6206  0.1772  0.4997
  851MPD2    C312499   1.188   0.375  15.320 -0.5493  0.4627  0.2758
  851MPD2    C412500   1.271   0.390  15.430  0.6676 -0.0717 -0.0435
  851MPD2    C512501   1.219   0.452  15.544  0.5737 -0.3544  0.4020
  851MPD2     H12502   0.986   0.389  15.250  1.1533  1.7839 -0.5940
  851MPD2    H112503   1.373   0.354  15.435  0.5540 -0.4235 -0.2875
  851MPD2    H212504   1.048   0.532  15.648 -0.7484  1.7937 -0.3789
  851MPD2    H312505   1.285   0.465  15.629  2.9594  3.8035 -2.0803
  851MPD2     N12506   1.228   0.327  15.195  0.3075  0.5629  0.0064
  851MPD2    H512507   1.159   0.316  15.122 -0.5866  1.1330  0.7599
  851MPD2    N112508   0.891   0.555  15.447 -0.3054 -0.2530  0.0492
  851MPD2    H712509   0.877   0.614  15.528 -0.5585 -0.7739  0.3828
  852MPD2     C12510   0.233   3.481   9.908 -0.6396  0.1174 -0.8167
  852MPD2    C112511   0.277   3.569  10.004  1.3591 -0.5533 -0.2259
  852MPD2    C212512   0.274   3.699   9.977 -0.4152 -0.0018  0.9590
  852MPD2    C312513   0.234   3.746   9.856 -0.2512  0.5780 -0.5244
  852MPD2    C412514   0.188   3.660   9.762 -0.7426 -0.0664 -1.2211
  852MPD2    C512515   0.184   3.530   9.790  0.5583 -0.4921  0.5097
  852MPD2     H12516   0.318   3.774  10.042 -2.2486  0.4159  1.7229
  852MPD2    H112517   0.162   3.693   9.662 -2.8767 -0.4389 -0.7879
  852MPD2    H212518   0.220   3.376   9.934  0.8297 -0.0146 -0.6368
  852MPD2    H312519   0.150   3.459   9.715 -0.9921  0.8789 -0.0834
  852MPD2     N12520   0.249   3.888   9.830  0.3279 -0.3078  0.4867
  852MPD2    H512521   0.289   3.936   9.910  0.5357 -0.9721  0.7842
  852MPD2    N112522   0.337   3.531  10.126 -0.2249  0.2830 -0.1126
  852MPD2    H712523   0.363   3.600  10.196  0.8470 -0.3020  0.0603
  853MPD2     C12524   2.761   3.400  12.110 -0.6891  0.3148 -0.1664
  853MPD2    C112525   2.661   3.482  12.070 -0.0409 -0.5468  0.1782
  853MPD2    C212526   2.634   3.497  11.930 -0.2345  0.7388 -0.5655
  853MPD2    C312527   2.704   3.424  11.833 -0.1739 -0.0792  0.1275
  853MPD2    C412528   2.790   3.327  11.882 -0.2476 -0.2372  0.3072
  853MPD2    C512529   2.813   3.317  12.017  0.3785 -0.3549 -0.2933
  853MPD2     H12530   2.558   3.564  11.891 -2.2028 -0.8401  0.5450
  853MPD2    H112531   2.852   3.282  11.806 -3.5425 -0.6514 -2.1480
  853MPD2    H212532   2.782   3.396  12.216  0.1178 -0.3767 -0.3530
  853MPD2    H312533   2.883   3.240  12.049 -1.0579 -1.9618 -1.0334
  853MPD2     N12534   2.688   3.434  11.694  0.7423 -0.6801 -0.4877
  853MPD2    H512535   2.726   3.355  11.644 -1.0698 -2.6222  1.2025
  853MPD2    N112536   2.590   3.555  12.168 -0.3662 -0.2681 -0.0339
  853MPD2    H712537   2.610   3.530  12.264  1.1517 -0.5255 -0.4079
  854MPD2     C12538   4.248   3.633  12.403 -0.4339  0.4484 -0.0045
  854MPD2    C112539   4.147   3.540  12.385  0.3704 -0.3458 -0.0898
  854MPD2    C212540   4.174   3.413  12.414  0.7096  0.0293 -0.5166
  854MPD2    C312541   4.296   3.386  12.481  0.4673  0.5078  0.9196
  854MPD2    C412542   4.382   3.483  12.525 -0.2107 -0.2702  0.5390
  854MPD2    C512543   4.355   3.610  12.481  0.3119  0.1860 -0.1647
  854MPD2     H12544   4.119   3.330  12.372 -0.7209 -0.0287  1.4584
  854MPD2    H112545   4.471   3.478  12.587 -0.3435 -1.1305  0.6566
  854MPD2    H212546   4.237   3.734  12.364  1.2109  0.1905 -1.1718
  854MPD2    H312547   4.427   3.689  12.496  2.9926 -1.8170 -2.5465
  854MPD2     N12548   4.328   3.252  12.516  0.3103 -0.2208 -0.5645
  854MPD2    H512549   4.411   3.247  12.573  0.1324  0.4050 -0.2520
  854MPD2    N112550   4.036   3.575  12.305  0.2793 -0.0984 -0.2943
  854MPD2    H712551   4.022   3.674  12.294 -0.3433 -0.0269  1.1771
  855MPD2     C12552   4.699   3.188  13.251  0.4950 -0.0134  0.3424
  855MPD2    C112553   4.668   3.052  13.238  0.3001  0.3291  0.1656
  855MPD2    C212554   4.613   3.005  13.122 -0.5350 -0.4568  0.2943
  855MPD2    C312555   4.605   3.098  13.008 -0.1807 -0.1407 -0.1673
  855MPD2    C412556   4.645   3.229  13.022  0.0610 -0.6570  0.2729
  855MPD2    C512557   4.677   3.278  13.149 -0.8760  0.7904 -0.7087
  855MPD2     H12558   4.577   2.903  13.112  1.4584 -0.8870 -2.6760
  855MPD2    H112559   4.644   3.297  12.938  1.8202 -1.1070 -0.1291
  855MPD2    H212560   0.013   3.223  13.346  0.1232 -0.2991  0.6040
  855MPD2    H312561   4.694   3.385  13.159  1.5266  0.3989 -0.4906
  855MPD2     N12562   4.563   3.062  12.880 -0.8230  0.0363 -0.4593
  855MPD2    H512563   4.561   3.138  12.813  0.6344  2.2184  1.9452
  855MPD2    N112564   4.668   2.963  13.349  0.2998  0.3737 -1.0184
  855MPD2    H712565   4.621   2.873  13.342  0.1024  0.4691 -0.9193
  856MPD2     C12566   1.412   3.888  13.935 -1.1921  0.7178 -0.0927
  856MPD2    C112567   1.506   3.984  13.925 -0.1227  0.3217  0.3918
  856MPD2    C212568   1.472   4.113  13.893 -0.1916 -0.5994 -0.3090
  856MPD2    C312569   1.341   4.150  13.873 -0.4191  0.2185  0.2145
  856MPD2    C412570   1.245   4.057  13.899 -0.1605 -0.2190  0.5652
  856MPD2    C512571   1.284   3.923  13.935  0.4014 -0.5502  0.3377
  856MPD2     H12572   1.554   4.179  13.867  0.5717 -1.0126  1.0514
  856MPD2    H112573   1.140   4.082  13.903  0.0957  1.3547 -2.0898
  856MPD2    H212574   1.429   3.784  13.961 -1.5871  0.4631 -0.8678
  856MPD2    H312575   1.205   3.854  13.962  0.1608  0.1258  1.3666
  856MPD2     N12576   1.304   4.285  13.836 -0.3948 -0.0604  0.0203
  856MPD2    H512577   1.205   4.302  13.822 -0.5709  0.0504  1.3500
  856MPD2    N112578   1.645   3.954  13.937 -0.2071  0.6392 -0.1051
  856MPD2    H712579   1.707   4.034  13.940 -0.0123  0.5354 -1.2753
  857MPD2     C12580   3.115   1.246  12.568 -0.3881  0.5329 -0.0618
  857MPD2    C112581   3.248   1.240  12.604 -0.1869 -0.2136 -0.2444
  857MPD2    C212582   3.318   1.355  12.639 -0.0178  0.1214 -0.7183
  857MPD2    C312583   3.250   1.475  12.643  0.2729 -0.8490 -0.0650
  857MPD2    C412584   3.112   1.478  12.611 -0.0465 -0.2926 -0.3105
  857MPD2    C512585   3.041   1.364  12.582 -0.7080  0.0489 -0.1072
  857MPD2     H12586   3.422   1.354  12.669  0.1350  1.4072 -1.2142
  857MPD2    H112587   3.044   1.563  12.614  2.3552  1.5314  1.6632
  857MPD2    H212588   3.060   1.154  12.550 -0.8729  0.4114  2.0976
  857MPD2    H312589   2.935   1.367  12.558 -1.1113 -1.0493  1.5341
  857MPD2     N12590   3.323   1.597  12.683  0.6187  0.1881  0.1239
  857MPD2    H512591   3.423   1.591  12.696  0.9590 -0.1969 -2.6991
  857MPD2    N112592   3.305   1.108  12.585 -0.0808  0.5801  0.1620
  857MPD2    H712593   3.243   1.028  12.582  1.8697 -0.9734  0.5999
  858MPD2     C12594   4.094   0.563  16.410 -0.0193 -0.1961 -0.0148
  858MPD2    C112595   4.137   0.461  16.486  0.2460  0.1650 -0.2948
  858MPD2    C212596   4.152   0.482  16.623  0.3078 -0.2508 -0.4160
  858MPD2    C312597   4.119   0.602  16.680 -0.1776  0.6403 -0.2114
  858MPD2    C412598   4.078   0.704  16.599 -0.2167 -0.4001  0.8582
  858MPD2    C512599   4.065   0.686  16.462 -0.1324  0.4313  0.4011
  858MPD2     H12600   4.176   0.391  16.678 -2.5248 -2.3493 -2.6712
  858MPD2    H112601   4.052   0.801  16.639 -0.5034 -0.2399  0.2735
  858MPD2    H212602   4.078   0.559  16.303 -1.9517 -1.5090  0.3181
  858MPD2    H312603   4.031   0.766  16.398 -1.3828  0.0761  0.6263
  858MPD2     N12604   4.113   0.630  16.816  0.3225  0.0008  0.7971
  858MPD2    H512605   4.071   0.718  16.844 -1.1238 -0.1386 -0.9499
  858MPD2    N112606   4.146   0.330  16.443 -0.3209  0.5476  1.1607
  858MPD2    H712607   4.168   0.254  16.507 -0.8734  1.7996  2.8291
  859MPD2     C12608   2.247   2.896  15.137 -0.0851 -0.3241 -0.0895
  859MPD2    C112609   2.335   2.788  15.125 -0.5892  0.2564 -0.7613
  859MPD2    C212610   2.285   2.664  15.148 -0.1660 -0.1337 -0.4385
  859MPD2    C312611   2.154   2.641  15.189 -0.1236 -0.4099  0.1837
  859MPD2    C412612   2.071   2.748  15.200 -0.6333  0.3136 -0.9070
  859MPD2    C512613   2.117   2.880  15.176 -0.5079 -0.0889  0.4671
  859MPD2     H12614   2.353   2.580  15.159  0.1815  0.4759  1.9556
  859MPD2    H112615   1.966   2.730  15.215 -0.2441 -0.8248  0.4181
  859MPD2    H212616   2.290   2.995  15.127 -0.1000 -0.2345  0.7179
  859MPD2    H312617   2.055   2.968  15.190  0.3296  0.7068 -0.8514
  859MPD2     N12618   2.104   2.518  15.212 -0.1669 -0.7161 -0.1421
  859MPD2    H512619   2.007   2.510  15.241  0.0300 -2.0679  0.1694
  859MPD2    N112620   2.474   2.810  15.101  0.3476 -0.0996  0.5518
  859MPD2    H712621   2.508   2.905  15.106  0.4743 -0.2308  2.3789
  860MPD2     C12622   0.467   3.042  11.151 -0.5463  0.2383 -0.2824
  860MPD2    C112623   0.466   3.085  11.283 -0.0876 -0.7863  0.0161
  860MPD2    C212624   0.352   3.077  11.362  0.2357  0.3692 -0.3609
  860MPD2    C312625   0.237   3.035  11.296 -0.0971  0.4367 -0.2793
  860MPD2    C412626   0.237   2.985  11.170 -0.5470  0.0545 -0.4253
  860MPD2    C512627   0.354   2.983  11.103  0.8381  0.0272 -0.4086
  860MPD2     H12628   0.352   3.110  11.465 -1.1874  0.0824 -0.2733
  860MPD2    H112629   0.152   2.940  11.118  0.0413 -0.6532 -0.7679
  860MPD2    H212630   0.555   3.041  11.087 -0.6591  0.9792 -0.4534
  860MPD2    H312631   0.360   2.942  11.003 -0.0620 -0.4334 -0.2781
  860MPD2     N12632   0.120   3.030  11.377 -0.0291 -0.0204  0.2541
  860MPD2    H512633   0.127   3.091  11.458  1.0877  0.4012 -0.1569
  860MPD2    N112634   0.571   3.155  11.338  0.6653  0.0823 -0.4177
  860MPD2    H712635   0.565   3.191  11.432  1.1039 -0.6687 -0.1087
  861MPD2     C12636   3.559   1.289  11.162 -0.6856  0.3671 -0.3045
  861MPD2    C112637   3.657   1.381  11.184 -0.1235  0.1159 -0.2539
  861MPD2    C212638   3.654   1.493  11.098  0.0018 -0.3124 -0.3469
  861MPD2    C312639   3.556   1.528  11.006  0.0647  0.1101 -0.7207
  861MPD2    C412640   3.464   1.423  10.983 -0.3878 -0.1264  0.6977
  861MPD2    C512641   3.457   1.309  11.062  0.0578  0.5942  0.3051
  861MPD2     H12642   3.737   1.559  11.119 -1.0016  1.0272 -0.6084
  861MPD2    H112643   3.401   1.424  10.896 -1.6367 -1.2700  1.5940
  861MPD2    H212644   3.558   1.201  11.225 -0.8094  0.9207  0.4784
  861MPD2    H312645   3.383   1.235  11.037  1.6188 -0.7055 -0.4173
  861MPD2     N12646   3.543   1.654  10.942  0.4250  0.0304 -0.5958
  861MPD2    H512647   3.463   1.680  10.884 -1.1208  0.1508  1.6051
  861MPD2    N112648   3.750   1.372  11.295 -0.3214 -0.6184 -0.1376
  861MPD2    H712649   3.821   1.444  11.298  0.4534 -1.3213 -1.5635
  862MPD2     C12650   3.640   1.984  10.282  0.1745 -0.9775 -0.7761
  862MPD2    C112651   3.597   1.891  10.373 -0.0960 -0.3665 -0.4787
  862MPD2    C212652   3.556   1.765  10.328 -0.2150 -0.8436 -0.0477
  862MPD2    C312653   3.564   1.731  10.193  0.3509  0.0058  0.3611
  862MPD2    C412654   3.619   1.818  10.110 -0.7529 -0.0120 -0.1220
  862MPD2    C512655   3.664   1.941  10.156  0.6423  0.4261 -0.2178
  862MPD2     H12656   3.507   1.696  10.395 -0.5588 -0.4184  0.1342
  862MPD2    H112657   3.635   1.793  10.006  1.2557  0.1888  0.1304
  862MPD2    H212658   3.679   2.081  10.311  0.0617 -1.3260  0.5557
  862MPD2    H312659   3.718   2.006  10.088  1.4119  0.5625  0.5261
  862MPD2     N12660   3.544   1.603  10.138  0.0128 -0.2548  0.5493
  862MPD2    H512661   3.560   1.573  10.043  1.0147 -1.0257  0.9556
  862MPD2    N112662   3.594   1.915  10.514  0.0436  0.2362 -0.3919
  862MPD2    H712663   3.582   1.829  10.565  1.0891  0.8018  0.8037
  863MPD2     C12664   2.030   4.585  16.318  0.1970 -0.0048 -0.5900
  863MPD2    C112665   1.993   4.474  16.385  0.1709  0.0120 -0.1355
  863MPD2    C212666   2.092   4.389  16.441  0.3053  0.4746 -0.1563
  863MPD2    C312667   2.225   4.418  16.418 -0.2776 -0.2597  0.1606
  863MPD2    C412668   2.260   4.522  16.341  0.4928  0.7587 -0.4982
  863MPD2    C512669   2.159   4.603  16.292  0.3182  0.3632 -0.9643
  863MPD2     H12670   2.054   4.315  16.511  0.5584 -0.5392 -1.0910
  863MPD2    H112671   2.362   4.557  16.325  0.2692  0.8903 -1.6340
  863MPD2    H212672   1.961   4.661  16.281 -1.8320 -1.7807 -0.4154
  863MPD2    H312673   2.186   4.688  16.230 -1.9904  2.3203  0.7422
  863MPD2     N12674   2.336   4.342  16.458  0.4965 -0.6838 -0.5443
  863MPD2    H512675   2.430   4.368  16.430  0.2832  0.2255 -0.4352
  863MPD2    N112676   1.849   4.458  16.404  0.1930  0.4520 -0.3030
  863MPD2    H712677   1.790   4.525  16.357  0.1807  0.1833 -0.6741
  864MPD2     C12678   2.697   0.345  17.289  0.0769  0.0263 -1.0981
  864MPD2    C112679   2.773   0.314  17.186 -0.4111  0.3505 -0.6401
  864MPD2    C212680   2.874   0.403  17.161 -0.2998  0.5903 -0.4410
  864MPD2    C312681   2.881   0.527  17.218 -0.2076  0.0824 -0.1372
  864MPD2    C412682   2.796   0.554  17.314 -0.2465 -0.0376  0.0392
  864MPD2    C512683   2.706   0.460  17.356 -0.5748  1.0743 -0.3431
  864MPD2     H12684   2.954   0.372  17.095 -0.1917 -0.5095  0.1967
  864MPD2    H112685   2.788   0.641  17.378 -2.3164  0.3453 -0.7554
  864MPD2    H212686   2.620   0.278  17.323  0.4161  0.8237  1.2374
  864MPD2    H312687   2.629   0.478  17.430 -1.5280 -2.7669 -0.3865
  864MPD2     N12688   2.975   0.625  17.179  0.2670 -0.0201 -0.7183
  864MPD2    H512689   2.976   0.710  17.235  0.3942 -1.6337  1.7416
  864MPD2    N112690   2.745   0.190  17.123  0.4736  0.7548 -0.2908
  864MPD2    H712691   2.676   0.128  17.166  0.8456 -0.7270 -1.8193
  865MPD2     C12692   3.160   1.068  16.439 -0.1083 -0.2430  0.1743
  865MPD2    C112693   3.152   0.934  16.480 -0.8470 -0.7101 -0.6670
  865MPD2    C212694   3.117   0.905  16.613  0.6452  0.2653  0.3673
  865MPD2    C312695   3.113   1.004  16.707  0.1007  0.3796 -0.2492
  865MPD2    C412696   3.134   1.137  16.666 -0.3041  0.0211 -0.3987
  865MPD2    C512697   3.151   1.173  16.531 -0.1800  0.1766 -0.8823
  865MPD2     H12698   3.115   0.807  16.658 -1.4523  0.9287  1.7501
  865MPD2    H112699   3.143   1.218  16.738 -0.5391  1.1520 -1.6354
  865MPD2    H212700   3.191   1.098  16.340  0.4764 -0.1291  0.3886
  865MPD2    H312701   3.178   1.277  16.516  0.6298  0.0521 -0.3236
  865MPD2     N12702   3.110   0.965  16.837  0.2521 -0.3288 -0.2703
  865MPD2    H512703   3.082   0.874  16.872 -1.4506  0.0027 -0.7566
  865MPD2    N112704   3.166   0.835  16.381 -0.7336  0.2409 -0.0115
  865MPD2    H712705   3.176   0.873  16.287 -2.1727 -1.6366 -0.9148
  866MPD2     C12706   0.038   1.949  11.360 -0.3093 -0.1075 -0.2165
  866MPD2    C112707   4.683   1.926  11.248 -0.4208  0.6831  0.3477
  866MPD2    C212708   4.543   1.932  11.255 -0.1664 -0.0689  0.1640
  866MPD2    C312709   4.482   1.962  11.371 -0.5027  0.1812 -0.3618
  866MPD2    C412710   4.557   1.974  11.488  0.3774 -0.1221 -0.1435
  866MPD2    C512711   4.699   1.966  11.483  0.0314 -0.0296 -0.1107
  866MPD2     H12712   4.490   1.900  11.166  0.5214 -1.2152  0.1702
  866MPD2    H112713   4.510   2.007  11.580 -0.7830  0.3372 -0.8911
  866MPD2    H212714   0.146   1.948  11.363 -0.3258  0.3508  0.6137
  866MPD2    H312715   0.030   1.998  11.570  0.1016 -1.2175  0.2854
  866MPD2     N12716   4.344   1.984  11.380  0.6814 -0.1362 -0.1905
  866MPD2    H512717   4.300   1.994  11.470 -0.9825 -4.5329 -0.5088
  866MPD2    N112718   0.037   1.883  11.133  0.5203  0.2071  0.0996
  866MPD2    H712719   0.139   1.879  11.141  0.3066 -0.6290  2.3064
  867MPD2     C12720   1.598   0.958  16.504  0.0009  0.1912  0.2404
  867MPD2    C112721   1.681   0.863  16.562 -0.0280  0.0658  0.0791
  867MPD2    C212722   1.785   0.914  16.641 -0.1626  0.4846 -0.2334
  867MPD2    C312723   1.813   1.046  16.662 -0.0783 -0.0331 -0.4084
  867MPD2    C412724   1.726   1.137  16.601  0.4436 -0.0647  0.4166
  867MPD2    C512725   1.626   1.091  16.524  0.4261 -0.0250  0.5662
  867MPD2     H12726   1.852   0.836  16.677  0.6357  0.9857 -0.6168
  867MPD2    H112727   1.733   1.242  16.628  0.4368 -0.1204  0.6372
  867MPD2    H212728   1.513   0.930  16.442 -0.0677  2.2853 -0.6163
  867MPD2    H312729   1.561   1.164  16.477 -0.7103 -0.7557  1.0112
  867MPD2     N12730   1.922   1.093  16.741 -0.2513 -0.5728  0.6785
  867MPD2    H512731   1.933   1.194  16.739 -0.4081 -0.5382  1.6382
  867MPD2    N112732   1.658   0.727  16.548 -0.2699 -0.7253  0.0588
  867MPD2    H712733   1.588   0.698  16.480 -1.9262  2.2229  0.5191
  868MPD2     C12734   3.473   3.618  12.971  0.0535 -0.2835  0.5777
  868MPD2    C112735   3.486   3.757  12.951  0.2501  0.2389  0.3028
  868MPD2    C212736   3.374   3.833  12.929 -0.1992  0.4978 -0.3046
  868MPD2    C312737   3.248   3.776  12.931  0.0480  0.1219  0.3322
  868MPD2    C412738   3.240   3.638  12.948 -0.0901  0.9495  0.3316
  868MPD2    C512739   3.348   3.565  12.968  0.9214 -0.0648 -0.1407
  868MPD2     H12740   3.380   3.941  12.922  3.2284  0.2401 -1.0841
  868MPD2    H112741   3.143   3.592  12.961 -0.6975  1.9298 -0.7923
  868MPD2    H212742   3.559   3.558  12.997 -0.9608 -0.7425  2.8374
  868MPD2    H312743   3.326   3.459  12.977  0.3053  0.1010  0.2671
  868MPD2     N12744   3.133   3.862  12.938 -0.1878 -0.2230 -0.2653
  868MPD2    H512745   3.159   3.960  12.936  0.1495 -0.3154 -0.7220
  868MPD2    N112746   3.617   3.813  12.969  0.3482  0.1142  0.4381
  868MPD2    H712747   3.687   3.741  12.982  0.0538 -0.4153 -0.8915
  869MPD2     C12748   0.420   2.692   1.729  0.9962  0.6125  0.8680
  869MPD2    C112749   0.323   2.610   1.677  0.2934  0.4521 -0.0338
  869MPD2    C212750   0.266   2.637   1.557 -0.3472 -0.3166  0.3253
  869MPD2    C312751   0.297   2.756   1.493  0.1865  0.1970 -0.3483
  869MPD2    C412752   0.392   2.838   1.555 -0.3235 -0.9523  0.3133
  869MPD2    C512753   0.460   2.803   1.672  0.2477  0.3891  0.3142
  869MPD2     H12754   0.171   2.592   1.532  0.0337 -0.4868 -0.7949
  869MPD2    H112755   0.418   2.933   1.510 -1.3675 -0.2401  1.2341
  869MPD2    H212756   0.470   2.661   1.821  0.9357  3.0088  1.7123
  869MPD2    H312757   0.549   2.856   1.702  0.2325  0.2181  0.6651
  869MPD2     N12758   0.242   2.800   1.374  0.4145 -0.6607 -0.1579
  869MPD2    H512759   0.272   2.888   1.334 -0.6918 -0.9548 -1.6489
  869MPD2    N112760   0.292   2.489   1.749  0.2257  0.6791 -0.0395
  869MPD2    H712761   0.329   2.486   1.843  0.8370 -0.7447 -0.3328
  870MPD2     C12762   3.614   1.571   1.192  0.5620 -0.7738  0.1736
  870MPD2    C112763   3.593   1.476   1.290  0.2961  0.4407  0.1304
  870MPD2    C212764   3.657   1.352   1.279  0.1140  0.6057  0.4655
  870MPD2    C312765   3.738   1.332   1.173 -0.7248  0.6136 -0.1149
  870MPD2    C412766   3.766   1.430   1.086 -0.0683 -0.3882  0.3152
  870MPD2    C512767   3.707   1.553   1.097 -0.0200 -0.8979  0.0041
  870MPD2     H12768   3.672   1.294   1.369 -3.3623 -0.5154  0.3105
  870MPD2    H112769   3.830   1.412   1.000 -1.1746  2.3718 -1.0920
  870MPD2    H212770   3.555   1.662   1.191 -1.1231 -1.8541  0.2800
  870MPD2    H312771   3.726   1.627   1.020 -2.5922 -1.7966 -1.4978
  870MPD2     N12772   3.784   1.203   1.164 -0.1123 -0.2587 -0.6847
  870MPD2    H512773   3.775   1.137   1.240 -0.3467  0.1249 -0.3800
  870MPD2    N112774   3.510   1.505   1.402  0.0916 -0.0688 -0.4153
  870MPD2    H712775   3.479   1.598   1.428 -0.0777 -0.7229  1.6901
  871MPD2     C12776   0.612   0.548  16.276  0.2187  0.3132 -0.8551
  871MPD2    C112777   0.598   0.507  16.405 -0.5243 -0.1041  0.3632
  871MPD2    C212778   0.632   0.381  16.435 -0.5571 -0.1449 -0.7961
  871MPD2    C312779   0.665   0.283  16.341 -0.0842  0.5310  0.4878
  871MPD2    C412780   0.657   0.325  16.209  0.2156  0.2221  0.1302
  871MPD2    C512781   0.631   0.460  16.178 -0.4333 -0.8083 -0.3699
  871MPD2     H12782   0.626   0.352  16.539 -0.0896 -2.0787 -1.3170
  871MPD2    H112783   0.657   0.260  16.123 -1.1095  0.0226  0.2820
  871MPD2    H212784   0.604   0.653  16.250  2.0900  0.6288 -0.1486
  871MPD2    H312785   0.617   0.491  16.075  0.3755 -0.4433 -0.3727
  871MPD2     N12786   0.691   0.147  16.379 -0.5682 -0.2501 -0.7406
  871MPD2    H512787   0.667   0.128  16.475  0.1509 -1.0919 -0.7275
  871MPD2    N112788   0.562   0.604  16.504  0.1314  0.0322  0.0604
  871MPD2    H712789   0.525   0.688  16.461 -0.1724 -0.2723 -0.2762
  872MPD2     C12790   1.577   2.956  13.728 -0.3462  0.2801  0.0147
  872MPD2    C112791   1.576   3.096  13.717 -0.1589 -0.9967  0.5806
  872MPD2    C212792   1.470   3.154  13.779 -0.0166  0.5077 -1.0500
  872MPD2    C312793   1.349   3.087  13.803 -0.4453  0.0954 -0.0610
  872MPD2    C412794   1.353   2.946  13.794 -0.4505  0.8772 -0.2658
  872MPD2    C512795   1.465   2.887  13.755  0.4543 -0.0748  0.6774
  872MPD2     H12796   1.481   3.262  13.781  0.5397  0.4510 -0.9867
  872MPD2    H112797   1.268   2.880  13.799  0.1894  0.0888  0.1100
  872MPD2    H212798   1.666   2.898  13.706  0.1144  0.3302  1.7579
  872MPD2    H312799   1.473   2.779  13.756 -1.8401 -0.2695 -1.2489
  872MPD2     N12800   1.245   3.162  13.853  0.1272 -0.6276 -0.0751
  872MPD2    H512801   1.264   3.250  13.899 -0.0565  0.5159 -2.1801
  872MPD2    N112802   1.692   3.174  13.691 -0.0993  0.8025 -0.1759
  872MPD2    H712803   1.681   3.275  13.697 -2.3879  0.6184 -1.6104
  873MPD2     C12804   4.191   3.322   0.826 -0.3971 -0.5505  0.1225
  873MPD2    C112805   4.070   3.254   0.826  0.0753  0.7259 -0.4602
  873MPD2    C212806   4.064   3.116   0.829  0.5930 -0.2062  0.5436
  873MPD2    C312807   4.179   3.037   0.849  0.3959 -0.3489 -0.3789
  873MPD2    C412808   4.299   3.106   0.833  0.0305 -0.1450 -0.5079
  873MPD2    C512809   4.302   3.242   0.827 -0.0235 -0.6643 -0.0135
  873MPD2     H12810   3.968   3.067   0.828  0.8643 -0.7341 -0.3085
  873MPD2    H112811   4.393   3.052   0.840 -0.7676 -1.3151  1.0305
  873MPD2    H212812   4.204   3.429   0.810  0.7626 -0.5827  0.8844
  873MPD2    H312813   4.404   3.276   0.817 -0.5208  0.2375 -1.9471
  873MPD2     N12814   4.178   2.899   0.865  0.2267  0.1683  0.4199
  873MPD2    H512815   4.270   2.858   0.876  0.5283  0.5612 -0.6765
  873MPD2    N112816   3.952   3.332   0.806  0.5791  0.3107 -0.1649
  873MPD2    H712817   3.973   3.431   0.811 -0.3345  0.3740  2.3270
  874MPD2     C12818   2.604   3.489  16.171 -0.3327  0.6829  0.1703
  874MPD2    C112819   2.680   3.397  16.239  0.2277 -0.5272 -0.0185
  874MPD2    C212820   2.807   3.416  16.293  0.1627 -0.6637 -0.7988
  874MPD2    C312821   2.866   3.538  16.276  0.0266 -0.1673  0.0994
  874MPD2    C412822   2.792   3.628  16.202  0.3047  0.3864  0.1558
  874MPD2    C512823   2.664   3.611  16.158  0.3273  0.4158  0.4371
  874MPD2     H12824   2.864   3.341  16.346  1.4483  0.8961  0.0096
  874MPD2    H112825   2.819   3.733  16.198  0.4921  0.3827  1.3821
  874MPD2    H212826   2.505   3.478  16.127  0.1114  0.8957 -0.8808
  874MPD2    H312827   2.606   3.691  16.114  0.3965 -2.1335 -4.3738
  874MPD2     N12828   2.996   3.551  16.327 -0.1642 -0.5532 -0.1414
  874MPD2    H512829   3.026   3.471  16.382  1.3838  0.1825  0.0647
  874MPD2    N112830   2.623   3.264  16.230  0.6017  0.1998  0.2764
  874MPD2    H712831   2.539   3.256  16.173  1.2549  3.7039 -1.1856
  875MPD2     C12832   4.150   1.631  14.603  0.1254 -0.7656 -0.9423
  875MPD2    C112833   4.030   1.668  14.656 -0.2421  0.0497  0.2967
  875MPD2    C212834   4.025   1.752  14.766  0.6487 -0.5209 -0.3450
  875MPD2    C312835   4.144   1.801  14.820 -0.3666 -0.0807 -0.2993
  875MPD2    C412836   4.263   1.772  14.758 -0.5974  0.1000 -0.0742
  875MPD2    C512837   4.266   1.687  14.655 -0.4104  0.1349  1.4072
  875MPD2     H12838   3.927   1.769  14.809  0.7051 -1.0572 -0.0164
  875MPD2    H112839   4.359   1.805  14.797 -1.2712 -0.1543  1.7689
  875MPD2    H212840   4.151   1.560  14.521 -3.0727 -0.2803 -1.3985
  875MPD2    H312841   4.359   1.668  14.604 -1.2227  1.7944 -0.6639
  875MPD2     N12842   4.148   1.869  14.940  1.5983  0.0642  0.1978
  875MPD2    H512843   4.238   1.915  14.950  2.2172 -1.7743  3.0350
  875MPD2    N112844   3.906   1.631  14.601  0.5699 -0.2577 -0.0052
  875MPD2    H712845   3.825   1.664  14.652  0.4143 -0.1868 -0.2969
  876MPD2     C12846   2.602   2.711  15.691  0.2456 -0.5079 -0.3659
  876MPD2    C112847   2.739   2.730  15.699  0.2663  0.2146 -0.7395
  876MPD2    C212848   2.810   2.644  15.788 -1.0360  0.1438 -0.0269
  876MPD2    C312849   2.749   2.534  15.847  0.2653 -0.2113 -0.2912
  876MPD2    C412850   2.617   2.510  15.822  0.9392  0.1131  0.0271
  876MPD2    C512851   2.541   2.601  15.748 -0.2307 -0.1709  0.5095
  876MPD2     H12852   2.917   2.657  15.795 -0.5541 -2.8180 -2.0133
  876MPD2    H112853   2.564   2.418  15.846 -0.8063  0.3232 -2.9829
  876MPD2    H212854   2.547   2.775  15.623  0.7151 -1.1331 -1.3247
  876MPD2    H312855   2.437   2.579  15.728 -0.2920 -0.0628  0.7175
  876MPD2     N12856   2.828   2.442  15.921 -0.4023  0.4867 -0.2711
  876MPD2    H512857   2.927   2.462  15.927 -0.1767  0.1539 -2.6203
  876MPD2    N112858   2.794   2.818  15.606 -0.4416 -0.5586 -0.2381
  876MPD2    H712859   2.728   2.843  15.532  0.3374  2.5352  0.1301
  877MPD2     C12860   2.623   3.354  15.135 -0.1743  0.1097  1.1570
  877MPD2    C112861   2.753   3.323  15.106 -0.0960  0.1026 -0.4790
  877MPD2    C212862   2.819   3.362  14.995 -0.1067 -0.4068  0.2362
  877MPD2    C312863   2.756   3.449  14.901 -0.2839 -0.0728  0.1082
  877MPD2    C412864   2.623   3.476  14.931  0.1433  0.8616  0.4344
  877MPD2    C512865   2.555   3.420  15.041 -0.3123  0.0623 -0.0247
  877MPD2     H12866   2.922   3.334  14.978  0.2610  0.1454  1.6325
  877MPD2    H112867   2.569   3.555  14.881  0.5694  0.9285  0.0765
  877MPD2    H212868   2.564   3.326  15.221 -1.4874 -0.5159  0.0601
  877MPD2    H312869   2.453   3.452  15.057  0.3374  1.6554  0.9319
  877MPD2     N12870   2.824   3.506  14.794 -0.0972  0.1446 -0.4204
  877MPD2    H512871   2.768   3.559  14.728 -0.0337  1.3979  0.5313
  877MPD2    N112872   2.832   3.257  15.200  0.0029  0.0583 -0.4451
  877MPD2    H712873   2.922   3.233  15.161  0.4098  1.2123 -0.2308
  878MPD2     C12874   2.897   2.671  12.795  0.5515 -0.1747 -0.2281
  878MPD2    C112875   2.886   2.805  12.797 -0.9993 -0.7866  0.5250
  878MPD2    C212876   2.828   2.855  12.914 -0.4192  0.3706 -0.3996
  878MPD2    C312877   2.802   2.779  13.027  0.3087  0.3924 -0.1906
  878MPD2    C412878   2.825   2.637  13.017  0.5549 -0.1129  0.9466
  878MPD2    C512879   2.864   2.588  12.897  0.6735  0.0722  0.5589
  878MPD2     H12880   2.827   2.962  12.929  1.1588  0.1450  1.4392
  878MPD2    H112881   2.790   2.559  13.084 -2.0629  2.4933  2.5943
  878MPD2    H212882   2.936   2.627  12.704 -0.6870 -1.9486  0.0934
  878MPD2    H312883   2.879   2.480  12.888 -0.3764 -0.0780  0.6291
  878MPD2     N12884   2.751   2.840  13.149  0.7394 -0.0892  0.1212
  878MPD2    H512885   2.751   2.941  13.152 -0.5207 -0.0922  0.2707
  878MPD2    N112886   2.917   2.881  12.683  0.0337 -0.7622 -0.0117
  878MPD2    H712887   2.957   2.831  12.604 -2.1119 -4.5795  1.3614
  879MPD2     C12888   2.959   3.910  16.574  0.3027  0.4238  0.5130
  879MPD2    C112889   3.014   3.810  16.656 -0.5425 -0.2890  0.2075
  879MPD2    C212890   2.955   3.688  16.665 -0.3375 -0.5668 -0.1009
  879MPD2    C312891   2.833   3.676  16.589 -0.0520 -0.0235 -0.1444
  879MPD2    C412892   2.800   3.767  16.493  0.1285  0.8372 -0.0195
  879MPD2    C512893   2.857   3.885  16.491  0.2778  0.0050  0.0059
  879MPD2     H12894   2.985   3.618  16.742 -0.9499 -2.2308 -1.3816
  879MPD2    H112895   2.710   3.758  16.433  1.1069  1.1791 -1.5581
  879MPD2    H212896   3.015   4.002  16.559  0.9313 -0.1471 -0.6441
  879MPD2    H312897   2.829   3.960  16.418  0.1946 -0.1115 -0.0837
  879MPD2     N12898   2.743   3.564  16.608 -0.3556  0.1702  1.0411
  879MPD2    H512899   2.658   3.575  16.555 -0.0380  1.2667  0.7671
  879MPD2    N112900   3.120   3.846  16.742 -0.3203  0.4800  0.3557
  879MPD2    H712901   3.129   3.946  16.756 -0.0094  0.4552  0.3204
  880MPD2     C12902   0.184   0.397  17.662  0.1690 -1.0302 -0.1479
  880MPD2    C112903   0.213   0.452   0.082 -0.5918  0.6139 -0.3313
  880MPD2    C212904   0.329   0.420   0.135 -0.1476  0.2480 -0.1893
  880MPD2    C312905   0.417   0.333   0.076  0.3079 -0.6786  0.1462
  880MPD2    C412906   0.394   0.284  17.656 -0.2159  0.3525  0.0959
  880MPD2    C512907   0.277   0.304  17.602 -0.3526  0.1357 -0.1094
  880MPD2     H12908   0.359   0.465   0.229 -0.4893  0.4675 -0.1850
  880MPD2    H112909   0.456   0.208  17.609  1.0754  1.3252  0.2423
  880MPD2    H212910   0.107   0.438  17.597  1.5220  3.8374  1.3329
  880MPD2    H312911   0.247   0.255  17.509  1.6893 -0.2680 -0.5684
  880MPD2     N12912   0.542   0.309   0.147  0.9589  0.3698 -0.2877
  880MPD2    H512913   0.549   0.374   0.225 -0.6047 -0.2311  0.3438
  880MPD2    N112914   0.123   0.552   0.131  0.2683 -0.2028  0.6104
  880MPD2    H712915   0.044   0.581   0.075 -0.6856 -2.7790  0.6426
  881MPD2     C12916   4.434   1.410  17.638 -0.5864  0.3492  0.1122
  881MPD2    C112917   4.502   1.302  17.582 -0.0467 -0.0553  0.4284
  881MPD2    C212918   4.529   1.185  17.659 -0.5177 -0.5579  0.2781
  881MPD2    C312919   4.509   1.187   0.093 -0.3638 -0.1290 -1.1494
  881MPD2    C412920   4.461   1.306   0.151 -0.1879  0.2752 -0.0169
  881MPD2    C512921   4.426   1.415   0.071 -0.2175  0.2737 -0.6250
  881MPD2     H12922   4.590   1.109  17.610 -1.5325 -1.0446 -0.2145
  881MPD2    H112923   4.452   1.302   0.259 -0.4830 -0.9508 -0.0867
  881MPD2    H212924   4.407   1.501  17.585  1.8852  0.5661 -0.8161
  881MPD2    H312925   4.380   1.505   0.108  1.5441  0.2196  1.6552
  881MPD2     N12926   4.533   1.072   0.174  0.7052  0.3766  0.0913
  881MPD2    H512927   4.501   1.080   0.270  0.0724 -0.2691 -0.0677
  881MPD2    N112928   4.516   1.305  17.439 -0.0193 -0.5598  0.2488
  881MPD2    H712929   4.476   1.388  17.396  2.5209 -0.6381 -2.2603
  882MPD2     C12930   3.004   3.175  14.116  0.8210 -0.5086  0.6266
  882MPD2    C112931   2.903   3.265  14.155  0.5977 -0.7297  0.1423
  882MPD2    C212932   2.778   3.254  14.097 -0.2818 -0.6414 -0.0162
  882MPD2    C312933   2.754   3.152  14.009 -0.2033 -0.6234 -0.4156
  882MPD2    C412934   2.851   3.063  13.967  0.1637 -0.1990  0.4638
  882MPD2    C512935   2.976   3.077  14.018  0.1212 -0.2732  1.1308
  882MPD2     H12936   2.702   3.324  14.132 -0.2796 -0.2185 -0.8489
  882MPD2    H112937   2.820   2.977  13.909  1.1099 -0.4471  0.3242
  882MPD2    H212938   3.104   3.187  14.156  0.8215 -1.4328  0.8946
  882MPD2    H312939   3.045   2.994  14.004 -0.0465 -0.5964  2.2268
  882MPD2     N12940   2.621   3.126  13.970  0.3712  0.0347 -0.0881
  882MPD2    H512941   2.594   3.029  13.957 -0.0672  0.1677 -0.1849
  882MPD2    N112942   2.941   3.361  14.251 -0.6637 -0.1945 -0.3649
  882MPD2    H712943   3.040   3.363  14.272 -0.8302 -1.3327  0.5286
  883MPD2     C12944   4.615   3.337  16.267  0.1367 -0.2272  0.2642
  883MPD2    C112945   4.710   3.320  16.170  0.2672 -0.0348  0.3891
  883MPD2    C212946   0.120   3.331  16.193 -0.4469  0.0148 -0.8093
  883MPD2    C312947   0.170   3.355  16.317 -0.1555  0.3070  0.7366
  883MPD2    C412948   0.074   3.350  16.417 -0.5565 -0.1430 -0.1262
  883MPD2    C512949   4.665   3.349  16.399  0.6610  0.3322 -0.3327
  883MPD2     H12950   0.187   3.321  16.109  1.1326  0.4756  0.3960
  883MPD2    H112951   0.110   3.338  16.519 -0.5232 -2.1776 -0.3739
  883MPD2    H212952   4.508   3.330  16.247  0.3453  0.4351 -1.0715
  883MPD2    H312953   4.604   3.342  16.488 -0.3341 -0.3734 -1.0537
  883MPD2     N12954   0.309   3.357  16.340 -0.5670 -0.5829 -0.1411
  883MPD2    H512955   0.367   3.347  16.257  1.8502  0.5547  1.4043
  883MPD2    N112956   4.673   3.298  16.029  0.0330  0.4361 -0.1316
  883MPD2    H712957   0.028   3.314  15.969  0.5679  1.1401  0.7670
  884MPD2     C12958   2.029   3.756  15.191 -0.5656 -0.1650 -0.2765
  884MPD2    C112959   2.074   3.859  15.117 -1.0381 -0.2012 -0.6718
  884MPD2    C212960   1.987   3.962  15.103 -0.6146  0.3930  0.3828
  884MPD2    C312961   1.856   3.953  15.153 -0.5611  0.4222  0.9570
  884MPD2    C412962   1.820   3.841  15.229  0.3409  0.3434 -0.8375
  884MPD2    C512963   1.910   3.745  15.254  0.0116  0.1555  0.3509
  884MPD2     H12964   2.010   4.049  15.043 -0.6514 -0.9086 -1.5324
  884MPD2    H112965   1.724   3.824  15.277 -0.0960  0.8743 -1.5246
  884MPD2    H212966   2.091   3.670  15.215 -1.5022 -1.1210 -1.2994
  884MPD2    H312967   1.885   3.656  15.311  0.3928  0.3397  0.8096
  884MPD2     N12968   1.770   4.052  15.116  0.3254 -0.8550  0.6474
  884MPD2    H512969   1.813   4.133  15.072  0.4740  0.2943  2.9209
  884MPD2    N112970   2.205   3.863  15.072 -0.6675  0.7280  0.5321
  884MPD2    H712971   2.217   3.937  15.004 -2.3862  0.6605  0.1597
  885MPD2     C12972   0.102   4.351  17.497 -0.5625 -0.1358  0.4641
  885MPD2    C112973   0.173   4.237  17.450 -0.2807 -0.4236  0.7073
  885MPD2    C212974   0.169   4.208  17.308  0.4539  0.6635 -0.0998
  885MPD2    C312975   0.110   4.287  17.214  0.1985 -0.3917  0.2108
  885MPD2    C412976   0.056   4.405  17.263 -0.2672 -0.2084  0.8159
  885MPD2    C512977   0.045   4.432  17.402 -0.0114  0.4801 -0.1146
  885MPD2     H12978   0.218   4.117  17.275 -2.8060 -0.3935 -1.9406
  885MPD2    H112979   0.009   4.480  17.202  0.7806 -0.1043  0.1397
  885MPD2    H212980   0.088   4.372  17.603 -2.5282 -1.2919  0.4456
  885MPD2    H312981   4.721   4.526  17.423  2.1240  0.9925  2.6446
  885MPD2     N12982   0.108   4.246  17.082 -0.1132  0.7951 -0.1392
  885MPD2    H512983   0.150   4.158  17.056 -2.3541 -1.1022  2.6944
  885MPD2    N112984   0.228   4.151  17.548  0.1397 -0.6296  0.3025
  885MPD2    H712985   0.239   4.184  17.643  0.8195  1.0844 -0.3524
  886MPD2     C12986   1.259   2.779  15.346  0.5213 -0.3341 -0.2093
  886MPD2    C112987   1.395   2.769  15.350  0.4962 -0.5118  0.2285
  886MPD2    C212988   1.473   2.835  15.257  0.6231 -0.2385 -0.5710
  886MPD2    C312989   1.415   2.914  15.159 -0.4511 -0.4140 -0.2332
  886MPD2    C412990   1.272   2.919  15.146  0.3733  0.2705 -0.3394
  886MPD2    C512991   1.198   2.854  15.247  0.1929 -0.1966  0.1450
  886MPD2     H12992   1.580   2.818  15.271  0.2689 -2.1539 -0.1299
  886MPD2    H112993   1.220   2.979  15.072  1.0774  0.8302 -0.3782
  886MPD2    H212994   1.202   2.710  15.408  2.7876 -0.0592  2.1726
  886MPD2    H312995   1.090   2.853  15.235  0.0698  0.8101  1.1697
  886MPD2     N12996   1.484   2.985  15.064 -0.2899 -0.3500 -0.1411
  886MPD2    H512997   1.436   3.057  15.011  1.2110  1.3398  0.7699
  886MPD2    N112998   1.466   2.691  15.448 -0.2119 -0.0173 -0.1066
  886MPD2    H712999   1.567   2.701  15.448  0.0170 -2.3909  0.0974
  887MPD2     C13000   2.130   2.466  15.547  0.1805  0.4415 -0.5505
  887MPD2    C113001   2.031   2.559  15.566 -0.5934  0.2768  0.9521
  887MPD2    C213002   2.066   2.693  15.542 -0.0542  0.2932  0.1739
  887MPD2    C313003   2.193   2.736  15.514  0.4311  0.4518  0.0919
  887MPD2    C413004   2.295   2.641  15.506 -0.0225 -0.5314  0.7463
  887MPD2    C513005   2.261   2.512  15.522 -0.2675  0.0351 -0.3371
  887MPD2     H13006   1.980   2.758  15.550 -0.5041 -0.1505 -1.0411
  887MPD2    H113007   2.395   2.671  15.480 -0.4124  0.5869  0.5606
  887MPD2    H213008   2.102   2.362  15.558  1.1262  0.3842  1.2719
  887MPD2    H313009   2.330   2.434  15.490 -0.1172  0.7444 -1.7286
  887MPD2     N13010   2.212   2.875  15.500  0.1763  0.3054  0.5960
  887MPD2    H513011   2.126   2.925  15.524 -0.0438  0.8863 -1.4026
  887MPD2    N113012   1.895   2.532  15.586  0.6753  0.8183  0.0548
  887MPD2    H713013   1.840   2.615  15.569 -0.1423 -0.0214 -1.3828
  888MPD2     C13014   4.203   2.849  14.801  0.8821  0.1054  0.4591
  888MPD2    C113015   4.177   2.912  14.918 -0.1526  0.1158 -0.3320
  888MPD2    C213016   4.234   3.035  14.945  0.1410 -0.6982 -0.2511
  888MPD2    C313017   4.303   3.105  14.846 -0.0039 -0.2778 -0.1975
  888MPD2    C413018   4.303   3.052  14.718  0.3590  0.0764  0.6131
  888MPD2    C513019   4.255   2.924  14.700 -0.3647  0.0636  0.4357
  888MPD2     H13020   4.215   3.083  15.040  0.3676  1.4306 -1.2947
  888MPD2    H113021   4.337   3.106  14.630 -1.2912 -1.5871 -1.0583
  888MPD2    H213022   4.163   2.753  14.768 -2.5119  1.8031 -0.3899
  888MPD2    H313023   4.262   2.882  14.600 -1.2452 -0.6286  0.6672
  888MPD2     N13024   4.360   3.231  14.872 -0.0428  0.0349  0.1707
  888MPD2    H513025   4.351   3.266  14.967 -1.6400 -0.9794  0.4021
  888MPD2    N113026   4.085   2.865  15.016 -0.2771  0.1491 -0.3803
  888MPD2    H713027   4.077   2.916  15.103 -2.1220 -1.2299  0.2637
  889MPD2     C13028   3.415   2.448  12.517  1.0661 -0.2088 -0.3958
  889MPD2    C113029   3.462   2.406  12.642  0.1222 -0.1414 -0.3413
  889MPD2    C213030   3.540   2.494  12.710 -0.3276  0.4307  0.6845
  889MPD2    C313031   3.546   2.626  12.683  0.6393 -0.4721  0.0904
  889MPD2    C413032   3.476   2.667  12.571  0.2611 -0.0711 -0.2023
  889MPD2    C513033   3.409   2.581  12.491  0.1673  0.6336  0.1362
  889MPD2     H13034   3.582   2.457  12.803  1.7413 -1.2443 -0.9339
  889MPD2    H113035   3.480   2.769  12.537 -0.2987 -0.0275 -0.1352
  889MPD2    H213036   3.352   2.387  12.453 -3.1331  1.6324  2.0165
  889MPD2    H313037   3.364   2.614  12.398 -2.0835  1.4190  1.5071
  889MPD2     N13038   3.626   2.707  12.768  0.8128 -0.2099 -0.0792
  889MPD2    H513039   3.682   2.651  12.832 -0.8389 -1.1824  0.5482
  889MPD2    N113040   3.462   2.267  12.669  0.3722 -0.0087 -0.4025
  889MPD2    H713041   3.525   2.239  12.744  0.9150  0.3804 -0.7180
  890MPD2     C13042   2.904   3.997  14.767 -1.5771  0.7026 -0.3807
  890MPD2    C113043   2.964   4.097  14.846  0.1582 -0.3263 -0.0500
  890MPD2    C213044   3.046   4.056  14.951  0.0658  0.0736 -1.2867
  890MPD2    C313045   3.044   3.930  15.003 -0.6390 -0.1052 -0.1186
  890MPD2    C413046   2.989   3.834  14.922  0.2299  0.3091  0.1806
  890MPD2    C513047   2.928   3.865  14.804 -0.1665 -0.9156  0.1432
  890MPD2     H13048   3.102   4.129  15.007  0.4190 -1.0217 -0.2013
  890MPD2    H113049   2.999   3.727  14.937  3.1386  0.2714 -2.1368
  890MPD2    H213050   2.843   4.026  14.682  0.9023  1.7823 -1.7901
  890MPD2    H313051   2.883   3.783  14.750 -1.6430  0.2582 -0.4049
  890MPD2     N13052   3.111   3.897  15.123  0.2080  0.0568  0.4167
  890MPD2    H513053   3.146   3.974  15.179  1.8355  0.4279 -1.1313
  890MPD2    N113054   2.939   4.236  14.810  0.4325 -0.2548  0.2954
  890MPD2    H713055   2.856   4.259  14.756  1.6257  0.4405 -1.2487
  891MPD2     C13056   0.626   1.941  17.030  0.5448 -0.2021 -0.5170
  891MPD2    C113057   0.603   2.073  17.066  0.3686  0.5603 -0.9732
  891MPD2    C213058   0.710   2.143  17.123 -0.9305  0.0251  0.3791
  891MPD2    C313059   0.830   2.074  17.144  0.5242 -0.0442 -0.8759
  891MPD2    C413060   0.849   1.942  17.104 -0.2374 -0.3011 -0.3929
  891MPD2    C513061   0.747   1.880  17.038 -0.5212  0.6235  0.5848
  891MPD2     H13062   0.706   2.249  17.146  4.1194  0.6661 -1.7239
  891MPD2    H113063   0.945   1.892  17.109  0.7507  1.5904 -0.6228
  891MPD2    H213064   0.549   1.891  16.972 -0.3730 -2.2269  2.4244
  891MPD2    H313065   0.770   1.787  16.988 -0.8002  1.3499 -0.8768
  891MPD2     N13066   0.930   2.151  17.201 -0.1865  0.1947 -0.4650
  891MPD2    H513067   0.902   2.239  17.243 -1.5071 -0.6267  0.3754
  891MPD2    N113068   0.488   2.136  17.011  0.4386  0.0319 -0.3735
  891MPD2    H713069   0.433   2.078  16.948 -1.3702  1.2989  0.0545
  892MPD2     C13070   2.025   3.898  14.236  0.0235  0.4413  0.0440
  892MPD2    C113071   1.966   3.794  14.287 -0.8092 -0.0313  0.6129
  892MPD2    C213072   2.031   3.666  14.295 -0.1667  0.1765  0.2009
  892MPD2    C313073   2.165   3.654  14.250  0.7589 -0.0488  0.0507
  892MPD2    C413074   2.219   3.761  14.184 -0.4283  0.4078  0.2651
  892MPD2    C513075   2.147   3.880  14.180  0.7907 -0.2997 -0.8196
  892MPD2     H13076   1.982   3.573  14.322  1.1715 -0.7393 -0.5275
  892MPD2    H113077   2.316   3.748  14.138  1.2159  1.5928  3.4060
  892MPD2    H213078   1.968   3.990  14.237 -0.3636  0.2142 -1.7406
  892MPD2    H313079   2.201   3.962  14.135  0.4805  1.5071  2.0929
  892MPD2     N13080   2.240   3.536  14.246 -0.0448 -0.2166  0.1133
  892MPD2    H513081   2.338   3.547  14.222  0.3234 -0.1797  1.6013
  892MPD2    N113082   1.836   3.817  14.335  0.9165 -0.4720 -0.2339
  892MPD2    H713083   1.785   3.900  14.306 -1.3101 -1.7688 -0.0255
  893MPD2     C13084   3.451   1.958   1.109 -0.3722 -1.1282  0.7320
  893MPD2    C113085   3.506   2.032   1.212 -0.3390  0.0229  0.6320
  893MPD2    C213086   3.435   2.141   1.263 -0.3052  0.8344 -0.3156
  893MPD2    C313087   3.318   2.187   1.210  0.9211  0.3463 -0.2792
  893MPD2    C413088   3.267   2.121   1.104  0.1597  0.1875  0.6799
  893MPD2    C513089   3.332   2.007   1.058 -0.0182 -0.2809  0.4614
  893MPD2     H13090   3.458   2.182   1.361 -1.1022 -1.4501  0.8527
  893MPD2    H113091   3.184   2.164   1.049  0.6774  0.0012 -0.2428
  893MPD2    H213092   3.480   1.857   1.082 -1.0378 -0.6956 -1.6855
  893MPD2    H313093   3.295   1.958   0.969  2.2353  1.4921 -1.4530
  893MPD2     N13094   3.246   2.298   1.251  0.1811 -0.2621 -0.9487
  893MPD2    H513095   3.157   2.329   1.211  0.1847  0.1391 -0.6487
  893MPD2    N113096   3.618   1.980   1.278 -0.2391 -0.2689  0.1210
  893MPD2    H713097   3.667   1.899   1.243  2.2649  0.7864  1.1543
  894MPD2     C13098   1.865   4.055   0.246  0.0407  0.1174  0.1842
  894MPD2    C113099   1.866   4.045   0.384 -0.1519 -0.3942  0.2445
  894MPD2    C213100   1.829   4.156   0.459 -0.2624  0.4039  0.6594
  894MPD2    C313101   1.777   4.271   0.402 -0.4733 -0.1303  0.0275
  894MPD2    C413102   1.756   4.271   0.265  0.0741 -0.7608  0.0085
  894MPD2    C513103   1.804   4.165   0.190  0.0100 -0.1739 -0.1671
  894MPD2     H13104   1.837   4.148   0.567  0.8122  0.0671  0.5540
  894MPD2    H113105   1.743   4.364   0.211 -1.7147 -0.2329  1.3710
  894MPD2    H213106   1.890   3.974   0.179 -2.3755 -0.5054  0.0453
  894MPD2    H313107   1.807   4.186   0.084 -0.3153  1.1809  0.0930
  894MPD2     N13108   1.760   4.382   0.486  0.4128 -0.1292  0.4357
  894MPD2    H513109   1.776   4.380   0.586  1.7672 -0.0647  0.2279
  894MPD2    N113110   1.902   3.924   0.460  0.4992  0.0865 -0.0568
  894MPD2    H713111   1.885   3.929   0.560 -0.5786  2.2233 -0.3551
  895MPD2     C13112   1.672   2.898  12.817 -0.1148  0.3322  0.0672
  895MPD2    C113113   1.675   2.761  12.818  0.0593 -0.5518 -0.3980
  895MPD2    C213114   1.600   2.693  12.915  0.3149  0.5527 -0.0044
  895MPD2    C313115   1.548   2.776  13.019 -0.0865  0.6424  0.6486
  895MPD2    C413116   1.553   2.912  13.020  0.4001  0.1497 -0.1857
  895MPD2    C513117   1.614   2.974  12.914  0.1221 -0.8459  0.7647
  895MPD2     H13118   1.595   2.585  12.910 -0.3818  0.6172 -0.6249
  895MPD2    H113119   1.500   2.974  13.090  0.2215  2.4022 -2.3167
  895MPD2    H213120   1.732   2.954  12.746  0.8820 -1.0091 -0.1616
  895MPD2    H313121   1.604   3.080  12.895  0.7543 -1.2380 -1.7098
  895MPD2     N13122   1.475   2.711  13.125 -0.0260 -0.7282  0.2544
  895MPD2    H513123   1.440   2.763  13.206 -0.2295  0.0526 -0.3301
  895MPD2    N113124   1.756   2.698  12.721  0.0497 -0.1092  0.2754
  895MPD2    H713125   1.798   2.760  12.653  0.2469 -0.1642  0.3453
  896MPD2     C13126   3.028   0.245   1.820 -0.5497  0.4789 -0.0980
  896MPD2    C113127   3.055   0.254   1.687 -1.0373 -0.3164  0.7149
  896MPD2    C213128   2.968   0.209   1.589 -0.1653  0.2484  1.1791
  896MPD2    C313129   2.848   0.152   1.633  0.1397  0.2249  0.0094
  896MPD2    C413130   2.830   0.128   1.769 -0.0009  0.1115 -0.2727
  896MPD2    C513131   2.912   0.183   1.861  0.4772 -0.2165  0.7301
  896MPD2     H13132   2.987   0.196   1.484  1.6147  0.2314  1.5137
  896MPD2    H113133   2.743   0.076   1.809 -0.1764  1.3681  0.9571
  896MPD2    H213134   3.097   0.277   1.898  1.0156 -0.1348 -1.2460
  896MPD2    H313135   2.901   0.169   1.968 -1.7118  3.0228  0.9217
  896MPD2     N13136   2.749   0.124   1.541  0.6397 -0.3348 -0.2729
  896MPD2    H513137   2.777   0.132   1.443  0.4854  1.5678 -0.1610
  896MPD2    N113138   3.176   0.317   1.659  0.3071 -0.8846  0.2331
  896MPD2    H713139   3.218   0.367   1.737 -1.2794 -0.2883  0.7021
  897MPD2     C13140   0.028   2.147  10.295 -1.2672  0.1247 -0.2535
  897MPD2    C113141   4.679   2.258  10.305 -0.0828  0.0609  0.6784
  897MPD2    C213142   4.610   2.283  10.418 -0.2483 -0.1263 -0.4145
  897MPD2    C313143   4.630   2.206  10.534 -0.1578  0.1909  0.3004
  897MPD2    C413144   4.708   2.094  10.529  0.1795  0.0078 -0.1149
  897MPD2    C513145   0.042   2.066  10.407 -0.3267 -0.3187  0.1539
  897MPD2     H13146   4.520   2.343  10.422 -0.3747 -0.2879 -0.8382
  897MPD2    H113147   0.001   2.036  10.619 -2.5060  0.8117  0.9637
  897MPD2    H213148   0.081   2.121  10.205  0.0987 -1.1246  0.9164
  897MPD2    H313149   0.106   1.979  10.399  0.0612  0.0965 -1.2132
  897MPD2     N13150   4.553   2.240  10.648 -0.4989  0.2341 -0.1159
  897MPD2    H513151   4.482   2.312  10.644 -0.9689 -0.1276  1.7293
  897MPD2    N113152   4.693   2.350  10.197 -0.2829  0.3279  0.5179
  897MPD2    H713153   0.018   2.307  10.120  0.1846 -0.2485  1.1506
  898MPD2     C13154   2.394   2.362  17.172  0.0801 -0.4573 -0.1270
  898MPD2    C113155   2.386   2.449  17.279  0.1735  0.1497  0.0482
  898MPD2    C213156   2.263   2.502  17.316 -0.3820 -0.1425  0.3020
  898MPD2    C313157   2.150   2.472  17.239 -1.1315 -0.4141  0.0470
  898MPD2    C413158   2.163   2.390  17.138  0.1779  0.0549 -1.0850
  898MPD2    C513159   2.278   2.331  17.105 -0.0961  0.0668  0.7482
  898MPD2     H13160   2.256   2.575  17.396  0.3160  0.4377 -0.1612
  898MPD2    H113161   2.077   2.355  17.083  0.2632 -0.4523 -0.9008
  898MPD2    H213162   2.489   2.323  17.138  0.2110 -1.9525  1.9081
  898MPD2    H313163   2.282   2.266  17.018 -2.4420  0.6590  0.2002
  898MPD2     N13164   2.030   2.531  17.283 -0.1201  0.3897  0.8361
  898MPD2    H513165   2.044   2.599  17.357 -1.3433  2.5332 -0.9157
  898MPD2    N113166   2.498   2.489  17.358 -0.2279 -0.3932 -0.2857
  898MPD2    H713167   2.475   2.539  17.442  2.0441 -0.4168  0.3665
  899MPD2     C13168   2.808   3.713  16.951 -0.2973 -0.6393 -0.0378
  899MPD2    C113169   2.684   3.741  16.911  0.0295  0.4996 -0.3382
  899MPD2    C213170   2.580   3.649  16.937  0.2379 -0.1744 -0.1648
  899MPD2    C313171   2.610   3.535  17.007 -0.1534  0.0873  0.5113
  899MPD2    C413172   2.736   3.516  17.055  0.4190 -0.2553 -0.2727
  899MPD2    C513173   2.834   3.603  17.026 -0.1791  0.1593  0.5869
  899MPD2     H13174   2.479   3.670  16.903  0.6976  2.1208 -0.1329
  899MPD2    H113175   2.766   3.423  17.102 -1.0704  0.4671  2.0769
  899MPD2    H213176   2.899   3.770  16.935 -0.0477 -0.5507  1.6770
  899MPD2    H313177   2.937   3.593  17.058  0.0496 -0.7444 -0.4540
  899MPD2     N13178   2.509   3.447  17.048 -0.5208 -0.2487  0.2067
  899MPD2    H513179   2.414   3.479  17.033 -0.6003  0.2005  1.6602
  899MPD2    N113180   2.673   3.857  16.836  0.6433 -0.4486  0.1125
  899MPD2    H713181   2.749   3.923  16.826 -0.0067  0.3310  0.2793
  900MPD2     C13182   2.388   0.943  12.382  0.2458  0.1382 -0.0939
  900MPD2    C113183   2.343   0.822  12.345 -0.2430 -0.1878 -0.3363
  900MPD2    C213184   2.283   0.807  12.218  0.1199  1.3828 -0.5093
  900MPD2    C313185   2.274   0.913  12.133  0.6090 -0.3933  0.4691
  900MPD2    C413186   2.318   1.040  12.178 -0.6732  0.7485 -0.1428
  900MPD2    C513187   2.376   1.052  12.299  0.5672 -0.9495 -0.5409
  900MPD2     H13188   2.256   0.707  12.185 -1.7649  1.0917  1.9517
  900MPD2    H113189   2.308   1.133  12.123  4.4233 -0.1281 -2.5753
  900MPD2    H213190   2.440   0.957  12.476  0.2165  2.6474 -0.4346
  900MPD2    H313191   2.420   1.142  12.341 -1.7664  0.4716 -1.1389
  900MPD2     N13192   2.216   0.895  12.008  0.0183 -0.1335  0.4133
  900MPD2    H513193   2.163   0.810  11.996  1.7935 -1.1717 -0.0690
  900MPD2    N113194   2.355   0.705  12.423  0.2590 -0.3099  0.8681
  900MPD2    H713195   2.313   0.620  12.385  0.8092 -0.2016  0.0181
  901MPD2     C13196   2.060   4.514  12.669  0.0774  0.2071 -0.5778
  901MPD2    C113197   2.194   4.509  12.699  0.0151 -0.1787  0.2624
  901MPD2    C213198   2.265   4.630  12.685  0.5503 -0.1867 -0.0670
  901MPD2    C313199   2.206   0.020  12.643  0.2427 -0.3885  0.0559
  901MPD2    C413200   2.069   0.018  12.605  0.2364 -0.2726 -0.7736
  901MPD2    C513201   1.999   4.629  12.631 -0.4244 -0.4017 -0.3741
  901MPD2     H13202   2.372   4.640  12.700  0.7714  0.8613 -2.3391
  901MPD2    H113203   2.017   0.106  12.571  1.3518  0.6891  0.0092
  901MPD2    H213204   1.995   4.428  12.679  1.0558 -0.3702  0.7801
  901MPD2    H313205   1.894   4.637  12.602 -0.6401  0.1238  0.5673
  901MPD2     N13206   2.290   0.132  12.626  0.4645  0.1819  1.0414
  901MPD2    H513207   2.387   0.121  12.656  1.0331  0.1808 -0.7397
  901MPD2    N113208   2.252   4.385  12.730 -0.4040  0.5827 -0.0379
  901MPD2    H713209   2.192   4.303  12.725 -0.6568  0.7432  0.3734
  902MPD2     C13210   0.967   3.680  12.697  0.5495  0.3247  1.0093
  902MPD2    C113211   0.933   3.703  12.565  0.7625 -0.2158 -0.0207
  902MPD2    C213212   1.028   3.713  12.464  0.3613 -0.5749  0.4871
  902MPD2    C313213   1.164   3.731  12.503 -0.1259  0.3036 -0.5719
  902MPD2    C413214   1.193   3.726  12.634  0.8796 -0.0042  0.0812
  902MPD2    C513215   1.097   3.704  12.732 -0.8548 -0.9635  0.0787
  902MPD2     H13216   1.004   3.718  12.358  2.5624 -2.4916 -0.0839
  902MPD2    H113217   1.295   3.746  12.666  0.8506  1.3051 -0.6449
  902MPD2    H213218   0.884   3.682  12.767  0.4331  0.8892  0.8551
  902MPD2    H313219   1.120   3.712  12.837  1.2365  1.3294 -0.5647
  902MPD2     N13220   1.275   3.745  12.415  0.8541 -0.0995  0.0797
  902MPD2    H513221   1.367   3.754  12.456 -0.4945  2.3510  2.6615
  902MPD2    N113222   0.795   3.688  12.537 -0.2806 -0.4924 -0.1286
  902MPD2    H713223   0.749   3.620  12.598 -1.7166 -0.6113 -1.3471
  903MPD2     C13224   1.263   3.907  11.624 -0.8800  0.5519 -0.0047
  903MPD2    C113225   1.305   3.802  11.701  0.9862 -0.1710  0.7728
  903MPD2    C213226   1.255   3.679  11.664  0.5325  0.4949  0.2136
  903MPD2    C313227   1.172   3.660  11.551 -0.0406  0.6359  0.8808
  903MPD2    C413228   1.124   3.771  11.483 -0.1889 -0.5277  0.0262
  903MPD2    C513229   1.181   3.893  11.518  0.2714 -0.0290 -0.1749
  903MPD2     H13230   1.279   3.589  11.719 -0.0143 -0.3035 -0.8540
  903MPD2    H113231   1.056   3.779  11.399 -1.2801  1.6533  1.1020
  903MPD2    H213232   1.293   4.006  11.655 -1.5638  1.7005 -3.0045
  903MPD2    H313233   1.164   3.983  11.460 -1.7433  0.2667  0.8830
  903MPD2     N13234   1.120   3.536  11.517 -0.2698  0.2412 -0.5208
  903MPD2    H513235   1.139   3.462  11.584 -1.1304  0.2852 -0.2163
  903MPD2    N113236   1.383   3.823  11.820  0.1355 -0.3602  0.1690
  903MPD2    H713237   1.386   3.920  11.851  0.0378 -0.7940  1.5550
  904MPD2     C13238   1.593   2.444  14.535  0.2425  0.4874 -0.3852
  904MPD2    C113239   1.587   2.551  14.452  0.6008  0.3281 -0.7072
  904MPD2    C213240   1.702   2.616  14.415 -0.2043  0.1131 -0.0341
  904MPD2    C313241   1.825   2.561  14.451 -0.6503  0.1722  0.6112
  904MPD2    C413242   1.834   2.457  14.538  0.0888  0.2073 -0.4202
  904MPD2    C513243   1.717   2.397  14.574  0.2496  0.2435 -0.4338
  904MPD2     H13244   1.695   2.693  14.339 -0.3683 -0.8479 -0.9761
  904MPD2    H113245   1.920   2.416  14.590 -0.4951 -0.2948  0.1414
  904MPD2    H213246   1.503   2.388  14.560  0.1044  0.4302 -1.0102
  904MPD2    H313247   1.719   2.301  14.625 -0.4412  0.5654  0.2040
  904MPD2     N13248   1.938   2.635  14.408 -0.4313  0.2109  0.7096
  904MPD2    H513249   1.913   2.720  14.358  0.2429  1.4742  2.4850
  904MPD2    N113250   1.468   2.603  14.399  0.4453  0.8870  0.0669
  904MPD2    H713251   1.483   2.691  14.350  0.3984  0.8868  0.0523
  905MPD2     C13252   0.815   2.824  13.872  0.2493  0.3801  0.2571
  905MPD2    C113253   0.943   2.785  13.882  0.6528  0.1977 -0.0279
  905MPD2    C213254   0.997   2.728  13.771 -0.0553  0.0345 -0.0588
  905MPD2    C313255   0.943   2.705  13.649 -0.1085  0.0797  0.1296
  905MPD2    C413256   0.814   2.742  13.638 -0.2891 -0.1358  0.3121
  905MPD2    C513257   0.750   2.800  13.747  0.5323  0.4136  0.0874
  905MPD2     H13258   1.103   2.705  13.775 -0.0123  0.4624  1.0854
  905MPD2    H113259   0.758   2.732  13.545  0.1528  1.1797 -0.0889
  905MPD2    H213260   0.771   2.872  13.959 -1.0006 -0.1571 -0.0870
  905MPD2    H313261   0.646   2.826  13.737  0.7916  1.7945  0.9145
  905MPD2     N13262   1.013   2.648  13.540 -0.4602  0.1671  0.0477
  905MPD2    H513263   0.965   2.600  13.464  2.7224  1.9191 -3.1025
  905MPD2    N113264   1.017   2.810  13.999  0.6882 -0.3360 -0.3284
  905MPD2    H713265   0.968   2.864  14.069  2.2291 -3.4031  3.1085
  906MPD2     C13266   3.497   2.793  11.398 -0.2799  0.3301 -0.3238
  906MPD2    C113267   3.486   2.688  11.301 -1.0639 -0.4197 -0.3553
  906MPD2    C213268   3.464   2.557  11.344 -0.6004 -0.3542 -0.0210
  906MPD2    C313269   3.444   2.530  11.474  0.1337  0.2473 -0.2174
  906MPD2    C413270   3.452   2.633  11.568  0.6836 -0.3976 -0.1720
  906MPD2    C513271   3.482   2.759  11.531  0.9404 -0.4285  0.1871
  906MPD2     H13272   3.486   2.476  11.276  0.2404 -0.0346 -0.1260
  906MPD2    H113273   3.448   2.605  11.672  0.6833  0.9691  0.1884
  906MPD2    H213274   3.524   2.892  11.364  0.0284 -0.1839 -1.5628
  906MPD2    H313275   3.498   2.834  11.607 -0.5548 -1.7497  1.8210
  906MPD2     N13276   3.430   2.395  11.512 -0.5217 -0.3377 -0.2524
  906MPD2    H513277   3.442   2.367  11.609  0.3076  0.6677 -0.0604
  906MPD2    N113278   3.501   2.707  11.163 -0.8763 -0.8600 -0.4956
  906MPD2    H713279   3.480   2.627  11.105 -1.0665 -2.1128  1.3154
  907MPD2     C13280   1.815   1.571  15.421  0.6660  0.2098 -0.9528
  907MPD2    C113281   1.922   1.492  15.401 -0.1132 -0.0871  0.5646
  907MPD2    C213282   1.990   1.433  15.509 -1.0214  0.1659  0.4855
  907MPD2    C313283   1.955   1.476  15.642 -0.0069 -0.0784 -0.4340
  907MPD2    C413284   1.851   1.561  15.653  0.0033 -0.1950 -0.8586
  907MPD2    C513285   1.781   1.606  15.550 -0.2783  0.7670  0.3552
  907MPD2     H13286   2.068   1.359  15.498 -2.5231 -1.3499 -0.1415
  907MPD2    H113287   1.814   1.603  15.745  0.9743 -0.3923 -0.3850
  907MPD2    H213288   1.748   1.606  15.343  1.4908  0.9467 -1.3433
  907MPD2    H313289   1.693   1.667  15.563 -1.8783 -0.9484 -2.2368
  907MPD2     N13290   2.026   1.419  15.749  0.3110 -0.1267  0.5445
  907MPD2    H513291   2.098   1.352  15.723 -1.0996 -0.5891 -2.0997
  907MPD2    N113292   1.955   1.435  15.278 -0.1982 -0.7496 -0.5389
  907MPD2    H713293   2.021   1.358  15.271  0.7487  0.1362 -1.4816
  908MPD2     C13294   0.285   2.119   9.432  0.5718  0.1721  0.1083
  908MPD2    C113295   0.244   2.074   9.556  0.4616  0.4291  0.1068
  908MPD2    C213296   0.213   2.160   9.662 -0.4175 -0.1775  0.6283
  908MPD2    C313297   0.211   2.299   9.641  0.3039  0.1462 -0.2341
  908MPD2    C413298   0.248   2.353   9.518 -0.4320 -0.4542 -0.5323
  908MPD2    C513299   0.278   2.263   9.419  0.3223 -0.4004  0.3426
  908MPD2     H13300   0.174   2.120   9.754 -0.0427 -3.9783 -0.8706
  908MPD2    H113301   0.270   2.457   9.498 -1.4033 -0.0578  0.4547
  908MPD2    H213302   0.307   2.053   9.349 -0.7240 -0.4281  0.2389
  908MPD2    H313303   0.301   2.308   9.323 -1.6881 -2.6782 -1.2296
  908MPD2     N13304   0.174   2.380   9.756  0.7370  0.3741  0.1804
  908MPD2    H513305   0.184   2.346   9.851  3.7934 -2.6813 -1.2364
  908MPD2    N113306   0.225   1.936   9.579  0.4453 -0.0342  0.0367
  908MPD2    H713307   0.220   1.908   9.676 -3.3810  4.4471  1.1387
  909MPD2     C13308   0.445   0.048  11.508  0.2079 -0.3853  0.5334
  909MPD2    C113309   0.399   0.163  11.455 -0.1507 -0.9257 -0.0760
  909MPD2    C213310   0.330   0.250  11.526  0.4734 -0.2553  0.0318
  909MPD2    C313311   0.286   0.225  11.657  0.6069 -0.1453 -0.5251
  909MPD2    C413312   0.344   0.112  11.711 -0.2990  0.2715  0.0269
  909MPD2    C513313   0.422   0.027  11.640  0.5558  0.1673  0.2212
  909MPD2     H13314   0.298   0.339  11.472 -0.2562 -0.4703  0.1132
  909MPD2    H113315   0.341   0.094  11.818 -0.1529  2.7128  0.4555
  909MPD2    H213316   0.516   4.714  11.453 -1.5965 -0.8658 -1.2951
  909MPD2    H313317   0.472   4.668  11.685 -0.4452 -0.8084 -0.5187
  909MPD2     N13318   0.188   0.304  11.718 -0.0107  0.0401  0.5817
  909MPD2    H513319   0.146   0.375  11.659 -0.3747 -0.1522  0.6085
  909MPD2    N113320   0.417   0.204  11.321  0.1145  0.0862 -0.0288
  909MPD2    H713321   0.380   0.295  11.293  1.5202  1.7522  3.5167
  910MPD2     C13322   1.761   1.951  15.923 -0.4612 -0.3709 -0.3715
  910MPD2    C113323   1.664   1.853  15.899 -0.3913 -0.2348  0.6366
  910MPD2    C213324   1.603   1.839  15.772  0.3883  0.0830 -0.3252
  910MPD2    C313325   1.639   1.939  15.682 -0.2071  1.0530  0.3935
  910MPD2    C413326   1.724   2.042  15.709  0.5825 -0.1719  0.1241
  910MPD2    C513327   1.783   2.044  15.830  0.2144 -0.1659  0.1061
  910MPD2     H13328   1.544   1.752  15.748 -0.8665  0.4130  1.5633
  910MPD2    H113329   1.740   2.117  15.633  1.0913 -1.0015 -0.5977
  910MPD2    H213330   1.814   1.965  16.016  0.0003 -1.2311 -0.5039
  910MPD2    H313331   1.853   2.123  15.853 -1.0529  0.1959  2.7270
  910MPD2     N13332   1.596   1.937  15.541 -0.0177  0.1331 -0.1483
  910MPD2    H513333   1.642   2.000  15.475  1.9695 -0.5121  0.6167
  910MPD2    N113334   1.629   1.752  15.998 -0.0062 -0.5929  0.2860
  910MPD2    H713335   1.550   1.689  15.988 -1.0373  0.4432  1.8288
  911MPD2     C13336   4.051   2.649  15.909 -0.5990 -0.2117  0.3401
  911MPD2    C113337   4.036   2.698  16.033 -0.2473 -0.6052 -0.4189
  911MPD2    C213338   3.949   2.800  16.056 -0.7628  0.9618  0.5814
  911MPD2    C313339   3.868   2.847  15.952  0.8627  0.1964  0.0329
  911MPD2    C413340   3.878   2.788  15.827  0.4937  0.1768 -0.2803
  911MPD2    C513341   3.974   2.690  15.807  0.2275 -0.3601 -0.2934
  911MPD2     H13342   3.942   2.831  16.160 -0.3715 -1.0240  1.2022
  911MPD2    H113343   3.819   2.817  15.741 -0.8613 -3.2600 -0.5222
  911MPD2    H213344   4.124   2.573  15.884 -0.6031 -1.0364  2.9018
  911MPD2    H313345   3.996   2.653  15.707  0.2758 -2.0568  0.3546
  911MPD2     N13346   3.771   2.952  15.956 -0.0687  0.2825  0.5239
  911MPD2    H513347   3.719   2.965  15.870  0.1166  2.4376  0.7373
  911MPD2    N113348   4.119   2.647  16.132 -0.0448 -0.8225 -0.0079
  911MPD2    H713349   4.166   2.561  16.105 -0.0605  0.6039 -4.5613
  912MPD2     C13350   3.570   2.812  15.514 -0.3088  0.1706 -1.3330
  912MPD2    C113351   3.545   2.794  15.652 -0.2165  0.2002  0.1649
  912MPD2    C213352   3.593   2.680  15.716  0.1140  0.4686  0.2833
  912MPD2    C313353   3.665   2.588  15.645 -1.1310 -0.0208  0.5414
  912MPD2    C413354   3.691   2.605  15.514  0.3864  0.2101  0.2852
  912MPD2    C513355   3.647   2.717  15.454 -0.0104  0.3025  0.3133
  912MPD2     H13356   3.577   2.675  15.823 -0.1784  1.3400  0.2786
  912MPD2    H113357   3.759   2.544  15.456 -0.3483  0.3838 -0.7631
  912MPD2    H213358   3.558   2.906  15.462  0.1238  0.2325 -1.3209
  912MPD2    H313359   3.667   2.721  15.348  0.7410  0.0079  0.4454
  912MPD2     N13360   3.692   2.470  15.721 -0.1109  1.3676  0.1862
  912MPD2    H513361   3.667   2.476  15.819 -0.0096 -4.3222  0.5479
  912MPD2    N113362   3.485   2.906  15.711  0.4860  0.0879  0.2801
  912MPD2    H713363   3.484   2.995  15.661  4.3500  0.8121  1.4691
  913MPD2     C13364   4.393   3.751  10.348 -0.5557 -0.0671 -0.0007
  913MPD2    C113365   4.393   3.892  10.335 -0.7368 -0.2594 -0.2624
  913MPD2    C213366   4.334   3.950  10.224  0.3856 -0.9313  0.5862
  913MPD2    C313367   4.272   3.865  10.128  0.0911  0.1005 -0.2948
  913MPD2    C413368   4.271   3.731  10.145 -0.2316  0.0954 -0.4809
  913MPD2    C513369   4.328   3.673  10.255 -0.1538  0.3335 -0.7981
  913MPD2     H13370   4.327   4.058  10.220 -1.2682 -1.0819 -0.8466
  913MPD2    H113371   4.231   3.667  10.068 -0.0646  1.1074 -1.4180
  913MPD2    H213372   4.449   3.698  10.425 -0.8638  1.5684  1.3414
  913MPD2    H313373   4.333   3.566  10.269  1.4247  1.0555  4.2007
  913MPD2     N13374   4.212   3.905  10.015  0.4539  0.0153 -0.8162
  913MPD2    H513375   4.151   3.833   9.979 -0.9493  1.4270 -1.2872
  913MPD2    N113376   4.449   3.967  10.437 -0.3117 -0.8092 -0.7697
  913MPD2    H713377   4.486   3.914  10.515 -0.0583 -1.5364 -1.3803
  914MPD2     C13378   2.647   4.367  11.940 -0.3305  0.2053  0.3271
  914MPD2    C113379   2.651   4.461  12.042 -0.2107  0.4115  0.6694
  914MPD2    C213380   2.645   4.415  12.169  0.6037 -0.4086 -0.0546
  914MPD2    C313381   2.613   4.289  12.199 -0.1240  0.5510  0.0162
  914MPD2    C413382   2.585   4.197  12.100 -0.6224  0.4021 -0.0231
  914MPD2    C513383   2.609   4.235  11.974 -0.2822  0.0948 -0.0784
  914MPD2     H13384   2.666   4.480  12.253  0.7552  1.0868 -1.2517
  914MPD2    H113385   2.551   4.095  12.116  0.0087  0.2492  0.3551
  914MPD2    H213386   2.658   4.404  11.838  3.5534 -1.0166  0.3013
  914MPD2    H313387   2.591   4.165  11.894 -1.4985 -0.5996  0.8125
  914MPD2     N13388   2.582   4.265  12.334 -0.4391  0.3750  0.7661
  914MPD2    H513389   2.587   4.341  12.400 -2.0890 -1.3172  2.8637
  914MPD2    N113390   2.666   4.601  12.003 -0.0734  0.0945  0.2663
  914MPD2    H713391   2.648   4.617  11.904 -2.1450  0.6519  0.7422
  915MPD2     C13392   0.498   3.568  15.634 -0.5135 -0.4187  0.0057
  915MPD2    C113393   0.377   3.618  15.598  0.3402  0.2511 -0.7227
  915MPD2    C213394   0.334   3.732  15.663  0.8131  0.3790  0.0257
  915MPD2    C313395   0.413   3.790  15.765 -0.2146  0.5192 -0.1965
  915MPD2    C413396   0.531   3.732  15.802  0.1294 -0.0689 -0.2795
  915MPD2    C513397   0.576   3.625  15.732  0.0384  0.5703  0.7384
  915MPD2     H13398   0.249   3.785  15.622  0.5652 -1.3847 -1.7534
  915MPD2    H113399   0.590   3.752  15.891  1.6087  0.8387 -1.4622
  915MPD2    H213400   0.550   3.495  15.574  1.8908  0.0714  1.4700
  915MPD2    H313401   0.675   3.588  15.755 -0.6524 -1.0110  1.1339
  915MPD2     N13402   0.353   3.900  15.829 -0.4467  0.0760 -0.2185
  915MPD2    H513403   0.260   3.931  15.800 -0.4564 -0.3797 -0.6624
  915MPD2    N113404   0.314   3.562  15.485 -0.2279 -0.2441 -0.5880
  915MPD2    H713405   0.359   3.490  15.429  0.4099  1.1948 -1.9320
  916MPD2     C13406   3.330   2.353  15.666  0.1390 -0.2157 -0.3350
  916MPD2    C113407   3.328   2.245  15.751  0.4129  0.7618 -0.3660
  916MPD2    C213408   3.392   2.128  15.711 -0.1295 -0.0258 -0.0710
  916MPD2    C313409   3.467   2.121  15.597 -0.3384  0.5603 -0.3222
  916MPD2    C413410   3.474   2.233  15.521  0.6503  0.1550 -0.6165
  916MPD2    C513411   3.408   2.346  15.558 -0.1001 -0.2898  0.0824
  916MPD2     H13412   3.371   2.039  15.769 -1.0203 -0.2472 -0.7428
  916MPD2    H113413   3.539   2.234  15.434  0.3750  2.4386 -0.7981
  916MPD2    H213414   3.271   2.440  15.691 -2.3880 -1.5332 -1.7771
  916MPD2    H313415   3.411   2.434  15.495  1.1987  0.8672  1.7545
  916MPD2     N13416   3.526   1.990  15.558 -0.6599  0.2422  0.0363
  916MPD2    H513417   3.517   1.915  15.626  1.0737  0.8310  0.9174
  916MPD2    N113418   3.252   2.250  15.871 -0.0481  0.2165 -0.0816
  916MPD2    H713419   3.190   2.331  15.869 -0.8352 -0.3798  0.2142
  917MPD2     C13420   3.649   0.105  10.732 -0.0507 -0.1330 -0.7948
  917MPD2    C113421   3.715   0.136  10.851 -0.0676 -0.9004 -0.2331
  917MPD2    C213422   3.841   0.195  10.854  0.0687  0.4214  0.0150
  917MPD2    C313423   3.889   0.240  10.732  0.2851  0.6760 -0.2125
  917MPD2    C413424   3.823   0.215  10.617  0.0718 -0.3093  0.0980
  917MPD2    C513425   3.705   0.145  10.619 -0.7447 -0.4185  0.2370
  917MPD2     H13426   3.888   0.220  10.948 -2.3431 -0.4951  1.4726
  917MPD2    H113427   3.865   0.240  10.520  1.5582  2.1590  1.3697
  917MPD2    H213428   3.554   0.053  10.735 -0.8075  1.3471  0.5867
  917MPD2    H313429   3.672   0.119  10.519  1.2849 -1.6281 -0.1149
  917MPD2     N13430   3.999   0.332  10.722 -0.2867  0.5371  0.4383
  917MPD2    H513431   4.013   0.369  10.629  1.8552  2.0723  1.3612
  917MPD2    N113432   3.643   0.101  10.969  0.4706  0.0428  0.6153
  917MPD2    H713433   3.553   0.058  10.951  1.1741 -1.3683  0.4540
  918MPD2     C13434   3.672   0.127  12.027  0.8218 -0.4416  0.0161
  918MPD2    C113435   3.781   0.075  11.951  0.1207  0.2195 -0.4127
  918MPD2    C213436   3.761   0.061  11.815  0.0996  0.2129 -0.6192
  918MPD2    C313437   3.638   0.096  11.751  0.2671 -0.9036  0.0173
  918MPD2    C413438   3.538   0.144  11.826  0.1236  0.6637 -0.0874
  918MPD2    C513439   3.559   0.167  11.958  0.6685  0.2618 -0.3564
  918MPD2     H13440   3.843   0.019  11.759  0.2182 -1.6430  0.9475
  918MPD2    H113441   3.439   0.163  11.786  0.1959 -0.4020 -0.7728
  918MPD2    H213442   3.673   0.144  12.134 -0.6808 -3.4612  0.5012
  918MPD2    H313443   3.476   0.209  12.015  0.3784 -0.7664 -0.0222
  918MPD2     N13444   3.622   0.071  11.609 -0.5624 -0.7822  0.6409
  918MPD2    H513445   3.702   0.040  11.555 -1.1802 -3.1376  1.0861
  918MPD2    N113446   3.905   0.033  12.008 -0.0083  0.3992  0.1957
  918MPD2    H713447   3.987   0.019  11.951 -0.0537 -0.9373  0.4615
  919MPD2     C13448   4.062   4.004  11.316 -0.1125  0.0846 -0.2137
  919MPD2    C113449   4.125   3.881  11.301 -0.3493 -0.3664  0.5896
  919MPD2    C213450   4.161   3.842  11.168 -0.2455  0.4855 -0.1025
  919MPD2    C313451   4.130   3.932  11.066  0.0577 -0.1721 -0.3092
  919MPD2    C413452   4.094   4.064  11.092  0.4151 -0.2706 -0.5464
  919MPD2    C513453   4.063   4.096  11.219  0.6665  0.3109 -0.3327
  919MPD2     H13454   4.188   3.739  11.150 -0.6209  0.4554 -0.5053
  919MPD2    H113455   4.086   4.143  11.018 -1.8690 -0.3023 -0.3162
  919MPD2    H213456   4.021   4.040  11.409 -2.0961  1.6011 -1.6746
  919MPD2    H313457   4.012   4.190  11.237  0.4632  0.0289  0.5877
  919MPD2     N13458   4.136   3.904  10.925 -0.6580 -0.2552 -0.1525
  919MPD2    H513459   4.114   3.986  10.870  0.8113 -0.8157 -1.5795
  919MPD2    N113460   4.128   3.779  11.404 -0.0248 -0.1834  0.6509
  919MPD2    H713461   4.159   3.687  11.373  0.8157 -0.1657  1.4340
  920MPD2     C13462   3.928   4.251  10.042 -0.0858  0.2306 -0.1069
  920MPD2    C113463   3.873   4.124  10.037 -0.3620 -0.3923 -0.4436
  920MPD2    C213464   3.912   4.030  10.135  0.7000 -0.4929  0.1422
  920MPD2    C313465   4.001   4.056  10.238  0.1821  0.5270  0.3933
  920MPD2    C413466   4.060   4.184  10.232 -0.9658  0.8205 -0.0785
  920MPD2    C513467   4.014   4.275  10.141 -0.1184  0.7740  0.6727
  920MPD2     H13468   3.872   3.929  10.124 -1.0366  0.2506 -0.3883
  920MPD2    H113469   4.128   4.225  10.305 -0.1503  0.8251 -0.8406
  920MPD2    H213470   3.894   4.331   9.977 -0.9703 -0.6260 -0.7032
  920MPD2    H313471   4.046   4.378  10.155  0.5050  0.4751  1.4699
  920MPD2     N13472   4.028   3.963  10.336  0.2188 -0.4836 -0.5889
  920MPD2    H513473   3.992   3.868  10.324  1.3064 -0.8555 -0.9136
  920MPD2    N113474   3.777   4.092   9.934 -0.4925  0.5824  0.4445
  920MPD2    H713475   3.735   3.999   9.936 -1.0755  0.8154 -0.7784
  921MPD2     C13476   0.101   2.933  16.745  0.2914 -0.7551  0.1429
  921MPD2    C113477   0.069   2.809  16.796  0.1449  0.3471  1.2183
  921MPD2    C213478   4.680   2.741  16.757  0.3492  0.0871  0.2174
  921MPD2    C313479   4.603   2.801  16.664 -0.6443  0.8347 -0.1371
  921MPD2    C413480   4.621   2.936  16.625 -0.3674 -0.0124 -0.2672
  921MPD2    C513481   0.008   2.997  16.667 -0.0743 -0.0614  0.3743
  921MPD2     H13482   4.656   2.639  16.783 -0.3986  0.3805  0.6820
  921MPD2    H113483   4.540   2.988  16.576 -0.9634 -2.7533 -2.1879
  921MPD2    H213484   0.192   2.985  16.773  0.2995 -0.2349 -0.8657
  921MPD2    H313485   0.028   3.100  16.644 -0.1770  0.2063  1.4956
  921MPD2     N13486   4.505   2.734  16.587 -0.4295 -0.3803  0.3601
  921MPD2    H513487   4.445   2.787  16.525  0.0437  1.1118  1.1795
  921MPD2    N113488   0.165   2.742  16.870 -0.1424 -0.2123  0.1978
  921MPD2    H713489   0.261   2.773  16.858  0.0637 -1.7590 -2.0560
  922MPD2     C13490   1.319   0.505  16.980  0.2153  0.2444  0.6365
  922MPD2    C113491   1.187   0.537  16.991  0.0895 -0.4872 -1.0200
  922MPD2    C213492   1.097   0.456  17.051 -0.5601 -0.0899 -0.1679
  922MPD2    C313493   1.136   0.331  17.101 -0.3284 -0.6360 -0.1050
  922MPD2    C413494   1.269   0.288  17.086  0.4486 -0.0457 -0.4240
  922MPD2    C513495   1.360   0.381  17.034 -0.5500 -1.2913 -0.8662
  922MPD2     H13496   0.997   0.492  17.072 -0.7156 -0.0919 -0.9296
  922MPD2    H113497   1.298   0.189  17.119  0.5968 -0.1824 -0.9645
  922MPD2    H213498   1.398   0.566  16.937  0.2878 -0.4778 -0.2613
  922MPD2    H313499   1.468   0.369  17.037 -0.3566  0.2847 -1.3552
  922MPD2     N13500   1.035   0.266  17.175  0.3552 -0.0680  0.2749
  922MPD2    H513501   0.949   0.317  17.189 -1.5163 -2.5868 -2.0115
  922MPD2    N113502   1.141   0.662  16.952  0.4886  0.3441  0.4624
  922MPD2    H713503   1.045   0.689  16.965 -0.0089 -1.5379  0.7642
  923MPD2     C13504   2.433   2.169   8.912 -0.5219  0.9598 -0.8642
  923MPD2    C113505   2.409   2.244   9.024  0.6069 -0.5345 -0.1343
  923MPD2    C213506   2.501   2.282   9.113 -0.5386  0.3101  0.4907
  923MPD2    C313507   2.634   2.241   9.091 -0.6520  0.1237  0.2549
  923MPD2    C413508   2.656   2.150   8.983 -0.3234 -0.3294 -0.3916
  923MPD2    C513509   2.559   2.121   8.892  1.0281 -0.3794  0.0387
  923MPD2     H13510   2.475   2.350   9.194 -1.8383 -1.3796  1.4853
  923MPD2    H113511   2.756   2.122   8.951 -0.4187 -2.0310  0.8390
  923MPD2    H213512   2.355   2.150   8.839 -1.2962  1.1723 -0.0811
  923MPD2    H313513   2.575   2.050   8.811  0.3847 -1.2333  0.6516
  923MPD2     N13514   2.742   2.282   9.166 -0.3612 -0.1496 -0.3490
  923MPD2    H513515   2.832   2.237   9.154  0.2710  0.5955  1.7149
  923MPD2    N113516   2.275   2.297   9.016 -0.6091 -0.6047  0.4913
  923MPD2    H713517   2.220   2.255   8.942  1.6052 -0.4788 -1.2474
  924MPD2     C13518   2.407   0.682  15.849  0.1815 -0.6031 -0.4562
  924MPD2    C113519   2.366   0.727  15.973 -0.3428 -0.2922 -0.4798
  924MPD2    C213520   2.360   0.864  15.990 -0.4668 -0.3287  0.8810
  924MPD2    C313521   2.368   0.952  15.888  0.7895 -0.5946  0.3258
  924MPD2    C413522   2.391   0.908  15.763  0.2282  0.1998 -0.2244
  924MPD2    C513523   2.430   0.770  15.753  0.2776  0.0673 -0.2211
  924MPD2     H13524   2.339   0.901  16.090 -1.0719  1.3916  0.1234
  924MPD2    H113525   2.392   0.970  15.674  1.5237  1.8157  0.9145
  924MPD2    H213526   2.437   0.578  15.835  0.3946 -0.2125 -2.9588
  924MPD2    H313527   2.460   0.737  15.654 -1.0874  0.2801 -0.7119
  924MPD2     N13528   2.349   1.090  15.895  0.7350  0.1705 -0.4399
  924MPD2    H513529   2.361   1.149  15.813 -1.2925  0.2038 -0.7063
  924MPD2    N113530   2.355   0.634  16.075 -0.2066  0.2896  0.2752
  924MPD2    H713531   2.342   0.538  16.046  3.4933 -0.6878  1.8886
  925MPD2     C13532   1.148   3.169  14.566  0.0731 -0.3656  0.1163
  925MPD2    C113533   1.020   3.147  14.518 -0.1539  0.8536  0.2932
  925MPD2    C213534   0.929   3.075  14.597 -0.5825 -0.0529 -0.5998
  925MPD2    C313535   0.955   3.055  14.730  0.3283 -0.0823  0.2784
  925MPD2    C413536   1.074   3.084  14.782  0.0080  0.1152 -0.8224
  925MPD2    C513537   1.169   3.135  14.696  0.4215  0.5359  0.5419
  925MPD2     H13538   0.835   3.055  14.547 -0.3330  1.2471 -1.5650
  925MPD2    H113539   1.101   3.064  14.885 -3.2641  0.5017  0.1299
  925MPD2    H213540   1.231   3.204  14.506  0.2136  0.3109  0.7142
  925MPD2    H313541   1.272   3.137  14.728  0.5637 -0.5637  0.1871
  925MPD2     N13542   0.854   3.001  14.816 -0.0188  0.2046  0.2080
  925MPD2    H513543   0.876   3.000  14.915 -1.9425 -2.8666  0.6079
  925MPD2    N113544   0.975   3.188  14.389 -0.0077  0.5807  0.0903
  925MPD2    H713545   0.881   3.165  14.357  0.7514 -0.7056 -1.2512
  926MPD2     C13546   4.426   1.714  13.344  0.2391 -0.0945  0.3344
  926MPD2    C113547   4.386   1.843  13.329 -0.5271  0.1505  0.4190
  926MPD2    C213548   4.478   1.934  13.274 -1.1499 -0.6322 -0.6247
  926MPD2    C313549   4.605   1.893  13.238 -0.6057  0.1954  0.5566
  926MPD2    C413550   4.636   1.764  13.265  0.8772  0.1409  0.2220
  926MPD2    C513551   4.552   1.678  13.324 -0.1824 -0.4247 -0.0402
  926MPD2     H13552   4.430   2.028  13.251 -0.7207 -0.3547 -0.3929
  926MPD2    H113553   0.007   1.723  13.238  0.8914  1.5230 -1.8010
  926MPD2    H213554   4.365   1.636  13.388  0.9925 -1.7302 -1.5443
  926MPD2    H313555   4.585   1.575  13.334  2.9275  0.3015 -2.7053
  926MPD2     N13556   4.704   1.976  13.177  0.2074  0.4280 -0.2252
  926MPD2    H513557   0.057   1.926  13.138  1.6796  2.0083  0.6849
  926MPD2    N113558   4.266   1.900  13.382 -1.2076  0.1065 -0.0116
  926MPD2    H713559   4.258   2.001  13.370  3.1824  0.5685  1.1125
  927MPD2     C13560   0.001   4.085   0.251  0.8365  0.3782  0.5324
  927MPD2    C113561   4.687   4.186   0.168  0.5306  0.3483  0.1050
  927MPD2    C213562   4.676   4.157   0.033 -0.1503 -0.1138 -0.2771
  927MPD2    C313563   4.696   4.030  17.681  1.0803 -0.2287  0.2657
  927MPD2    C413564   0.017   3.936   0.067 -0.7367  0.0639  0.2059
  927MPD2    C513565   0.031   3.962   0.197  0.2409  0.1427  0.0125
  927MPD2     H13566   4.647   4.237  17.670 -0.9062  0.2289  0.4688
  927MPD2    H113567   0.042   3.836   0.031 -1.1819 -0.3130  0.9495
  927MPD2    H213568   0.013   4.100   0.358  0.1097  2.0001  0.3983
  927MPD2    H313569   0.055   3.891   0.276 -2.1656  0.4684  1.0319
  927MPD2     N13570   4.666   4.007  17.544 -0.3800 -0.0980  1.0260
  927MPD2    H513571   4.634   4.087  17.490  0.9837 -0.2161  0.0435
  927MPD2    N113572   4.649   4.308   0.230 -0.0793  0.0976 -0.1423
  927MPD2    H713573   4.638   4.306   0.330  1.1129  0.4436  0.0014
  928MPD2     C13574   2.213   1.996   0.714  0.1490 -0.6924  0.1355
  928MPD2    C113575   2.326   2.041   0.783 -0.4575  0.3764  0.1036
  928MPD2    C213576   2.432   2.090   0.715  0.7516 -0.4579  0.1473
  928MPD2    C313577   2.435   2.085   0.573 -0.2826 -0.3181 -0.1753
  928MPD2    C413578   2.322   2.050   0.501  0.4345  0.0061 -0.4157
  928MPD2    C513579   2.210   2.005   0.574 -0.0679  0.7734 -0.0134
  928MPD2     H13580   2.523   2.126   0.761 -0.1406  1.5475  0.3316
  928MPD2    H113581   2.316   2.049   0.393 -1.4039  0.9847 -0.3236
  928MPD2    H213582   2.127   1.943   0.755  0.3024  0.1030  1.4777
  928MPD2    H313583   2.116   1.980   0.526  0.5159 -1.5221  0.0343
  928MPD2     N13584   2.541   2.125   0.488 -0.0725  0.1527  0.1818
  928MPD2    H513585   2.537   2.114   0.387  0.7134  1.3374  0.0248
  928MPD2    N113586   2.323   2.037   0.925  0.3871  0.6084  0.7265
  928MPD2    H713587   2.235   2.006   0.965  0.0623 -0.7878 -1.0509
  929MPD2     C13588   2.533   2.727  10.032 -0.7975 -0.3695 -0.3769
  929MPD2    C113589   2.436   2.635  10.059  0.7181 -0.7010  0.1654
  929MPD2    C213590   2.370   2.571   9.953  0.5901 -0.0883 -0.4829
  929MPD2    C313591   2.398   2.612   9.819  0.4562  0.5420 -0.3038
  929MPD2    C413592   2.508   2.699   9.792  0.6207 -1.0097 -0.2037
  929MPD2    C513593   2.568   2.745   9.904  0.5516  0.0966  0.3230
  929MPD2     H13594   2.274   2.523   9.965 -0.2116  1.1338 -2.0450
  929MPD2    H113595   2.536   2.728   9.691  0.5854  0.3144  0.1716
  929MPD2    H213596   2.588   2.778  10.110 -1.6077 -0.6509  0.3894
  929MPD2    H313597   2.650   2.814   9.888 -1.1036  1.8248 -0.7744
  929MPD2     N13598   2.319   2.566   9.705 -0.1030 -0.2045  0.1216
  929MPD2    H513599   2.333   2.617   9.619 -1.5853 -0.2815 -0.1775
  929MPD2    N113600   2.382   2.627  10.189 -0.1006  0.5644  0.5521
  929MPD2    H713601   2.415   2.703  10.248 -1.3211  1.9008 -0.4664
  930MPD2     C13602   4.063   4.482  13.918  0.1084 -0.3068  0.6446
  930MPD2    C113603   4.036   4.543  13.798  1.1995 -0.1913  0.7270
  930MPD2    C213604   3.918   4.508  13.740  0.0527  0.6478  0.2301
  930MPD2    C313605   3.841   4.402  13.782 -0.1130  0.1286 -0.2918
  930MPD2    C413606   3.885   4.330  13.893 -0.0530  0.2061 -0.2201
  930MPD2    C513607   4.000   4.374  13.962 -0.6156  0.3523  0.8972
  930MPD2     H13608   3.871   4.564  13.660 -1.1117  0.3781  0.7260
  930MPD2    H113609   3.837   4.240  13.927 -3.1513  2.0272  0.2657
  930MPD2    H213610   4.145   4.525  13.973  0.0335  0.2819  0.2938
  930MPD2    H313611   4.041   4.322  14.048 -2.1980 -1.2449  0.6887
  930MPD2     N13612   3.720   4.350  13.728 -0.1442  0.2022  0.2846
  930MPD2    H513613   3.674   4.286  13.793  1.2671 -1.0508  0.0439
  930MPD2    N113614   4.126   4.640  13.753 -0.5369  0.2021 -0.3383
  930MPD2    H713615   4.209   4.647  13.811  1.6862  2.0688 -3.7896
  931MPD2     C13616   0.111   4.530   0.797  0.5415  0.2403 -0.6057
  931MPD2    C113617   4.700   4.502   0.782  0.2748  0.0512 -0.5830
  931MPD2    C213618   4.636   4.408   0.861 -0.0486  0.6840 -0.4973
  931MPD2    C313619   4.707   4.370   0.976  0.6473 -0.3893  0.7163
  931MPD2    C413620   0.115   4.405   0.996 -0.6296  0.2202  0.6776
  931MPD2    C513621   0.179   4.475   0.900  0.3627  0.1143  0.1378
  931MPD2     H13622   4.532   4.381   0.845 -0.7435  2.7013  0.5210
  931MPD2    H113623   0.173   4.366   1.079  1.7127 -0.1623 -1.1305
  931MPD2    H213624   0.163   4.586   0.719  1.8219  1.0966  0.8538
  931MPD2    H313625   0.285   4.500   0.906  0.3233 -0.0639  1.8447
  931MPD2     N13626   4.652   4.265   1.048  0.0660  0.2657  0.2476
  931MPD2    H513627   4.554   4.250   1.025 -0.1519 -1.3859  2.2958
  931MPD2    N113628   4.653   4.556   0.671 -0.0131  0.1045 -0.9438
  931MPD2    H713629   4.722   4.605   0.614  0.5572 -1.9247 -1.9988
  932MPD2     C13630   1.545   2.813  11.171 -0.2670 -0.0033  0.3482
  932MPD2    C113631   1.581   2.932  11.211  0.0320 -0.1989  0.0864
  932MPD2    C213632   1.673   2.941  11.313  0.0037 -0.7092  0.8337
  932MPD2    C313633   1.722   2.829  11.374 -0.0418  0.2391 -0.2167
  932MPD2    C413634   1.677   2.702  11.336  0.1073 -0.2056 -0.1769
  932MPD2    C513635   1.589   2.700  11.233 -0.5528 -0.3760 -0.4162
  932MPD2     H13636   1.704   3.035  11.357  0.5943  0.4139 -1.9966
  932MPD2    H113637   1.704   2.601  11.364 -0.6891 -0.3181  0.1904
  932MPD2    H213638   1.472   2.795  11.093 -0.5294  0.2666  0.5286
  932MPD2    H313639   1.555   2.606  11.189 -3.7775  0.5230  0.2133
  932MPD2     N13640   1.806   2.851  11.485  0.7254 -1.1475 -0.5177
  932MPD2    H513641   1.843   2.943  11.508  1.5070 -1.8315  0.9203
  932MPD2    N113642   1.535   3.052  11.147 -0.5167  0.3899  0.0391
  932MPD2    H713643   1.575   3.142  11.174  0.5162  0.3274 -1.2842
  933MPD2     C13644   1.803   2.153   1.201 -0.9804  1.2273 -0.1429
  933MPD2    C113645   1.907   2.229   1.236  0.6433 -0.0748 -0.2452
  933MPD2    C213646   1.890   2.367   1.239  0.5930 -0.5522  0.1515
  933MPD2    C313647   1.766   2.426   1.207 -0.3525 -0.4309  0.2931
  933MPD2    C413648   1.663   2.344   1.174  0.9472  0.2701  0.1286
  933MPD2    C513649   1.678   2.208   1.172 -0.6100  0.1773 -0.4461
  933MPD2     H13650   1.976   2.431   1.255  0.6900 -0.2255 -1.6431
  933MPD2    H113651   1.564   2.382   1.150 -0.1448 -0.8143  2.9006
  933MPD2    H213652   1.813   2.045   1.195  0.7982  1.4592 -1.4565
  933MPD2    H313653   1.600   2.136   1.148  0.5558 -0.8553 -1.1425
  933MPD2     N13654   1.759   2.568   1.201  0.2546  0.3121  0.1873
  933MPD2    H513655   1.849   2.608   1.227  0.8048 -1.6526  1.3171
  933MPD2    N113656   2.031   2.168   1.258 -0.3117  0.2894  0.1267
  933MPD2    H713657   2.036   2.071   1.227  0.5250 -0.6686  3.2894
  934MPD2     C13658   2.721   4.461   1.736 -0.4216  0.0584 -0.4478
  934MPD2    C113659   2.842   4.450   1.673  0.1611 -0.3284  0.1439
  934MPD2    C213660   2.844   4.415   1.540 -0.8476 -0.0162  0.2669
  934MPD2    C313661   2.724   4.395   1.468  0.2839 -0.1749  0.5898
  934MPD2    C413662   2.604   4.416   1.535 -0.3526  0.8555  0.3192
  934MPD2    C513663   2.601   4.434   1.672  0.0644  0.3148 -0.0051
  934MPD2     H13664   2.938   4.400   1.488  1.3730  0.0892  4.2273
  934MPD2    H113665   2.510   4.398   1.484 -0.0325 -2.1592  0.8390
  934MPD2    H213666   2.706   4.479   1.841  1.0665  1.0819 -0.4196
  934MPD2    H313667   2.514   4.441   1.736  0.7785 -0.4023  1.0446
  934MPD2     N13668   2.710   4.358   1.331  0.2351  0.3299 -1.0520
  934MPD2    H513669   2.620   4.346   1.286 -0.1116 -1.0275  0.0034
  934MPD2    N113670   2.962   4.474   1.742  0.1550 -0.5198 -0.2726
  934MPD2    H713671   3.045   4.472   1.684  0.4879 -0.6840  0.2092
  935MPD2     C13672   3.218   3.826   0.635 -0.4130 -0.2668  0.2466
  935MPD2    C113673   3.085   3.813   0.600 -0.0398  0.0222 -0.0338
  935MPD2    C213674   2.996   3.903   0.654 -0.3150  0.2548  0.1560
  935MPD2    C313675   3.027   3.995   0.754  0.6407  0.1781  0.2445
  935MPD2    C413676   3.155   3.989   0.799 -0.1162 -0.6746 -0.7107
  935MPD2    C513677   3.247   3.901   0.740 -0.1719 -0.0853 -0.9466
  935MPD2     H13678   2.893   3.903   0.618 -0.4017  3.6845  0.4952
  935MPD2    H113679   3.187   4.053   0.881 -2.6643  1.8562 -1.6903
  935MPD2    H213680   3.302   3.780   0.585 -0.0061  0.7770 -0.0340
  935MPD2    H313681   3.350   3.911   0.772 -0.2370 -2.3885 -0.0442
  935MPD2     N13682   2.938   4.090   0.815 -0.1805 -0.2889  0.6497
  935MPD2    H513683   2.984   4.136   0.893  0.8296  2.2304 -1.4058
  935MPD2    N113684   3.037   3.716   0.499  0.5086  0.7239  0.4463
  935MPD2    H713685   2.936   3.703   0.500  0.4622  1.2982  2.1145
  936MPD2     C13686   1.541   1.758  12.311 -0.1771 -0.2466  0.1365
  936MPD2    C113687   1.599   1.644  12.362  0.5420 -0.1730 -0.4163
  936MPD2    C213688   1.711   1.589  12.305 -0.5429  0.6279  0.6116
  936MPD2    C313689   1.771   1.653  12.202  0.2888 -0.4990 -0.5799
  936MPD2    C413690   1.724   1.772  12.162 -0.4303  0.3316 -0.1921
  936MPD2    C513691   1.606   1.819  12.205  0.3051  0.6333  0.1829
  936MPD2     H13692   1.744   1.494  12.346 -0.0223 -1.5791 -4.9148
  936MPD2    H113693   1.772   1.824  12.080  2.5461  0.1589  1.4515
  936MPD2    H213694   1.454   1.812  12.349  1.0505  1.2844  0.7560
  936MPD2    H313695   1.558   1.903  12.156 -0.8435  1.3217  2.5026
  936MPD2     N13696   1.896   1.603  12.148  0.8595  0.4203  0.2686
  936MPD2    H513697   1.944   1.658  12.078 -0.3337 -0.2472 -1.0616
  936MPD2    N113698   1.535   1.564  12.462 -0.0926  0.0849  0.1870
  936MPD2    H713699   1.574   1.471  12.478 -2.1522 -0.5343  1.6280
  937MPD2     C13700   4.275   3.123  11.418 -0.6875 -0.0198 -0.2428
  937MPD2    C113701   4.347   3.236  11.453  0.4978  0.0737 -0.2375
  937MPD2    C213702   4.442   3.261  11.357  0.2295  0.2123 -0.1455
  937MPD2    C313703   4.484   3.180  11.255  0.5534 -0.3087 -0.3327
  937MPD2    C413704   4.418   3.062  11.235 -0.2817  0.2379  0.1176
  937MPD2    C513705   4.307   3.040  11.311 -0.0506 -0.9320  0.3669
  937MPD2     H13706   4.507   3.345  11.374  0.8572 -0.5667  1.3408
  937MPD2    H113707   4.455   2.973  11.186 -2.1887 -1.0242  0.9490
  937MPD2    H213708   4.189   3.090  11.474 -0.1758 -0.1952  0.4316
  937MPD2    H313709   4.248   2.950  11.303 -0.1630 -0.8896  0.7123
  937MPD2     N13710   4.592   3.222  11.164  0.5305 -0.3621 -0.1097
  937MPD2    H513711   4.645   3.303  11.195  1.4182 -1.4934  1.3264
  937MPD2    N113712   4.303   3.344  11.530  0.3556  0.2337  0.3112
  937MPD2    H713713   4.355   3.431  11.529  0.8442 -0.0607 -0.3361
  938MPD2     C13714   2.357   4.059   0.357 -0.0852 -0.5967  0.1474
  938MPD2    C113715   2.268   4.107   0.448 -0.4139 -0.2151  0.4211
  938MPD2    C213716   2.249   4.038   0.561  0.1567 -0.3314 -0.9066
  938MPD2    C313717   2.313   3.913   0.586  0.0810  0.0178 -0.3503
  938MPD2    C413718   2.394   3.867   0.491 -0.2899  0.1305 -0.1123
  938MPD2    C513719   2.418   3.937   0.381  0.3798 -0.0492  0.3357
  938MPD2     H13720   2.188   4.083   0.638  0.3106 -1.3612 -0.1795
  938MPD2    H113721   2.425   3.763   0.491  2.8349  1.0552  1.5279
  938MPD2    H213722   2.380   4.102   0.260 -2.0560 -1.6065 -0.7628
  938MPD2    H313723   2.484   3.897   0.305  1.2409  0.9891  0.5305
  938MPD2     N13724   2.285   3.832   0.703  0.1197  0.1703 -0.1769
  938MPD2    H513725   2.348   3.754   0.719 -0.1935  0.1721  1.0341
  938MPD2    N113726   2.203   4.233   0.436  0.6304  0.0062  0.0825
  938MPD2    H713727   2.163   4.276   0.519 -0.3676 -2.3853  0.8599
  939MPD2     C13728   3.137   0.502   0.867  0.3847  0.0281 -0.0061
  939MPD2    C113729   3.111   0.569   0.753  0.0382  0.3516 -0.7646
  939MPD2    C213730   3.219   0.609   0.677 -0.5800  0.3383 -0.0539
  939MPD2    C313731   3.345   0.576   0.720  0.0113 -0.6614  0.8097
  939MPD2    C413732   3.371   0.504   0.835 -0.3929 -0.3255  0.5815
  939MPD2    C513733   3.261   0.465   0.905  0.0986  0.1064 -0.2336
  939MPD2     H13734   3.218   0.686   0.601  0.5274 -1.5451 -2.0061
  939MPD2    H113735   3.471   0.476   0.866  0.2842  0.3567 -1.0069
  939MPD2    H213736   3.060   0.471   0.937  0.3219 -0.8813 -0.4857
  939MPD2    H313737   3.278   0.411   0.997  2.0258  0.1484 -0.5529
  939MPD2     N13738   3.452   0.604   0.627 -0.1137  0.4151 -0.3500
  939MPD2    H513739   3.425   0.665   0.551 -0.4982  0.6810 -0.0010
  939MPD2    N113740   2.975   0.591   0.725 -0.2920  0.1184  0.1382
  939MPD2    H713741   2.909   0.543   0.785  0.0638 -1.1461 -0.4721
  940MPD2     C13742   2.892   0.963  12.638 -0.0588  0.4778  0.1140
  940MPD2    C113743   2.794   1.058  12.637  0.0822  0.2270  0.3315
  940MPD2    C213744   2.731   1.093  12.520  0.5376  0.2133  0.8192
  940MPD2    C313745   2.768   1.035  12.404  0.0579 -0.3168  0.2085
  940MPD2    C413746   2.860   0.931  12.406 -0.7415  0.1297 -0.0772
  940MPD2    C513747   2.926   0.891  12.525 -0.0623 -0.1806  0.2440
  940MPD2     H13748   2.651   1.166  12.531  0.0677 -0.1532 -0.1725
  940MPD2    H113749   2.894   0.885  12.314  2.7732  2.1827  0.2064
  940MPD2    H213750   2.948   0.938  12.727  2.5993  0.8099 -1.4614
  940MPD2    H313751   3.006   0.819  12.535  0.5180  0.3116 -0.8501
  940MPD2     N13752   2.728   1.078  12.275  0.1424  0.0313 -0.2330
  940MPD2    H513753   2.754   1.025  12.193  1.1022 -0.8589  0.6437
  940MPD2    N113754   2.748   1.111  12.760  0.3270 -0.0081  0.7826
  940MPD2    H713755   2.672   1.178  12.751 -0.4403 -0.7026  2.1304
  941MPD2     C13756   1.661   1.240  10.455  0.1085  0.3692 -0.5553
  941MPD2    C113757   1.798   1.229  10.419  0.3622  0.8533  0.1470
  941MPD2    C213758   1.842   1.100  10.390  0.4704  0.4307 -0.2154
  941MPD2    C313759   1.764   0.986  10.411  0.3816 -0.1706  0.0398
  941MPD2    C413760   1.637   0.999  10.451 -0.1666 -0.4868 -0.1955
  941MPD2    C513761   1.593   1.124  10.475  0.1950  0.2112  0.0742
  941MPD2     H13762   1.943   1.090  10.351  0.0621  1.0741 -1.4027
  941MPD2    H113763   1.572   0.916  10.476  3.5133 -2.0951  4.2396
  941MPD2    H213764   1.614   1.334  10.484  0.0257 -0.0994  0.8225
  941MPD2    H313765   1.492   1.133  10.514 -0.4522  0.8389 -1.7411
  941MPD2     N13766   1.807   0.853  10.386 -0.1789  0.2771  0.5243
  941MPD2    H513767   1.764   0.774  10.432  0.0563 -0.6082 -0.7492
  941MPD2    N113768   1.890   1.338  10.421  0.0209 -0.2078 -0.0612
  941MPD2    H713769   1.978   1.316  10.375 -1.4769 -0.7116 -2.7263
  942MPD2     C13770   1.794   2.016   9.729  0.5364  0.3446 -0.9216
  942MPD2    C113771   1.790   2.079   9.612 -0.8306  0.1318 -0.2277
  942MPD2    C213772   1.909   2.106   9.539  0.2421  0.1096 -0.0544
  942MPD2    C313773   2.028   2.074   9.595 -0.3621  1.2100 -0.0046
  942MPD2    C413774   2.040   2.011   9.716  0.5035  0.4925  0.2123
  942MPD2    C513775   1.922   1.988   9.779 -0.7452  0.1766 -0.1217
  942MPD2     H13776   1.908   2.159   9.444  0.6667 -1.1010 -0.7407
  942MPD2    H113777   2.133   1.979   9.762 -0.4164 -0.0795  1.6734
  942MPD2    H213778   1.704   1.996   9.786  2.0323  1.2804  1.8175
  942MPD2    H313779   1.933   1.936   9.874  1.2464 -0.0248 -0.4630
  942MPD2     N13780   2.151   2.089   9.522  0.3195  0.0513  0.1051
  942MPD2    H513781   2.232   2.042   9.562  0.8731  1.2559  0.3896
  942MPD2    N113782   1.665   2.120   9.549 -0.0238 -0.1447  0.6707
  942MPD2    H713783   1.685   2.175   9.466 -0.5454  0.7661  1.1449
  943MPD2     C13784   0.602   4.514   8.691 -0.3172 -0.1122  0.1651
  943MPD2    C113785   0.535   4.524   8.810 -0.3304 -0.5011  0.0265
  943MPD2    C213786   0.585   4.588   8.916  0.6748 -0.2464  0.0946
  943MPD2    C313787   0.718   4.629   8.910  0.5175  0.4430  0.0001
  943MPD2    C413788   0.800   4.598   8.797 -0.1301 -0.7514 -0.7057
  943MPD2    C513789   0.735   4.550   8.692 -0.3514  0.3278  0.3666
  943MPD2     H13790   0.532   4.592   9.011 -1.1959 -1.3991 -0.9184
  943MPD2    H113791   0.904   4.626   8.794 -0.0903 -0.9483 -1.1622
  943MPD2    H213792   0.551   4.465   8.609 -0.4828 -0.5172  0.5131
  943MPD2    H313793   0.787   4.528   8.599  0.9061  0.2080  1.0934
  943MPD2     N13794   0.788   4.704   9.008 -0.2188 -0.1131 -0.3241
  943MPD2    H513795   0.885   0.007   8.997 -0.5232  0.6112 -1.1152
  943MPD2    N113796   0.403   4.472   8.812  0.9199  1.1211 -0.1682
  943MPD2    H713797   0.371   4.421   8.730  4.1650 -0.5575 -0.4075
  944MPD2     C13798   4.331   4.434  10.666 -0.6538 -0.2041 -1.0844
  944MPD2    C113799   4.444   4.514  10.664 -0.0215 -0.0686  0.1082
  944MPD2    C213800   4.508   4.540  10.786 -0.4648 -0.1628  0.2299
  944MPD2    C313801   4.470   4.490  10.906 -0.7766 -0.1348  0.0205
  944MPD2    C413802   4.354   4.417  10.908  0.0869  0.3548  0.4947
  944MPD2    C513803   4.293   4.388  10.794  0.2023  0.6168 -0.0595
  944MPD2     H13804   4.605   4.589  10.783 -1.8650  2.7338  2.0976
  944MPD2    H113805   4.321   4.372  11.001  0.5171 -1.6499 -0.3095
  944MPD2    H213806   4.259   4.413  10.588 -0.4659  1.7446 -1.7973
  944MPD2    H313807   4.208   4.322  10.787  0.9264 -0.2657 -0.5883
  944MPD2     N13808   4.542   4.519  11.025 -0.5587  0.6528 -0.7575
  944MPD2    H513809   4.628   4.573  11.019 -0.3962  0.3969 -0.7008
  944MPD2    N113810   4.487   4.568  10.544 -0.8202  0.5515 -0.0191
  944MPD2    H713811   4.428   4.530  10.471 -0.2690 -0.6261  0.1512
    1TCq1    O113812   2.646   0.145  14.106 -0.1690 -0.6623 -0.0837
    1TCq1    C113813   2.623   0.016  14.118 -0.1160 -0.6193  0.2595
    1TCq1    O213814   2.578   4.661  14.034  0.4870  0.3935  0.4370
    1TCq1    C213815   2.620   4.715  14.260 -0.3512  0.2123  0.1240
    1TCq1    C313816   2.547   4.605  14.300 -0.0275  0.0408  0.0821
    1TCq1    C413817   2.543   4.582  14.434  0.9406 -0.7868 -0.3952
    1TCq1    C513818   2.614   4.662  14.525  0.1491  0.1421  0.2939
    1TCq1    C613819   2.685   0.043  14.476  0.3147 -0.1093 -0.2699
    1TCq1    C713820   2.695   0.076  14.340 -0.0844 -0.6456  0.8354
    1TCq1    C813821   2.724   0.139  14.569  0.3325 -0.5809  0.3327
    1TCq1    O413822   2.705   0.113  14.689 -0.0758 -0.0366 -0.2322
    1TCq1    C913823   2.461   4.469  14.480 -0.2278  0.0240  0.1939
    1TCq1    O513824   2.395   4.414  14.387  0.3346 -0.3501 -0.0695
    1TCq1    O613825   2.479   4.419  14.594  0.7079 -0.2221 -0.1220
    1TCq1    H113826   2.670   0.192  14.189  1.4123  0.4380 -1.1718
    1TCq1    H213827   2.497   4.540  14.229 -2.1532  0.4966  1.1871
    1TCq1    H313828   2.613   4.637  14.630  1.5098  0.1844  0.3165
    1TCq1    H413829   2.779   0.128  14.295  0.1462 -1.1748  0.6429
    2MPD2     C13830   2.948   0.583  14.700 -0.2844 -0.2572  0.0292
    2MPD2    C113831   2.940   0.578  14.564  0.4080 -0.3007  0.6075
    2MPD2    C213832   2.875   0.467  14.502  0.4349  0.2094 -0.1507
    2MPD2    C313833   2.835   0.360  14.582  0.7118  0.1275  0.0640
    2MPD2    C413834   2.846   0.374  14.719  0.3348 -0.2750 -0.0530
    2MPD2    C513835   2.904   0.479  14.778  0.5421 -0.4281  0.2239
    2MPD2     H13836   2.865   0.460  14.394  1.3189  0.6357 -0.2558
    2MPD2    H113837   2.818   0.297  14.790 -0.2975 -0.2224 -0.2435
    2MPD2    H213838   3.005   0.666  14.742 -0.1627  0.1134 -0.8665
    2MPD2    H313839   2.915   0.485  14.885 -0.0444 -1.4435  0.3288
    2MPD2     N13840   2.776   0.251  14.508  0.6826  0.0499  0.2253
    2MPD2    H513841   2.777   0.260  14.407  0.8130 -2.7870 -0.0184
    2MPD2    N113842   3.018   0.674  14.493  0.0245 -0.0082 -0.0696
    2MPD2    H713843   3.092   0.722  14.544  1.7775 -2.0908 -0.6832
    3TMC2    C113844   3.123   0.762  14.311  0.2430  0.2633  0.1397
    3TMC2    C213845   3.151   0.882  14.376 -0.8023 -0.1058  0.1260
    3TMC2    C313846   3.217   0.975  14.301 -0.4498 -0.4539  0.1431
    3TMC2    C413847   3.150   0.748  14.175 -0.4323  0.0146 -0.7863
    3TMC2    C513848   3.197   0.850  14.104  0.2376 -0.2199  0.1892
    3TMC2    C613849   3.236   0.969  14.165 -0.2999  0.3048 -0.2122
    3TMC2     C13850   3.012   0.689  14.356 -0.3984  0.0146 -0.1768
    3TMC2     O13851   2.922   0.657  14.276  0.5802 -0.0166  0.0699
    3TMC2     H13852   3.120   0.911  14.475 -1.3484  1.1435 -0.4168
    3TMC2    H113853   3.102   0.665  14.123 -1.1736 -0.9723  1.4891
    3TMC2    H213854   3.288   1.054  14.125 -1.3886  0.7044 -0.7853
    3TMC2    C713855   3.201   0.830  13.960 -0.0562 -0.3323  0.4976
    3TMC2    C813856   3.202   1.106  14.349 -0.3705 -0.5860  0.3287
    3TMC2    O113857   3.190   0.718  13.916  0.1985  0.0630  0.7471
    3TMC2    O213858   3.181   1.203  14.278  0.2944  0.3174 -0.7740
    3TMC2    O513859   3.230   1.118  14.483 -0.3177 -0.2291  0.2777
    3TMC2    H513860   3.285   1.048  14.522  1.4715  0.5838 -0.7963
    4MPD2     C13861   2.704   1.629  12.839 -0.4816 -0.8220 -0.4068
    4MPD2    C113862   2.663   1.695  12.953 -0.0111  0.6206 -0.3172
    4MPD2    C213863   2.762   1.716  13.054  0.1738 -0.0252 -0.8930
    4MPD2    C313864   2.887   1.659  13.046 -0.3784  0.4453 -0.5441
    4MPD2    C413865   2.916   1.589  12.934 -0.3330 -0.2327  0.5157
    4MPD2    C513866   2.827   1.568  12.831 -0.3178 -0.5111 -0.2037
    4MPD2     H13867   2.743   1.779  13.141  0.8517 -1.8288  0.5593
    4MPD2    H113868   3.012   1.540  12.932 -0.0050  0.4381 -0.0338
    4MPD2    H213869   2.643   1.620  12.749 -0.1705  0.8389 -0.7834
    4MPD2    H313870   2.858   1.515  12.742 -0.0395 -1.3733  0.4042
    4MPD2     N13871   2.967   1.663  13.163 -0.0799  0.3820  0.1339
    4MPD2    H513872   2.932   1.717  13.242  0.5977  0.4537  0.3835
    4MPD2    N113873   2.535   1.752  12.961  0.0712  0.4370  0.0609
    4MPD2    H713874   2.473   1.725  12.885 -0.0165  0.5301  0.0986
    5TCq2    C113875   3.077   1.589  13.189 -0.2373 -1.3038 -0.5952
    5TCq2    O213876   3.123   1.490  13.136 -0.4433 -0.5360  0.1904
    5TCq2    C213877   3.124   1.620  13.323  0.8019 -0.7019  0.0947
    5TCq2    C313878   3.110   1.749  13.373  0.4493 -0.5087  0.4643
    5TCq2    C413879   3.123   1.764  13.511  0.0819 -0.1837 -0.2024
    5TCq2    C513880   3.153   1.660  13.594 -0.2581  0.2445  0.0583
    5TCq2    C613881   3.187   1.538  13.534 -0.0505  0.1161  0.8900
    5TCq2    C713882   3.163   1.512  13.395  0.0763  0.6073 -0.7185
    5TCq2    C813883   3.188   1.415  13.616  0.2223 -0.6802  1.0189
    5TCq2    O413884   3.210   1.420  13.739 -0.5249 -1.1407  0.2258
    5TCq2    C913885   3.090   1.892  13.578 -0.1844  0.1572 -0.6237
    5TCq2    O513886   3.146   1.912  13.696 -0.3000  0.5002 -0.3635
    5TCq2    O613887   3.033   1.986  13.512  0.2029 -0.4775 -0.6870
    5TCq2    H213888   3.073   1.835  13.319  2.0921  1.0532  1.8232
    5TCq2    H313889   3.160   1.674  13.702  0.3096 -2.8767  0.4220
    5TCq2    H413890   3.182   1.418  13.345 -0.0960 -0.8587  1.9815
    6MPD1     C13891   1.683   3.544  13.200  0.2304  0.1886 -0.3247
    6MPD1    C113892   1.630   3.450  13.278  0.0554 -0.4684  0.5450
    6MPD1    C213893   1.666   3.318  13.271  0.2694  0.0137  0.2366
    6MPD1    C313894   1.755   3.277  13.179  0.0233 -0.9772 -0.0138
    6MPD1    C413895   1.816   3.370  13.095  0.4525 -0.3865 -0.0588
    6MPD1    C513896   1.777   3.501  13.107 -0.0393  0.2067 -0.0389
    6MPD1     H13897   1.618   3.259  13.347 -0.2442  1.0109  0.6930
    6MPD1    H113898   1.897   3.337  13.031  2.3666  0.1421  2.0692
    6MPD1    H213899   1.654   3.648  13.210 -0.6461 -0.1460  0.5687
    6MPD1    H313900   1.839   3.571  13.053 -0.2629 -0.2655 -0.9185
    6MPD1     N13901   1.800   3.143  13.168  0.4663  0.3002  0.0985
    6MPD1    H513902   1.876   3.116  13.107  1.4303  2.0311  0.5200
    6MPD1    N113903   1.556   3.490  13.386  0.3326  0.4257  0.7080
    6MPD1    H613904   1.496   3.567  13.358 -0.4283 -1.0075 -1.6127
    6MPD1    H713905   1.489   3.420  13.416 -0.1573  0.2751 -0.7015
    7MPD2     C13906   2.002   2.350  13.599  0.1531 -0.2504 -0.6156
    7MPD2    C113907   1.995   2.363  13.465  0.0382 -0.0512  0.2163
    7MPD2    C213908   2.042   2.267  13.384 -0.0868  0.5284 -0.2325
    7MPD2    C313909   2.076   2.138  13.433  0.2111  0.4537 -0.7437
    7MPD2    C413910   2.079   2.118  13.563 -0.1810  0.8956  0.4173
    7MPD2    C513911   2.041   2.226  13.641  0.8240 -0.0476  0.0284
    7MPD2     H13912   2.050   2.287  13.278  3.2508 -1.2090 -0.2842
    7MPD2    H113913   2.115   2.033  13.619  0.9007  1.8019  1.1046
    7MPD2    H213914   1.971   2.429  13.666 -0.6668 -0.7217 -0.4420
    7MPD2    H313915   2.035   2.215  13.748 -0.1861  2.2098  0.1839
    7MPD2     N13916   2.116   2.029  13.352  0.6001 -0.0663 -0.1618
    7MPD2    H513917   2.165   1.956  13.403  0.5388  0.2404  0.3330
    7MPD2    N113918   1.957   2.489  13.397  0.5394  0.1809  0.1240
    7MPD2    H713919   1.944   2.486  13.296 -0.0547  0.3783  0.1935
    8TMC3    C113920   2.135   1.914  13.139  0.2428 -0.1759 -0.4252
    8TMC3    C213921   2.273   1.900  13.159 -0.0697  0.2951 -0.8094
    8TMC3    C313922   2.345   1.866  13.046 -0.2274 -0.3997  0.1769
    8TMC3    C413923   2.081   1.929  13.011  0.0854  0.5575 -1.1528
    8TMC3    C513924   2.169   1.926  12.902  0.2866  0.7643 -0.0961
    8TMC3    C613925   2.299   1.888  12.917  0.2399 -0.5658  0.8192
    8TMC3     C13926   2.078   2.016  13.219  0.2192  0.3392  0.2479
    8TMC3     O13927   2.012   2.097  13.151  0.3328  0.3395 -0.5293
    8TMC3     H13928   2.322   1.894  13.256 -1.1251 -1.0222 -0.3549
    8TMC3    H113929   1.981   1.964  12.990 -1.1962 -1.4491  1.5772
    8TMC3    H213930   2.370   1.883  12.835  2.1212 -0.6750  2.4756
    8TMC3    C713931   2.150   2.034  12.811  0.2909  0.5163  0.5233
    8TMC3    C813932   2.481   1.823  13.064 -0.0245  0.1704 -0.3312
    8TMC3    O113933   2.225   2.020  12.713  0.8464  0.1861 -0.5869
    8TMC3    O213934   2.532   1.861  13.168  0.1616  0.1837  0.3483
    9TMC3    C113935   1.857   2.920  13.245 -0.7197 -0.1377  0.0373
    9TMC3    C213936   1.893   2.888  13.115 -0.5172 -0.1026 -0.3672
    9TMC3    C313937   1.968   2.775  13.115  0.4190  0.2312  0.6581
    9TMC3    C413938   1.855   2.826  13.356 -0.5760  0.1606 -0.0622
    9TMC3    C513939   1.922   2.711  13.340 -0.4584  0.7418 -0.5346
    9TMC3    C613940   1.989   2.689  13.221  0.2391 -0.3089 -0.1557
    9TMC3     C13941   1.778   3.041  13.261  0.6143 -0.2430 -0.0528
    9TMC3     O13942   1.719   3.059  13.368  0.5950  0.3441  0.4646
    9TMC3     H13943   1.869   2.954  13.032 -1.2734  0.7353  0.5167
    9TMC3    H113944   1.819   2.860  13.452 -1.6973  1.5860 -0.9778
    9TMC3    H213945   2.058   2.606  13.214  0.7054 -0.0079  0.8313
    9TMC3    C713946   1.937   2.612  13.451 -0.1757  0.1724  0.6228
    9TMC3    C813947   2.007   2.725  12.986  0.3221 -0.6456  1.1512
    9TMC3    O113948   1.926   2.654  13.564 -0.1888 -0.1208  0.3770
    9TMC3    O213949   2.026   2.811  12.896 -0.1110 -0.2175  0.1306
   10MPD2     C13950   2.133   2.312  12.711 -0.0656 -0.1121  0.4323
   10MPD2    C113951   2.080   2.273  12.825 -0.8076 -0.5105  0.3698
   10MPD2    C213952   2.030   2.370  12.906  0.0228  0.5024  0.3749
   10MPD2    C313953   2.048   2.503  12.886 -0.3578 -0.1450 -0.7883
   10MPD2    C413954   2.126   2.540  12.783 -0.0714 -0.0181  0.6686
   10MPD2    C513955   2.148   2.450  12.684  0.0814 -0.2434 -0.2103
   10MPD2     H13956   1.980   2.348  13.000 -1.3000  0.1435 -0.4090
   10MPD2    H113957   2.133   2.646  12.759 -0.5945  0.3504  2.1595
   10MPD2    H213958   2.173   2.241  12.639 -0.8284  0.5271 -0.6241
   10MPD2    H313959   2.206   2.487  12.600 -1.0754  0.9084 -0.4975
   10MPD2     N13960   2.009   2.590  12.987  0.0912 -0.0565  0.3601
   10MPD2    H513961   1.983   2.544  13.074  0.3202 -0.4229  0.2393
   10MPD2    N113962   2.081   2.138  12.868 -0.6280 -0.1908  0.6458
   10MPD2    H713963   2.045   2.125  12.962  0.7235 -0.6383  1.0965
   11MPD2     C13964   3.134   0.899  13.673 -0.9709 -0.0859  0.0172
   11MPD2    C113965   3.182   0.987  13.767  0.6197 -0.9358  0.8506
   11MPD2    C213966   3.184   1.123  13.727 -0.6902 -0.0574 -0.3268
   11MPD2    C313967   3.159   1.157  13.598  0.7060  0.5375 -0.0310
   11MPD2    C413968   3.119   1.063  13.507  0.1148  0.1060 -0.0874
   11MPD2    C513969   3.119   0.931  13.543 -0.1494  0.1114 -0.3404
   11MPD2     H13970   3.238   1.182  13.800  0.0211 -0.9635 -0.1165
   11MPD2    H113971   3.098   1.091  13.405  1.0931 -0.2957 -0.3983
   11MPD2    H213972   3.102   0.798  13.696 -0.8823 -0.1991 -0.3592
   11MPD2    H313973   3.082   0.855  13.475  0.8981 -2.1138  1.5564
   11MPD2     N13974   3.165   1.295  13.547 -0.8092 -0.3401  0.1397
   11MPD2    H513975   3.134   1.298  13.451  1.3415 -0.4677 -0.5545
   11MPD2    N113976   3.202   0.953  13.903  0.1012 -0.1921 -0.0209
   11MPD2    H713977   3.222   1.019  13.978 -0.6284  0.0956 -0.0776
    1MPD1     C13978   0.786   2.761  16.557  0.5319  0.6473 -0.6154
    1MPD1    C113979   0.747   2.870  16.634 -0.0049  0.2695 -0.0196
    1MPD1    C213980   0.835   2.901  16.739  0.0747 -0.1751 -0.3382
    1MPD1    C313981   0.961   2.848  16.754 -0.1212 -0.1251 -0.8193
    1MPD1    C413982   0.992   2.743  16.668 -1.9736  0.4179 -0.4005
    1MPD1    C513983   0.904   2.704  16.568 -0.0268  1.2068  0.5111
    1MPD1     H13984   0.820   2.990  16.799 -1.0714  0.8991 -2.2015
    1MPD1    H113985   1.092   2.704  16.652 -1.1606  1.6374  1.6793
    1MPD1    H213986   0.715   2.738  16.478  0.2956  1.2906 -0.5894
    1MPD1    H313987   0.937   2.641  16.487 -0.9419  1.5094 -0.0911
    1MPD1     N13988   1.052   2.888  16.848  0.4524 -0.3392 -0.0315
    1MPD1    H513989   1.139   2.837  16.841  0.3318 -0.2749 -1.8179
    1MPD1    N113990   0.616   2.914  16.634 -0.1675 -0.4024  1.0371
    1MPD1    H613991   0.573   2.903  16.543  2.0233 -0.3266 -0.0184
    1MPD1    H713992   0.610   3.011  16.666  0.4739  0.4591 -1.4621
    2MPD1     C13993   1.450   3.406   0.031 -0.1958  0.0308 -0.5432
    2MPD1    C113994   1.559   3.330  17.683 -0.2243 -0.4047  0.3971
    2MPD1    C213995   1.533   3.261  17.567 -0.8497  0.3082  0.8154
    2MPD1    C313996   1.418   3.278  17.491  0.3743  0.2589  0.5514
    2MPD1    C413997   1.324   3.364  17.542 -0.1427  0.0714 -0.1789
    2MPD1    C513998   1.336   3.420  17.664  0.1216  0.0072 -0.0401
    2MPD1     H13999   1.596   3.177  17.538 -0.4216  1.6624 -2.1951
    2MPD1    H114000   1.229   3.394  17.499 -0.9872 -1.2914  0.7169
    2MPD1    H214001   1.462   3.455   0.126  2.4953 -1.0444 -0.2991
    2MPD1    H314002   1.264   3.489   0.001  0.6762  0.0319  0.9092
    2MPD1     N14003   1.395   3.202  17.372 -0.0115 -0.3797 -0.8729
    2MPD1    H514004   1.474   3.166  17.320  2.2898  1.5371  1.3485
    2MPD1    N114005   1.667   3.290   0.061 -0.1018 -0.7419  0.0927
    2MPD1    H614006   1.693   3.362   0.128 -0.3752 -0.7646  0.2252
    2MPD1    H714007   1.753   3.263   0.014  1.0761 -0.0472  1.8709
    3TMC3    C114008   1.282   3.090  17.208 -0.0712  1.5665 -0.4793
    3TMC3    C214009   1.400   3.033  17.173 -0.1553 -0.3990 -0.0078
    3TMC3    C314010   1.388   2.939  17.069 -0.2998  0.2862 -0.5455
    3TMC3    C414011   1.170   3.072  17.131 -0.2226 -0.1602 -0.0097
    3TMC3    C514012   1.165   2.982  17.033 -0.9313 -0.4427 -0.0115
    3TMC3    C614013   1.274   2.921  16.997  0.6192  0.0710 -0.2270
    3TMC3     C14014   1.268   3.182  17.315 -0.4298 -0.6756  0.2657
    3TMC3     O14015   1.159   3.195  17.363  0.3926 -0.2602  0.3536
    3TMC3     H14016   1.491   3.016  17.229  1.3528  0.5329 -2.1535
    3TMC3    H114017   1.074   3.113  17.159  2.1098  3.4006  2.8076
    3TMC3    H214018   1.286   2.850  16.915 -2.6558 -2.2419  1.2975
    3TMC3    C714019   1.034   2.969  16.959  0.3587 -0.0147 -0.2627
    3TMC3    C814020   1.508   2.862  17.020  0.8727 -0.0929  0.6906
    3TMC3    O114021   0.929   3.018  16.998  0.5868 -0.5314 -0.0875
    3TMC3    O214022   1.491   2.750  16.964  0.2053 -0.6620 -0.5108
    4MPD1     C14023   2.013   2.817  16.959  0.1884  0.0552 -0.1285
    4MPD1    C114024   2.000   2.940  17.013 -0.6711  0.1597  1.0792
    4MPD1    C214025   1.874   2.974  17.053 -0.6500 -0.0738  0.1558
    4MPD1    C314026   1.761   2.892  17.023 -0.7879  0.4727 -0.1752
    4MPD1    C414027   1.789   2.771  16.959 -0.2296 -0.5460  0.5929
    4MPD1    C514028   1.911   2.729  16.936  0.0177 -0.1518  0.4834
    4MPD1     H14029   1.859   3.071  17.099 -1.6534  2.1719 -4.8811
    4MPD1    H114030   1.712   2.704  16.921 -0.5581 -0.2757  0.7805
    4MPD1    H214031   2.111   2.783  16.926  0.6298  2.2368 -1.0625
    4MPD1    H314032   1.934   2.635  16.887 -1.9845 -0.5957  0.3674
    4MPD1     N14033   1.629   2.931  17.046 -0.1034  0.2388 -0.3311
    4MPD1    H514034   1.622   3.018  17.097 -2.1016 -0.7079  1.0095
    4MPD1    N114035   2.114   3.012  17.058  0.3694  0.3538 -0.0985
    4MPD1    H614036   2.190   3.011  16.990  1.2747  1.4974  0.8765
    4MPD1    H714037   2.087   3.110  17.059 -0.1918  0.1844  1.7385
    1TCq1    O114038   2.715   2.958  11.580 -0.0392 -0.0938 -0.3349
    1TCq1    C114039   2.690   3.088  11.585 -0.0175 -0.5563 -0.5738
    1TCq1    O214040   2.772   3.172  11.610  0.7899 -0.5175 -0.0827
    1TCq1    C214041   2.576   3.098  11.672  0.5334 -0.5783  0.2253
    1TCq1    C314042   2.608   3.056  11.796 -0.2718 -0.2603 -0.1647
    1TCq1    C414043   2.526   3.099  11.902  0.0652  0.9665  0.3573
    1TCq1    C514044   2.418   3.173  11.872 -0.0737  0.1851 -0.0472
    1TCq1    C614045   2.393   3.218  11.746 -0.8431  0.9383  0.5291
    1TCq1    C714046   2.470   3.178  11.639  1.3479 -0.4754 -0.2314
    1TCq1    C814047   2.293   3.324  11.714  0.7167 -0.4494 -0.1614
    1TCq1    O414048   2.248   3.335  11.598  0.5388  0.4929 -0.6374
    1TCq1    C914049   2.513   3.012  12.013  0.1453  0.6858 -0.1906
    1TCq1    O514050   2.416   3.035  12.088 -0.1372 -0.1503  0.3427
    1TCq1    O614051   2.563   2.898  11.998 -0.0581  0.0377  0.2702
    1TCq1    H114052   2.632   2.907  11.571  0.2389 -0.9135  1.8156
    1TCq1    H214053   2.701   3.005  11.820 -1.2481 -0.8500  2.4187
    1TCq1    H314054   2.340   3.183  11.947 -0.1767  0.8127 -0.2347
    1TCq1    H414055   2.458   3.229  11.544 -3.9150  2.1909  1.8874
    2MPD1     C14056   1.982   3.697  11.894 -0.5569  0.0360  0.3303
    2MPD1    C114057   2.075   3.669  11.992  0.4618  0.6055  0.2158
    2MPD1    C214058   2.165   3.570  11.974  0.5616  0.0076 -0.0915
    2MPD1    C314059   2.171   3.504  11.851  0.9668 -0.1150 -0.0724
    2MPD1    C414060   2.074   3.528  11.756 -0.0972  0.0283 -0.3551
    2MPD1    C514061   1.990   3.638  11.776  1.3426 -0.5859 -0.4666
    2MPD1     H14062   2.234   3.549  12.055  1.2840  3.0766  0.0810
    2MPD1    H114063   2.063   3.469  11.666  3.1404  0.9913 -1.3809
    2MPD1    H214064   1.907   3.773  11.909  0.4366  1.3804 -1.4454
    2MPD1    H314065   1.922   3.667  11.697  1.0217  1.5446  0.5802
    2MPD1     N14066   2.262   3.400  11.830  0.6574 -0.3391  0.7972
    2MPD1    H514067   2.313   3.380  11.915  0.9468 -1.3986  0.3789
    2MPD1    N114068   2.069   3.739  12.118 -0.2212  0.2874 -0.1404
    2MPD1    H614069   1.996   3.810  12.108 -0.2420 -0.2103 -3.7724
    2MPD1    H714070   2.063   3.677  12.198  0.7684  0.5546  0.1399
    1TCq1    O114071   2.894   4.101   8.859 -0.4341 -0.0300 -0.7096
    1TCq1    C114072   2.781   4.058   8.791  0.0091  0.3531 -0.9552
    1TCq1    O214073   2.692   4.129   8.743 -0.3322 -0.5512 -0.1461
    1TCq1    C214074   2.759   3.917   8.804 -0.4693  0.8747  0.0339
    1TCq1    C314075   2.706   3.850   8.696 -0.1753  0.1858  0.3002
    1TCq1    C414076   2.714   3.710   8.696  0.0756  0.3974  0.3988
    1TCq1    C514077   2.773   3.640   8.799  0.5244 -0.2667  0.5190
    1TCq1    C614078   2.818   3.721   8.907  0.1124 -0.3888  0.3809
    1TCq1    C714079   2.809   3.855   8.912 -0.2194 -0.3675 -0.1760
    1TCq1    C814080   2.880   3.667   9.019  0.4018  0.2819 -0.3307
    1TCq1    O414081   2.907   3.745   9.109  0.4856 -0.0624  0.4265
    1TCq1    C914082   2.718   3.646   8.573 -0.1129 -0.1776 -0.1112
    1TCq1    O514083   2.647   3.698   8.482 -0.3466  0.1348  0.9233
    1TCq1    O614084   2.790   3.544   8.569 -0.5240 -0.0038 -0.0320
    1TCq1    H114085   2.966   4.036   8.877  0.5590  1.5231  0.9598
    1TCq1    H214086   2.683   3.894   8.600 -0.1900 -1.4539 -0.4318
    1TCq1    H314087   2.767   3.532   8.793 -0.8346 -0.1998  0.7801
    1TCq1    H414088   2.854   3.916   8.990 -0.1633 -1.6866  0.8258
    2MPD1     C14089   3.208   3.325   9.235  0.4336 -0.4213 -0.5759
    2MPD1    C114090   3.144   3.264   9.130  0.2223 -0.7078  0.8208
    2MPD1    C214091   3.048   3.333   9.057 -0.3890  0.5004  0.3330
    2MPD1    C314092   3.009   3.465   9.087  0.2432 -0.3571 -0.3555
    2MPD1    C414093   3.073   3.520   9.196  0.2438  0.3860  1.1462
    2MPD1    C514094   3.166   3.450   9.272  0.3989 -0.2584  0.0145
    2MPD1     H14095   3.007   3.282   8.970  0.1525 -2.0319  1.5483
    2MPD1    H114096   3.058   3.622   9.229  0.3054  1.0042 -0.7347
    2MPD1    H214097   3.274   3.276   9.305  1.0202  0.7057 -0.3353
    2MPD1    H314098   3.213   3.507   9.352  0.7929  0.2299 -0.5589
    2MPD1     N14099   2.920   3.540   9.005  0.3126  0.1402 -0.1424
    2MPD1    H514100   2.870   3.492   8.930  1.0465 -1.6189  0.4889
    2MPD1    N114101   3.186   3.136   9.088  0.2635  0.2499  0.4055
    2MPD1    H614102   3.101   3.093   9.053  0.6640  1.6699 -2.3064
    2MPD1    H714103   3.209   3.083   9.172 -1.6642 -2.4802 -0.7746
    1MPD1     C14104   3.197   2.880  11.819  0.1613  0.2222  0.2555
    1MPD1    C114105   3.093   2.939  11.754 -0.3656 -0.1330 -0.1666
    1MPD1    C214106   3.105   3.071  11.719  0.0547 -0.4392  0.1992
    1MPD1    C314107   3.231   3.136  11.733  0.2288 -0.7426  0.0021
    1MPD1    C414108   3.342   3.072  11.790  0.0723 -0.2117  0.3799
    1MPD1    C514109   3.315   2.944  11.832 -0.0052  0.1339  0.0333
    1MPD1     H14110   3.017   3.118  11.677 -0.2252 -1.5715 -0.4796
    1MPD1    H114111   3.436   3.123  11.808  0.1585 -0.0894 -0.3892
    1MPD1    H214112   3.190   2.774  11.840 -1.9627  0.2372 -0.4286
    1MPD1    H314113   3.403   2.891  11.868 -0.6902  0.4823  2.2760
    1MPD1     N14114   3.239   3.271  11.697  0.0373 -0.2436 -0.4781
    1MPD1    H514115   3.149   3.319  11.693  0.3333  0.2246 -1.3770
    1MPD1    N114116   2.958   2.890  11.763 -0.4254 -0.4199 -0.1880
    1MPD1    H614117   2.948   2.791  11.786  1.7780 -0.9538 -1.4383
    1MPD1    H714118   2.899   2.916  11.684  1.5051  0.1543 -1.4468
    2MPD1     C14119   2.870   2.166  11.126 -0.8582 -0.0758 -0.6171
    2MPD1    C114120   2.996   2.213  11.168 -0.1954  0.0868 -0.6478
    2MPD1    C214121   3.033   2.343  11.127  0.5313 -0.2880 -0.7360
    2MPD1    C314122   2.952   2.401  11.032  0.1632  0.6047  0.4034
    2MPD1    C414123   2.835   2.350  10.986 -0.1039 -0.2222  0.1393
    2MPD1    C514124   2.795   2.235  11.041 -0.3364 -0.2337 -0.0301
    2MPD1     H14125   3.129   2.387  11.150  1.0045 -1.6936 -0.0390
    2MPD1    H114126   2.776   2.406  10.915 -1.0700 -0.9254  0.3955
    2MPD1    H214127   2.829   2.080  11.178 -1.9526  0.2014 -1.0173
    2MPD1    H314128   2.701   2.195  11.004  0.8815 -1.8019 -1.3720
    2MPD1     N14129   2.987   2.527  10.966 -0.3387 -0.1309  0.0447
    2MPD1    H514130   2.937   2.546  10.880  0.7758 -1.5163 -0.9243
    2MPD1    N114131   3.062   2.159  11.273  0.4336 -0.3067  0.0990
    2MPD1    H614132   3.045   2.059  11.279  1.5982 -0.5562 -0.8007
    2MPD1    H714133   3.159   2.189  11.267 -0.0788  1.8821  2.4793
    3MPD1     C14134   2.730   2.530  10.225  0.3887 -0.0080 -0.1399
    3MPD1    C114135   2.697   2.490  10.360  0.5099  0.6302 -0.0441
    3MPD1    C214136   2.768   2.558  10.463  0.3761 -0.2859 -0.4217
    3MPD1    C314137   2.864   2.653  10.439  0.3541  0.6401 -0.9628
    3MPD1    C414138   2.890   2.699  10.312 -1.2609  0.1761 -0.0661
    3MPD1    C514139   2.814   2.639  10.210  0.1663  0.4060 -0.1302
    3MPD1     H14140   2.742   2.514  10.559  1.1580 -0.1180 -0.1311
    3MPD1    H114141   2.966   2.774  10.295 -0.3240 -0.5264  1.0343
    3MPD1    H214142   2.675   2.491  10.141  1.5321 -0.2445 -0.7791
    3MPD1    H314143   2.845   2.672  10.111  2.0752  0.5501  0.5135
    3MPD1     N14144   2.946   2.690  10.557  1.0547  0.2289 -1.0444
    3MPD1    H514145   2.906   2.652  10.642 -2.4134  2.5589 -1.6223
    3MPD1    N114146   2.611   2.385  10.388 -0.1449  0.2049  0.7267
    3MPD1    H614147   2.581   2.393  10.485  1.0246 -1.8273  1.2625
    3MPD1    H714148   2.533   2.395  10.323  3.1986  0.4737 -3.2050
    4MPD2     C14149   3.184   3.456  11.000  0.1219  0.3078  0.2361
    4MPD2    C114150   3.297   3.506  11.062 -0.6230 -0.0333  0.7164
    4MPD2    C214151   3.408   3.530  10.981 -0.5916 -0.7024  0.7364
    4MPD2    C314152   3.411   3.508  10.847 -0.2086  0.1828 -0.6231
    4MPD2    C414153   3.307   3.436  10.796  0.6553 -0.7907  0.5504
    4MPD2    C514154   3.191   3.416  10.869 -0.2095 -0.4923  0.1333
    4MPD2     H14155   3.492   3.563  11.042  0.8728  0.5603 -1.9614
    4MPD2    H114156   3.319   3.397  10.695  0.2531  1.2722 -0.2893
    4MPD2    H214157   3.091   3.444  11.055 -0.1320  0.8765 -0.0663
    4MPD2    H314158   3.102   3.376  10.822  0.0577  0.0289 -0.8061
    4MPD2     N14159   3.530   3.520  10.774  0.7003  0.2773 -0.1741
    4MPD2    H514160   3.532   3.454  10.696 -0.9901  0.1550 -0.1109
    4MPD2    N114161   3.309   3.538  11.199  0.0750 -0.8544  0.6799
    4MPD2    H714162   3.395   3.581  11.231  0.5600 -1.2580 -0.0661
    5TMC3    C114163   3.244   3.576  11.420  0.1846  0.3724 -0.1749
    5TMC3    C214164   3.228   3.480  11.515 -0.2927  0.2105 -0.0532
    5TMC3    C314165   3.334   3.467  11.601 -0.1845  0.4535 -0.1188
    5TMC3    C414166   3.347   3.666  11.417  0.3663  0.2833 -0.8658
    5TMC3    C514167   3.456   3.636  11.495 -0.2092  0.2528 -0.0094
    5TMC3    C614168   3.447   3.540  11.589  0.6334 -0.5313 -0.0949
    5TMC3     C14169   3.202   3.526  11.288  0.2122 -0.2143  0.3695
    5TMC3     O14170   3.098   3.464  11.280 -0.2154  0.6642 -0.0659
    5TMC3     H14171   3.145   3.410  11.513  0.7035 -0.9625 -0.1956
    5TMC3    H114172   3.360   3.736  11.335  0.7066  2.1151  0.7552
    5TMC3    H214173   3.518   3.538  11.671  0.0603  2.7450  0.4718
    5TMC3    C714174   3.580   3.638  11.423 -0.8134 -0.0108 -0.3722
    5TMC3    C814175   3.354   3.345  11.675 -0.4467  0.1636  0.0991
    5TMC3    O114176   3.584   3.680  11.308  0.2095  0.3444 -0.6401
    5TMC3    O214177   3.468   3.300  11.676 -1.3242  0.1383  0.1867
    6TMC3    C114178   3.102   2.713  10.913  0.3298  1.6749 -0.0511
    6TMC3    C214179   3.069   2.698  10.784 -0.0829  0.7509 -0.4954
    6TMC3    C314180   3.091   2.796  10.692  0.8876  0.3661  0.0348
    6TMC3    C414181   3.145   2.833  10.963  0.4819  0.8009 -0.1743
    6TMC3    C514182   3.145   2.935  10.868 -0.2993  0.4844 -0.2484
    6TMC3    C614183   3.118   2.919  10.732 -0.2461  0.0025 -0.2796
    6TMC3     C14184   3.081   2.614  11.009 -0.6059 -0.1730  0.9554
    6TMC3     O14185   3.137   2.613  11.117  0.0814 -0.2321  0.1533
    6TMC3     H14186   3.044   2.598  10.749  0.2743  0.9341 -1.2887
    6TMC3    H114187   3.182   2.844  11.064  1.6802 -0.1330 -0.5061
    6TMC3    H214188   3.140   2.993  10.656 -2.7204  0.6500 -0.3708
    6TMC3    C714189   3.263   3.025  10.882  0.1150  0.2586  0.0014
    6TMC3    C814190   3.055   2.772  10.558  0.2014 -0.1547 -0.0682
    6TMC3    O114191   3.334   3.033  10.783 -0.1808  0.1619 -0.2931
    6TMC3    O214192   3.101   2.851  10.469  0.0712  0.5308 -0.3501
    7MPD2     C14193   3.980   3.354  11.315 -0.3812 -0.4700 -0.1311
    7MPD2    C114194   3.950   3.478  11.256 -1.3049 -0.8699 -0.3555
    7MPD2    C214195   3.845   3.545  11.315 -0.1900  0.0746 -1.1956
    7MPD2    C314196   3.781   3.498  11.431  0.1554 -0.5253  1.3996
    7MPD2    C414197   3.830   3.395  11.503  0.6012  0.4114  0.1027
    7MPD2    C514198   3.923   3.315  11.435 -0.0052  0.1654 -0.3412
    7MPD2     H14199   3.822   3.640  11.267 -1.2380  0.2892 -0.2686
    7MPD2    H114200   3.773   3.344  11.581 -2.0884  2.4280 -0.5222
    7MPD2    H214201   4.043   3.288  11.256 -2.5426 -2.4381 -0.2487
    7MPD2    H314202   3.946   3.216  11.473 -1.4396 -0.2491 -0.5537
    7MPD2     N14203   3.666   3.555  11.485  0.0044 -0.2262 -0.1573
    7MPD2    H514204   3.651   3.528  11.581  0.6808  0.9734  0.2827
    7MPD2    N114205   4.007   3.500  11.125 -0.2622 -0.1181 -0.2079
    7MPD2    H714206   4.072   3.428  11.096 -0.0119 -0.4826  1.2617
    8TMC3    C114207   3.943   3.541  10.910  1.1566 -0.0566 -1.3125
    8TMC3    C214208   3.941   3.409  10.896  0.0733  0.1884  0.4896
    8TMC3    C314209   3.843   3.346  10.817 -0.3211  0.5074 -0.0324
    8TMC3    C414210   3.858   3.615  10.838  0.3222 -0.0626  1.2604
    8TMC3    C514211   3.764   3.556  10.763  0.1769 -0.1356 -0.3211
    8TMC3    C614212   3.754   3.420  10.745  0.0202 -0.5470  0.6001
    8TMC3     C14213   3.959   3.594  11.042 -0.5924  0.5456 -0.6327
    8TMC3     O14214   3.896   3.694  11.065 -0.0212  0.2238 -0.0556
    8TMC3     H14215   3.986   3.335  10.960 -0.9863 -0.3918  0.5689
    8TMC3    H114216   3.875   3.722  10.843  0.1290  0.1249 -1.8798
    8TMC3    H214217   3.697   3.360  10.675 -0.4827  1.2357 -0.5403
    8TMC3    C714218   3.636   3.608  10.801 -0.6345  0.0716  0.0041
    8TMC3    C814219   3.773   3.232  10.867 -0.1355  0.0211 -0.9307
    8TMC3    O114220   3.631   3.713  10.866  0.8057  0.1529  0.1902
    8TMC3    O214221   3.738   3.153  10.779 -0.1075 -0.2766  0.4680
    9MPD2     C14222   3.608   3.262  11.193  0.8673  0.6242  0.5262
    9MPD2    C114223   3.614   3.235  11.058 -0.0835  0.5735  0.1339
    9MPD2    C214224   3.504   3.178  10.987 -1.0365 -0.6589  0.3083
    9MPD2    C314225   3.393   3.140  11.058 -0.3458 -0.6355 -0.2659
    9MPD2    C414226   3.392   3.159  11.191  0.4108  0.2231 -0.0056
    9MPD2    C514227   3.489   3.237  11.252  0.2248 -0.0746  0.3037
    9MPD2     H14228   3.516   3.176  10.879 -0.3537 -0.7487  0.3865
    9MPD2    H114229   3.301   3.133  11.244 -0.3008  0.9528 -0.8731
    9MPD2    H214230   3.695   3.302  11.244  0.0165 -1.7102  3.8320
    9MPD2    H314231   3.479   3.243  11.360 -1.4613 -0.3660  0.1574
    9MPD2     N14232   3.281   3.068  11.007 -0.3577 -0.0003 -0.4591
    9MPD2    H514233   3.208   3.039  11.072 -1.2619  2.2290 -0.4644
    9MPD2    N114234   3.733   3.268  10.995  0.1845  0.2290  0.0122
    9MPD2    H714235   3.783   3.343  11.042 -1.4741  1.7250 -0.6079
    1MPD1     C14236   3.499   2.424  16.341  0.8009 -0.4015 -0.0088
    1MPD1    C114237   3.548   2.389  16.463  0.7329 -0.2350 -0.3478
    1MPD1    C214238   3.522   2.262  16.507 -0.2111 -0.1887 -0.3625
    1MPD1    C314239   3.469   2.168  16.416  0.0971  0.3336  0.2008
    1MPD1    C414240   3.440   2.207  16.287 -0.0969  0.3140  0.2556
    1MPD1    C514241   3.446   2.340  16.255  0.3541  0.6863  0.2149
    1MPD1     H14242   3.553   2.233  16.607  1.5048  0.1776 -0.7860
    1MPD1    H114243   3.408   2.134  16.213  2.3889 -2.0689  1.5394
    1MPD1    H214244   3.527   2.523  16.304  1.9097 -0.6369  0.1979
    1MPD1    H314245   3.414   2.365  16.154  2.6638  0.4269 -0.6024
    1MPD1     N14246   3.448   2.037  16.443  0.3693  0.6665  0.0006
    1MPD1    H514247   3.416   1.977  16.367 -2.0669  2.5738 -0.4981
    1MPD1    N114248   3.596   2.482  16.562 -0.2474  0.0928 -0.0450
    1MPD1    H614249   3.652   2.561  16.532  3.1213 -1.3116  2.5909
    1MPD1    H714250   3.650   2.435  16.634  0.9637  1.1927 -0.2319
    2MPD1     C14251   2.663   1.737  16.175  0.2087  0.8386 -0.0412
    2MPD1    C114252   2.773   1.780  16.097 -0.0680  0.8465  0.2260
    2MPD1    C214253   2.898   1.777  16.159 -0.3488  0.7567 -0.0412
    2MPD1    C314254   2.924   1.719  16.288  0.9099  0.0214 -0.6184
    2MPD1    C414255   2.811   1.671  16.356 -0.1380  0.0106  0.0477
    2MPD1    C514256   2.689   1.682  16.300  0.1838 -0.5594 -0.3094
    2MPD1     H14257   2.983   1.825  16.113  0.3643 -1.2689 -0.8119
    2MPD1    H114258   2.814   1.616  16.449 -0.7722 -2.3303 -1.3243
    2MPD1    H214259   2.559   1.743  16.144  0.4400  0.2946 -0.9312
    2MPD1    H314260   2.603   1.637  16.348 -1.3195  1.9387 -0.6920
    2MPD1     N14261   3.052   1.724  16.339 -0.9425 -0.4526 -0.3015
    2MPD1    H514262   3.119   1.773  16.280 -0.1706 -0.5240  0.5182
    2MPD1    N114263   2.744   1.878  15.999  0.5857  0.4107  0.1099
    2MPD1    H614264   2.832   1.899  15.953  1.7017 -3.8852  0.2977
    2MPD1    H714265   2.668   1.843  15.941 -0.5600  0.0108  1.8192
    3TCq2    C114266   3.093   1.676  16.460  0.4842  0.3651 -0.2747
    3TCq2    O214267   3.027   1.606  16.534 -0.5155  0.3017  0.0003
    3TCq2    C214268   3.239   1.687  16.485 -0.2095  0.0797  0.1063
    3TCq2    C314269   3.287   1.586  16.571  0.3521  0.5049 -0.6068
    3TCq2    C414270   3.393   1.617  16.655 -0.0529 -0.0672 -0.4845
    3TCq2    C514271   3.449   1.749  16.651 -0.2994 -0.3461  0.4298
    3TCq2    C614272   3.401   1.840  16.562 -0.0567 -0.1385 -0.2680
    3TCq2    C714273   3.294   1.809  16.484  0.5811  1.1958 -0.7980
    3TCq2    C814274   3.459   1.970  16.561 -0.0279  0.5525  0.2359
    3TCq2    O414275   3.531   2.000  16.653  0.0309  0.2148 -0.2169
    3TCq2    C914276   3.442   1.523  16.752  0.0627  0.0086  0.4153
    3TCq2    O514277   3.521   1.561  16.841  0.2978  0.1687  0.0361
    3TCq2    O614278   3.383   1.415  16.752 -0.4265  0.3043  0.1319
    3TCq2    H214279   3.256   1.482  16.570 -0.7339  0.8362 -1.1787
    3TCq2    H314280   3.526   1.773  16.722  1.5029  1.0044 -1.9839
    3TCq2    H414281   3.245   1.894  16.439 -1.3124 -0.0898 -1.1190
    1TCq1    O114282   0.220   0.471  13.136  0.4538  0.2103 -0.7983
    1TCq1    C114283   0.319   0.479  13.048  0.5121  0.5539  0.7389
    1TCq1    O214284   0.329   0.405  12.950 -0.2007  0.0593 -0.2326
    1TCq1    C214285   0.401   0.591  13.076  0.2592 -0.2319 -0.4544
    1TCq1    C314286   0.385   0.670  13.186  0.0379 -0.2538 -0.3451
    1TCq1    C414287   0.489   0.757  13.207  0.7780 -0.6172  0.9521
    1TCq1    C514288   0.605   0.769  13.132 -0.6462 -0.5671  0.1733
    1TCq1    C614289   0.607   0.690  13.024  0.6394  0.3164  0.3567
    1TCq1    C714290   0.514   0.594  13.002 -0.5683 -0.9421 -0.6602
    1TCq1    C814291   0.720   0.690  12.931 -0.2940  0.2034  0.6677
    1TCq1    O414292   0.709   0.618  12.831  0.2633 -0.2593 -0.6780
    1TCq1    C914293   0.468   0.855  13.313 -0.2740 -0.2526 -1.0928
    1TCq1    O514294   0.386   0.823  13.405 -0.7900 -0.4574  0.2999
    1TCq1    O614295   0.509   0.969  13.290 -0.2118 -0.7037  0.4344
    1TCq1    H114296   0.217   0.524  13.218  1.0544 -3.3222  1.4892
    1TCq1    H214297   0.301   0.669  13.255 -0.1392 -1.1768 -0.5775
    1TCq1    H314298   0.664   0.857  13.156  0.1137 -1.1877  0.5818
    1TCq1    H414299   0.513   0.536  12.910 -1.0279  0.9601 -1.8569
    2MPD2     C14300   0.992   0.691  12.816 -0.5328 -0.3544 -0.1298
    2MPD2    C114301   0.956   0.757  12.935  0.1599 -0.4258  0.1363
    2MPD2    C214302   1.066   0.813  13.003  0.6282  0.9513  0.0202
    2MPD2    C314303   1.196   0.787  12.962  0.0105 -0.4719  0.1335
    2MPD2    C414304   1.226   0.722  12.842  0.3613  0.7779 -0.2966
    2MPD2    C514305   1.117   0.672  12.774  0.0557  0.4068  0.6025
    2MPD2     H14306   1.057   0.857  13.101 -2.0436 -1.2770  0.7753
    2MPD2    H114307   1.328   0.721  12.806 -0.0078  1.9126 -1.3670
    2MPD2    H214308   0.919   0.634  12.760 -2.3381  0.7046  1.1345
    2MPD2    H314309   1.122   0.615  12.682 -2.5684 -1.2687  1.4902
    2MPD2     N14310   1.301   0.831  13.048  0.2377 -0.3927  0.2271
    2MPD2    H514311   1.270   0.889  13.126 -0.7784  0.2959 -0.6919
    2MPD2    N114312   0.823   0.765  12.980 -0.1574 -0.1755  0.1488
    2MPD2    H714313   0.812   0.824  13.061 -1.7536  0.2517 -0.3932
    3TCq1    O114314   1.878   0.817  13.417 -0.0187 -0.2157  0.3095
    3TCq1    C114315   1.822   0.774  13.302 -0.2887 -0.2871 -0.6210
    3TCq1    O214316   1.863   0.677  13.238  0.3078 -0.3089 -0.3568
    3TCq1    C214317   1.715   0.857  13.252  0.5353  0.2012 -0.1161
    3TCq1    C314318   1.700   0.991  13.281 -0.2525 -0.1452  0.2779
    3TCq1    C414319   1.593   1.061  13.245 -0.2258 -0.1507  0.4059
    3TCq1    C514320   1.508   1.003  13.152  0.0668  0.1877 -0.2245
    3TCq1    C614321   1.514   0.865  13.132  0.6977 -0.1578  0.4904
    3TCq1    C714322   1.625   0.792  13.175 -0.3688 -0.3452 -0.0026
    3TCq1    C814323   1.431   0.792  13.044  0.0296  0.0580 -0.4444
    3TCq1    O414324   1.482   0.699  12.986 -0.4050 -0.1398 -0.3366
    3TCq1    C914325   1.572   1.201  13.264 -0.2095 -0.3478 -0.3896
    3TCq1    O514326   1.457   1.245  13.267 -0.2353 -0.4448 -0.0241
    3TCq1    O614327   1.664   1.262  13.325  0.4676 -0.4922  0.8103
    3TCq1    H114328   1.827   0.892  13.453 -1.2507 -1.6215  1.4981
    3TCq1    H214329   1.771   1.049  13.340  0.0257 -1.0765  0.8621
    3TCq1    H314330   1.433   1.064  13.102 -1.5428 -1.2137  0.4909
    3TCq1    H414331   1.647   0.691  13.143  0.6546  0.0394 -0.5045
    1MPD2     C14332   0.629   1.538  14.439 -0.5850  0.2307  0.0742
    1MPD2    C114333   0.516   1.594  14.382 -0.1760 -0.3869  0.4806
    1MPD2    C214334   0.428   1.509  14.317 -0.4766 -0.4620  0.0096
    1MPD2    C314335   0.453   1.374  14.324  0.6006  0.0185 -0.0071
    1MPD2    C414336   0.567   1.318  14.374  0.2223  0.1310 -0.0290
    1MPD2    C514337   0.658   1.409  14.421  0.0904 -0.2294 -0.3272
    1MPD2     H14338   0.339   1.546  14.268  0.2448  2.3372  0.8229
    1MPD2    H114339   0.593   1.213  14.380 -0.8540 -0.2297 -1.9118
    1MPD2    H214340   0.697   1.598  14.499  1.8788 -1.0881 -1.3612
    1MPD2    H314341   0.755   1.374  14.455  1.2674  2.4356 -0.9335
    1MPD2     N14342   0.337   1.299  14.287 -0.1943  0.1204  0.4708
    1MPD2    H514343   0.253   1.351  14.262 -0.5445 -1.2833 -1.2541
    1MPD2    N114344   0.516   1.740  14.388 -0.1958  0.4332  0.7444
    1MPD2    H714345   0.585   1.791  14.441  1.4000  0.8834 -1.7896
    2TMC3    C114346   0.421   1.955  14.354  0.5184 -0.1735 -0.3157
    2TMC3    C214347   0.294   1.976  14.392  0.0423 -0.4964  0.4518
    2TMC3    C314348   0.225   2.082  14.343 -0.3133 -0.5578 -0.8929
    2TMC3    C414349   0.470   2.036  14.255  0.7513  0.0620 -0.1588
    2TMC3    C514350   0.395   2.136  14.203 -0.1841 -0.7042 -0.1932
    2TMC3    C614351   0.270   2.167  14.251 -0.3299 -0.0524 -0.1681
    2TMC3     C14352   0.420   1.819  14.321 -0.5153  0.2911  0.0120
    2TMC3     O14353   0.318   1.785  14.267  0.3041  0.1021  0.6255
    2TMC3     H14354   0.242   1.912  14.463 -0.5540  0.6273  1.0242
    2TMC3    H114355   0.571   2.026  14.217 -0.0619 -0.7560 -2.1427
    2TMC3    H214356   0.222   2.257  14.216  0.6431 -0.0961 -1.6276
    2TMC3    C714357   0.467   2.254  14.155 -0.0597 -0.7340 -0.0733
    2TMC3    C814358   0.078   2.059  14.337 -0.1347  0.1585  0.4520
    2TMC3    O114359   0.430   2.317  14.059 -0.0062  0.1260 -0.0287
    2TMC3    O214360   4.722   2.128  14.397  0.6049 -0.1691 -0.0166
    3TCq1    O114361   1.415   2.668  14.778 -0.1751 -1.0467 -0.1019
    3TCq1    C114362   1.338   2.781  14.784 -0.1315  0.0271 -0.4525
    3TCq1    O214363   1.355   2.883  14.723  0.7558 -0.5415  0.3646
    3TCq1    C214364   1.201   2.724  14.799 -0.3005  0.2573 -0.0952
    3TCq1    C314365   1.185   2.617  14.888 -0.1556 -0.0006  0.3358
    3TCq1    C414366   1.088   2.527  14.856  0.7350  0.6737 -0.2979
    3TCq1    C514367   0.999   2.548  14.752 -0.1431 -0.4270 -0.2801
    3TCq1    C614368   1.019   2.656  14.668 -0.3055 -0.7207 -0.6950
    3TCq1    C714369   1.119   2.750  14.694  0.0162  0.3125  0.1716
    3TCq1    C814370   0.948   2.666  14.539  0.3776  0.1778 -0.5285
    3TCq1    O414371   0.985   2.752  14.461  0.4006 -0.2364  0.2244
    3TCq1    C914372   1.093   2.395  14.920  0.0677 -0.1506 -0.6480
    3TCq1    O514373   1.023   2.301  14.876  0.9902  0.0807 -0.1304
    3TCq1    O614374   1.164   2.403  15.025  0.4342 -0.5855 -0.0753
    3TCq1    H114375   1.506   2.691  14.751 -1.0550 -0.7051 -2.7902
    3TCq1    H214376   1.254   2.593  14.968 -2.6270 -0.6459  2.2826
    3TCq1    H314377   0.918   2.477  14.739  0.4547 -1.3543  1.1561
    3TCq1    H414378   1.127   2.843  14.639  1.2910  0.3882  0.4879
    4MPD2     C14379   0.851   2.580  14.268  0.4519 -0.1456  0.6807
    4MPD2    C114380   0.803   2.522  14.387 -0.0651  0.5464  0.0623
    4MPD2    C214381   0.702   2.429  14.377 -0.9193  0.0550  0.7436
    4MPD2    C314382   0.636   2.400  14.263  0.8343 -0.2698 -0.5422
    4MPD2    C414383   0.675   2.467  14.145 -0.2427  0.6386 -0.1605
    4MPD2    C514384   0.779   2.554  14.150  0.0735 -0.3868  0.2511
    4MPD2     H14385   0.664   2.382  14.467 -2.9731  0.2044 -0.0424
    4MPD2    H114386   0.621   2.461  14.051  3.0790 -0.5883 -2.0119
    4MPD2    H214387   0.941   2.639  14.254 -0.6821  1.1580 -1.0608
    4MPD2    H314388   0.823   2.583  14.056 -2.0249 -1.0219 -0.9231
    4MPD2     N14389   0.545   2.295  14.262 -0.3357  0.7948 -0.3661
    4MPD2    H514390   0.533   2.241  14.347  0.1206 -1.2413 -1.5740
    4MPD2    N114391   0.862   2.562  14.513 -1.3133  0.4779 -0.4751
    4MPD2    H714392   0.848   2.500  14.592  1.5443 -0.3785 -0.6423
    5TMC2    C114393   4.721   1.281  14.239 -0.2794 -0.1648 -0.4626
    5TMC2    C214394   4.662   1.217  14.349 -0.2045 -0.2160  0.1326
    5TMC2    C314395   4.718   1.100  14.393  0.5924  0.2717 -0.2350
    5TMC2    C414396   0.113   1.231  14.193  0.0648  0.0617 -0.2576
    5TMC2    C514397   0.180   1.135  14.253  1.2507 -0.2741  1.0328
    5TMC2    C614398   0.113   1.056  14.350  0.2260  0.5369 -0.1687
    5TMC2     C14399   0.003   1.420  14.245 -0.6436  0.1659 -0.1969
    5TMC2     O14400   0.108   1.469  14.203  0.3816  0.3676  0.4903
    5TMC2     H14401   4.561   1.243  14.378 -0.9071 -1.8361 -0.8517
    5TMC2    H114402   0.157   1.274  14.104  0.3998 -0.5117 -0.3619
    5TMC2    H214403   0.169   0.970  14.383 -0.1861 -1.1093 -3.7245
    5TMC2    C714404   0.320   1.160  14.279 -0.1666 -0.0287  0.1272
    5TMC2    C814405   4.634   1.015  14.476 -0.2747 -0.1733  0.0055
    5TMC2    O114406   0.398   1.065  14.278 -0.2536 -1.0698  0.8334
    5TMC2    O214407   4.519   1.008  14.432  0.5575 -0.6398 -0.0518
    5TMC2    O514408   4.707   0.897  14.486  0.3225  0.1281  0.3206
    5TMC2    H514409   0.067   0.913  14.531  0.1495  2.0569 -0.0095
    6MPD2     C14410   4.555   1.887  14.348 -0.1306  0.4314 -0.1043
    6MPD2    C114411   4.682   1.844  14.314  0.2470  0.4851 -0.1250
    6MPD2    C214412   4.699   1.710  14.299 -0.0292 -0.4075  0.3738
    6MPD2    C314413   4.597   1.619  14.295  0.4022  0.4490 -0.8219
    6MPD2    C414414   4.472   1.668  14.314 -1.0596 -0.0110 -0.0821
    6MPD2    C514415   4.445   1.804  14.337  0.1982 -0.3417  0.5102
    6MPD2     H14416   0.076   1.675  14.298  0.4286  0.9160  1.9653
    6MPD2    H114417   4.394   1.595  14.331 -1.4640  0.1591 -1.2327
    6MPD2    H214418   4.540   1.992  14.370  2.0412  0.4467  1.2922
    6MPD2    H314419   4.349   1.845  14.366  0.4055 -0.0872  0.8271
    6MPD2     N14420   4.610   1.480  14.267  0.2089  0.1517 -0.1648
    6MPD2    H514421   4.527   1.427  14.291  1.7041 -1.5321  1.2796
    6MPD2    N114422   0.071   1.927  14.304  0.0518  0.5920 -0.1902
    6MPD2    H714423   0.161   1.885  14.281  0.4077  0.5653  1.2745
  945NH3     N114424   1.800   0.039   3.276 -0.2666  0.2661 -0.2639
  945NH3     H214425   1.754   0.119   3.318 -0.6911  0.2683 -0.7298
  945NH3     H314426   1.857   0.003   3.351 -2.0040  0.9963  1.4019
  945NH3     H414427   1.875   0.078   3.220  0.5743  1.8588  2.0159
  946SOD     NA14428   0.139   0.645  13.591 -0.3482 -0.1472  0.3826
  947SOD     NA14429   2.649   2.002  13.304  0.1848 -0.4226 -0.1280
  948SOD     NA14430   0.815   2.110  10.875  0.1117  0.3816  0.0622
  949SOD     NA14431   0.164   0.004   9.144 -0.4818  0.0068  0.4454
  950SOD     NA14432   3.561   4.531   6.271  0.4465  0.1156  0.2448
  951SOD     NA14433   3.962   1.324  16.100  0.2962 -0.0988  0.2016
  952SOD     NA14434   1.430   2.320  13.834 -0.4436  0.0521 -0.2648
  953SOD     NA14435   0.603   2.250   3.055  0.3178 -0.1701 -0.3342
  954SOD     NA14436   3.148   4.263   1.191 -0.0612  0.3501 -0.4878
  955SOD     NA14437   2.362   4.398  14.786 -0.5651 -0.4411  0.2545
  956SOD     NA14438   4.577   0.438   2.408 -0.3568 -0.0888 -0.3795
  957SOD     NA14439   0.279   0.400  10.237 -0.0450 -0.0660 -0.2825
  958SOD     NA14440   2.557   0.470  14.383 -0.0306 -0.2988 -0.2672
  959SOD     NA14441   3.703   1.892  14.954  0.2585 -0.1179 -0.4538
  960SOD     NA14442   2.543   2.707  11.857 -0.0907  0.6532  0.4693
  961SOD     NA14443   0.892   3.873   1.513  0.1067  0.0645 -0.3248
  962SOD     NA14444   0.594   1.516   1.050  0.2007 -0.0882 -0.2529
  963SOD     NA14445   3.322   3.076   1.579  0.0369  0.1899  0.1258
  964SOD     NA14446   1.030   1.134  15.354 -0.1871  0.0628  0.2256
  965SOD     NA14447   1.392   0.304  10.592  0.0696  0.1450 -0.4083
  966SOD     NA14448   3.319   1.336  16.949 -0.0652 -0.2698 -0.0143
  967SOD     NA14449   0.334   2.485  11.127 -0.2160 -0.3544 -0.0483
  968SOD     NA14450   3.094   1.651   9.207 -0.1400 -0.0573 -0.0244
  969SOD     NA14451   2.394   2.819  12.109  0.2719 -0.2584 -0.5296
  970SOD     NA14452   3.618   1.760   2.428 -0.2693  0.1216  0.3055
  971SOD     NA14453   2.948   4.583  12.801  0.1194  0.0848  0.6625
  972SOD     NA14454   2.803   4.705  12.439  0.1834 -0.2637 -0.0407
  973SOD     NA14455   2.242   1.097  11.210  0.2127 -0.1454 -0.3915
  974SOD     NA14456   3.501   4.186  13.099  0.1420  0.6332 -0.0399
  975SOD     NA14457   1.613   0.223  10.098 -0.0946  0.3425 -0.0088
  976SOD     NA14458   4.535   0.980  10.878  0.1411 -0.0941 -0.1124
  977SOD     NA14459   3.383   3.772  17.562  0.1531  0.0590 -0.1223
  978SOD     NA14460   1.983   1.352   9.224 -0.0257  0.4957  0.2056
  979SOD     NA14461   0.424   0.113  12.407  0.1316  0.2228  0.2895
  980SOD     NA14462   3.154   4.112  14.239 -0.4843 -0.2462  0.4423
  981SOD     NA14463   1.993   0.391  12.383 -0.2011  0.1798  0.0181
  982SOD     NA14464   3.532   0.293   0.174  0.4013 -0.3993  0.3383
  983SOD     NA14465   1.906   3.766   2.633 -0.7960 -0.7899 -0.4745
  984SOD     NA14466   1.564   3.837   9.502 -0.1074 -0.5186  0.3963
  985SOD     NA14467   1.766   4.487  17.586  0.0725  0.0861 -0.0658
  986SOD     NA14468   3.371   3.294   8.259 -0.3566  0.2233 -0.1064
  987SOD     NA14469   0.950   0.313   9.769 -0.5851  0.1323 -0.4933
  988SOD     NA14470   0.909   1.599  10.571 -0.4982 -0.1734  0.1274
  989SOD     NA14471   3.409   1.022   0.458  0.4838  0.0999 -0.8759
  990SOD     NA14472   2.423   3.640   8.503 -0.4141  0.5326 -0.2175
  991SOD     NA14473   1.311   2.284  15.157  0.1215  0.4336  0.1295
  992SOD     NA14474   3.291   2.757  13.242  0.0298 -0.3438  0.0465
  993SOD     NA14475   4.672   0.739  11.002  0.0930 -0.6229  0.3609
  994SOD     NA14476   4.573   3.716   9.034 -0.1863 -0.0293  0.1377
  995SOD     NA14477   0.587   2.476  17.267 -0.8169  0.4769 -0.4170
  996SOD     NA14478   1.405   2.115  14.158  0.4351 -0.0301  0.1480
  997SOD     NA14479   3.277   2.917   0.218  0.2962 -0.1114  0.2936
  998SOD     NA14480   2.341   1.309   1.614  0.0691  0.2155  0.2373
  999SOD     NA14481   2.184   2.908   0.807 -0.0386  0.1173  0.1811
 1000SOD     NA14482   1.109   2.154  14.709  0.1946 -0.3705  0.0377
 1001SOD     NA14483   2.635   1.113  10.738  0.2170  0.6088  0.4298
 1002SOD     NA14484   3.803   1.545  12.817  0.6280 -0.4107 -0.1750
 1003SOD     NA14485   1.955   3.576   9.968  0.2614 -0.6995  0.2261
 1004SOD     NA14486   1.022   0.549   9.560  0.0420 -0.3780  0.3906
 1005SOD     NA14487   2.560   0.735  14.187  0.3132  0.4738 -0.4334
 1006SOD     NA14488   1.911   0.985  11.199 -0.0413  0.3963 -0.5885
 1007SOD     NA14489   0.695   1.847  10.773 -0.0820  0.3216  0.2941
 1008SOD     NA14490   2.408   2.217  16.245 -0.0053  0.0429  0.5040
 1009SOD     NA14491   1.128   2.648  15.761 -0.6863  0.2238 -0.1838
 1010SOD     NA14492   3.594   2.403  13.499  0.4604 -0.4542 -0.0832
 1011SOD     NA14493   0.762   3.925   2.210  0.4179 -0.0651  0.0373
 1012SOL     OW14494   0.458   0.412   4.664  0.4000  0.0070  0.3635
 1012SOL    HW114495   0.544   0.449   4.644  0.1682  0.4854  0.2427
 1012SOL    HW214496   0.397   0.486   4.671 -0.7272 -0.8290 -0.6471
 1013SOL     OW14497   2.987   4.326   6.604 -0.1239  0.3671 -0.0302
 1013SOL    HW114498   3.021   4.238   6.619  1.6846  0.4895 -3.4816
 1013SOL    HW214499   3.044   4.368   6.668 -1.9105  3.6724 -0.5898
 1014SOL     OW14500   2.564   4.577   3.784 -0.0448  0.2509  0.5714
 1014SOL    HW114501   2.560   4.647   3.849 -1.6731 -1.3480  2.1857
 1014SOL    HW214502   2.615   4.621   3.716 -1.4372 -2.3041 -2.1491
 1015SOL     OW14503   4.005   0.979  16.252  0.1396  0.3297  0.0006
 1015SOL    HW114504   3.996   1.017  16.339  0.1471 -3.3571  1.5876
 1015SOL    HW214505   4.048   1.052  16.207  0.5409  0.6388  0.8837
 1016SOL     OW14506   1.093   0.051  10.080 -0.4537 -0.1665 -0.6080
 1016SOL    HW114507   1.133   0.021  10.161  0.7470 -2.9166 -2.1973
 1016SOL    HW214508   1.141   4.725  10.015 -0.3144 -0.5723 -0.1811
 1017SOL     OW14509   2.731   3.195   1.963 -0.0885  0.3290  0.1894
 1017SOL    HW114510   2.757   3.234   1.879  0.1712 -1.5820 -0.6236
 1017SOL    HW214511   2.744   3.272   2.019  0.7304 -2.3803  3.6903
 1018SOL     OW14512   1.352   1.282   9.197  0.0202  0.4047 -0.2940
 1018SOL    HW114513   1.436   1.279   9.244 -0.5835 -1.4630  0.7007
 1018SOL    HW214514   1.362   1.371   9.165  1.7130  0.3082 -0.0499
 1019SOL     OW14515   3.376   1.440  13.017 -0.1817 -0.1444  0.1525
 1019SOL    HW114516   3.369   1.400  13.104  0.8131 -1.4275 -0.3631
 1019SOL    HW214517   3.352   1.532  13.027 -0.2375  0.1019 -2.2025
 1020SOL     OW14518   4.258   2.617   3.595  0.1984 -0.0680 -0.7831
 1020SOL    HW114519   4.252   2.607   3.500  1.6963 -0.5599 -0.8228
 1020SOL    HW214520   4.333   2.674   3.614  0.4157 -1.5101  2.7480
 1021SOL     OW14521   2.469   3.850   5.753  0.1438  0.1717  0.0271
 1021SOL    HW114522   2.417   3.918   5.794 -0.0273 -1.4596  2.4834
 1021SOL    HW214523   2.443   3.778   5.811  1.2767 -0.5227 -0.3200
 1022SOL     OW14524   1.974   1.637   8.196  0.2336 -0.0214 -0.2798
 1022SOL    HW114525   1.886   1.624   8.161 -0.7079  1.3452  1.5536
 1022SOL    HW214526   1.951   1.649   8.288 -0.5845  0.0223 -0.4936
 1023SOL     OW14527   0.529   1.628   3.469 -0.3909  0.0574 -0.1097
 1023SOL    HW114528   0.468   1.557   3.484  0.5663 -0.5977  0.6797
 1023SOL    HW214529   0.590   1.581   3.412 -0.8482  1.3698 -1.6978
 1024SOL     OW14530   0.237   3.099  15.958  0.6704 -0.2420  0.3709
 1024SOL    HW114531   0.209   3.078  16.047 -1.6701  0.4585 -0.1915
 1024SOL    HW214532   0.331   3.083  15.955  0.1836 -2.8971 -0.4953
 1025SOL     OW14533   0.632   0.115  16.666 -0.1313 -1.0385 -0.2378
 1025SOL    HW114534   0.540   0.134  16.682  0.6019  0.9841  1.5588
 1025SOL    HW214535   0.675   0.112  16.752 -0.8689 -0.3505  0.1547
 1026SOL     OW14536   3.826   3.606  12.946  0.4191 -0.6488 -0.0377
 1026SOL    HW114537   3.828   3.603  12.850 -0.3227  0.7306 -0.0957
 1026SOL    HW214538   3.918   3.632  12.959 -0.6208  1.9578  1.9151
 1027SOL     OW14539   2.433   1.348   3.566 -0.1480  0.1822 -0.0293
 1027SOL    HW114540   2.355   1.324   3.615  1.4176  1.1253  3.0073
 1027SOL    HW214541   2.440   1.275   3.506 -0.7327 -0.8957  1.2192
 1028SOL     OW14542   1.549   1.195   7.842 -0.1249 -0.5122 -0.1361
 1028SOL    HW114543   1.521   1.276   7.884 -4.1169 -1.0140 -1.9080
 1028SOL    HW214544   1.611   1.164   7.909  0.9162  0.6569 -0.5656
 1029SOL     OW14545   0.774   2.236  11.041  0.0906 -0.0021 -0.6771
 1029SOL    HW114546   0.725   2.315  11.065  1.4816  0.9146 -0.8024
 1029SOL    HW214547   0.816   2.218  11.125  1.4014 -0.6625 -1.4852
 1030SOL     OW14548   3.356   1.464  10.585  0.1617 -0.1135 -0.2674
 1030SOL    HW114549   3.315   1.529  10.642  1.8145  0.8992 -0.2577
 1030SOL    HW214550   3.302   1.470  10.506 -1.4110  0.9918  0.8798
 1031SOL     OW14551   3.089   4.425  15.597 -0.3253  0.4531  0.1187
 1031SOL    HW114552   3.177   4.398  15.622 -1.3306 -1.7317  1.2709
 1031SOL    HW214553   3.045   4.348  15.633  0.0561 -0.2068 -0.8381
 1032SOL     OW14554   2.909   0.769   2.004 -0.0363 -0.3201  0.2306
 1032SOL    HW114555   2.966   0.699   2.038 -2.2841 -2.2462  0.0291
 1032SOL    HW214556   2.851   0.774   2.080 -1.5590 -0.6214 -0.9009
 1033SOL     OW14557   0.185   3.671   4.686  0.1200 -0.1010  0.8045
 1033SOL    HW114558   0.276   3.642   4.684  0.6221  1.7737 -2.8002
 1033SOL    HW214559   0.141   3.592   4.717 -3.8014  0.4534 -3.2957
 1034SOL     OW14560   1.521   2.807   2.679 -0.2784  0.0790 -0.1306
 1034SOL    HW114561   1.609   2.845   2.683  0.1332 -0.7801 -0.8561
 1034SOL    HW214562   1.518   2.777   2.770  1.0867  0.0241 -0.1044
 1035SOL     OW14563   3.637   2.503   3.755 -0.2060 -0.1411  0.0339
 1035SOL    HW114564   3.709   2.444   3.778 -0.6338 -0.8843 -0.5205
 1035SOL    HW214565   3.617   2.550   3.836 -0.8454  0.7791 -0.6542
 1036SOL     OW14566   2.391   3.136   0.026 -0.2524  0.2512  0.2978
 1036SOL    HW114567   2.362   3.198   0.093  0.0654  1.5557 -0.7614
 1036SOL    HW214568   2.463   3.102   0.079 -0.0330  2.1557  1.2305
 1037SOL     OW14569   0.087   0.437   3.033  0.1040  0.9284 -0.3140
 1037SOL    HW114570   0.175   0.430   3.069 -0.3723  1.2670  0.9390
 1037SOL    HW214571   0.026   0.454   3.106 -1.5781 -2.7493 -0.8829
 1038SOL     OW14572   4.080   2.566   3.837 -0.3692  0.0931  0.2931
 1038SOL    HW114573   4.032   2.648   3.826  1.8266  1.1891 -1.1157
 1038SOL    HW214574   4.135   2.568   3.758  1.0355  0.4091  1.2820
 1039SOL     OW14575   4.450   2.300   1.394  0.2834  0.2446 -0.9304
 1039SOL    HW114576   4.378   2.248   1.360  0.0984 -0.3725  0.3841
 1039SOL    HW214577   4.519   2.244   1.430  1.2985  1.5172 -0.8895
 1040SOL     OW14578   0.125   1.681   1.915 -0.6023  0.0375  0.0423
 1040SOL    HW114579   0.076   1.665   1.996 -0.7829  3.2674  0.5369
 1040SOL    HW214580   0.069   1.743   1.869 -2.4875 -1.7981 -0.1289
 1041SOL     OW14581   3.236   4.129  17.688 -0.0304 -0.0821  0.2594
 1041SOL    HW114582   3.212   4.091  17.603 -1.9318  1.5512  0.0733
 1041SOL    HW214583   3.212   4.060   0.045 -1.2563 -1.0598 -1.3148
 1042SOL     OW14584   1.426   3.756   5.476  0.1075 -0.4136 -0.3522
 1042SOL    HW114585   1.493   3.776   5.543 -1.5892 -0.8781  1.4916
 1042SOL    HW214586   1.346   3.791   5.514  0.9718  0.4673  0.6771
 1043SOL     OW14587   4.591   3.184   6.890 -0.5799 -0.4324 -0.0991
 1043SOL    HW114588   4.568   3.215   6.977 -1.9265  0.6283 -0.8357
 1043SOL    HW214589   4.674   3.228   6.871 -0.6079 -0.2389  0.2345
 1044SOL     OW14590   1.112   1.041   4.917  0.2149 -0.0576 -0.1177
 1044SOL    HW114591   1.051   1.082   4.978  0.5112 -0.8187  0.6824
 1044SOL    HW214592   1.064   1.056   4.835  0.0719 -0.7487 -0.1573
 1045SOL     OW14593   3.263   3.082   0.567  0.5574 -0.1496  0.2792
 1045SOL    HW114594   3.287   3.115   0.480 -1.5315 -1.6324 -0.8549
 1045SOL    HW214595   3.285   3.160   0.618 -1.6027  1.5567 -1.3890
 1046SOL     OW14596   3.220   4.067   4.457 -0.1535 -0.4831  0.3284
 1046SOL    HW114597   3.271   4.031   4.529 -0.9434 -0.5129  0.8797
 1046SOL    HW214598   3.274   4.030   4.387  0.5888 -0.2214  0.7639
 1047SOL     OW14599   1.226   1.810  12.181  0.5056  0.2651 -0.1460
 1047SOL    HW114600   1.217   1.714  12.181  0.3852  0.2740 -1.4506
 1047SOL    HW214601   1.276   1.828  12.102 -0.1217 -0.1629 -0.6423
 1048SOL     OW14602   3.454   0.455  17.230  0.3793 -0.6147  0.6658
 1048SOL    HW114603   3.500   0.427  17.151 -0.9812 -1.6398  0.2430
 1048SOL    HW214604   3.496   0.539  17.250 -1.7546  0.4757  0.5647
 1049SOL     OW14605   1.213   1.964   3.869 -0.2441 -0.5279  0.0517
 1049SOL    HW114606   1.305   1.966   3.842  0.2792  2.5356  2.1001
 1049SOL    HW214607   1.181   2.001   3.787  0.4959 -0.8629 -0.3873
 1050SOL     OW14608   2.644   0.043   6.049 -0.0465  0.3998  0.3362
 1050SOL    HW114609   2.733   0.011   6.068  0.4873  2.2752  0.9884
 1050SOL    HW214610   2.615   4.684   6.017 -1.1756 -0.1229  2.6954
 1051SOL     OW14611   3.918   4.080   8.803 -0.0163 -0.2483 -0.6819
 1051SOL    HW114612   3.845   4.135   8.831 -0.1847 -0.3690 -0.8814
 1051SOL    HW214613   3.934   4.106   8.712 -1.2978  1.4773 -0.4052
 1052SOL     OW14614   3.220   1.838  16.157  0.0906  0.0704 -0.1010
 1052SOL    HW114615   3.226   1.758  16.104 -3.4271 -0.1604 -0.1407
 1052SOL    HW214616   3.226   1.915  16.101 -0.0503 -0.1024 -0.3528
 1053SOL     OW14617   2.305   3.437   8.434 -0.5240 -0.4217  0.0997
 1053SOL    HW114618   2.335   3.346   8.433 -2.0539 -0.9091 -0.8734
 1053SOL    HW214619   2.227   3.417   8.485 -1.1107  0.5723 -0.4267
 1054SOL     OW14620   3.035   1.627   6.775  0.3379 -0.4864 -0.3631
 1054SOL    HW114621   2.955   1.672   6.802 -0.0870 -1.5678  0.1854
 1054SOL    HW214622   3.033   1.564   6.847  1.2908  0.8515  0.8254
 1055SOL     OW14623   4.069   1.512   0.920  0.0124 -0.4937 -0.5610
 1055SOL    HW114624   4.044   1.449   0.852  0.5822 -1.2244 -0.1044
 1055SOL    HW214625   4.164   1.525   0.918  0.1589 -1.0904  2.3504
 1056SOL     OW14626   1.914   2.065   0.309 -0.1457 -0.3063 -0.0768
 1056SOL    HW114627   1.987   2.002   0.307 -0.3991 -0.6122  0.2838
 1056SOL    HW214628   1.837   2.009   0.296  0.0122 -0.8242  1.1994
 1057SOL     OW14629   3.272   0.994   4.430 -0.2983  0.3607 -0.0034
 1057SOL    HW114630   3.291   1.088   4.433  1.3554  0.0911 -2.5549
 1057SOL    HW214631   3.212   0.982   4.356  0.2654 -2.8535  0.0769
 1058SOL     OW14632   2.151   3.933   4.190  0.4785  0.1386 -0.6391
 1058SOL    HW114633   2.206   3.994   4.141 -1.6039  1.0166 -1.8854
 1058SOL    HW214634   2.066   3.945   4.148  0.7865  0.4151 -1.1841
 1059SOL     OW14635   3.098   3.460  17.205  0.4743  0.1708 -0.1195
 1059SOL    HW114636   3.174   3.446  17.261 -0.1550  0.4627  0.8010
 1059SOL    HW214637   3.084   3.368  17.184  1.1666 -0.2290  1.1804
 1060SOL     OW14638   1.946   1.659   0.291 -0.3972  0.6077  0.7602
 1060SOL    HW114639   1.877   1.695   0.235  0.3635  0.2517 -0.3990
 1060SOL    HW214640   2.012   1.729   0.293  0.2158 -0.0199  2.3063
 1061SOL     OW14641   0.416   3.744  10.293 -0.0372  0.1637 -0.3753
 1061SOL    HW114642   0.480   3.773  10.228  0.7450  2.5185  1.4232
 1061SOL    HW214643   0.399   3.822  10.346  0.9679  0.1275  0.0073
 1062SOL     OW14644   3.846   2.788   4.839 -0.2436  0.0928 -0.0493
 1062SOL    HW114645   3.912   2.753   4.899  0.2847  0.3357 -0.4817
 1062SOL    HW214646   3.834   2.876   4.874  0.4465 -0.2957  1.1628
 1063SOL     OW14647   4.195   3.864   6.994 -0.1218  0.3904  0.2820
 1063SOL    HW114648   4.198   3.775   7.030  1.2719 -0.6612 -2.4896
 1063SOL    HW214649   4.283   3.868   6.957 -1.0896 -0.7914 -2.1054
 1064SOL     OW14650   2.980   4.009  16.236 -0.0782 -0.2654 -0.0314
 1064SOL    HW114651   3.058   4.042  16.280 -0.2181  1.6698 -1.2591
 1064SOL    HW214652   2.990   3.915  16.250  1.4370 -0.0597  0.2225
 1065SOL     OW14653   2.657   3.040   7.768  0.2361  0.0386 -0.6876
 1065SOL    HW114654   2.661   2.978   7.840 -2.6769 -0.7514 -1.1862
 1065SOL    HW214655   2.746   3.073   7.758 -0.0078  1.1168  0.7603
 1066SOL     OW14656   1.085   2.435  11.202  0.0973 -0.3228 -0.5333
 1066SOL    HW114657   0.990   2.444  11.212  0.0680 -3.0170  1.3335
 1066SOL    HW214658   1.122   2.492  11.269  1.5173 -0.2859 -1.3377
 1067SOL     OW14659   1.397   2.838   4.875  0.4524  0.0511  0.2252
 1067SOL    HW114660   1.443   2.864   4.955 -0.6184  0.5470  0.6772
 1067SOL    HW214661   1.418   2.921   4.831  0.5667  0.4365  1.0133
 1068SOL     OW14662   4.233   3.635   3.107  0.2471  0.2821 -0.1521
 1068SOL    HW114663   4.262   3.658   3.195 -0.2658 -1.4394  0.4650
 1068SOL    HW214664   4.160   3.695   3.095 -0.9811 -1.2573 -0.4606
 1069SOL     OW14665   3.013   0.090  10.362  0.4177  0.2493 -0.0910
 1069SOL    HW114666   3.017   0.179  10.398 -0.3349  0.2774 -0.0736
 1069SOL    HW214667   3.085   0.044  10.407 -0.0270 -0.0941  0.2710
 1070SOL     OW14668   1.108   0.612  11.852 -0.1152  0.3878  0.1856
 1070SOL    HW114669   1.160   0.539  11.886 -1.2089 -0.7265 -0.5286
 1070SOL    HW214670   1.035   0.617  11.913 -0.6511  1.4827 -0.5484
 1071SOL     OW14671   2.656   3.793  14.380 -0.5111 -0.5801 -1.1740
 1071SOL    HW114672   2.596   3.750  14.319 -0.4544 -2.2762 -0.0301
 1071SOL    HW214673   2.731   3.812  14.323 -1.1616  1.5815 -1.3133
 1072SOL     OW14674   4.267   0.172   7.381 -0.1609 -0.2332 -0.0015
 1072SOL    HW114675   4.296   0.102   7.440  0.5955  0.9284  0.9953
 1072SOL    HW214676   4.268   0.249   7.438  2.1501 -0.4097  0.2062
 1073SOL     OW14677   3.136   2.791   1.848  0.3887  0.1804  0.5389
 1073SOL    HW114678   3.092   2.833   1.774  0.1449  2.6637  2.1279
 1073SOL    HW214679   3.132   2.697   1.830 -0.6596  0.8745 -2.8814
 1074SOL     OW14680   2.139   1.985  12.462  0.3399  0.0578 -0.6318
 1074SOL    HW114681   2.177   2.012  12.545  2.7894 -1.8744 -1.1069
 1074SOL    HW214682   2.216   1.953  12.414  0.8048  1.4384 -0.8129
 1075SOL     OW14683   1.318   2.943  12.750  0.1788  0.1426  0.2858
 1075SOL    HW114684   1.304   2.853  12.781  0.3893 -0.3290 -0.9678
 1075SOL    HW214685   1.306   2.938  12.655 -1.0085 -0.3127  0.4590
 1076SOL     OW14686   0.438   3.287   7.934  0.5740  0.7471  0.4468
 1076SOL    HW114687   0.513   3.238   7.967  0.0544 -0.2924  0.0975
 1076SOL    HW214688   0.475   3.374   7.947 -0.7163  1.2638  0.6283
 1077SOL     OW14689   1.475   3.206   2.988 -0.2170  0.6517 -0.3477
 1077SOL    HW114690   1.391   3.220   2.945  0.1236 -1.7377 -1.7852
 1077SOL    HW214691   1.433   3.171   3.066 -0.6541  2.5501  0.2570
 1078SOL     OW14692   4.213   2.026   5.851 -0.0911  0.0324  0.3907
 1078SOL    HW114693   4.124   2.014   5.884 -0.3369 -0.3048 -0.3975
 1078SOL    HW214694   4.257   1.985   5.925 -0.2561 -0.2245  0.3468
 1079SOL     OW14695   2.558   0.113  12.765  0.0584 -0.1242 -0.3793
 1079SOL    HW114696   2.531   0.110  12.856  0.6137 -2.9519 -0.2858
 1079SOL    HW214697   2.587   0.204  12.763 -0.4343  0.0119 -1.4828
 1080SOL     OW14698   3.362   1.226  15.314 -0.4280 -0.3882 -0.3078
 1080SOL    HW114699   3.269   1.227  15.292 -0.5285 -0.4272  0.1104
 1080SOL    HW214700   3.379   1.133  15.330  1.1422  0.3593  2.3826
 1081SOL     OW14701   1.831   0.641   1.011  0.0990  0.0729 -0.4887
 1081SOL    HW114702   1.840   0.545   1.012  1.7813  0.2634  1.0929
 1081SOL    HW214703   1.894   0.662   0.941  1.0209 -1.1648 -0.0379
 1082SOL     OW14704   2.888   3.105  10.234 -0.2200 -0.2380  0.2338
 1082SOL    HW114705   2.916   3.042  10.167 -0.9361 -0.0568 -0.2368
 1082SOL    HW214706   2.923   3.188  10.203  1.5629 -1.5062 -1.1220
 1083SOL     OW14707   0.075   2.779   4.465 -0.3521  0.0939 -0.3925
 1083SOL    HW114708   0.121   2.713   4.517  0.3358  0.2062 -0.8570
 1083SOL    HW214709   0.151   2.833   4.444 -0.0307 -0.6253 -1.0810
 1084SOL     OW14710   3.974   2.702   9.580  0.2275 -0.1183  0.0932
 1084SOL    HW114711   3.994   2.795   9.581  0.6368 -0.1974 -0.9870
 1084SOL    HW214712   4.063   2.667   9.587 -0.5036 -2.2440 -1.2491
 1085SOL     OW14713   0.219   0.997   3.880  0.1053 -0.4536 -0.1284
 1085SOL    HW114714   0.170   1.073   3.849 -0.4146 -0.7866 -0.1067
 1085SOL    HW214715   0.149   0.933   3.892  0.2437 -0.7824 -1.0861
 1086SOL     OW14716   0.508   3.952   8.445  0.2321  0.2897  0.7907
 1086SOL    HW114717   0.475   3.937   8.356  0.3437 -0.7461  0.9218
 1086SOL    HW214718   0.596   3.988   8.436  0.1893  1.0924  3.6650
 1087SOL     OW14719   3.743   2.265  14.473  0.5231  1.0659  0.7544
 1087SOL    HW114720   3.796   2.186  14.481 -0.5449  0.4627  1.7476
 1087SOL    HW214721   3.705   2.269  14.560  0.7575 -0.9345  0.9455
 1088SOL     OW14722   1.286   4.579  17.131 -0.6403 -0.6703 -0.9685
 1088SOL    HW114723   1.230   4.510  17.167  1.4694 -2.7186 -1.6502
 1088SOL    HW214724   1.261   4.656  17.183  0.0883 -0.0119 -1.5877
 1089SOL     OW14725   3.775   0.793  17.319 -0.5698 -0.7678 -0.0480
 1089SOL    HW114726   3.690   0.793  17.364 -0.8537 -0.0039 -0.5882
 1089SOL    HW214727   3.774   0.722  17.254  0.9621 -1.9086  1.1721
 1090SOL     OW14728   0.598   1.339   4.793 -0.4074 -0.3405 -0.5073
 1090SOL    HW114729   0.559   1.263   4.836  1.8340  1.0969  4.0140
 1090SOL    HW214730   0.583   1.331   4.698  0.0674 -1.0236 -0.5293
 1091SOL     OW14731   3.562   4.363   2.125 -0.1136 -0.7167  0.3584
 1091SOL    HW114732   3.549   4.421   2.200  1.4836 -1.3468  1.1104
 1091SOL    HW214733   3.484   4.310   2.142  1.6017 -3.2104  0.3735
 1092SOL     OW14734   0.600   2.688   7.538 -0.0924 -0.4887 -0.0049
 1092SOL    HW114735   0.556   2.660   7.618  0.5204 -2.1512 -0.2646
 1092SOL    HW214736   0.685   2.705   7.579 -0.9891 -0.3104  1.7567
 1093SOL     OW14737   2.172   0.311  15.179  0.3003  0.1604  0.6064
 1093SOL    HW114738   2.255   0.290  15.222 -0.2386 -1.2441  0.9790
 1093SOL    HW214739   2.126   0.227  15.188 -0.4266  0.2082 -2.7824
 1094SOL     OW14740   0.038   1.938   7.199 -0.2166 -0.3781 -0.0134
 1094SOL    HW114741   0.066   2.015   7.247 -2.1111  1.2097 -1.4238
 1094SOL    HW214742   0.003   1.877   7.264 -2.2026 -2.1814 -2.7592
 1095SOL     OW14743   1.620   1.284   6.879  0.3345 -0.3034  0.0627
 1095SOL    HW114744   1.529   1.274   6.906 -0.1085 -0.8129 -1.6281
 1095SOL    HW214745   1.655   1.357   6.931 -2.9212  0.4025  1.2784
 1096SOL     OW14746   3.644   1.124   4.306  0.0258 -0.0819  0.1440
 1096SOL    HW114747   3.691   1.043   4.287  0.4883  0.7662 -2.4671
 1096SOL    HW214748   3.650   1.168   4.221  2.7195  0.0875  0.4149
 1097SOL     OW14749   0.671   2.796   1.393 -0.1101 -0.2631 -0.1016
 1097SOL    HW114750   0.693   2.705   1.413  0.0056 -0.1551  0.2477
 1097SOL    HW214751   0.744   2.850   1.422 -0.2167  0.5678 -1.3585
 1098SOL     OW14752   1.635   3.373  11.936  0.5075  0.0740  0.6451
 1098SOL    HW114753   1.574   3.315  11.982  0.3734  0.5927  1.1105
 1098SOL    HW214754   1.578   3.429  11.884  2.0838  1.1295  0.0666
 1099SOL     OW14755   2.851   4.575  10.436 -0.3756  0.0041 -0.4367
 1099SOL    HW114756   2.848   4.671  10.434  2.6545  0.0995 -0.0880
 1099SOL    HW214757   2.837   4.574  10.530  0.5408  2.5813 -0.2784
 1100SOL     OW14758   0.802   3.104   8.809 -0.0997 -0.2856 -0.6607
 1100SOL    HW114759   0.750   3.152   8.874  3.1318  1.3404  0.7609
 1100SOL    HW214760   0.873   3.066   8.860  0.0046  1.2850  0.3917
 1101SOL     OW14761   1.539   2.004   0.694  0.6121 -0.5091 -0.1158
 1101SOL    HW114762   1.564   1.916   0.723  1.9343  0.3092  1.1910
 1101SOL    HW214763   1.519   1.981   0.603  0.0952 -0.7390  0.0563
 1102SOL     OW14764   1.905   2.165   6.012  0.2264  0.1512  0.1459
 1102SOL    HW114765   1.972   2.122   6.065  1.0743  2.0928  0.6434
 1102SOL    HW214766   1.901   2.109   5.935 -0.7129  1.7143 -0.9380
 1103SOL     OW14767   4.535   3.907   2.574 -0.2177 -0.1129 -0.6271
 1103SOL    HW114768   4.631   3.909   2.569 -0.4006  0.2547 -4.1111
 1103SOL    HW214769   4.530   3.857   2.655 -1.1604 -2.4976 -2.1701
 1104SOL     OW14770   2.966   2.866   6.383  0.4607 -0.3425 -0.3716
 1104SOL    HW114771   3.002   2.812   6.453 -2.6475 -1.9836 -0.0368
 1104SOL    HW214772   2.957   2.812   6.304 -0.5349  1.4318 -1.4711
 1105SOL     OW14773   4.283   2.098   1.287 -0.1118 -0.5537 -0.3029
 1105SOL    HW114774   4.282   2.010   1.325 -1.9222 -0.0851  0.7363
 1105SOL    HW214775   4.340   2.075   1.214  1.9398 -0.0998  1.1759
 1106SOL     OW14776   1.793   2.775   7.381  0.0127 -0.5249  0.2138
 1106SOL    HW114777   1.817   2.697   7.432  0.7801 -0.0105  0.6401
 1106SOL    HW214778   1.750   2.739   7.303  1.0650 -0.7876 -0.2394
 1107SOL     OW14779   4.354   1.449   6.573  0.1850 -0.2065 -0.3074
 1107SOL    HW114780   4.370   1.375   6.515 -0.2590 -0.1389 -0.5188
 1107SOL    HW214781   4.302   1.502   6.512  1.3092  0.2270 -0.8745
 1108SOL     OW14782   3.802   2.699   8.250  0.1662 -0.0815 -0.4252
 1108SOL    HW114783   3.879   2.749   8.277  1.0137 -0.7947 -1.4698
 1108SOL    HW214784   3.845   2.620   8.217 -1.7316 -1.1133 -0.3994
 1109SOL     OW14785   1.485   3.012   8.132 -0.0119 -0.4352  0.1391
 1109SOL    HW114786   1.549   3.058   8.185  0.5468 -1.5253  0.4115
 1109SOL    HW214787   1.415   3.007   8.197 -0.2376  0.6737 -0.0275
 1110SOL     OW14788   4.559   4.279   3.707  0.5102  0.1803 -0.1117
 1110SOL    HW114789   4.518   4.215   3.650 -2.2536 -0.1481  2.2482
 1110SOL    HW214790   4.628   4.301   3.645  0.3743  0.8706 -0.0107
 1111SOL     OW14791   1.786   0.060  10.709 -0.4631 -0.9015 -0.2842
 1111SOL    HW114792   1.812   0.137  10.658 -3.6032  0.7615  0.6237
 1111SOL    HW214793   1.693   0.055  10.685 -0.8750  1.7868  0.8007
 1112SOL     OW14794   2.427   1.597   2.624  0.5001  0.0107  0.2845
 1112SOL    HW114795   2.438   1.635   2.711  1.8350 -0.4891  0.3185
 1112SOL    HW214796   2.452   1.671   2.568  0.0888 -1.3616 -1.6898
 1113SOL     OW14797   3.650   4.343   6.362  0.4789 -0.3611  0.1220
 1113SOL    HW114798   3.729   4.331   6.415 -0.5926 -1.1426  1.5409
 1113SOL    HW214799   3.624   4.251   6.354 -1.0718  0.2272 -1.5761
 1114SOL     OW14800   3.906   3.454   3.015  0.4877 -0.1312 -0.0932
 1114SOL    HW114801   3.991   3.449   2.971 -0.4273  0.3749 -1.8725
 1114SOL    HW214802   3.850   3.414   2.949  0.3621  3.0409 -1.8860
 1115SOL     OW14803   2.137   3.543  10.783  0.2922  0.5420  0.1711
 1115SOL    HW114804   2.226   3.515  10.800 -0.8878 -4.1201 -1.2932
 1115SOL    HW214805   2.159   3.629  10.746  0.9929  0.3678  0.1944
 1116SOL     OW14806   4.295   1.902   7.093  0.1092  0.3437 -0.4904
 1116SOL    HW114807   4.202   1.896   7.075  0.1672 -1.1067 -0.3231
 1116SOL    HW214808   4.310   1.964   7.022 -1.4876  0.9287 -0.2921
 1117SOL     OW14809   3.943   1.567   6.906  0.3775  0.3628 -0.1370
 1117SOL    HW114810   4.034   1.550   6.882  0.1979  0.5494 -0.9335
 1117SOL    HW214811   3.904   1.479   6.912 -0.6019  0.7177 -1.4368
 1118SOL     OW14812   1.410   4.101   8.761 -0.1087 -0.7330 -0.5316
 1118SOL    HW114813   1.364   4.021   8.786  0.2283 -0.1548  1.8597
 1118SOL    HW214814   1.478   4.109   8.827 -0.9863 -2.5207  0.5733
 1119SOL     OW14815   0.963   4.562  15.654  0.2354 -0.4140 -0.9742
 1119SOL    HW114816   0.954   4.492  15.589 -0.1557 -1.1927 -0.0674
 1119SOL    HW214817   1.058   4.571  15.663 -0.0260  0.5745  0.7894
 1120SOL     OW14818   3.085   3.302   5.860 -0.1139 -0.4769 -0.1533
 1120SOL    HW114819   3.008   3.274   5.811 -0.8328 -1.1260  1.3682
 1120SOL    HW214820   3.135   3.351   5.794  0.0151  0.6580  0.7707
 1121SOL     OW14821   1.723   3.842   5.349  0.8845 -0.1683 -0.8200
 1121SOL    HW114822   1.742   3.748   5.348  1.4321 -0.0667 -0.0982
 1121SOL    HW214823   1.672   3.850   5.429 -0.6649 -0.1093 -1.8034
 1122SOL     OW14824   3.532   0.344  17.643  0.0160 -0.2102  0.5229
 1122SOL    HW114825   3.614   0.389  17.622 -1.1130  0.7469 -1.7613
 1122SOL    HW214826   3.487   0.340  17.559  0.9780  1.4207 -0.0716
 1123SOL     OW14827   4.302   2.385   5.556 -0.5747 -0.0775 -0.2252
 1123SOL    HW114828   4.378   2.443   5.547  0.0961 -0.7358  1.2861
 1123SOL    HW214829   4.291   2.356   5.646 -0.5051  0.8909  0.0954
 1124SOL     OW14830   4.607   4.045  14.831 -0.6970  0.2811 -0.1069
 1124SOL    HW114831   4.513   4.056  14.844 -0.9223 -1.5563 -0.1942
 1124SOL    HW214832   4.626   4.040  14.924 -3.5488 -0.4108  0.4467
 1125SOL     OW14833   3.636   1.837   5.211  0.4876 -0.3705  0.1010
 1125SOL    HW114834   3.724   1.806   5.232  1.1876  1.3204 -0.3396
 1125SOL    HW214835   3.648   1.848   5.117 -1.5531 -0.2827 -0.1468
 1126SOL     OW14836   2.441   0.463   4.800  0.3869  0.2091  0.0328
 1126SOL    HW114837   2.449   0.370   4.778  3.0214  0.4949 -0.2234
 1126SOL    HW214838   2.523   0.501   4.768  1.1660 -1.3727  0.1358
 1127SOL     OW14839   4.037   2.772   7.011  0.0524  0.1590  0.9048
 1127SOL    HW114840   4.130   2.791   7.000  0.4627 -1.9324  0.6108
 1127SOL    HW214841   4.017   2.827   7.086 -0.1548  0.4260  0.6550
 1128SOL     OW14842   2.548   4.575   8.574 -0.3247 -0.2932 -0.1116
 1128SOL    HW114843   2.453   4.584   8.565 -0.2729  1.0874  0.8122
 1128SOL    HW214844   2.551   4.480   8.559  1.3029 -0.1422 -0.7308
 1129SOL     OW14845   0.637   2.027   5.657 -0.0040  0.1299  0.1553
 1129SOL    HW114846   0.690   2.040   5.578  1.0106 -1.8751  0.4839
 1129SOL    HW214847   0.689   1.965   5.709  0.9366  0.6441 -0.1608
 1130SOL     OW14848   3.233   2.364   5.729 -0.2377 -0.0648 -0.5837
 1130SOL    HW114849   3.273   2.372   5.816 -1.7381 -0.6499  0.1453
 1130SOL    HW214850   3.292   2.416   5.673 -1.8744  0.6929 -1.5930
 1131SOL     OW14851   2.978   0.812   3.508  0.6489  0.3759 -0.5610
 1131SOL    HW114852   2.914   0.872   3.545  0.1333  0.0371 -0.8992
 1131SOL    HW214853   2.935   0.726   3.505  0.5994  0.2926  2.2151
 1132SOL     OW14854   1.964   2.390   2.972 -0.2594  0.2400 -0.0231
 1132SOL    HW114855   2.005   2.451   3.033 -0.1713  0.4613 -0.3034
 1132SOL    HW214856   1.908   2.445   2.917 -2.3317 -2.2952 -0.4766
 1133SOL     OW14857   0.798   2.605   6.398 -0.1265 -0.6641 -0.5431
 1133SOL    HW114858   0.830   2.635   6.483 -1.1994  0.1787 -0.4418
 1133SOL    HW214859   0.876   2.554   6.376 -0.5747 -1.4637 -0.2947
 1134SOL     OW14860   4.428   2.550   9.069  0.4477  0.0686  1.1825
 1134SOL    HW114861   4.365   2.482   9.093  1.9385 -1.3515  1.1081
 1134SOL    HW214862   4.399   2.559   8.979  0.6636  0.8454  1.1973
 1135SOL     OW14863   1.199   2.185   2.615 -0.5865 -0.2389  0.5637
 1135SOL    HW114864   1.268   2.122   2.595 -0.7610 -0.0365 -0.6785
 1135SOL    HW214865   1.205   2.231   2.531 -1.7986 -0.5337  0.3030
 1136SOL     OW14866   2.238   3.983   2.375 -0.3752  0.6162  0.3959
 1136SOL    HW114867   2.332   3.976   2.390 -0.3988 -2.3894 -0.8253
 1136SOL    HW214868   2.239   4.078   2.386  2.2933  0.5938  0.4684
 1137SOL     OW14869   2.378   0.646   2.139 -0.1769 -0.5125  0.0266
 1137SOL    HW114870   2.284   0.631   2.152 -0.6059  2.3820  0.3306
 1137SOL    HW214871   2.414   0.561   2.115 -0.8076 -0.9973  0.8080
 1138SOL     OW14872   2.009   2.178   1.616  0.1800 -0.6420 -0.1193
 1138SOL    HW114873   2.035   2.090   1.587 -0.7463 -1.1703  0.6442
 1138SOL    HW214874   2.052   2.229   1.548 -0.8840  1.2982  0.6635
 1139SOL     OW14875   3.631   0.485   6.396  1.0443  0.0224 -0.0471
 1139SOL    HW114876   3.670   0.475   6.483  3.1001 -1.4611 -1.1200
 1139SOL    HW214877   3.692   0.535   6.342 -1.4295  2.3302 -0.6633
 1140SOL     OW14878   4.163   2.177   0.523  0.5731 -0.6999 -0.4148
 1140SOL    HW114879   4.186   2.157   0.433 -0.1743 -0.6585 -0.6097
 1140SOL    HW214880   4.226   2.122   0.570 -0.6608 -2.3395 -0.7002
 1141SOL     OW14881   0.532   4.528   4.059 -0.0686 -0.6130  0.3393
 1141SOL    HW114882   0.486   4.579   4.126  2.0347  1.0244  0.5368
 1141SOL    HW214883   0.538   4.594   3.991 -0.6384 -0.4845  0.4128
 1142SOL     OW14884   4.385   3.369   8.801 -0.2773 -0.0853  0.4777
 1142SOL    HW114885   4.438   3.380   8.880  2.0849 -3.0421 -0.6756
 1142SOL    HW214886   4.338   3.286   8.813 -0.4046 -0.2779 -1.2679
 1143SOL     OW14887   2.214   0.262   7.053  0.2043  0.1658 -0.2568
 1143SOL    HW114888   2.197   0.355   7.070  0.5774  0.7189 -2.8967
 1143SOL    HW214889   2.148   0.230   7.114  0.9189 -0.7124  0.0480
 1144SOL     OW14890   0.543   4.506   0.692  0.0165  0.8774 -0.7849
 1144SOL    HW114891   0.614   4.545   0.640  0.6867  0.9587  0.2065
 1144SOL    HW214892   0.505   4.589   0.720  0.0014  0.2725  0.9383
 1145SOL     OW14893   4.443   1.392   1.172 -0.1128 -0.3845 -0.2431
 1145SOL    HW114894   4.522   1.398   1.118 -0.4617  2.0006 -0.4581
 1145SOL    HW214895   4.407   1.480   1.166 -1.8582 -1.1565 -1.2419
 1146SOL     OW14896   1.635   0.388   8.586 -0.5407  0.2975  0.7766
 1146SOL    HW114897   1.633   0.298   8.554  2.3483  0.6277 -0.2647
 1146SOL    HW214898   1.686   0.372   8.665  1.7041 -0.6239 -0.8668
 1147SOL     OW14899   2.961   0.167  15.764 -0.0573  0.2742  0.4468
 1147SOL    HW114900   2.887   0.109  15.782 -0.2051 -0.3148 -2.1344
 1147SOL    HW214901   2.936   0.239  15.823 -0.0870  0.7229 -0.1093
 1148SOL     OW14902   0.935   0.882   1.454 -0.3305  0.3461  0.0547
 1148SOL    HW114903   0.913   0.974   1.440  1.1171  0.7889  0.6922
 1148SOL    HW214904   1.029   0.887   1.472 -0.1513 -0.5034 -0.6560
 1149SOL     OW14905   2.085   2.100   2.299  0.3080 -0.1194  0.2330
 1149SOL    HW114906   2.037   2.177   2.328  0.1001 -0.0584 -0.2812
 1149SOL    HW214907   2.052   2.032   2.358  2.0715  0.5035  1.9356
 1150SOL     OW14908   1.558   0.607   8.393  0.0165  0.0855  0.0264
 1150SOL    HW114909   1.570   0.613   8.299 -1.3385 -1.1474 -0.2302
 1150SOL    HW214910   1.609   0.531   8.422 -0.3436 -0.3622 -0.5068
 1151SOL     OW14911   0.167   2.289   8.476  0.4823  0.1055 -0.1812
 1151SOL    HW114912   0.183   2.384   8.479  0.8166  0.0860 -1.3648
 1151SOL    HW214913   0.080   2.283   8.514 -0.2709  2.8723 -1.4888
 1152SOL     OW14914   1.713   3.293  11.168 -0.0651  0.8120  0.0079
 1152SOL    HW114915   1.792   3.330  11.208  0.9557 -0.3893 -0.8776
 1152SOL    HW214916   1.738   3.254  11.083 -0.1569 -0.0099  0.3574
 1153SOL     OW14917   2.799   1.493   6.216  0.0684  0.6279  0.2189
 1153SOL    HW114918   2.813   1.503   6.310  0.6074 -0.8308  0.2899
 1153SOL    HW214919   2.737   1.563   6.198 -1.4349 -1.3203 -2.0511
 1154SOL     OW14920   4.503   2.480   1.750 -0.9051 -1.2932 -0.2804
 1154SOL    HW114921   4.527   2.523   1.668 -2.0814 -0.6026 -0.2690
 1154SOL    HW214922   4.443   2.411   1.723 -1.4587 -0.9302  0.0046
 1155SOL     OW14923   3.956   0.660  11.076 -0.4542 -0.1211 -0.8028
 1155SOL    HW114924   3.940   0.571  11.108 -0.0014 -0.4297 -1.4387
 1155SOL    HW214925   4.049   0.653  11.095  0.0943  1.3406 -3.0332
 1156SOL     OW14926   3.659   4.272   3.410 -0.1589  0.2131  0.1319
 1156SOL    HW114927   3.654   4.318   3.494 -2.5604  0.4842 -0.1515
 1156SOL    HW214928   3.667   4.344   3.347  2.4563  0.6129  0.9226
 1157SOL     OW14929   4.562   1.990   8.095 -0.2390  0.0340  0.1236
 1157SOL    HW114930   4.531   2.070   8.054  0.4120 -0.3764 -1.1629
 1157SOL    HW214931   4.653   2.001   8.123  0.4569 -0.3487 -2.0051
 1158SOL     OW14932   1.802   0.445   6.926  0.2650  0.1482  0.2242
 1158SOL    HW114933   1.788   0.504   6.851  0.2951 -0.3831 -0.1981
 1158SOL    HW214934   1.719   0.450   6.973  0.9245 -0.0212  1.3824
 1159SOL     OW14935   1.561   1.683   5.212 -0.1955 -0.0487  0.0307
 1159SOL    HW114936   1.655   1.685   5.194 -0.2187 -0.8513 -0.1939
 1159SOL    HW214937   1.548   1.591   5.234  2.1159 -0.5324 -0.6115
 1160SOL     OW14938   1.719   1.826   0.894  0.1235  0.1199  0.2620
 1160SOL    HW114939   1.763   1.909   0.916 -0.5616  0.5875 -0.1225
 1160SOL    HW214940   1.770   1.802   0.816 -1.8862  0.4302 -1.1629
 1161SOL     OW14941   0.638   0.595   3.593  0.3899 -0.1864 -0.3617
 1161SOL    HW114942   0.626   0.682   3.557  1.5804  1.1534  2.4720
 1161SOL    HW214943   0.547   0.565   3.600  0.2050  0.1342 -1.3821
 1162SOL     OW14944   2.996   1.975   1.866 -0.2672  0.2137  0.3857
 1162SOL    HW114945   2.983   1.901   1.925 -0.3627  1.0038  1.3594
 1162SOL    HW214946   3.042   2.029   1.931  2.4526 -1.2785 -0.2684
 1163SOL     OW14947   0.801   0.769   5.997  0.3742  0.3403  0.0818
 1163SOL    HW114948   0.816   0.764   6.091 -0.6416  0.8121  0.2679
 1163SOL    HW214949   0.762   0.856   5.986  0.0559  0.3173  1.0683
 1164SOL     OW14950   0.002   0.413   4.010 -0.8328  0.6980 -0.4064
 1164SOL    HW114951   4.652   0.470   4.019 -1.9213 -0.5680 -1.6407
 1164SOL    HW214952   4.696   0.328   4.039 -0.9906 -0.2557 -3.3412
 1165SOL     OW14953   4.222   1.636   3.123 -0.4021 -0.9689 -0.1092
 1165SOL    HW114954   4.245   1.579   3.197  1.2729  1.3606  1.1508
 1165SOL    HW214955   4.254   1.581   3.052 -0.9595 -3.0097  1.1887
 1166SOL     OW14956   2.421   4.189   2.823  0.0722 -0.7666 -0.1350
 1166SOL    HW114957   2.464   4.195   2.908  2.0581  1.0392 -1.2875
 1166SOL    HW214958   2.496   4.198   2.765 -1.0304 -1.9618 -1.7565
 1167SOL     OW14959   4.647   0.678  13.101  0.0896 -0.0491  0.2637
 1167SOL    HW114960   4.671   0.770  13.111  0.3622 -0.0650 -0.2596
 1167SOL    HW214961   4.664   0.664  13.008  0.3027  0.2125  0.2630
 1168SOL     OW14962   3.358   1.369   0.074 -0.1649  0.3003  0.1093
 1168SOL    HW114963   3.438   1.320   0.093  1.2848  1.6582 -2.5635
 1168SOL    HW214964   3.292   1.334   0.135 -0.0163 -0.0240  0.0840
 1169SOL     OW14965   2.345   2.929  12.304 -0.0501  0.0941 -0.2372
 1169SOL    HW114966   2.386   2.987  12.239  1.9449  1.7682  2.5082
 1169SOL    HW214967   2.388   2.955  12.386  1.2304  1.7608 -1.4489
 1170SOL     OW14968   3.556   3.542  15.325  0.4426 -0.1642  0.3476
 1170SOL    HW114969   3.558   3.629  15.285  0.4304 -0.1326  0.4171
 1170SOL    HW214970   3.621   3.495  15.273 -0.1467 -0.3963 -0.1909
 1171SOL     OW14971   0.060   1.775  16.531 -0.0862  0.4442 -0.4130
 1171SOL    HW114972   4.717   1.736  16.477 -0.5189 -0.0946  0.5270
 1171SOL    HW214973   0.023   1.863  16.540  2.3759  1.3128  1.1337
 1172SOL     OW14974   1.186   1.108  14.329 -0.1105  0.0985  0.1614
 1172SOL    HW114975   1.118   1.070  14.385  0.8731  0.3761  1.5530
 1172SOL    HW214976   1.150   1.194  14.307  1.0764  0.3575 -0.7331
 1173SOL     OW14977   1.768   2.248   7.890 -0.3829 -0.3244  0.0552
 1173SOL    HW114978   1.735   2.246   7.981 -0.1409 -0.7371  0.1301
 1173SOL    HW214979   1.705   2.189   7.848  0.6030 -1.1505 -0.2378
 1174SOL     OW14980   2.513   2.373  10.653  0.6194  0.2627  0.4038
 1174SOL    HW114981   2.501   2.331  10.738 -0.8749 -0.7215 -0.3002
 1174SOL    HW214982   2.514   2.462  10.690 -4.2934  0.0094  1.1420
 1175SOL     OW14983   4.099   1.139  16.061  0.5298  0.0453  0.6872
 1175SOL    HW114984   4.118   1.046  16.046  0.5909  0.4225 -1.6938
 1175SOL    HW214985   4.157   1.183  15.999 -0.0691  1.6003  1.2249
 1176SOL     OW14986   4.242   2.664   8.461 -0.3303  0.5840 -0.1469
 1176SOL    HW114987   4.320   2.709   8.493 -0.4151  1.3568 -1.0351
 1176SOL    HW214988   4.267   2.667   8.368  1.9361 -1.3643  0.4126
 1177SOL     OW14989   0.795   0.377   8.552  0.3597 -0.4702 -0.3109
 1177SOL    HW114990   0.867   0.398   8.611 -0.1780  2.7829 -0.8091
 1177SOL    HW214991   0.753   0.303   8.597  0.6266 -0.4914 -0.0983
 1178SOL     OW14992   3.544   0.046  10.332 -0.6815  0.5133 -0.0316
 1178SOL    HW114993   3.523   4.717  10.408  0.3811 -2.0794 -1.6500
 1178SOL    HW214994   3.473   0.107  10.355  0.8034  1.9878  0.6256
 1179SOL     OW14995   2.520   2.358  16.772 -0.1261 -0.4312  0.3015
 1179SOL    HW114996   2.561   2.438  16.739 -0.2863 -1.7378 -3.0773
 1179SOL    HW214997   2.513   2.323  16.683 -2.1750  0.1394  0.2395
 1180SOL     OW14998   3.184   4.443   6.787 -0.1063  0.7511  0.4246
 1180SOL    HW114999   3.139   4.485   6.860  0.9029 -1.7551  2.4773
 1180SOL    HW215000   3.196   4.351   6.811 -0.0239  0.7905  0.5320
 1181SOL     OW15001   1.578   1.121   1.678 -0.4954 -0.1240  0.5951
 1181SOL    HW115002   1.509   1.068   1.640 -1.1925  0.9903  0.2945
 1181SOL    HW215003   1.589   1.067   1.756 -2.7511 -1.8589 -0.3298
 1182SOL     OW15004   2.217   4.274   7.654  0.0274  0.1323 -0.4200
 1182SOL    HW115005   2.158   4.219   7.705 -0.2942  0.2084 -0.7110
 1182SOL    HW215006   2.299   4.243   7.693  0.2117  1.4315  0.2275
 1183SOL     OW15007   4.052   2.235   1.257 -0.0269 -0.1108 -0.0095
 1183SOL    HW115008   4.037   2.282   1.339 -2.7757 -0.7297 -0.1701
 1183SOL    HW215009   4.136   2.194   1.277  1.4781  1.8527 -2.2396
 1184SOL     OW15010   3.096   2.152  15.116  0.0537  0.5080  0.5578
 1184SOL    HW115011   3.152   2.130  15.190  0.8587 -0.5234 -0.3439
 1184SOL    HW215012   3.033   2.081  15.123  0.4916  0.0552 -0.0561
 1185SOL     OW15013   0.445   2.607   5.996 -0.1138  0.2435 -0.3802
 1185SOL    HW115014   0.503   2.582   5.924 -0.0764 -1.1197  0.1369
 1185SOL    HW215015   0.506   2.599   6.068  1.9578  0.7595 -2.0781
 1186SOL     OW15016   2.532   4.711   6.775  0.0064  0.1369 -1.1563
 1186SOL    HW115017   2.559   0.021   6.859 -0.3523  0.3381 -1.1248
 1186SOL    HW215018   2.437   0.002   6.777  0.3310  1.7749  0.3249
 1187SOL     OW15019   2.618   3.135   3.334  0.1302  0.3233  0.0168
 1187SOL    HW115020   2.633   3.225   3.306  0.0599 -0.1352 -1.5119
 1187SOL    HW215021   2.618   3.092   3.248 -0.7916 -1.4471  0.9081
 1188SOL     OW15022   2.922   1.648  13.860  0.4118  1.2005 -0.2127
 1188SOL    HW115023   2.940   1.580  13.924 -0.4295 -0.4204 -1.6991
 1188SOL    HW215024   2.964   1.719  13.908  0.6702 -0.6193  2.2154
 1189SOL     OW15025   3.336   0.727   8.126 -0.6181 -0.1649 -0.0767
 1189SOL    HW115026   3.375   0.765   8.205  0.3792 -4.0508  1.3146
 1189SOL    HW215027   3.275   0.662   8.161 -0.1432  0.9231  2.8251
 1190SOL     OW15028   1.103   2.358   6.604  0.1329 -0.0182  0.1189
 1190SOL    HW115029   1.135   2.431   6.551  1.5196 -0.1974  0.7111
 1190SOL    HW215030   1.179   2.316   6.645  1.1208  0.7470 -0.9551
 1191SOL     OW15031   1.351   2.854  17.548  0.5648  0.0798  0.2666
 1191SOL    HW115032   1.261   2.833  17.574  0.1348  0.4698 -0.8702
 1191SOL    HW215033   1.370   2.921  17.614  0.3675  0.7003 -0.2991
 1192SOL     OW15034   1.357   4.506  17.581 -0.4732 -0.1633  0.0223
 1192SOL    HW115035   1.278   4.560  17.588 -1.0927 -1.2012  1.2210
 1192SOL    HW215036   1.388   4.511  17.672  1.4897  1.1144 -0.7110
 1193SOL     OW15037   0.951   1.826   5.178 -0.4019  0.6502 -0.1852
 1193SOL    HW115038   0.878   1.836   5.117 -0.6518  0.4661  0.0854
 1193SOL    HW215039   1.012   1.773   5.126  0.1332 -1.7115  2.8308
 1194SOL     OW15040   3.533   4.518   3.276  0.5745  0.0737  0.4423
 1194SOL    HW115041   3.543   4.611   3.297 -0.5557  0.9024 -2.6100
 1194SOL    HW215042   3.464   4.501   3.340 -2.0308  0.8674 -2.1211
 1195SOL     OW15043   0.455   1.363   6.640 -0.6062 -0.3272 -0.0834
 1195SOL    HW115044   0.508   1.309   6.698  0.3191  1.5247  0.8148
 1195SOL    HW215045   0.481   1.449   6.675  2.3959 -0.3206 -2.3427
 1196SOL     OW15046   2.096   4.047  11.707 -0.0930 -0.4095 -0.0855
 1196SOL    HW115047   2.141   3.994  11.641  2.5417  0.7550  0.7903
 1196SOL    HW215048   2.016   4.065  11.658  0.0246  0.4618  0.0510
 1197SOL     OW15049   1.717   1.775  13.782  0.3900  0.1787  0.3961
 1197SOL    HW115050   1.622   1.780  13.782  0.4486  1.3385  2.3917
 1197SOL    HW215051   1.728   1.840  13.712 -1.8183  1.0131  0.8324
 1198SOL     OW15052   4.381   4.204   8.434  0.3207 -0.0022  0.8861
 1198SOL    HW115053   4.457   4.162   8.472 -0.0312 -0.8821  0.6238
 1198SOL    HW215054   4.316   4.173   8.497 -1.2361  0.9826 -0.2070
 1199SOL     OW15055   1.609   2.769   9.451  0.0445  0.3381 -0.3956
 1199SOL    HW115056   1.566   2.832   9.393  4.1326  1.9215 -1.6653
 1199SOL    HW215057   1.596   2.686   9.404 -2.3164 -0.6911  2.0870
 1200SOL     OW15058   2.434   0.163  11.611 -0.2904  0.3220 -0.4779
 1200SOL    HW115059   2.399   0.143  11.524  0.0100  0.8357 -0.7183
 1200SOL    HW215060   2.512   0.215  11.589 -1.2738  2.7076  1.6093
 1201SOL     OW15061   3.235   3.280   4.897  0.0540 -0.0400 -0.1733
 1201SOL    HW115062   3.144   3.310   4.895  0.2439  0.4988 -0.7731
 1201SOL    HW215063   3.239   3.237   4.811 -0.1163 -0.9170  0.2498
 1202SOL     OW15064   0.074   4.578   7.611 -0.3888 -0.0755 -0.5687
 1202SOL    HW115065   4.713   4.612   7.587  0.0802  0.4629 -1.4888
 1202SOL    HW215066   0.066   4.560   7.705  1.7079 -0.2432 -0.4338
 1203SOL     OW15067   4.169   0.350   2.527 -0.2530  0.4781  0.1969
 1203SOL    HW115068   4.259   0.375   2.502  0.2495  0.0512  1.6080
 1203SOL    HW215069   4.175   0.260   2.497  4.7183  1.1888 -1.1020
 1204SOL     OW15070   3.223   0.890  14.918 -0.5013  0.2408  0.1424
 1204SOL    HW115071   3.204   0.979  14.890 -0.3851  0.4453  0.7239
 1204SOL    HW215072   3.144   0.874  14.969 -1.2463 -2.3150 -1.7950
 1205SOL     OW15073   4.118   0.821   5.874 -0.3881  0.0142  0.4038
 1205SOL    HW115074   4.084   0.783   5.793 -0.4837 -0.3314  0.6109
 1205SOL    HW215075   4.137   0.741   5.922 -2.7359 -2.2348 -2.4810
 1206SOL     OW15076   2.654   4.352  11.437  0.3703  0.3724 -0.3872
 1206SOL    HW115077   2.588   4.329  11.371  0.6851  1.5615 -1.1159
 1206SOL    HW215078   2.610   4.327  11.518 -1.9998  1.1165 -1.4616
 1207SOL     OW15079   2.805   1.887   7.945  0.3770 -0.1611  0.2709
 1207SOL    HW115080   2.758   1.807   7.925  0.9742 -0.4883  0.1710
 1207SOL    HW215081   2.741   1.958   7.938  1.4172  0.8686  1.0612
 1208SOL     OW15082   2.049   0.241   6.784 -0.1898  0.2223 -0.0479
 1208SOL    HW115083   2.037   0.279   6.872  0.6001 -0.2704  0.2742
 1208SOL    HW215084   2.145   0.239   6.779 -0.1400  3.1295 -0.2844
 1209SOL     OW15085   0.656   1.758   2.379  0.7614  0.3758  0.1951
 1209SOL    HW115086   0.594   1.831   2.381  0.0905 -0.2265  0.9890
 1209SOL    HW215087   0.696   1.770   2.465 -1.6225 -0.5379  1.4245
 1210SOL     OW15088   0.423   4.218   8.565 -0.6791  0.1927  0.0446
 1210SOL    HW115089   0.328   4.202   8.562 -1.0697  2.7240 -0.7320
 1210SOL    HW215090   0.455   4.140   8.609  0.0491 -0.6342 -1.9441
 1211SOL     OW15091   1.762   1.814  16.777  0.3162 -0.4301 -1.0466
 1211SOL    HW115092   1.823   1.744  16.801  0.8122  0.9905  1.8597
 1211SOL    HW215093   1.725   1.778  16.696  0.3254  1.7833 -2.0331
 1212SOL     OW15094   4.485   3.925   3.950 -0.2382 -0.9137  0.0172
 1212SOL    HW115095   4.417   3.992   3.944 -0.8687 -1.4571  1.1445
 1212SOL    HW215096   4.467   3.868   3.876  0.6203 -0.0104 -0.9022
 1213SOL     OW15097   2.044   0.914   6.948 -0.1375 -0.0882  0.2203
 1213SOL    HW115098   1.973   0.975   6.971 -0.2944 -0.6346  1.1724
 1213SOL    HW215099   2.034   0.932   6.855 -0.3668 -2.9452 -0.2997
 1214SOL     OW15100   0.913   4.051   8.410  0.1968  0.1097  0.8144
 1214SOL    HW115101   1.006   4.039   8.428 -0.0624  2.8241  4.0550
 1214SOL    HW215102   0.884   4.053   8.502 -0.0646 -0.2663  0.7389
 1215SOL     OW15103   2.165   4.018   3.829 -0.2303 -0.5575 -0.2716
 1215SOL    HW115104   2.215   4.095   3.856  0.2259 -0.9893  0.1208
 1215SOL    HW215105   2.091   4.067   3.793  0.6135  1.3425  0.5721
 1216SOL     OW15106   2.247   0.350   2.862  0.6872  0.4433 -0.0436
 1216SOL    HW115107   2.235   0.341   2.768  2.3313  2.4606 -0.4261
 1216SOL    HW215108   2.171   0.399   2.892 -0.6448 -2.0868  0.7784
 1217SOL     OW15109   0.623   1.532   6.190  0.2802 -0.4049  0.1316
 1217SOL    HW115110   0.711   1.495   6.181  0.0832 -0.7823 -0.3024
 1217SOL    HW215111   0.593   1.502   6.275  1.5940 -1.3154  0.2882
 1218SOL     OW15112   4.092   2.154   3.653 -0.2947 -0.1892  0.6653
 1218SOL    HW115113   4.164   2.204   3.691 -1.2594  1.5824  0.1437
 1218SOL    HW215114   4.113   2.071   3.697  0.9110 -0.6403 -0.7373
 1219SOL     OW15115   1.403   2.739   7.094 -0.5792  0.4206 -0.0626
 1219SOL    HW115116   1.325   2.704   7.050  0.2007 -1.2860 -0.1031
 1219SOL    HW215117   1.368   2.827   7.104 -0.9308  0.2710  0.0343
 1220SOL     OW15118   0.240   1.376   6.481  0.3436  0.1293 -0.7141
 1220SOL    HW115119   0.222   1.282   6.488 -1.2579  0.7418  3.1137
 1220SOL    HW215120   0.318   1.387   6.535 -0.3398 -0.8716  0.4698
 1221SOL     OW15121   3.967   3.001  12.251  0.4050  0.0105  0.3506
 1221SOL    HW115122   4.047   2.999  12.303  1.7377  0.4678 -1.6846
 1221SOL    HW215123   3.905   2.955  12.307  2.0128  0.3740  2.4443
 1222SOL     OW15124   4.590   1.363   4.452  0.1411 -0.0781  0.1289
 1222SOL    HW115125   4.680   1.383   4.478  0.2082 -0.0166 -0.1518
 1222SOL    HW215126   4.541   1.399   4.526 -0.7172  0.7204 -0.8399
 1223SOL     OW15127   0.559   0.882  14.303  0.0594 -0.7167  0.0372
 1223SOL    HW115128   0.500   0.956  14.288  0.7493 -0.1153  0.2607
 1223SOL    HW215129   0.500   0.810  14.324  0.9081 -1.5967 -0.5937
 1224SOL     OW15130   1.052   0.003   3.082  0.2826 -0.0790 -0.4269
 1224SOL    HW115131   1.126   4.678   3.048 -0.4577 -0.5070 -1.4123
 1224SOL    HW215132   0.975   4.674   3.070  0.1243  0.0232  0.1273
 1225SOL     OW15133   2.900   2.895  16.076  0.0503  0.2734  0.2277
 1225SOL    HW115134   2.988   2.875  16.045 -0.3714 -0.3744 -0.5619
 1225SOL    HW215135   2.877   2.973  16.026  1.4848  0.6383  0.1515
 1226SOL     OW15136   3.415   2.100   2.121  0.5675  0.1835 -0.1777
 1226SOL    HW115137   3.320   2.113   2.122  0.6586  0.8762 -0.6441
 1226SOL    HW215138   3.447   2.186   2.095  0.1455  0.8895  1.6397
 1227SOL     OW15139   3.590   2.188  13.885 -0.0281 -0.2211 -0.2482
 1227SOL    HW115140   3.569   2.270  13.930 -0.8035 -0.4581 -0.1733
 1227SOL    HW215141   3.570   2.125  13.954 -0.4291  1.9969  1.6637
 1228SOL     OW15142   1.617   1.730  11.290  0.2687 -0.1466  0.2652
 1228SOL    HW115143   1.683   1.799  11.279 -1.7351  1.6838 -0.4064
 1228SOL    HW215144   1.656   1.671  11.353  0.8308 -1.2802 -1.1426
 1229SOL     OW15145   0.411   4.428  14.068  0.1732  0.4003 -0.1112
 1229SOL    HW115146   0.359   4.348  14.063 -2.5808  2.2213 -0.4554
 1229SOL    HW215147   0.418   4.442  14.163 -1.0938  0.4968 -0.0333
 1230SOL     OW15148   1.520   1.064   8.894 -0.5327  0.4759 -0.1181
 1230SOL    HW115149   1.586   1.133   8.901 -0.0096 -0.2954  2.4906
 1230SOL    HW215150   1.491   1.054   8.985 -1.1009  0.6603 -0.2793
 1231SOL     OW15151   4.449   0.186   8.493 -0.0860  0.3701  0.4278
 1231SOL    HW115152   4.472   0.277   8.515 -0.8310  0.5529  0.4819
 1231SOL    HW215153   4.531   0.137   8.495 -0.4113 -0.1989 -0.2674
 1232SOL     OW15154   1.267   0.510   4.256 -0.0446 -0.4037 -0.2094
 1232SOL    HW115155   1.221   0.530   4.337 -0.5751  2.0215 -1.1099
 1232SOL    HW215156   1.350   0.470   4.283  0.3475  0.3451 -0.3021
 1233SOL     OW15157   3.703   1.166   0.558  0.4059  0.2269 -0.3465
 1233SOL    HW115158   3.780   1.129   0.602  0.4269 -0.6890 -1.1498
 1233SOL    HW215159   3.681   1.100   0.492  1.2362 -1.5715  1.1793
 1234SOL     OW15160   0.102   0.565   4.643 -0.0127 -0.0185  0.4650
 1234SOL    HW115161   0.031   0.627   4.662  0.6423  1.3284 -1.3893
 1234SOL    HW215162   0.173   0.591   4.702 -0.5966 -0.0106  1.1652
 1235SOL     OW15163   1.224   3.258   7.079 -0.7972 -0.0877  0.6580
 1235SOL    HW115164   1.285   3.317   7.125  1.5423 -0.0422 -2.5389
 1235SOL    HW215165   1.209   3.320   7.008 -0.6485  0.6636  1.2776
 1236SOL     OW15166   2.646   1.334  14.411 -0.3948 -0.1396  0.2905
 1236SOL    HW115167   2.658   1.369  14.323 -1.1469  2.3712  1.1811
 1236SOL    HW215168   2.614   1.246  14.396  1.6514 -0.4197 -2.2665
 1237SOL     OW15169   1.501   1.554   5.950 -0.1050 -0.2307 -0.0090
 1237SOL    HW115170   1.422   1.588   5.909 -1.7900 -0.2473  3.1954
 1237SOL    HW215171   1.512   1.619   6.019  0.5241 -0.8595  0.4921
 1238SOL     OW15172   0.561   3.269  12.327 -0.4104 -0.1602  0.9437
 1238SOL    HW115173   0.468   3.260  12.309 -0.3818  0.7802  0.3516
 1238SOL    HW215174   0.577   3.175  12.336 -0.0140 -0.4107 -2.2830
 1239SOL     OW15175   2.444   1.971   6.701  0.3556 -0.7011  0.2937
 1239SOL    HW115176   2.506   2.021   6.755  0.3511  1.2171 -1.4835
 1239SOL    HW215177   2.402   2.044   6.656  0.6953 -0.5462  0.2268
 1240SOL     OW15178   3.083   4.020   2.092 -0.1604 -0.6599 -0.1366
 1240SOL    HW115179   3.042   4.004   2.007 -1.9768 -1.8226  0.9695
 1240SOL    HW215180   3.028   4.090   2.126 -1.7685 -1.3125 -1.4300
 1241SOL     OW15181   3.601   0.280   6.895 -0.2952  0.2394 -0.3762
 1241SOL    HW115182   3.624   0.267   6.803 -2.9051  2.1818 -1.2884
 1241SOL    HW215183   3.675   0.248   6.946  1.2623  1.4674 -1.9133
 1242SOL     OW15184   1.698   2.000  12.700  0.3768  0.3140 -0.1906
 1242SOL    HW115185   1.763   1.972  12.635  2.2058  2.3497  0.7596
 1242SOL    HW215186   1.618   1.969  12.657  1.2403 -3.3856  0.8053
 1243SOL     OW15187   0.338   3.046  14.785 -0.0426 -0.1378 -0.2531
 1243SOL    HW115188   0.319   2.969  14.733  1.8880 -1.1231  0.5269
 1243SOL    HW215189   0.381   3.097  14.716 -1.2240  2.1854  0.6962
 1244SOL     OW15190   1.801   0.896  14.244  0.0375 -0.2288 -0.2288
 1244SOL    HW115191   1.875   0.902  14.184  0.9844 -2.0651  0.7845
 1244SOL    HW215192   1.797   0.801  14.251 -1.6511 -0.1058  0.4466
 1245SOL     OW15193   2.530   3.582   4.615 -0.1384 -0.3327 -0.2568
 1245SOL    HW115194   2.586   3.655   4.589  1.9548 -2.5180 -1.9227
 1245SOL    HW215195   2.597   3.532   4.662  0.8049  1.9214  0.8043
 1246SOL     OW15196   1.189   1.491   4.598  0.3798  0.4366 -0.2478
 1246SOL    HW115197   1.172   1.461   4.688  1.6366 -0.4096 -0.2945
 1246SOL    HW215198   1.136   1.570   4.591  1.6297  1.3017  0.1635
 1247SOL     OW15199   3.186   1.053   3.079 -0.0834 -0.1813  0.1525
 1247SOL    HW115200   3.202   1.056   2.985  1.1302 -2.3635  0.2936
 1247SOL    HW215201   3.174   1.146   3.099 -1.5890 -0.2660 -0.3322
 1248SOL     OW15202   2.843   0.911   5.912 -0.1446  0.1978  0.4216
 1248SOL    HW115203   2.929   0.908   5.870 -0.4492  0.1512 -0.1922
 1248SOL    HW215204   2.786   0.868   5.849  1.0300  0.3396 -0.7323
 1249SOL     OW15205   3.672   1.130   8.615 -0.1537 -0.2932  0.6696
 1249SOL    HW115206   3.581   1.114   8.590  0.1889 -1.0761 -0.0474
 1249SOL    HW215207   3.710   1.057   8.568  2.0768 -0.2719  2.4318
 1250SOL     OW15208   3.575   0.760   2.760 -0.8297 -0.0586 -0.8089
 1250SOL    HW115209   3.642   0.694   2.778 -2.8056 -2.5866 -2.6077
 1250SOL    HW215210   3.600   0.840   2.805 -0.6061 -1.9703  2.4110
 1251SOL     OW15211   3.869   2.381  13.872  0.1808 -0.3707  0.0307
 1251SOL    HW115212   3.919   2.436  13.933  1.4119 -0.8312 -0.5625
 1251SOL    HW215213   3.922   2.302  13.867  0.0608 -0.4084 -0.6577
 1252SOL     OW15214   1.455   4.427   3.579  0.1319 -0.2261 -0.3347
 1252SOL    HW115215   1.418   4.340   3.564 -0.1818 -0.2960  0.8608
 1252SOL    HW215216   1.413   4.486   3.516 -0.3826 -1.1283 -0.8418
 1253SOL     OW15217   1.805   0.958   9.188  0.7245  0.2291  0.1569
 1253SOL    HW115218   1.891   0.936   9.224  0.3023  1.5623  1.9700
 1253SOL    HW215219   1.802   0.888   9.123 -3.6103  0.9573 -0.4512
 1254SOL     OW15220   2.025   4.564  10.268  0.4638 -0.0209  0.3310
 1254SOL    HW115221   2.084   4.617  10.214 -1.1901 -1.9734 -3.4138
 1254SOL    HW215222   1.975   4.626  10.321  0.3851  0.6431 -0.5100
 1255SOL     OW15223   3.766   3.756   9.133 -0.2468 -0.0076 -0.2777
 1255SOL    HW115224   3.798   3.666   9.130  0.1918 -0.0313  4.0656
 1255SOL    HW215225   3.844   3.799   9.168  0.1115 -0.3588 -0.6389
 1256SOL     OW15226   3.800   3.526   9.377  0.7046 -0.4792 -0.5627
 1256SOL    HW115227   3.804   3.539   9.472  0.6049  1.8275 -0.8765
 1256SOL    HW215228   3.887   3.553   9.347  0.7421 -0.1291 -0.1380
 1257SOL     OW15229   1.247   0.986   3.318 -0.0432 -0.3444 -0.2327
 1257SOL    HW115230   1.233   1.075   3.351  1.3226 -0.2216  0.0230
 1257SOL    HW215231   1.260   1.006   3.226 -1.2901 -0.0358 -0.3407
 1258SOL     OW15232   2.934   1.525   2.118 -0.1126 -0.1617  0.0937
 1258SOL    HW115233   2.953   1.455   2.056  1.5531  0.7525 -0.4233
 1258SOL    HW215234   2.851   1.503   2.160  0.0284  1.5483  1.2985
 1259SOL     OW15235   3.044   4.415   7.706  1.4821  0.3528  0.2001
 1259SOL    HW115236   3.046   4.460   7.791 -0.4221  0.1900  0.3153
 1259SOL    HW215237   2.965   4.456   7.670  1.2405 -1.5919 -1.4370
 1260SOL     OW15238   0.412   1.860  15.130  0.5305  0.6794 -0.2834
 1260SOL    HW115239   0.361   1.905  15.198  1.5010  1.0905  0.1759
 1260SOL    HW215240   0.448   1.937  15.086  0.6513 -0.3596 -1.9912
 1261SOL     OW15241   0.854   1.600   5.852 -0.0934  0.0357 -0.3720
 1261SOL    HW115242   0.799   1.522   5.846  0.7424 -0.5726  0.0603
 1261SOL    HW215243   0.837   1.631   5.762 -0.1748  0.7646 -0.1060
 1262SOL     OW15244   3.658   4.620   5.332  0.3311 -0.6400  0.0216
 1262SOL    HW115245   3.738   4.618   5.383 -0.9933  1.2421  2.1798
 1262SOL    HW215246   3.697   4.582   5.253 -1.6923  0.0085 -1.3127
 1263SOL     OW15247   3.243   3.002   2.777  0.2226 -0.5162 -0.1772
 1263SOL    HW115248   3.169   2.960   2.820 -1.2184  2.9691  0.7444
 1263SOL    HW215249   3.240   2.958   2.692 -0.7462  0.0326 -0.4268
 1264SOL     OW15250   1.686   3.939   6.972  0.3615  0.1076  0.1848
 1264SOL    HW115251   1.768   3.934   7.021  0.6906 -0.1514 -0.3963
 1264SOL    HW215252   1.617   3.928   7.037  0.7214 -1.8371  0.2477
 1265SOL     OW15253   1.704   4.279  13.376 -0.5042 -0.2557  0.0210
 1265SOL    HW115254   1.758   4.247  13.449 -1.9090 -1.6187  0.4722
 1265SOL    HW215255   1.725   4.372  13.384  0.0620 -0.3204 -0.6275
 1266SOL     OW15256   2.846   2.790  16.628  0.0767 -0.4375 -0.0356
 1266SOL    HW115257   2.870   2.757  16.714 -0.5199 -0.3065  0.1855
 1266SOL    HW215258   2.933   2.800  16.590  0.3721  0.5406  0.8673
 1267SOL     OW15259   2.081   0.624  11.997  0.0871  0.2251  0.7657
 1267SOL    HW115260   2.000   0.648  11.952  0.1572  0.2233  0.6390
 1267SOL    HW215261   2.095   0.548  11.941 -0.1051 -0.6760  1.9333
 1268SOL     OW15262   3.357   1.166   5.146 -0.2726  0.6605  0.0775
 1268SOL    HW115263   3.317   1.188   5.062  1.0106 -0.1249 -0.7531
 1268SOL    HW215264   3.303   1.212   5.209 -1.5149 -0.4236 -0.1870
 1269SOL     OW15265   2.224   0.500   8.437  0.4465 -0.0351 -0.2337
 1269SOL    HW115266   2.197   0.494   8.529  1.4657  1.5686  0.1774
 1269SOL    HW215267   2.287   0.429   8.433 -0.4752 -0.9437  1.4765
 1270SOL     OW15268   2.834   0.759   6.344 -0.0628 -0.4573  0.2577
 1270SOL    HW115269   2.856   0.846   6.309 -1.2741 -0.6854 -1.0635
 1270SOL    HW215270   2.911   0.751   6.399  0.5667 -1.9600 -0.8339
 1271SOL     OW15271   3.289   1.962   3.219 -0.2965 -0.1559 -0.1560
 1271SOL    HW115272   3.310   1.960   3.312  0.1961  0.4305 -0.2484
 1271SOL    HW215273   3.357   1.903   3.185 -1.4257 -1.9946  0.8083
 1272SOL     OW15274   2.136   3.448   5.248 -0.1946 -0.1776 -0.4571
 1272SOL    HW115275   2.177   3.362   5.246  1.7790  0.7748 -2.2026
 1272SOL    HW215276   2.050   3.436   5.208 -0.6399  0.4000  0.3461
 1273SOL     OW15277   4.110   2.692   7.634 -0.5430 -0.6551 -0.0617
 1273SOL    HW115278   4.071   2.687   7.721 -1.2577 -0.2551 -0.3648
 1273SOL    HW215279   4.144   2.781   7.638 -0.3965 -0.7168  0.0552
 1274SOL     OW15280   4.712   1.724   7.358  0.4976  0.2141  0.0493
 1274SOL    HW115281   0.071   1.753   7.394  0.9284 -1.2430  0.2276
 1274SOL    HW215282   0.019   1.647   7.311 -1.5437  0.8315 -2.3666
 1275SOL     OW15283   1.277   3.016  13.478  0.4363 -0.0858 -0.0268
 1275SOL    HW115284   1.276   3.010  13.573  0.5942 -2.0346 -0.1553
 1275SOL    HW215285   1.193   2.974  13.457  0.1755  0.9120 -1.0012
 1276SOL     OW15286   2.716   2.630  11.727 -0.0905 -0.4192  0.5028
 1276SOL    HW115287   2.735   2.541  11.756 -1.1405 -0.6683  0.4550
 1276SOL    HW215288   2.799   2.656  11.687  0.2370 -1.0915  0.7532
 1277SOL     OW15289   2.849   1.614  13.589 -0.0180 -0.1301 -0.6132
 1277SOL    HW115290   2.805   1.531  13.568  0.8791 -1.0629  1.2000
 1277SOL    HW215291   2.876   1.602  13.680  0.4267  2.6739 -0.3935
 1278SOL     OW15292   2.584   2.614   5.704  0.2304  0.0543 -0.3334
 1278SOL    HW115293   2.525   2.575   5.768  1.3659  0.0223  0.6837
 1278SOL    HW215294   2.662   2.597   5.756  2.0791 -0.5326 -3.3199
 1279SOL     OW15295   4.209   3.868   4.290 -0.2321  0.3038 -0.0301
 1279SOL    HW115296   4.183   3.872   4.382  1.7812  1.6832  0.4774
 1279SOL    HW215297   4.280   3.932   4.283 -0.3557  0.3405 -0.8815
 1280SOL     OW15298   4.568   4.093  10.053 -0.0112 -0.5491 -0.2708
 1280SOL    HW115299   4.473   4.084  10.047  0.1853 -1.8752 -1.3698
 1280SOL    HW215300   4.568   4.098  10.148  0.7586 -1.6380 -0.2174
 1281SOL     OW15301   3.312   2.546   8.336 -0.1696  0.0888  0.3751
 1281SOL    HW115302   3.404   2.565   8.358 -0.2984  1.1456  0.0435
 1281SOL    HW215303   3.326   2.544   8.241  0.5775 -2.9510  0.5532
 1282SOL     OW15304   1.113   0.625   1.625 -0.1918  0.3564 -0.1657
 1282SOL    HW115305   1.136   0.671   1.544 -0.5206  1.4480  0.3599
 1282SOL    HW215306   1.199   0.587   1.640 -0.2324  0.2241 -0.2692
 1283SOL     OW15307   0.821   3.913   5.142 -0.0518  0.9175  0.3546
 1283SOL    HW115308   0.824   3.818   5.152  1.8268  0.9235 -0.2224
 1283SOL    HW215309   0.729   3.914   5.113  0.2762 -0.4497 -0.6916
 1284SOL     OW15310   2.339   2.503   1.470 -0.1878  0.4784 -0.1583
 1284SOL    HW115311   2.249   2.472   1.456  0.2841  0.0022 -2.1167
 1284SOL    HW215312   2.359   2.540   1.384 -0.2493 -0.2471 -0.4817
 1285SOL     OW15313   2.247   1.794   4.904 -0.1499  0.4559 -0.2003
 1285SOL    HW115314   2.273   1.887   4.902  0.0485  0.3824 -1.0822
 1285SOL    HW215315   2.233   1.778   4.998 -0.6699  0.6947 -0.2404
 1286SOL     OW15316   1.853   1.207   9.107 -0.6545  0.4966 -0.2330
 1286SOL    HW115317   1.840   1.170   9.020  0.7294  2.1437 -1.1317
 1286SOL    HW215318   1.808   1.137   9.155 -1.8046  2.4273  1.5118
 1287SOL     OW15319   2.165   1.230  10.320  0.3832  0.0730  0.0583
 1287SOL    HW115320   2.151   1.148  10.369  0.5483 -0.6591 -1.1287
 1287SOL    HW215321   2.196   1.203  10.234  1.9189 -0.2904  0.7216
 1288SOL     OW15322   3.441   1.515   3.662 -0.5405  0.3830  0.5407
 1288SOL    HW115323   3.394   1.575   3.604  0.9515 -1.1831 -2.3017
 1288SOL    HW215324   3.471   1.575   3.731  1.6694  0.5347 -0.5452
 1289SOL     OW15325   3.662   1.097  16.835 -0.4021 -0.4985  0.0112
 1289SOL    HW115326   3.752   1.110  16.864 -0.5774  0.4169  0.1468
 1289SOL    HW215327   3.642   1.022  16.892  2.4749 -1.1410  0.1466
 1290SOL     OW15328   3.164   3.410   4.624  0.0881  0.4936  0.1275
 1290SOL    HW115329   3.164   3.351   4.548  1.0365  0.7469 -0.0734
 1290SOL    HW215330   3.125   3.490   4.590 -3.0847 -0.7221  0.9389
 1291SOL     OW15331   2.968   0.762   1.013  0.0984  0.1742 -0.0466
 1291SOL    HW115332   2.901   0.708   1.055  2.8625 -3.0841  0.2130
 1291SOL    HW215333   3.046   0.736   1.063  0.5392 -0.3251 -0.9842
 1292SOL     OW15334   4.501   1.020  11.635  0.3001  0.5402  0.2373
 1292SOL    HW115335   4.500   0.939  11.687 -0.5205  1.0158  0.9708
 1292SOL    HW215336   4.419   1.045  11.677  0.7725  1.7845  0.3915
 1293SOL     OW15337   4.440   1.362   6.838  0.6728  0.3079 -0.7742
 1293SOL    HW115338   4.370   1.298   6.852  1.0812  0.7436  3.1510
 1293SOL    HW215339   4.410   1.403   6.757 -1.9879 -0.2130 -0.0474
 1294SOL     OW15340   3.820   0.668  13.759  0.2550 -0.1424 -0.2515
 1294SOL    HW115341   3.838   0.733  13.827  0.9631  0.8116 -1.3368
 1294SOL    HW215342   3.809   0.724  13.682  0.4334  1.2282  0.7309
 1295SOL     OW15343   2.828   4.396  14.224  0.0735  1.0484  0.0785
 1295SOL    HW115344   2.854   4.431  14.309  0.1593 -1.2950  1.0139
 1295SOL    HW215345   2.736   4.379  14.244 -0.0667 -0.7983 -2.2710
 1296SOL     OW15346   4.302   3.713  11.967 -0.3771 -0.3126  0.2044
 1296SOL    HW115347   4.215   3.751  11.972 -0.1915  0.0840  0.4465
 1296SOL    HW215348   4.345   3.736  12.049 -2.0996  1.2860  0.6470
 1297SOL     OW15349   2.753   0.790   2.229  0.3724  0.1124  0.4055
 1297SOL    HW115350   2.715   0.735   2.297 -0.3884 -1.4922 -1.3473
 1297SOL    HW215351   2.807   0.847   2.285 -0.0500  1.5921 -0.6799
 1298SOL     OW15352   4.396   2.897   6.728  0.1731  0.3063 -0.0506
 1298SOL    HW115353   4.464   2.839   6.692 -0.5697  0.2381 -1.3387
 1298SOL    HW215354   4.379   2.949   6.649  2.6264 -0.3233 -0.9910
 1299SOL     OW15355   2.590   3.367   7.936  0.0929 -0.3733 -0.0818
 1299SOL    HW115356   2.682   3.382   7.914 -0.0771 -0.8373 -1.1102
 1299SOL    HW215357   2.554   3.368   7.847 -2.0946  2.1785  0.8372
 1300SOL     OW15358   0.268   1.619  11.208  0.0598 -0.3939 -0.3027
 1300SOL    HW115359   0.351   1.622  11.256  1.0046 -1.1035 -1.8877
 1300SOL    HW215360   0.210   1.615  11.283 -0.8399 -1.3908 -1.0548
 1301SOL     OW15361   4.201   3.897  12.179  0.3810  0.8345 -0.4725
 1301SOL    HW115362   4.295   3.898  12.194  0.1548 -1.3494  0.9757
 1301SOL    HW215363   4.181   3.923  12.089  2.4511  2.4220 -0.4751
 1302SOL     OW15364   0.224   2.075  11.911  0.1017 -0.8551 -0.0813
 1302SOL    HW115365   0.306   2.124  11.921  0.2563 -0.8699 -1.2627
 1302SOL    HW215366   0.228   2.053  11.818 -1.7459  3.2100 -1.0962
 1303SOL     OW15367   4.193   2.985   3.453 -0.4210 -0.2560  0.2038
 1303SOL    HW115368   4.237   3.046   3.393 -1.4607 -0.6905 -1.0021
 1303SOL    HW215369   4.119   3.036   3.486 -0.4320 -1.2157  1.6389
 1304SOL     OW15370   1.512   2.908   4.057  0.3649 -0.2157 -0.1103
 1304SOL    HW115371   1.454   2.840   4.023 -1.1112  0.5321  0.8956
 1304SOL    HW215372   1.584   2.852   4.088  0.5006 -1.5210 -2.7746
 1305SOL     OW15373   0.990   3.340   4.370 -0.5754 -0.3990 -0.5540
 1305SOL    HW115374   0.931   3.340   4.295 -0.5558  2.8268 -0.5747
 1305SOL    HW215375   0.973   3.428   4.403 -1.1778 -0.8398  0.3320
 1306SOL     OW15376   3.415   1.381   6.665 -0.0405 -0.1040 -0.5228
 1306SOL    HW115377   3.479   1.449   6.642 -0.7472  0.1293 -1.7602
 1306SOL    HW215378   3.443   1.379   6.757 -0.9202  0.3853 -0.2482
 1307SOL     OW15379   1.745   1.918   7.457  0.1289 -0.6984  0.4020
 1307SOL    HW115380   1.724   1.844   7.401 -0.2465  0.2321 -0.6879
 1307SOL    HW215381   1.831   1.888   7.486  1.3902  1.6605 -0.8985
 1308SOL     OW15382   0.805   2.299   5.072 -0.4042  0.4722 -0.2669
 1308SOL    HW115383   0.873   2.354   5.034  0.9329 -0.8246  0.2657
 1308SOL    HW215384   0.766   2.265   4.991 -0.3976 -1.4013  0.4990
 1309SOL     OW15385   4.707   0.100  14.991  0.3769 -0.3926  0.2610
 1309SOL    HW115386   4.640   0.069  14.931 -1.3667  2.1110  0.8990
 1309SOL    HW215387   0.050   0.124  14.929  0.6205  1.5683  1.2910
 1310SOL     OW15388   1.004   1.414  10.507 -0.4540  0.2365 -0.8772
 1310SOL    HW115389   1.100   1.418  10.507 -0.5259  1.6254  1.0330
 1310SOL    HW215390   0.987   1.320  10.497  0.6968  0.0293 -0.9104
 1311SOL     OW15391   2.298   0.069  12.214  0.3258 -0.0406  0.6562
 1311SOL    HW115392   2.206   0.064  12.240 -0.2644 -0.7394 -1.4917
 1311SOL    HW215393   2.307   0.162  12.234 -1.4830  0.4453 -0.7401
 1312SOL     OW15394   3.449   0.523  15.375  0.0192  0.2199 -0.0067
 1312SOL    HW115395   3.481   0.514  15.465 -2.1568  0.3697  0.7942
 1312SOL    HW215396   3.359   0.491  15.386 -0.6249  1.6625 -1.1369
 1313SOL     OW15397   1.690   0.715   1.236 -0.2178  0.4456  0.1118
 1313SOL    HW115398   1.740   0.694   1.157  0.6025 -1.0690  1.0175
 1313SOL    HW215399   1.743   0.670   1.302 -1.0015 -0.5125  0.0886
 1314SOL     OW15400   1.755   2.475  10.616 -0.3279  0.2331  0.7573
 1314SOL    HW115401   1.823   2.423  10.659 -1.1139 -2.2003 -0.9585
 1314SOL    HW215402   1.701   2.400  10.592  5.0172 -4.0670  2.1716
 1315SOL     OW15403   0.365   0.044  13.625 -0.1951  0.6199  0.4549
 1315SOL    HW115404   0.269   0.046  13.623 -0.2290 -0.2499  2.2615
 1315SOL    HW215405   0.397   0.114  13.567  0.1932  0.2335  0.2041
 1316SOL     OW15406   4.373   2.806   3.849  0.0569 -0.0446  0.0666
 1316SOL    HW115407   4.404   2.831   3.762  0.9803  2.3581  1.0758
 1316SOL    HW215408   4.320   2.884   3.866 -1.8068 -0.9773 -1.4323
 1317SOL     OW15409   1.901   0.630  15.556  0.0280 -0.1407 -0.9106
 1317SOL    HW115410   1.873   0.708  15.508  2.0459 -0.2999 -2.3452
 1317SOL    HW215411   1.920   0.655  15.646 -1.4725 -0.9227 -0.3811
 1318SOL     OW15412   4.514   2.125   4.132 -0.3219 -0.3015 -0.5800
 1318SOL    HW115413   4.597   2.172   4.144  0.2215 -1.5990  0.7498
 1318SOL    HW215414   4.456   2.191   4.096 -2.3596 -0.9390  1.5361
 1319SOL     OW15415   3.796   2.869   3.601  0.3981 -0.2323 -0.4973
 1319SOL    HW115416   3.739   2.797   3.573 -1.5592  1.0294  0.2886
 1319SOL    HW215417   3.852   2.880   3.524  1.4046  2.0150  0.5506
 1320SOL     OW15418   1.552   0.311   4.719  0.4034 -0.2551  0.0877
 1320SOL    HW115419   1.637   0.311   4.676  0.3753 -0.9255  0.0300
 1320SOL    HW215420   1.509   0.236   4.676  0.6713  0.7128 -1.8702
 1321SOL     OW15421   1.290   2.406   2.750 -0.5854  0.0727 -0.2440
 1321SOL    HW115422   1.240   2.331   2.719  0.1073  0.2826 -1.8692
 1321SOL    HW215423   1.371   2.398   2.699 -0.4994 -5.4077  0.7873
 1322SOL     OW15424   3.219   0.289   6.918 -0.0627 -0.2153  0.5661
 1322SOL    HW115425   3.250   0.231   6.987 -1.1119  0.2004  1.3830
 1322SOL    HW215426   3.262   0.252   6.841 -0.5915  0.6671 -0.1484
 1323SOL     OW15427   2.058   2.316  15.916 -0.1943 -0.0241 -0.4264
 1323SOL    HW115428   2.095   2.229  15.925 -0.4503 -0.1164 -0.2765
 1323SOL    HW215429   2.007   2.320  15.835 -0.6732  2.4624 -0.0225
 1324SOL     OW15430   3.593   3.357   5.200  0.0706 -0.0829  0.5707
 1324SOL    HW115431   3.530   3.400   5.257  0.0766  1.0866 -0.2802
 1324SOL    HW215432   3.532   3.318   5.137  0.8656 -0.4349  0.0166
 1325SOL     OW15433   1.334   3.427   5.971 -0.1797 -0.2460  0.2863
 1325SOL    HW115434   1.355   3.463   5.885  0.3904 -0.1608  0.4608
 1325SOL    HW215435   1.390   3.476   6.030 -1.4425 -0.4767  1.6728
 1326SOL     OW15436   3.064   1.453   4.078  0.0167  0.4425  0.3873
 1326SOL    HW115437   2.982   1.456   4.029 -0.6190  0.0180  1.4389
 1326SOL    HW215438   3.127   1.439   4.007 -0.0571 -0.0059  0.4130
 1327SOL     OW15439   2.965   1.791   2.080  0.5725 -0.3730 -0.1000
 1327SOL    HW115440   2.891   1.818   2.135  0.9026  1.2834 -0.4672
 1327SOL    HW215441   2.956   1.696   2.080  0.2292 -0.3403  1.3942
 1328SOL     OW15442   2.738   3.756   4.525 -0.7689  0.0749 -0.7829
 1328SOL    HW115443   2.744   3.851   4.531  2.0312  0.1592 -5.2800
 1328SOL    HW215444   2.814   3.738   4.581 -0.4939  2.3131 -0.4567
 1329SOL     OW15445   3.415   0.173   5.255  0.0265 -0.3426  0.6626
 1329SOL    HW115446   3.332   0.189   5.211 -1.1103  3.7649  4.3565
 1329SOL    HW215447   3.402   0.223   5.335 -1.7140 -0.8855  0.7198
 1330SOL     OW15448   3.482   1.827   6.418 -0.7415  0.0234 -0.0328
 1330SOL    HW115449   3.479   1.732   6.407 -1.2489 -0.1673  1.6490
 1330SOL    HW215450   3.491   1.836   6.513  2.0912  2.6782 -0.5602
 1331SOL     OW15451   1.322   2.287  14.696 -0.6760  0.5464  0.5353
 1331SOL    HW115452   1.381   2.352  14.734 -0.9348  0.1574  1.6056
 1331SOL    HW215453   1.291   2.331  14.617 -0.0897 -1.1999 -0.6629
 1332SOL     OW15454   3.108   0.986   2.484  0.4924 -0.4738  0.2172
 1332SOL    HW115455   3.072   1.029   2.562 -1.2422 -0.3036 -0.6765
 1332SOL    HW215456   3.190   0.950   2.517 -0.9062 -1.9758  1.9830
 1333SOL     OW15457   3.369   4.412   3.719  0.1253  0.1487  0.2364
 1333SOL    HW115458   3.398   4.433   3.630 -2.9346 -2.6028 -1.4275
 1333SOL    HW215459   3.433   4.349   3.751 -0.8582  0.6646  3.1634
 1334SOL     OW15460   2.693   3.158   0.433  0.2636 -0.2618  0.0623
 1334SOL    HW115461   2.714   3.112   0.515  1.0969 -1.0075 -0.5788
 1334SOL    HW215462   2.647   3.237   0.461  1.9950  1.5685 -2.3330
 1335SOL     OW15463   1.371   0.751   7.950 -0.2015  0.1423  0.5043
 1335SOL    HW115464   1.386   0.813   8.022 -0.1341 -0.5523  1.0876
 1335SOL    HW215465   1.416   0.798   7.880  1.5510  0.4653  1.8286
 1336SOL     OW15466   1.177   4.456   7.492  0.3572  0.7754 -0.4535
 1336SOL    HW115467   1.117   4.528   7.510  0.9675  0.7908  1.5280
 1336SOL    HW215468   1.156   4.400   7.567 -0.9730  1.5529 -0.2547
 1337SOL     OW15469   2.504   3.828   4.351  0.1882 -0.0427 -0.2016
 1337SOL    HW115470   2.590   3.797   4.380  0.1741 -0.5676 -0.7294
 1337SOL    HW215471   2.499   3.923   4.364 -0.5851  0.1086 -1.6454
 1338SOL     OW15472   1.501   2.882  13.420  0.1993  0.1091 -0.3861
 1338SOL    HW115473   1.568   2.944  13.391  1.6488 -0.8116  0.9503
 1338SOL    HW215474   1.432   2.943  13.446  1.1991  1.3049 -0.5602
 1339SOL     OW15475   1.044   3.219   5.373 -0.4278 -0.9144  0.0623
 1339SOL    HW115476   1.052   3.291   5.435 -0.1088  0.0512 -1.0988
 1339SOL    HW215477   0.994   3.159   5.429  0.2970 -1.9364 -0.3945
 1340SOL     OW15478   3.732   3.762   8.496  0.3519  0.1855 -0.4370
 1340SOL    HW115479   3.699   3.741   8.409 -1.2620  2.8567 -0.4670
 1340SOL    HW215480   3.776   3.682   8.526  1.1007  0.5554 -0.5522
 1341SOL     OW15481   4.488   1.357   3.069  0.2387 -0.7321  0.3830
 1341SOL    HW115482   4.414   1.412   3.044  1.1316  1.0325  1.5407
 1341SOL    HW215483   4.458   1.267   3.057  0.9515 -0.7316 -1.3140
 1342SOL     OW15484   1.620   0.773   8.601  0.0700 -0.5123  0.4170
 1342SOL    HW115485   1.625   0.847   8.540 -0.6073 -0.5689  0.2918
 1342SOL    HW215486   1.599   0.698   8.546  0.5596  0.0150 -0.5076
 1343SOL     OW15487   1.339   3.942  16.955 -0.1437 -0.0726 -0.1595
 1343SOL    HW115488   1.429   3.938  16.988  0.4289 -0.0457 -1.7276
 1343SOL    HW215489   1.338   4.034  16.929 -1.4484 -0.4607 -1.4788
 1344SOL     OW15490   2.632   1.010   9.206  0.0115 -0.2619 -0.4165
 1344SOL    HW115491   2.683   1.069   9.151  1.6932 -0.5335  0.8572
 1344SOL    HW215492   2.690   0.934   9.199 -0.8521 -0.8188 -1.6022
 1345SOL     OW15493   2.365   0.753   4.288  0.0451 -0.0131  0.5292
 1345SOL    HW115494   2.393   0.743   4.379 -1.7478 -2.1218  0.8444
 1345SOL    HW215495   2.293   0.691   4.279 -0.3919  0.9687 -2.6677
 1346SOL     OW15496   3.184   1.576   2.205  0.2518  0.2177 -0.2692
 1346SOL    HW115497   3.207   1.621   2.124  0.3555 -0.1153 -0.4253
 1346SOL    HW215498   3.094   1.550   2.187  0.8182 -1.0423 -1.2594
 1347SOL     OW15499   0.292   2.478  11.826 -0.0311  0.2090  0.2889
 1347SOL    HW115500   0.281   2.570  11.801  0.4207  0.3830  0.7147
 1347SOL    HW215501   0.271   2.486  11.919  2.5175  0.5432  0.8453
 1348SOL     OW15502   3.436   3.495   2.157  0.5603 -0.2607 -0.9060
 1348SOL    HW115503   3.409   3.413   2.199  1.3548 -0.2544 -0.3897
 1348SOL    HW215504   3.358   3.517   2.105 -0.7403  0.4641  1.3671
 1349SOL     OW15505   3.318   1.548   8.258  0.1199  0.0162  0.2735
 1349SOL    HW115506   3.379   1.474   8.264  1.7641  1.2451 -1.2653
 1349SOL    HW215507   3.284   1.545   8.347 -1.6648  0.2428 -0.3912
 1350SOL     OW15508   0.369   2.894   8.036  0.0668  0.3996  0.0371
 1350SOL    HW115509   0.425   2.925   7.964 -0.5104 -0.9888 -1.0099
 1350SOL    HW215510   0.337   2.815   7.993  3.0420 -1.5584  1.3884
 1351SOL     OW15511   2.432   1.721   3.382  0.9488  0.1422  0.0005
 1351SOL    HW115512   2.380   1.710   3.302  0.8237 -1.8237  0.3513
 1351SOL    HW215513   2.384   1.786   3.434  1.0578  0.9389 -0.9031
 1352SOL     OW15514   0.925   0.112   1.009 -0.0239 -0.1524 -0.0616
 1352SOL    HW115515   0.835   0.081   0.997  0.2802 -1.4229  0.8782
 1352SOL    HW215516   0.913   0.202   0.980 -0.6982  0.0687  0.9128
 1353SOL     OW15517   0.911   4.116   9.087 -0.1588  0.0066  0.5717
 1353SOL    HW115518   0.827   4.088   9.125 -1.4326  1.8509 -0.8962
 1353SOL    HW215519   0.914   4.202   9.128 -0.2134 -0.5545  1.7494
 1354SOL     OW15520   3.471   3.690   9.094 -0.7870 -0.5544  0.0083
 1354SOL    HW115521   3.502   3.737   9.172 -0.7483 -0.2026 -0.2170
 1354SOL    HW215522   3.537   3.623   9.077 -1.3594 -0.2407 -3.3899
 1355SOL     OW15523   1.317   3.540   6.598  0.0403  0.5592  0.0657
 1355SOL    HW115524   1.305   3.503   6.685 -0.8952 -0.6022 -0.5603
 1355SOL    HW215525   1.376   3.612   6.621 -0.9081  0.8529  1.5905
 1356SOL     OW15526   2.992   0.937   0.366  0.0930 -0.5265  0.1837
 1356SOL    HW115527   2.953   0.861   0.409  0.4493 -1.5537 -1.2654
 1356SOL    HW215528   3.064   0.954   0.427 -2.0673 -0.1661  2.6002
 1357SOL     OW15529   2.197   4.271   6.269  0.3744 -0.1868 -0.1998
 1357SOL    HW115530   2.236   4.330   6.334  1.2403 -1.2131  0.2120
 1357SOL    HW215531   2.113   4.314   6.255  1.0362  0.9041 -0.8819
 1358SOL     OW15532   1.558   0.050  16.894  0.0677 -0.2127  0.2938
 1358SOL    HW115533   1.580   0.084  16.980 -0.1460  1.4970 -0.3354
 1358SOL    HW215534   1.603   4.691  16.890 -1.1717 -0.8799  0.1913
 1359SOL     OW15535   0.266   2.523   6.199  0.2534  0.3264  0.1890
 1359SOL    HW115536   0.241   2.433   6.217  2.4051  0.0191  1.5272
 1359SOL    HW215537   0.328   2.530   6.127 -1.0025 -1.0232 -1.0371
 1360SOL     OW15538   4.131   0.513   7.846  0.2821 -0.3410  0.8544
 1360SOL    HW115539   4.206   0.485   7.899  0.8976  2.3442  1.3645
 1360SOL    HW215540   4.062   0.505   7.912 -0.6497 -0.1858 -0.1219
 1361SOL     OW15541   3.251   4.251   3.971 -0.7494 -0.9151 -0.2134
 1361SOL    HW115542   3.229   4.313   4.039  2.6595 -1.5118  1.4444
 1361SOL    HW215543   3.182   4.254   3.905  0.0803  0.1081 -1.0319
 1362SOL     OW15544   3.480   1.413   9.067 -0.4287 -0.2597 -0.1335
 1362SOL    HW115545   3.544   1.442   9.132  0.6585 -0.4215 -1.1427
 1362SOL    HW215546   3.419   1.374   9.131 -1.6460 -0.4580 -1.4218
 1363SOL     OW15547   2.733   2.845   5.904  0.0951 -0.5390  0.0420
 1363SOL    HW115548   2.660   2.855   5.842 -0.8061 -1.6738  0.9177
 1363SOL    HW215549   2.706   2.908   5.971 -0.3223  2.1654 -2.6375
 1364SOL     OW15550   0.614   3.814   0.715 -0.1206  0.4044 -0.1946
 1364SOL    HW115551   0.565   3.774   0.786  1.6541 -0.0090  0.8123
 1364SOL    HW215552   0.589   3.906   0.725  0.7025  0.5544  0.5668
 1365SOL     OW15553   2.968   1.891  12.293 -0.4421  0.1256 -0.0075
 1365SOL    HW115554   2.934   1.839  12.365  0.5876 -1.2075 -0.4918
 1365SOL    HW215555   3.021   1.956  12.339 -0.3269  1.0636 -1.4565
 1366SOL     OW15556   1.321   1.500  17.035 -0.4367  0.0527 -0.1261
 1366SOL    HW115557   1.249   1.563  17.028 -0.0888  0.5212  0.4013
 1366SOL    HW215558   1.334   1.474  16.944 -0.4586 -2.4277  0.5799
 1367SOL     OW15559   4.154   4.696   8.675 -0.2157 -0.8765  0.0215
 1367SOL    HW115560   4.147   4.600   8.671 -2.6567 -0.6849 -0.4639
 1367SOL    HW215561   4.183   4.715   8.764 -0.8992 -2.7311  0.6579
 1368SOL     OW15562   3.964   3.723  16.402 -0.0808 -0.1732 -0.4672
 1368SOL    HW115563   4.005   3.722  16.489 -0.0397 -0.6200 -0.4889
 1368SOL    HW215564   3.915   3.641  16.408  0.8865 -0.6859  0.7270
 1369SOL     OW15565   4.011   1.051  16.726 -0.1907 -0.6790 -0.1430
 1369SOL    HW115566   4.029   1.073  16.818 -1.6641 -0.9383  0.2134
 1369SOL    HW215567   3.962   0.969  16.739  0.5554 -0.8817  1.5146
 1370SOL     OW15568   0.465   2.328   7.120 -0.1928  0.5298  0.4388
 1370SOL    HW115569   0.434   2.335   7.210  0.0673  1.5024  0.4502
 1370SOL    HW215570   0.456   2.419   7.090  1.7116  0.8614  0.8906
 1371SOL     OW15571   1.901   2.873  16.634 -0.2841 -0.1878  0.1062
 1371SOL    HW115572   1.926   2.838  16.719  2.2688 -0.3720 -0.7410
 1371SOL    HW215573   1.985   2.892  16.592 -0.1230 -0.1995  0.4265
 1372SOL     OW15574   1.925   1.685   5.902 -0.5575  0.1895  0.1033
 1372SOL    HW115575   1.924   1.599   5.860  0.6874 -0.6868  1.8405
 1372SOL    HW215576   1.881   1.666   5.986  0.1755  0.3802  0.5295
 1373SOL     OW15577   4.176   0.165  17.237 -0.6744  0.5441  0.3416
 1373SOL    HW115578   4.194   0.127  17.150 -1.1671  1.2350 -0.0650
 1373SOL    HW215579   4.212   0.252  17.220  1.3373 -0.3869 -0.1638
 1374SOL     OW15580   4.140   1.750   2.466 -0.6910  0.3260 -0.1034
 1374SOL    HW115581   4.222   1.738   2.418 -1.5407 -3.5424 -0.5950
 1374SOL    HW215582   4.169   1.801   2.542  1.0678 -2.0813  0.8340
 1375SOL     OW15583   1.743   1.560   1.455 -0.0474  0.0273 -0.1000
 1375SOL    HW115584   1.824   1.605   1.430  1.2660 -2.1556  0.2746
 1375SOL    HW215585   1.743   1.589   1.546 -1.0292 -1.4455  0.3572
 1376SOL     OW15586   1.922   2.782   5.900 -0.1259  0.5502 -0.1191
 1376SOL    HW115587   1.871   2.790   5.819  0.4006 -2.2836 -0.7328
 1376SOL    HW215588   1.892   2.693   5.918 -0.7361  1.2731  2.4962
 1377SOL     OW15589   1.533   1.919   1.387 -0.1564 -0.9374  0.3061
 1377SOL    HW115590   1.612   1.970   1.406 -0.8202 -0.3313  1.4948
 1377SOL    HW215591   1.499   1.916   1.477  1.5411 -3.5480  0.8304
 1378SOL     OW15592   1.826   3.380   1.102 -0.2090  0.1620 -0.5948
 1378SOL    HW115593   1.743   3.344   1.133 -0.7014  1.6298 -0.2436
 1378SOL    HW215594   1.810   3.407   1.011  0.3791 -0.3932 -0.8637
 1379SOL     OW15595   2.252   4.666  11.978 -0.0633 -0.3643  0.0974
 1379SOL    HW115596   2.341   4.631  11.988  0.1767 -0.1307 -1.2441
 1379SOL    HW215597   2.254   4.717  12.059 -0.1928  0.3450 -0.3469
 1380SOL     OW15598   3.993   1.001  11.219 -0.4174 -0.1776  0.0827
 1380SOL    HW115599   4.007   0.932  11.154  0.8892  0.8964 -0.7769
 1380SOL    HW215600   4.005   1.081  11.168 -0.0625 -0.5501 -0.4159
 1381SOL     OW15601   3.681   3.818   4.952  0.7871  0.9705 -0.0826
 1381SOL    HW115602   3.692   3.826   5.047  0.6553  3.0603 -0.2375
 1381SOL    HW215603   3.767   3.852   4.926 -1.2678  2.7790 -4.4511
 1382SOL     OW15604   1.438   0.821   9.646 -0.2764 -0.0028 -0.2469
 1382SOL    HW115605   1.434   0.883   9.573 -0.8036 -0.0418 -0.2526
 1382SOL    HW215606   1.462   0.741   9.598 -0.6455 -1.3410  1.7997
 1383SOL     OW15607   3.015   0.093   0.415  0.3236  0.1964 -0.3289
 1383SOL    HW115608   2.999   0.101   0.510  2.7655  2.2599 -0.0691
 1383SOL    HW215609   3.046   0.004   0.404  0.1198  0.2039 -0.9250
 1384SOL     OW15610   4.263   0.967   2.274 -0.1144  0.0100 -0.5309
 1384SOL    HW115611   4.274   1.009   2.189  0.7273 -0.9143 -0.8765
 1384SOL    HW215612   4.258   0.875   2.250 -1.1997  0.0209 -0.3643
 1385SOL     OW15613   3.623   0.511   8.757  0.4882  0.2951  0.7690
 1385SOL    HW115614   3.713   0.542   8.752  0.0793  1.1503 -1.3494
 1385SOL    HW215615   3.642   0.421   8.783  1.6693  0.9232  2.0429
 1386SOL     OW15616   4.718   0.338   7.658  0.3001  0.8665  0.2598
 1386SOL    HW115617   4.649   0.303   7.715  0.9747 -1.2785 -0.2365
 1386SOL    HW215618   4.674   0.341   7.573  0.7074 -0.3762  0.0024
 1387SOL     OW15619   3.635   0.826   3.960 -0.0995  0.2338  0.0335
 1387SOL    HW115620   3.648   0.921   3.949 -1.3794  0.1479 -2.2416
 1387SOL    HW215621   3.539   0.824   3.965 -0.0433  0.2952  1.1655
 1388SOL     OW15622   0.567   3.391   5.390  0.2682 -0.4045 -0.4545
 1388SOL    HW115623   0.612   3.439   5.459  1.9129 -0.7291 -1.2934
 1388SOL    HW215624   0.527   3.461   5.339 -0.2419 -0.9002 -0.7378
 1389SOL     OW15625   0.252   0.516  16.995  0.0490 -0.3912  0.0934
 1389SOL    HW115626   0.222   0.575  17.064  3.1796  1.2673  0.0126
 1389SOL    HW215627   0.270   0.443  17.055 -0.5645 -0.1574  0.5673
 1390SOL     OW15628   1.616   3.067   3.261  0.0390  0.4925 -0.1843
 1390SOL    HW115629   1.640   3.029   3.345  2.1380  0.3810 -0.8476
 1390SOL    HW215630   1.579   2.990   3.217 -1.0153  0.9958 -0.1742
 1391SOL     OW15631   1.154   3.948   3.628  0.0969 -0.5906  0.1328
 1391SOL    HW115632   1.166   3.865   3.675  0.4080 -0.1726  0.7909
 1391SOL    HW215633   1.232   3.998   3.650  0.3356 -1.0279  0.2899
 1392SOL     OW15634   4.179   0.923  15.893 -0.7659 -0.2646 -0.1188
 1392SOL    HW115635   4.100   0.898  15.844 -1.1276 -1.5962  1.1486
 1392SOL    HW215636   4.166   0.872  15.973  2.9358 -1.7591 -0.4886
 1393SOL     OW15637   1.824   3.425   3.375  0.1543 -0.3777  0.1590
 1393SOL    HW115638   1.735   3.442   3.343 -0.3311 -3.2148 -0.0704
 1393SOL    HW215639   1.811   3.417   3.470  0.2648  0.7273  0.2570
 1394SOL     OW15640   1.928   4.371  14.722  0.5179 -0.1772 -0.5366
 1394SOL    HW115641   1.957   4.290  14.681  0.9927 -0.1487 -0.2441
 1394SOL    HW215642   1.850   4.391  14.669 -1.1299  0.4824  2.1577
 1395SOL     OW15643   3.377   0.132   6.706 -0.3287  0.4757  0.3714
 1395SOL    HW115644   3.370   0.040   6.681 -0.8294  1.2427 -2.3034
 1395SOL    HW215645   3.468   0.160   6.696 -0.5551 -0.2878 -3.6034
 1396SOL     OW15646   2.770   0.171   2.660 -0.2641  0.1919  1.0498
 1396SOL    HW115647   2.699   0.106   2.659 -0.6425  0.6608 -3.6191
 1396SOL    HW215648   2.848   0.116   2.648 -1.8018 -1.3995 -1.6920
 1397SOL     OW15649   0.975   0.511   3.920  0.2061  1.1380  0.3123
 1397SOL    HW115650   1.066   0.538   3.906  0.5304 -0.4768 -0.6914
 1397SOL    HW215651   0.969   0.563   4.000 -2.6713  0.3433  0.6291
 1398SOL     OW15652   4.677   1.634   2.111  0.3570 -0.3047 -0.0027
 1398SOL    HW115653   4.604   1.696   2.119  0.7730  0.3521 -1.3077
 1398SOL    HW215654   4.632   1.550   2.126 -0.9128  0.2507 -0.6882
 1399SOL     OW15655   2.182   3.272  11.327  0.4464  0.0786  0.3101
 1399SOL    HW115656   2.212   3.307  11.411  3.4786 -1.8923  0.0226
 1399SOL    HW215657   2.268   3.259  11.288 -1.3308 -3.0317 -2.5809
 1400SOL     OW15658   0.867   1.696   9.208  0.1860  0.1831  0.4235
 1400SOL    HW115659   0.851   1.789   9.188  1.4182 -0.1790 -2.2433
 1400SOL    HW215660   0.840   1.652   9.127  1.4412 -1.9672  1.2028
 1401SOL     OW15661   2.363   0.536   9.351  0.0710  0.1109 -0.2263
 1401SOL    HW115662   2.455   0.539   9.324 -0.3984 -1.2773 -1.9853
 1401SOL    HW215663   2.374   0.542   9.446  1.5626 -1.4992 -0.2980
 1402SOL     OW15664   1.761   1.690   3.517  0.3314 -0.7732 -0.4265
 1402SOL    HW115665   1.708   1.611   3.515 -0.0906 -0.5417  1.9703
 1402SOL    HW215666   1.707   1.748   3.463 -1.9458 -1.7898  0.7827
 1403SOL     OW15667   4.164   0.751   4.564 -0.0787 -0.5588  0.5942
 1403SOL    HW115668   4.180   0.747   4.470 -1.1276  2.2413  0.2908
 1403SOL    HW215669   4.130   0.841   4.569 -1.2877 -0.9748  0.0089
 1404SOL     OW15670   4.317   0.691   6.205 -0.4636  0.6276 -0.3325
 1404SOL    HW115671   4.291   0.681   6.297  0.9031 -1.9862 -0.2337
 1404SOL    HW215672   4.259   0.627   6.164  1.0342 -0.1927 -1.1637
 1405SOL     OW15673   0.344   3.416   6.638  0.3927  0.0495  0.1731
 1405SOL    HW115674   0.390   3.352   6.584  0.6734  0.2163  0.2106
 1405SOL    HW215675   0.291   3.454   6.568  0.7639 -0.3925 -0.3386
 1406SOL     OW15676   3.137   4.212  15.233 -0.1932 -0.7479 -0.3399
 1406SOL    HW115677   3.231   4.228  15.221  0.0820 -0.7591  1.7305
 1406SOL    HW215678   3.104   4.284  15.179  1.3535 -0.9488 -1.5508
 1407SOL     OW15679   2.614   3.126   5.802 -0.1802  0.6540 -0.0200
 1407SOL    HW115680   2.576   3.192   5.744 -0.6989  0.2842 -0.1007
 1407SOL    HW215681   2.578   3.044   5.770  3.3288 -1.7580  2.2003
 1408SOL     OW15682   2.593   4.017  14.557 -0.4566  0.2426 -0.5585
 1408SOL    HW115683   2.548   3.977  14.632 -0.1758  1.9016  0.5121
 1408SOL    HW215684   2.565   3.957  14.488 -1.5601  2.1379 -1.7642
 1409SOL     OW15685   4.637   0.167  13.248 -0.5899  0.2450 -0.5861
 1409SOL    HW115686   4.604   0.228  13.183  0.7238  1.7105  0.1310
 1409SOL    HW215687   4.571   0.096  13.251  0.5912 -0.8590 -0.7174
 1410SOL     OW15688   3.626   1.979   6.980 -0.3550  0.7978  0.9130
 1410SOL    HW115689   3.663   1.893   7.002  0.8606  1.4717  1.4929
 1410SOL    HW215690   3.704   2.020   6.942 -3.0522  3.2916 -1.9056
 1411SOL     OW15691   3.260   0.483   2.144  0.0335  0.1071  0.2744
 1411SOL    HW115692   3.237   0.390   2.138 -0.9249  0.2593  1.4147
 1411SOL    HW215693   3.302   0.482   2.231 -0.3627  1.8496  0.4888
 1412SOL     OW15694   0.465   2.447   5.163  0.1057  0.0334  0.4246
 1412SOL    HW115695   0.410   2.515   5.203 -0.5937 -0.3027  0.0309
 1412SOL    HW215696   0.549   2.491   5.177 -0.3992  1.7802 -2.1962
 1413SOL     OW15697   1.083   1.600   3.714 -0.5128  0.3862  0.7510
 1413SOL    HW115698   0.992   1.618   3.736 -0.2348  1.5726  0.9283
 1413SOL    HW215699   1.114   1.596   3.804 -1.0057  0.9604  0.9418
 1414SOL     OW15700   2.936   0.234  15.494 -0.0279 -0.1665 -0.3600
 1414SOL    HW115701   2.956   0.149  15.455 -1.8369 -0.7931  0.0904
 1414SOL    HW215702   2.931   0.208  15.586 -0.6351  1.3100  0.0248
 1415SOL     OW15703   4.425   2.309  13.786 -0.5537  0.2271  0.4063
 1415SOL    HW115704   4.413   2.400  13.760  0.9048 -0.2614 -1.8774
 1415SOL    HW215705   4.508   2.284  13.746 -0.5792  0.4685  0.2067
 1416SOL     OW15706   0.678   0.709   2.342  0.1834 -0.2509  0.4723
 1416SOL    HW115707   0.687   0.737   2.433  0.8867 -2.6587  1.1469
 1416SOL    HW215708   0.617   0.635   2.351 -2.6116  2.0381  0.2547
 1417SOL     OW15709   3.541   2.601   6.854  0.1725  0.3633 -0.8250
 1417SOL    HW115710   3.532   2.594   6.949 -1.5185  1.8283 -0.8877
 1417SOL    HW215711   3.629   2.639   6.843  0.9781 -1.0120  0.8565
 1418SOL     OW15712   2.372   4.394   5.947 -0.1778  0.0491  0.3373
 1418SOL    HW115713   2.308   4.355   5.889 -1.0782  1.7091  0.2086
 1418SOL    HW215714   2.321   4.442   6.013 -1.5730 -0.0276 -0.7009
 1419SOL     OW15715   0.254   4.075   1.909 -1.1542  0.2716  0.7977
 1419SOL    HW115716   0.237   3.994   1.860 -0.2116  0.8038 -0.4226
 1419SOL    HW215717   0.223   4.133   1.839 -1.2277 -0.9786 -0.2237
 1420SOL     OW15718   1.868   0.492  12.226 -0.5301 -0.7786  0.2156
 1420SOL    HW115719   1.826   0.578  12.227 -2.7325 -1.8563 -1.6370
 1420SOL    HW215720   1.788   0.451  12.194 -2.1185  1.5778  1.1565
 1421SOL     OW15721   0.107   1.014   1.916 -0.0333 -0.4051  0.6148
 1421SOL    HW115722   0.092   1.107   1.934  0.9018 -0.4670  1.7834
 1421SOL    HW215723   0.153   1.013   1.832  0.6749 -2.3280  1.0174
 1422SOL     OW15724   1.799   3.375   7.393  0.4294  0.2355 -0.4031
 1422SOL    HW115725   1.870   3.317   7.366  1.5030  0.0206  2.8055
 1422SOL    HW215726   1.746   3.330   7.459 -2.4499  2.4865 -1.1727
 1423SOL     OW15727   2.986   1.825   4.972  0.1884  0.0747  0.3935
 1423SOL    HW115728   3.054   1.764   5.001  1.1259  0.2305 -1.4121
 1423SOL    HW215729   3.026   1.883   4.907  0.9881 -0.7042  0.1950
 1424SOL     OW15730   3.859   0.450   8.974 -0.2177  0.0849  0.0854
 1424SOL    HW115731   3.895   0.476   8.890 -0.1151 -0.6593 -0.1016
 1424SOL    HW215732   3.785   0.398   8.942 -2.6096  2.3568  1.8982
 1425SOL     OW15733   0.334   4.708   6.400  0.3930  0.5207  0.0476
 1425SOL    HW115734   0.335   4.655   6.320 -3.0337 -0.4885  0.6590
 1425SOL    HW215735   0.255   4.675   6.443  0.5251  2.4061  1.7132
 1426SOL     OW15736   0.026   1.982   8.894  0.4527 -0.3019 -0.6304
 1426SOL    HW115737   0.046   1.934   8.975  1.1744  1.0337 -0.0097
 1426SOL    HW215738   0.110   2.025   8.876  0.4866 -0.6511 -1.3236
 1427SOL     OW15739   3.113   3.600   6.890 -0.5083 -0.6288  0.2754
 1427SOL    HW115740   3.050   3.532   6.865  0.5122 -1.6426  0.4802
 1427SOL    HW215741   3.067   3.679   6.861  0.8900  0.1858  0.3047
 1428SOL     OW15742   2.675   0.691   6.591  0.4305 -0.2561  0.0233
 1428SOL    HW115743   2.675   0.612   6.536 -0.9294  0.4391 -0.9707
 1428SOL    HW215744   2.715   0.753   6.529 -2.6270  2.2225  0.5679
 1429SOL     OW15745   2.300   3.738  11.675 -0.0985  0.6019 -0.3095
 1429SOL    HW115746   2.374   3.691  11.712 -0.6224 -2.0767 -2.6766
 1429SOL    HW215747   2.227   3.689  11.712 -0.6022  0.3281 -1.6614
 1430SOL     OW15748   1.095   1.598  11.062  0.4986 -0.0335 -0.1396
 1430SOL    HW115749   1.000   1.603  11.071  0.4806 -0.1002 -0.2988
 1430SOL    HW215750   1.112   1.505  11.050  2.7823  0.1318  1.7129
 1431SOL     OW15751   4.567   1.160   6.052  0.3283 -0.0500  0.5984
 1431SOL    HW115752   4.538   1.069   6.047 -0.9009  0.3807 -0.0638
 1431SOL    HW215753   4.642   1.151   6.110  2.0144 -1.1360 -1.7512
 1432SOL     OW15754   4.543   2.212  16.702 -0.4764 -0.6238  0.4257
 1432SOL    HW115755   4.507   2.195  16.790 -0.5884 -1.1711  0.2761
 1432SOL    HW215756   4.536   2.307  16.702  1.6846 -0.4547 -1.0729
 1433SOL     OW15757   1.126   2.705   5.816 -0.0705 -0.4633  0.0809
 1433SOL    HW115758   1.171   2.738   5.738  0.5039  1.3790  1.1734
 1433SOL    HW215759   1.145   2.612   5.826  2.1061 -0.1081 -0.6974
 1434SOL     OW15760   2.096   3.904  12.746  0.3724  0.1418  0.0831
 1434SOL    HW115761   2.134   3.961  12.813 -0.7223 -2.3178  2.7790
 1434SOL    HW215762   2.116   3.952  12.665  1.4498 -0.3286  0.0777
 1435SOL     OW15763   3.593   2.756   1.463 -0.3031 -0.1221  0.3208
 1435SOL    HW115764   3.507   2.790   1.488 -0.5157 -0.5234  0.1251
 1435SOL    HW215765   3.597   2.683   1.525  1.0270 -0.8646 -0.6374
 1436SOL     OW15766   4.693   3.523   7.196  0.0637  0.2198 -0.4121
 1436SOL    HW115767   0.062   3.512   7.186 -0.1194 -1.4366 -0.2822
 1436SOL    HW215768   4.691   3.478   7.280 -0.5844 -1.8476 -1.5348
 1437SOL     OW15769   3.155   3.218   2.188 -0.0132 -0.2593 -0.1095
 1437SOL    HW115770   3.208   3.158   2.136  1.3704  1.9662 -1.2500
 1437SOL    HW215771   3.176   3.302   2.148 -0.4039 -1.1626 -2.1807
 1438SOL     OW15772   0.097   1.702   3.552  0.8574  0.0923  0.1033
 1438SOL    HW115773   0.031   1.743   3.608  1.9163 -0.3381  1.6912
 1438SOL    HW215774   0.055   1.723   3.469 -0.6792  1.3319  1.1818
 1439SOL     OW15775   3.967   1.139   3.173 -0.0388  0.8663  0.3706
 1439SOL    HW115776   3.924   1.181   3.248 -0.0768  0.7131  0.4348
 1439SOL    HW215777   3.905   1.157   3.102  0.4996  0.4310 -0.2091
 1440SOL     OW15778   4.676   3.752   4.096  0.1267  0.5052  0.0874
 1440SOL    HW115779   4.605   3.802   4.056 -0.4760 -2.1202 -2.1226
 1440SOL    HW215780   4.641   3.739   4.184 -1.9448  1.2408 -0.6353
 1441SOL     OW15781   4.711   0.697   5.942  0.4723  0.0323 -0.6493
 1441SOL    HW115782   4.690   0.748   5.863  1.4891  2.2621  0.5198
 1441SOL    HW215783   0.076   0.725   5.951  1.0797 -0.9132 -3.6658
 1442SOL     OW15784   3.415   2.138   2.857 -0.8736  0.4180 -0.3053
 1442SOL    HW115785   3.510   2.132   2.846 -1.0656 -0.9631 -1.1289
 1442SOL    HW215786   3.406   2.228   2.891  0.9998  1.4768 -2.6319
 1443SOL     OW15787   3.884   2.859   2.434  0.3038 -0.5072  0.4530
 1443SOL    HW115788   3.812   2.919   2.455  0.5191  0.5904 -1.9428
 1443SOL    HW215789   3.852   2.816   2.354  1.2136 -0.3580  0.0080
 1444SOL     OW15790   2.985   1.010   7.834  0.3218  0.5897 -0.0719
 1444SOL    HW115791   3.045   1.083   7.821  1.0470  0.3048  1.6363
 1444SOL    HW215792   2.953   1.044   7.918 -0.1026 -0.9105  0.3804
 1445SOL     OW15793   2.702   0.410  13.332 -0.6035 -0.2509  0.6527
 1445SOL    HW115794   2.699   0.325  13.377 -0.4099 -0.0839  0.9786
 1445SOL    HW215795   2.616   0.437  13.366 -1.4905  0.5951 -2.3298
 1446SOL     OW15796   3.351   1.127   4.027 -0.6399  0.0289 -0.3331
 1446SOL    HW115797   3.305   1.185   3.967  0.2424  1.4101  0.3361
 1446SOL    HW215798   3.400   1.187   4.083  1.7709 -2.7915  0.5931
 1447SOL     OW15799   0.466   3.722   5.924 -0.1686 -0.4413 -0.0123
 1447SOL    HW115800   0.438   3.662   5.856  2.1982  0.6359 -1.9055
 1447SOL    HW215801   0.559   3.735   5.908 -0.3607 -2.7663 -2.9188
 1448SOL     OW15802   3.807   1.433   0.577 -0.0988 -0.2089 -0.2990
 1448SOL    HW115803   3.855   1.445   0.496  1.9018  0.1125  0.9315
 1448SOL    HW215804   3.749   1.359   0.561 -0.9217  0.0578  1.4408
 1449SOL     OW15805   3.495   1.219  17.008 -0.3279 -0.0330 -0.3945
 1449SOL    HW115806   3.549   1.174  17.072 -1.0516  0.2929  0.4464
 1449SOL    HW215807   3.539   1.205  16.924 -0.4932  1.7421 -0.7854
 1450SOL     OW15808   0.887   0.258  13.802  0.1103  1.2374 -0.0355
 1450SOL    HW115809   0.928   0.229  13.720  0.9521  0.8989  0.5022
 1450SOL    HW215810   0.962   0.256  13.861 -0.4167  1.5964  0.6429
 1451SOL     OW15811   1.872   2.939   6.597  0.3299  0.4689  0.0863
 1451SOL    HW115812   1.813   3.004   6.635  0.1531  1.2009 -1.4408
 1451SOL    HW215813   1.825   2.856   6.605  1.6863 -0.2449  0.6816
 1452SOL     OW15814   0.431   3.678  11.581 -0.2813 -0.2045  0.7289
 1452SOL    HW115815   0.416   3.607  11.519 -2.3353 -0.7806  1.9162
 1452SOL    HW215816   0.524   3.691  11.559 -0.3113 -0.4537  0.4523
 1453SOL     OW15817   4.661   2.638   1.566  0.1787 -0.0136  0.1515
 1453SOL    HW115818   4.592   2.636   1.500 -1.2707 -0.6973  1.6674
 1453SOL    HW215819   4.718   2.562   1.550 -1.3013 -1.0902  0.0727
 1454SOL     OW15820   3.041   0.758  12.007 -0.5538 -0.2810 -0.0423
 1454SOL    HW115821   3.073   0.696  11.942 -0.0099 -0.2147  0.1644
 1454SOL    HW215822   3.100   0.736  12.079  0.5254  1.8607 -0.2738
 1455SOL     OW15823   4.694   3.748   5.365 -0.4287 -0.2985  0.4280
 1455SOL    HW115824   4.714   3.706   5.282  1.9828 -0.9138  1.3433
 1455SOL    HW215825   4.724   3.835   5.339  0.5685 -0.9564 -0.5817
 1456SOL     OW15826   2.593   1.513   0.706 -0.0488  0.1651 -0.4776
 1456SOL    HW115827   2.601   1.581   0.639 -0.4185  1.5354  0.8847
 1456SOL    HW215828   2.608   1.438   0.648 -3.9802 -0.2340 -1.0011
 1457SOL     OW15829   4.497   3.701   5.102  0.2494  0.3383 -0.3592
 1457SOL    HW115830   4.533   3.784   5.073  5.1203 -2.2581 -1.7652
 1457SOL    HW215831   4.486   3.655   5.019 -0.5606 -1.9291  0.9873
 1458SOL     OW15832   2.007   0.975   4.185 -0.0840 -0.0183  0.3099
 1458SOL    HW115833   1.967   0.904   4.135  0.4876  1.5284 -2.3709
 1458SOL    HW215834   2.014   0.940   4.274  1.1602 -1.1785 -0.2537
 1459SOL     OW15835   0.740   4.684  14.359 -0.1079  0.3437 -0.3008
 1459SOL    HW115836   0.706   0.044  14.383  1.4738  0.6551  0.8979
 1459SOL    HW215837   0.732   4.640  14.444 -2.0144  0.4497 -0.4305
 1460SOL     OW15838   4.517   0.608   8.339 -0.2939  0.1507  0.0774
 1460SOL    HW115839   4.584   0.566   8.393 -1.4556  1.3595  2.4461
 1460SOL    HW215840   4.569   0.670   8.289 -0.4345 -0.0815 -0.3600
 1461SOL     OW15841   1.727   0.527   6.054  0.3707  0.2032  0.0714
 1461SOL    HW115842   1.788   0.546   6.126  1.9704 -1.6232 -0.7986
 1461SOL    HW215843   1.650   0.487   6.095 -0.4942 -0.5968 -2.3513
 1462SOL     OW15844   0.275   3.551   8.413  0.1119 -0.2431 -0.5361
 1462SOL    HW115845   0.322   3.510   8.485 -1.0961  0.3332  0.5894
 1462SOL    HW215846   0.206   3.485   8.408  1.0043 -1.2969  1.2059
 1463SOL     OW15847   1.321   1.361  14.634  0.3310  0.0667 -0.0776
 1463SOL    HW115848   1.370   1.431  14.590  1.3524  0.7164  2.0861
 1463SOL    HW215849   1.238   1.360  14.586  0.6186 -2.6686 -0.5274
 1464SOL     OW15850   0.749   2.415   7.425  0.2072  0.0886  0.0151
 1464SOL    HW115851   0.755   2.385   7.334 -0.6239  1.0363 -0.3408
 1464SOL    HW215852   0.781   2.505   7.414 -0.4084  0.2465 -0.4937
 1465SOL     OW15853   0.991   3.685   0.228  0.8180  0.1879  0.5674
 1465SOL    HW115854   1.083   3.681   0.253  0.7464 -2.2455  0.3996
 1465SOL    HW215855   1.000   3.679   0.133 -1.1139  1.0020  0.3325
 1466SOL     OW15856   2.944   1.364  16.368  0.0937  0.0002 -0.1338
 1466SOL    HW115857   2.949   1.437  16.429  0.8018  1.1049 -1.5278
 1466SOL    HW215858   2.941   1.294  16.433  0.7717 -0.6050 -0.7469
 1467SOL     OW15859   2.441   4.569  12.377  0.0186  0.2159 -0.4722
 1467SOL    HW115860   2.404   4.488  12.342  0.0594 -0.2841  0.6517
 1467SOL    HW215861   2.397   4.629  12.316 -0.5400  0.4306  0.1368
 1468SOL     OW15862   1.007   1.308   4.508 -0.1949  0.3439 -0.2708
 1468SOL    HW115863   0.944   1.377   4.484  2.4214  1.5311 -3.7875
 1468SOL    HW215864   1.089   1.358   4.509 -1.2853  2.1231  1.7891
 1469SOL     OW15865   3.656   2.075  12.183  0.1245 -0.7363  0.1137
 1469SOL    HW115866   3.744   2.110  12.165  0.8243 -1.5403  1.9783
 1469SOL    HW215867   3.684   2.018  12.255 -1.3153 -0.0793  1.2039
 1470SOL     OW15868   0.129   3.070  12.701  0.5762 -0.1157 -0.0630
 1470SOL    HW115869   0.192   3.137  12.675 -1.2164  0.6371 -2.4904
 1470SOL    HW215870   0.112   3.017  12.623  3.1145 -1.5151  0.3096
 1471SOL     OW15871   4.041   3.267   6.618  0.3590  0.1779 -0.1708
 1471SOL    HW115872   4.097   3.224   6.553 -0.3194 -0.5409 -0.2760
 1471SOL    HW215873   4.065   3.355   6.587 -4.5400  1.4064 -0.3775
 1472SOL     OW15874   4.206   0.062   6.156 -0.4465 -0.4380 -0.3802
 1472SOL    HW115875   4.264   4.718   6.126  0.3191  0.0214  0.0168
 1472SOL    HW215876   4.272   0.131   6.149 -1.0827  0.0002 -2.0600
 1473SOL     OW15877   3.172   1.060   4.693 -0.2913  0.4342 -0.5649
 1473SOL    HW115878   3.094   1.092   4.649 -1.1265 -1.9392 -0.8241
 1473SOL    HW215879   3.243   1.069   4.629 -0.1096 -0.1893 -0.4516
 1474SOL     OW15880   3.853   0.839   5.298 -0.0060 -0.2025  0.1934
 1474SOL    HW115881   3.806   0.826   5.215 -0.8677  3.6591  0.0697
 1474SOL    HW215882   3.941   0.850   5.264 -1.0595 -0.3244 -2.5960
 1475SOL     OW15883   2.379   3.209   1.547 -1.2070 -0.3668  0.3562
 1475SOL    HW115884   2.444   3.143   1.523  1.7752  1.8836  2.2804
 1475SOL    HW215885   2.292   3.170   1.536 -2.3012  2.0071  0.4559
 1476SOL     OW15886   1.717   2.629   5.361  0.0602  0.1897 -0.2725
 1476SOL    HW115887   1.632   2.666   5.383 -0.3709 -1.6265  1.0712
 1476SOL    HW215888   1.753   2.699   5.306  0.9321 -1.1559 -1.4443
 1477SOL     OW15889   1.364   0.434   1.290  0.5967  0.7937 -0.0427
 1477SOL    HW115890   1.271   0.413   1.297  0.8511 -0.1541  0.5770
 1477SOL    HW215891   1.398   0.347   1.310  0.6403  0.6077 -0.9458
 1478SOL     OW15892   2.714   3.695   1.740  0.1366  0.1177  0.3593
 1478SOL    HW115893   2.624   3.691   1.707 -0.5240 -0.4985  2.2482
 1478SOL    HW215894   2.721   3.780   1.784  1.9753  0.9224 -1.5146
 1479SOL     OW15895   1.311   1.411   2.633 -0.4812 -0.0679 -0.3046
 1479SOL    HW115896   1.297   1.420   2.539 -0.2602  0.6968 -0.2635
 1479SOL    HW215897   1.376   1.477   2.657 -1.9988  1.6427 -0.8894
 1480SOL     OW15898   0.730   0.965   9.823  0.5392 -0.6042 -0.2291
 1480SOL    HW115899   0.671   1.020   9.875  0.8151 -1.3106  0.8135
 1480SOL    HW215900   0.809   1.019   9.814 -0.3559  0.6214 -0.7192
 1481SOL     OW15901   3.363   3.574   3.886  0.1783  0.3192  0.2120
 1481SOL    HW115902   3.410   3.523   3.952  2.3215 -0.7732 -2.1406
 1481SOL    HW215903   3.315   3.644   3.929  2.6164  1.6673  0.6834
 1482SOL     OW15904   1.460   4.530   0.142  0.4224 -0.2313  0.1885
 1482SOL    HW115905   1.520   4.599   0.113  1.3822 -1.0813  0.1783
 1482SOL    HW215906   1.513   4.508   0.219 -0.9822 -0.2870  1.1590
 1483SOL     OW15907   3.723   4.161   2.203 -0.1770  0.4143  0.1430
 1483SOL    HW115908   3.662   4.221   2.160 -0.9892 -0.2818  0.3260
 1483SOL    HW215909   3.744   4.103   2.130 -1.2211 -0.4727  0.5499
 1484SOL     OW15910   1.578   3.898   0.517  0.0901 -0.3892 -0.3525
 1484SOL    HW115911   1.554   3.934   0.431 -0.3701 -2.1726 -0.9769
 1484SOL    HW215912   1.597   3.976   0.570  0.4616 -0.5973 -0.1812
 1485SOL     OW15913   1.622   2.007   5.958 -0.0594  0.2953 -0.0094
 1485SOL    HW115914   1.656   2.095   5.945  0.1723  0.4715  1.8528
 1485SOL    HW215915   1.655   1.995   6.046  0.0708 -2.2483 -0.3989
 1486SOL     OW15916   0.523   3.634   2.336 -0.3622 -0.2606 -0.2968
 1486SOL    HW115917   0.571   3.553   2.320  0.3320  0.6398 -2.8810
 1486SOL    HW215918   0.438   3.591   2.338 -0.2884 -0.4376 -1.0843
 1487SOL     OW15919   2.860   2.292   3.576  0.0634 -0.2052  0.5602
 1487SOL    HW115920   2.950   2.300   3.610  0.1017  0.3976  0.3051
 1487SOL    HW215921   2.857   2.205   3.535  2.0454  0.3806 -0.8143
 1488SOL     OW15922   3.507   0.784   6.976  0.6906 -0.1021  0.7954
 1488SOL    HW115923   3.418   0.757   6.953  1.4662 -2.3308  0.2982
 1488SOL    HW215924   3.557   0.704   6.994  0.8208 -0.2714 -0.3066
 1489SOL     OW15925   4.234   4.551  13.222 -0.3797 -0.4387 -0.1716
 1489SOL    HW115926   4.226   4.521  13.131  2.4181  1.5507 -1.0799
 1489SOL    HW215927   4.257   4.469  13.264 -1.1774 -1.7974 -2.3648
 1490SOL     OW15928   0.569   1.533   0.531  0.2518 -0.1749  0.4942
 1490SOL    HW115929   0.553   1.457   0.588  1.5701 -1.4365 -0.8197
 1490SOL    HW215930   0.591   1.491   0.448  2.0993  0.0176  0.8853
 1491SOL     OW15931   2.643   1.331   1.410 -0.4965  0.6277  0.4950
 1491SOL    HW115932   2.719   1.389   1.405 -0.4258  0.4048 -0.9584
 1491SOL    HW215933   2.640   1.303   1.318  1.4621 -1.3959  1.0250
 1492SOL     OW15934   2.020   0.221   7.238  0.0193  0.3736 -0.3846
 1492SOL    HW115935   2.053   0.294   7.291 -0.0969  1.5393 -1.9080
 1492SOL    HW215936   1.930   0.254   7.239 -0.6462 -1.4377 -1.4153
 1493SOL     OW15937   2.243   1.008   6.548 -0.1868 -0.1290  0.1982
 1493SOL    HW115938   2.231   0.974   6.459  1.1016  4.1448 -1.6314
 1493SOL    HW215939   2.279   1.095   6.530  0.9024 -0.4237  0.9483
 1494SOL     OW15940   2.425   1.326   1.118  0.5233 -0.4347 -0.2151
 1494SOL    HW115941   2.518   1.317   1.137  0.3171  0.3477  1.1450
 1494SOL    HW215942   2.390   1.238   1.130 -0.6632  0.0421 -0.0923
 1495SOL     OW15943   3.113   3.940   8.860  0.5023 -0.7967  0.1371
 1495SOL    HW115944   3.175   3.946   8.788  0.3877  1.5757  0.2252
 1495SOL    HW215945   3.159   3.877   8.916 -0.4285 -0.7611  0.9433
 1496SOL     OW15946   0.208   1.085  14.915 -0.2890 -0.0640  0.4945
 1496SOL    HW115947   0.248   1.074  14.829  0.7623  2.9733  0.5732
 1496SOL    HW215948   0.122   1.045  14.903  1.1699 -1.9541 -3.3902
 1497SOL     OW15949   4.491   4.191   2.084 -0.9544 -0.3958 -0.7297
 1497SOL    HW115950   4.563   4.178   2.147 -1.2873 -2.0184 -0.6663
 1497SOL    HW215951   4.474   4.283   2.101 -0.9457 -0.4275 -0.5481
 1498SOL     OW15952   2.961   0.032   9.195 -0.1110 -0.1870 -0.7864
 1498SOL    HW115953   2.978   0.075   9.111  0.4794  0.2359 -0.4495
 1498SOL    HW215954   2.932   0.107   9.247 -0.3356  0.0915 -1.3030
 1499SOL     OW15955   0.381   1.689   6.042 -0.3765  0.1436  0.0620
 1499SOL    HW115956   0.401   1.783   6.041 -2.3260  0.5586  0.0374
 1499SOL    HW215957   0.439   1.662   6.114  1.3334 -1.0362 -1.7753
 1500SOL     OW15958   3.030   1.940  13.919 -0.3325  0.1210 -0.3067
 1500SOL    HW115959   3.085   2.018  13.920 -0.7941  0.3901  2.2278
 1500SOL    HW215960   3.071   1.909  13.838  1.2488  0.0556  0.5228
 1501SOL     OW15961   3.439   3.138   8.096 -0.2376 -0.3356 -0.2949
 1501SOL    HW115962   3.481   3.177   8.019  2.2283 -0.7441  0.8375
 1501SOL    HW215963   3.510   3.077   8.115 -1.7511 -0.9925  3.3362
 1502SOL     OW15964   0.569   4.214   5.019 -0.8732 -0.2867  0.1522
 1502SOL    HW115965   0.481   4.177   5.005 -0.2606 -2.0741  1.0246
 1502SOL    HW215966   0.619   4.137   5.046 -1.3062 -0.3022  0.9280
 1503SOL     OW15967   4.418   4.129   5.701  0.5354 -0.1030 -0.3234
 1503SOL    HW115968   4.326   4.128   5.676  0.0653  0.0576  1.4244
 1503SOL    HW215969   4.457   4.196   5.644 -0.9254  0.7247 -0.3661
 1504SOL     OW15970   3.392   0.245   8.442 -0.2009  0.2332 -0.4717
 1504SOL    HW115971   3.424   0.155   8.439 -1.5860 -0.1966 -2.1481
 1504SOL    HW215972   3.469   0.301   8.431  0.0163  0.3749  1.9185
 1505SOL     OW15973   1.317   4.029  13.584  0.1093 -0.1150 -0.1469
 1505SOL    HW115974   1.272   3.949  13.558 -0.3280  0.8525 -2.3858
 1505SOL    HW215975   1.360   4.001  13.664 -2.3227  0.4976  1.4031
 1506SOL     OW15976   4.583   2.708  11.112  0.0665 -0.4980 -0.0176
 1506SOL    HW115977   4.526   2.671  11.179 -0.8055 -2.1968 -1.7135
 1506SOL    HW215978   4.631   2.776  11.160  0.2627 -0.9553  0.4337
 1507SOL     OW15979   3.829   0.809   2.388  0.7623 -0.2134  0.7633
 1507SOL    HW115980   3.887   0.737   2.365 -0.4732 -1.3932  1.3716
 1507SOL    HW215981   3.783   0.832   2.307  0.0203 -2.9734  0.4054
 1508SOL     OW15982   1.802   3.643   3.701 -0.0252 -0.3716 -0.2809
 1508SOL    HW115983   1.744   3.580   3.659 -2.0051  0.9006  0.4849
 1508SOL    HW215984   1.882   3.626   3.652  0.4845  1.2309 -0.0010
 1509SOL     OW15985   1.400   0.803   5.919  0.6676  0.3096  0.1691
 1509SOL    HW115986   1.331   0.868   5.909  0.7009  0.1091 -1.4015
 1509SOL    HW215987   1.452   0.843   5.988 -1.5564  1.1092  1.3757
 1510SOL     OW15988   1.747   3.027   4.439 -0.8717 -0.1029 -0.0088
 1510SOL    HW115989   1.699   2.980   4.507 -0.7616 -0.0659  0.0940
 1510SOL    HW215990   1.670   3.033   4.383  0.4233  1.5704 -1.6146
 1511SOL     OW15991   1.106   0.419   1.163 -0.3363  0.2062 -0.9390
 1511SOL    HW115992   1.091   0.505   1.202  1.3268  1.3775 -2.8410
 1511SOL    HW215993   1.134   0.431   1.072  1.5031  1.2203 -0.2362
 1512SOL     OW15994   1.798   2.126  13.860 -0.2502 -0.2079 -0.2678
 1512SOL    HW115995   1.854   2.059  13.898  0.6757  1.9722  2.1493
 1512SOL    HW215996   1.780   2.082  13.777 -0.2924  0.9049 -0.8498
 1513SOL     OW15997   0.259   0.463   6.150  0.1188 -0.1349 -0.4510
 1513SOL    HW115998   0.255   0.529   6.219 -2.7402  0.4203 -1.1150
 1513SOL    HW215999   0.324   0.400   6.183 -1.9881 -1.9294  0.3215
 1514SOL     OW16000   0.182   1.630  15.371  0.0413 -0.2308 -0.4279
 1514SOL    HW116001   0.226   1.670  15.296 -0.6987  0.6450 -0.4096
 1514SOL    HW216002   0.118   1.701  15.379 -0.3987 -0.6363 -0.3337
 1515SOL     OW16003   1.435   1.251   3.507  0.2626  0.7062  0.5953
 1515SOL    HW116004   1.365   1.258   3.442  0.1946 -1.1405  0.4717
 1515SOL    HW216005   1.414   1.164   3.541 -2.0608  0.5169 -1.3231
 1516SOL     OW16006   3.920   2.340   9.140 -0.5432 -0.4426  0.1189
 1516SOL    HW116007   3.922   2.247   9.161  1.2662 -0.8413 -1.8691
 1516SOL    HW216008   3.829   2.363   9.159 -0.8424  2.5159 -4.9312
 1517SOL     OW16009   4.059   4.028  17.538 -0.0348  0.3525  0.0046
 1517SOL    HW116010   4.115   4.008  17.612  1.2673  0.5104 -0.9406
 1517SOL    HW216011   3.978   4.008  17.585 -0.1962 -1.7338 -1.1825
 1518SOL     OW16012   0.591   0.541   8.487  0.3215  0.0797 -0.3208
 1518SOL    HW116013   0.648   0.466   8.469  1.1247  0.6124  0.0179
 1518SOL    HW216014   0.604   0.541   8.582  0.1670  2.3945 -0.2985
 1519SOL     OW16015   3.024   3.280   3.020  0.1540 -0.2957 -0.4082
 1519SOL    HW116016   3.051   3.204   3.071 -0.7913  0.4165  1.1430
 1519SOL    HW216017   3.087   3.344   3.052  0.0187 -0.4296  0.1243
 1520SOL     OW16018   4.417   1.786   6.628  0.1018  0.3981 -0.3589
 1520SOL    HW116019   4.421   1.802   6.723 -0.7922  0.5473 -0.3409
 1520SOL    HW216020   4.497   1.735   6.615 -0.5046 -1.2544  2.3426
 1521SOL     OW16021   0.865   1.103   0.941  0.1513 -0.1853  0.3509
 1521SOL    HW116022   0.907   1.113   0.855 -1.4225 -1.8567 -0.6201
 1521SOL    HW216023   0.930   1.058   0.995  1.0917  1.5138  0.6213
 1522SOL     OW16024   0.980   2.409   3.615 -0.1497  0.7975  0.1898
 1522SOL    HW116025   0.995   2.430   3.523  0.9300  1.5245  0.5320
 1522SOL    HW216026   1.012   2.319   3.621 -1.2281  0.4496  0.5749
 1523SOL     OW16027   2.757   0.202   4.476  0.0813  0.2372  0.0978
 1523SOL    HW116028   2.840   0.227   4.435  0.0599 -0.1907 -0.1984
 1523SOL    HW216029   2.783   0.160   4.558 -0.1562 -0.2169 -0.0606
 1524SOL     OW16030   0.680   4.695   2.557  0.3987  0.2951  0.3936
 1524SOL    HW116031   0.680   0.022   2.637  2.4495  0.3135  0.3965
 1524SOL    HW216032   0.646   0.035   2.497  0.7553  2.6869  2.8414
 1525SOL     OW16033   4.485   1.760   4.838  0.0446 -0.3337 -0.0251
 1525SOL    HW116034   4.431   1.753   4.917  0.5579 -0.1055  0.3475
 1525SOL    HW216035   4.447   1.837   4.796  1.5980 -0.4266 -1.6093
 1526SOL     OW16036   4.173   3.183   4.004 -0.1145  0.5304  0.0704
 1526SOL    HW116037   4.088   3.216   3.975 -0.1586 -0.1261 -0.5562
 1526SOL    HW216038   4.230   3.224   3.938 -0.6200 -0.5588 -1.0305
 1527SOL     OW16039   0.158   0.358  16.777  0.1648  0.0135  0.0674
 1527SOL    HW116040   0.098   0.300  16.823  1.0604 -1.1255 -0.1813
 1527SOL    HW216041   0.197   0.411  16.846 -1.1506 -1.0628  1.6469
 1528SOL     OW16042   1.913   1.500  11.609 -0.7912 -0.4054 -0.3336
 1528SOL    HW116043   1.845   1.519  11.674 -1.4186 -1.7824 -0.5843
 1528SOL    HW216044   1.927   1.411  11.643 -1.0781 -0.6513 -0.8611
 1529SOL     OW16045   1.862   4.583  12.290 -0.0906  0.1303  0.3332
 1529SOL    HW116046   1.859   4.597  12.196 -0.0731 -3.4518 -0.2098
 1529SOL    HW216047   1.788   4.640  12.312 -1.7867 -1.1923 -1.9594
 1530SOL     OW16048   0.373   1.876   7.249 -0.1737  0.2221 -0.6293
 1530SOL    HW116049   0.369   1.930   7.170 -1.6933  0.4452 -0.4112
 1530SOL    HW216050   0.420   1.800   7.215  0.5857  0.3800  0.1051
 1531SOL     OW16051   0.641   1.106  11.952 -0.0976  0.2727  0.7287
 1531SOL    HW116052   0.597   1.168  11.893 -2.4757 -1.3365  0.7842
 1531SOL    HW216053   0.563   1.059  11.983  2.3908 -4.0864  0.2598
 1532SOL     OW16054   4.410   1.343   4.034  0.0726  0.2856  0.1870
 1532SOL    HW116055   4.482   1.331   4.097  0.3593 -3.0656 -0.7776
 1532SOL    HW216056   4.395   1.437   4.038  1.7606  0.5148  1.1290
 1533SOL     OW16057   1.186   0.336  16.592  0.0230 -0.8180 -0.6656
 1533SOL    HW116058   1.248   0.304  16.658 -0.3356  0.3247  0.2290
 1533SOL    HW216059   1.198   0.266  16.528 -0.1107 -0.2345 -1.3323
 1534SOL     OW16060   2.362   3.266   2.063  0.1540 -0.0032 -0.1886
 1534SOL    HW116061   2.327   3.201   2.001  1.8833  0.2122 -1.3920
 1534SOL    HW216062   2.401   3.338   2.013  0.3620 -0.1071 -0.1763
 1535SOL     OW16063   4.541   4.691   7.054  0.1926 -0.0162 -0.4489
 1535SOL    HW116064   4.593   4.636   7.113  1.0225  1.0271 -0.2107
 1535SOL    HW216065   4.467   4.633   7.032 -1.0298  0.9628  1.0425
 1536SOL     OW16066   1.831   1.578   2.064  0.1934 -0.3147 -0.4778
 1536SOL    HW116067   1.742   1.563   2.097 -0.0626 -0.4308 -1.2391
 1536SOL    HW216068   1.824   1.672   2.044  0.4048 -0.0478  0.6958
 1537SOL     OW16069   0.547   3.669   8.604 -0.0930  0.0342  0.3261
 1537SOL    HW116070   0.576   3.642   8.691  0.5448  1.3267  0.5156
 1537SOL    HW216071   0.476   3.727   8.630  2.1868  2.0735  1.9590
 1538SOL     OW16072   1.097   2.050   3.632 -0.2065  0.2554 -0.0618
 1538SOL    HW116073   1.181   2.047   3.587 -1.3071  2.1901 -2.2944
 1538SOL    HW216074   1.038   2.058   3.557  1.6583 -0.9164 -1.6412
 1539SOL     OW16075   2.130   2.594   5.594  0.0824  0.2393  0.0179
 1539SOL    HW116076   2.176   2.520   5.635  1.0458  0.2558 -1.0512
 1539SOL    HW216077   2.154   2.654   5.665  1.4509  0.8322 -0.9543
 1540SOL     OW16078   4.562   2.494   8.153  0.4386 -0.5042 -0.0985
 1540SOL    HW116079   4.544   2.529   8.066  1.5059  0.7287  0.1629
 1540SOL    HW216080   4.628   2.426   8.141  0.1983 -1.0431  1.6091
 1541SOL     OW16081   1.139   0.756   9.559  0.1931 -0.7155  1.0390
 1541SOL    HW116082   1.101   0.795   9.479 -0.1046  2.0910  2.5462
 1541SOL    HW216083   1.186   0.831   9.595 -0.0379 -1.3552  2.6264
 1542SOL     OW16084   4.597   1.128   3.249 -0.5440  0.0760  0.4103
 1542SOL    HW116085   4.523   1.125   3.188 -0.3786  0.3253  0.1969
 1542SOL    HW216086   4.658   1.084   3.190  0.1644  1.8166 -0.1513
 1543SOL     OW16087   3.369   1.534  14.741 -0.2141 -0.4354 -0.2152
 1543SOL    HW116088   3.422   1.474  14.689  1.1390 -0.1560  0.8432
 1543SOL    HW216089   3.361   1.490  14.826 -1.4241  0.2381  0.0196
 1544SOL     OW16090   1.774   4.403   8.614 -0.3643  0.1057  0.5036
 1544SOL    HW116091   1.828   4.476   8.584 -1.0440  0.4121 -0.0014
 1544SOL    HW216092   1.757   4.360   8.530 -0.3822 -0.0289  0.5762
 1545SOL     OW16093   3.578   0.766   5.484  0.3532 -0.0688 -0.4508
 1545SOL    HW116094   3.648   0.703   5.501  0.6052  0.6952  1.4016
 1545SOL    HW216095   3.596   0.792   5.393  0.4558  0.1639 -0.3656
 1546SOL     OW16096   2.042   4.106   1.250  0.2260 -0.4853  0.4394
 1546SOL    HW116097   2.096   4.134   1.176 -0.3959  0.2945  0.2816
 1546SOL    HW216098   2.011   4.019   1.225  0.4290 -0.8300  1.3759
 1547SOL     OW16099   1.075   4.061  12.773 -0.1627  0.3310  1.0455
 1547SOL    HW116100   1.111   4.149  12.778  0.9330 -0.1893  2.0945
 1547SOL    HW216101   1.054   4.058  12.680  2.7827 -0.9165  0.4608
 1548SOL     OW16102   1.930   2.645   0.242  0.8923 -0.5628 -0.0147
 1548SOL    HW116103   2.010   2.688   0.273  0.6507 -0.5964  0.6573
 1548SOL    HW216104   1.932   2.569   0.301  1.6459  0.5710  1.4307
 1549SOL     OW16105   2.980   0.389   3.627 -0.4265  0.5079  0.1669
 1549SOL    HW116106   2.941   0.302   3.633  1.2916 -0.3744 -1.5647
 1549SOL    HW216107   3.054   0.362   3.680 -0.3308 -0.5839 -0.5352
 1550SOL     OW16108   1.450   1.488   4.542  0.0650  0.0277  0.0235
 1550SOL    HW116109   1.356   1.491   4.561 -0.3130 -3.1198 -1.4350
 1550SOL    HW216110   1.449   1.393   4.539  0.3855  0.0283 -0.0278
 1551SOL     OW16111   1.319   0.764   6.952 -0.5804 -0.5718  1.3749
 1551SOL    HW116112   1.339   0.733   7.040  3.7756 -1.7513 -0.0334
 1551SOL    HW216113   1.264   0.688   6.934 -3.1545  2.0095 -1.7125
 1552SOL     OW16114   3.170   1.789   5.203 -0.3320 -0.0122 -0.2406
 1552SOL    HW116115   3.201   1.823   5.119 -2.7087  0.1733 -1.0614
 1552SOL    HW216116   3.212   1.703   5.205 -0.5709 -0.1403 -0.5704
 1553SOL     OW16117   0.518   1.782   0.284  0.0087 -0.0405 -0.4297
 1553SOL    HW116118   0.551   1.847   0.347 -1.2972  0.7225 -0.5427
 1553SOL    HW216119   0.424   1.790   0.301  0.0450  1.5978 -1.0099
 1554SOL     OW16120   4.332   2.509  17.535 -0.4241  0.5037  0.1583
 1554SOL    HW116121   4.255   2.453  17.527  0.1625 -0.1885 -0.6065
 1554SOL    HW216122   4.405   2.449  17.522 -0.0317  0.5453  2.1790
 1555SOL     OW16123   3.851   0.338   1.257 -0.6035 -0.0686  0.5560
 1555SOL    HW116124   3.761   0.356   1.229 -0.7488  0.7046  1.5274
 1555SOL    HW216125   3.874   0.263   1.202  1.2908 -0.4799  1.9134
 1556SOL     OW16126   3.172   0.549   8.626  0.3190 -0.4106  0.1948
 1556SOL    HW116127   3.159   0.478   8.564  0.5164  0.0477 -0.3690
 1556SOL    HW216128   3.079   0.567   8.641  0.5090  0.2769  0.5961
 1557SOL     OW16129   0.454   1.875   9.045 -0.0522  0.0985  0.1932
 1557SOL    HW116130   0.365   1.885   9.079  0.4342  1.5704  1.0333
 1557SOL    HW216131   0.488   1.805   9.100 -2.5807  0.3472  2.0409
 1558SOL     OW16132   0.042   3.729   3.362  0.4166 -0.0513 -0.3076
 1558SOL    HW116133   0.001   3.668   3.301 -1.4378  2.0539 -1.1300
 1558SOL    HW216134   0.117   3.679   3.396  1.8128  0.6006 -2.4411
 1559SOL     OW16135   0.964   0.841  14.554  0.4014 -0.8082 -0.1642
 1559SOL    HW116136   0.877   0.803  14.566  0.6672 -1.4818 -0.3997
 1559SOL    HW216137   1.004   0.767  14.508 -0.4006 -1.9882  1.0466
 1560SOL     OW16138   2.208   2.444   4.541  0.7834 -0.3258 -0.8469
 1560SOL    HW116139   2.287   2.498   4.541 -1.2881  2.7200  0.1494
 1560SOL    HW216140   2.198   2.421   4.633  2.1549  2.0965 -0.0909
 1561SOL     OW16141   2.752   0.830  15.558 -0.2859 -0.2461  0.3353
 1561SOL    HW116142   2.744   0.816  15.652  3.3773  0.9553  0.8293
 1561SOL    HW216143   2.661   0.839  15.529  0.0700  1.2613 -0.2751
 1562SOL     OW16144   0.831   4.398  17.661  0.1066  0.2368 -0.3326
 1562SOL    HW116145   0.800   4.486  17.680  0.5550  0.5367 -1.0028
 1562SOL    HW216146   0.777   4.348   0.019  0.7283  1.0029  0.8234
 1563SOL     OW16147   1.001   3.436  10.502 -0.0289  0.1125  0.4068
 1563SOL    HW116148   1.008   3.527  10.534  0.7396 -0.2698  1.3409
 1563SOL    HW216149   0.992   3.389  10.585  0.1621  1.3851  1.1580
 1564SOL     OW16150   3.588   2.054   4.697 -0.3598  0.6575  0.3046
 1564SOL    HW116151   3.606   2.140   4.734  0.6688  0.4836  0.2042
 1564SOL    HW216152   3.644   2.045   4.619 -0.1636  0.7134  0.4398
 1565SOL     OW16153   2.845   2.153   5.268 -0.1318  0.5167  0.1859
 1565SOL    HW116154   2.838   2.185   5.358 -2.4829  0.2241  0.1024
 1565SOL    HW216155   2.878   2.064   5.283 -0.3244  0.8199  2.3940
 1566SOL     OW16156   0.820   3.803   8.626  0.0088 -0.3466 -0.4515
 1566SOL    HW116157   0.780   3.743   8.689  0.1394  0.6062  0.5557
 1566SOL    HW216158   0.749   3.813   8.563 -0.6304  1.5888  0.5524
 1567SOL     OW16159   4.191   4.367   2.884 -1.0151  0.4007 -0.1061
 1567SOL    HW116160   4.276   4.410   2.877 -0.3463 -1.0497 -0.8780
 1567SOL    HW216161   4.158   4.397   2.799 -1.3846  0.4386  0.0490
 1568SOL     OW16162   2.868   3.054   3.771 -0.1920 -0.2623  0.1619
 1568SOL    HW116163   2.834   3.026   3.686  0.4588  0.5503 -0.3698
 1568SOL    HW216164   2.798   3.105   3.810 -1.3638  0.5131 -2.9449
 1569SOL     OW16165   4.448   1.253   7.793  0.3989  0.0656  0.1345
 1569SOL    HW116166   4.449   1.348   7.799 -1.5268  0.1906 -1.4758
 1569SOL    HW216167   4.451   1.226   7.885 -0.4286 -1.5028 -0.2881
 1570SOL     OW16168   1.089   4.609   5.281  0.5409  0.3127  0.7272
 1570SOL    HW116169   1.131   4.653   5.206 -3.4051 -1.6399 -2.5986
 1570SOL    HW216170   1.041   4.531   5.255  1.9779 -0.0285 -0.8898
 1571SOL     OW16171   0.696   4.669   0.544 -0.4342 -0.0294  0.0319
 1571SOL    HW116172   0.780   4.661   0.588 -0.7268 -2.1418  0.2295
 1571SOL    HW216173   0.655   0.015   0.591 -1.0339  0.4178 -1.1563
 1572SOL     OW16174   0.199   1.517   7.668 -0.4180  0.1960 -0.1771
 1572SOL    HW116175   0.181   1.562   7.585 -0.9443  0.9768  0.3645
 1572SOL    HW216176   0.212   1.593   7.725 -0.6454 -0.9509  1.3763
 1573SOL     OW16177   1.403   3.147   3.977  0.6839 -0.1096 -0.2292
 1573SOL    HW116178   1.443   3.064   4.003  1.1324  0.2986  0.3787
 1573SOL    HW216179   1.469   3.198   4.023  0.5563  0.6490 -0.9011
 1574SOL     OW16180   3.162   0.036   8.420 -0.3588 -0.2769 -0.4375
 1574SOL    HW116181   3.121   4.687   8.462  0.0177  0.5318  1.3756
 1574SOL    HW216182   3.247   4.725   8.396 -1.2755 -1.3586 -1.9945
 1575SOL     OW16183   3.757   1.890   6.366 -0.1309  0.4060  0.3798
 1575SOL    HW116184   3.673   1.859   6.401 -1.8247  1.6335 -2.5664
 1575SOL    HW216185   3.761   1.977   6.404  0.0544  0.7568 -0.4335
 1576SOL     OW16186   4.126   0.333   1.766 -0.1969  0.0910  0.6176
 1576SOL    HW116187   4.205   0.282   1.744  0.7126  0.5840  2.6765
 1576SOL    HW216188   4.061   0.299   1.706 -0.2260  0.8632  0.2103
 1577SOL     OW16189   1.059   0.984   6.732 -0.5843  0.1427 -0.0446
 1577SOL    HW116190   1.015   1.047   6.675 -0.2506  0.0959 -0.3572
 1577SOL    HW216191   1.057   0.910   6.671  1.3033 -1.6123  2.0213
 1578SOL     OW16192   1.620   1.562   3.224  0.3972 -0.3221  0.2920
 1578SOL    HW116193   1.637   1.651   3.194 -0.7449 -0.4941 -0.8231
 1578SOL    HW216194   1.556   1.528   3.162  2.4108 -1.7167 -1.0241
 1579SOL     OW16195   2.459   4.548   3.288  0.1183  0.1965 -0.1404
 1579SOL    HW116196   2.371   4.523   3.318  0.4213 -0.2128  0.3978
 1579SOL    HW216197   2.485   4.589   3.370 -0.6674  1.1545 -0.3625
 1580SOL     OW16198   2.983   3.001   4.116 -0.8555 -0.0793  0.6220
 1580SOL    HW116199   2.957   2.930   4.058 -1.5608  0.4930  0.2391
 1580SOL    HW216200   3.055   2.960   4.164  0.0667 -0.3724 -1.0117
 1581SOL     OW16201   2.121   2.942   6.990 -0.2225 -0.0221 -1.0562
 1581SOL    HW116202   2.050   2.878   6.980 -2.3026  2.1153 -0.0810
 1581SOL    HW216203   2.076   3.024   6.971  0.4871  0.4394 -0.7358
 1582SOL     OW16204   2.569   4.254   6.798 -0.7345  0.3494  0.2226
 1582SOL    HW116205   2.589   4.183   6.736 -1.9836  2.0884 -2.1910
 1582SOL    HW216206   2.568   4.329   6.739 -0.3399 -1.4726 -2.1453
 1583SOL     OW16207   0.209   1.276   7.891  0.2913 -0.0630  0.3100
 1583SOL    HW116208   0.143   1.332   7.851 -0.6191  0.2378  2.2129
 1583SOL    HW216209   0.280   1.337   7.911  1.1977 -1.6915  2.0813
 1584SOL     OW16210   0.746   1.069  13.202  0.1462 -0.1163  0.0986
 1584SOL    HW116211   0.801   1.008  13.251 -0.0412  0.7980  1.4628
 1584SOL    HW216212   0.661   1.041  13.237  0.4638 -0.0438  0.9471
 1585SOL     OW16213   0.178   3.489   7.641  0.2488 -0.0702  0.1256
 1585SOL    HW116214   0.162   3.448   7.726 -1.1601 -1.8694 -1.0142
 1585SOL    HW216215   0.190   3.584   7.650  0.1069  0.0453 -0.9927
 1586SOL     OW16216   2.564   3.119  12.905 -0.3860 -0.1236 -0.0360
 1586SOL    HW116217   2.517   3.153  12.828  0.9207 -0.0580 -0.8124
 1586SOL    HW216218   2.631   3.073  12.854 -1.0359  0.6941 -1.6532
 1587SOL     OW16219   1.925   0.691   3.699  0.0335 -0.0116 -0.4106
 1587SOL    HW116220   1.900   0.781   3.677 -1.0802 -0.8446 -2.5973
 1587SOL    HW216221   2.020   0.688   3.710 -0.0236  1.7494  0.6320
 1588SOL     OW16222   0.474   4.190   5.941  0.1282 -0.4434 -0.4864
 1588SOL    HW116223   0.484   4.269   5.889  0.4005 -1.0461 -1.3474
 1588SOL    HW216224   0.380   4.172   5.935  0.2603 -1.1590 -0.4712
 1589SOL     OW16225   0.248   2.572  10.268  0.1041 -0.8108 -0.2967
 1589SOL    HW116226   0.242   2.493  10.321 -1.1070  0.3402  1.3072
 1589SOL    HW216227   0.318   2.553  10.205  0.6873 -0.4656  0.2371
 1590SOL     OW16228   1.820   4.291   6.039 -0.2953  0.4231  0.1388
 1590SOL    HW116229   1.736   4.327   6.066 -0.3782 -0.7669  1.4703
 1590SOL    HW216230   1.877   4.317   6.110 -0.5904  0.3994  0.3823
 1591SOL     OW16231   1.993   1.521   3.965  0.3223 -0.0404 -0.3254
 1591SOL    HW116232   2.081   1.498   3.936  0.5300  0.5858 -0.1930
 1591SOL    HW216233   1.976   1.601   3.914  2.3435  0.6026  0.0120
 1592SOL     OW16234   2.270   3.648   6.712 -0.4926  0.1121 -0.5517
 1592SOL    HW116235   2.365   3.653   6.711 -0.3959 -2.1616 -2.3476
 1592SOL    HW216236   2.241   3.737   6.730 -0.6912  0.0420 -0.5247
 1593SOL     OW16237   1.828   2.019   0.555 -0.6300  0.2036  0.2015
 1593SOL    HW116238   1.797   1.930   0.538 -1.6612  0.2717  1.8126
 1593SOL    HW216239   1.882   2.041   0.479 -2.7617  1.2499 -1.0053
 1594SOL     OW16240   4.416   0.959   1.889  0.5805  0.2824  0.2211
 1594SOL    HW116241   4.463   0.969   1.806  0.6491 -1.1882  0.0869
 1594SOL    HW216242   4.457   0.876   1.914  0.8750 -0.0568 -1.3640
 1595SOL     OW16243   1.455   2.853   0.521  0.7195 -0.2625  0.1195
 1595SOL    HW116244   1.406   2.786   0.568  0.0333 -0.3319 -0.6844
 1595SOL    HW216245   1.469   2.912   0.595  3.5622 -0.8243  0.0268
 1596SOL     OW16246   3.994   4.624   2.906 -0.1975  0.1488  0.1473
 1596SOL    HW116247   4.032   4.596   2.822  1.7883  2.1689  0.3539
 1596SOL    HW216248   4.006   4.718   2.918 -0.9350 -0.2726  4.0623
 1597SOL     OW16249   2.808   3.485   4.991  0.0521 -0.0929 -0.5566
 1597SOL    HW116250   2.890   3.437   5.006 -1.3355 -0.9473  4.1352
 1597SOL    HW216251   2.760   3.471   5.072  2.7560  0.4468  1.1329
 1598SOL     OW16252   2.903   3.970   6.486 -0.2381 -0.1061  0.3863
 1598SOL    HW116253   2.895   3.902   6.419  1.0503 -0.5024  0.6472
 1598SOL    HW216254   2.910   4.052   6.439 -0.5897 -0.1980  0.1687
 1599SOL     OW16255   3.573   3.007   8.574 -0.4580 -0.6228  0.3936
 1599SOL    HW116256   3.587   2.912   8.571  1.6820 -0.2583 -1.4077
 1599SOL    HW216257   3.567   3.028   8.667 -1.4216 -0.9014  0.4005
 1600SOL     OW16258   3.594   2.359  10.378  0.1120  0.0425 -0.3001
 1600SOL    HW116259   3.593   2.275  10.424  2.3232 -0.4061 -1.0656
 1600SOL    HW216260   3.654   2.405  10.437  1.1470  1.8877 -2.8215
 1601SOL     OW16261   2.634   0.571   8.604  0.0011 -0.2429  0.6468
 1601SOL    HW116262   2.638   0.498   8.542  1.4041  0.2313  0.1901
 1601SOL    HW216263   2.579   0.637   8.562  1.1217 -0.3685 -1.0379
 1602SOL     OW16264   1.305   0.165   2.261 -0.3856 -0.1055 -0.3301
 1602SOL    HW116265   1.280   0.099   2.196 -2.0743  0.2082 -0.0111
 1602SOL    HW216266   1.287   0.249   2.220 -2.0076 -0.6711 -0.7692
 1603SOL     OW16267   4.674   1.898   2.740 -0.6618 -0.1902  0.3624
 1603SOL    HW116268   4.653   1.937   2.825  0.5378 -1.3691  1.2052
 1603SOL    HW216269   4.611   1.827   2.747 -1.5748  0.7157  1.3937
 1604SOL     OW16270   0.714   3.564   6.785 -0.3699 -0.1235 -0.0182
 1604SOL    HW116271   0.698   3.542   6.694 -0.8790 -2.3805  0.6252
 1604SOL    HW216272   0.808   3.552   6.795 -0.2845  1.0068  0.5017
 1605SOL     OW16273   3.302   0.166   6.441  0.6337  0.1823  0.3094
 1605SOL    HW116274   3.223   0.122   6.472  0.7874 -0.6735 -0.5234
 1605SOL    HW216275   3.330   0.190   6.530  0.3745 -0.2758  0.5179
 1606SOL     OW16276   1.710   2.117   1.505  0.7876  0.0778  0.0207
 1606SOL    HW116277   1.718   2.208   1.476 -1.3879 -0.0120 -0.8765
 1606SOL    HW216278   1.635   2.130   1.563  0.9490 -1.6026  0.6070
 1607SOL     OW16279   0.050   0.541   5.623  0.2222  0.4121 -0.3121
 1607SOL    HW116280   0.069   0.448   5.611 -0.7117  0.2381 -0.4922
 1607SOL    HW216281   0.114   0.559   5.691  1.0356  1.6327 -1.3972
 1608SOL     OW16282   3.492   2.574   5.245  0.5216  0.1936 -0.3181
 1608SOL    HW116283   3.554   2.632   5.201 -0.0961  1.6803  0.7632
 1608SOL    HW216284   3.553   2.519   5.295  1.3251  1.3796  0.0281
 1609SOL     OW16285   3.323   1.750   7.521  0.1254 -0.6166 -0.0355
 1609SOL    HW116286   3.336   1.682   7.455  1.2381 -0.9400  0.5171
 1609SOL    HW216287   3.229   1.766   7.520  0.0764 -0.7975  1.2363
 1610SOL     OW16288   4.714   1.680  12.019  0.8043 -0.1151  0.2605
 1610SOL    HW116289   4.700   1.674  12.113  0.3071  2.0882  0.3243
 1610SOL    HW216290   4.656   1.751  11.992 -1.4620 -1.9593  0.2428
 1611SOL     OW16291   0.696   0.700   9.910  0.2875 -0.0616 -0.2681
 1611SOL    HW116292   0.721   0.791   9.892  0.6805 -0.6941 -2.8655
 1611SOL    HW216293   0.601   0.693   9.895  0.5347 -0.8474 -1.4210
 1612SOL     OW16294   1.024   0.309   1.795  0.2779 -0.9794 -0.5030
 1612SOL    HW116295   1.066   0.377   1.848 -0.5504 -0.0584 -1.0363
 1612SOL    HW216296   0.957   0.348   1.739 -2.2635 -0.0435  3.1704
 1613SOL     OW16297   1.449   2.685   5.422  0.1665  0.3351  0.2214
 1613SOL    HW116298   1.399   2.751   5.375  2.0638  0.1668 -2.0425
 1613SOL    HW216299   1.415   2.695   5.511  0.0411 -2.2232  0.4398
 1614SOL     OW16300   2.169   1.228   3.674  0.5129  0.2669 -0.3206
 1614SOL    HW116301   2.150   1.211   3.581 -2.3987 -0.1688  0.3636
 1614SOL    HW216302   2.082   1.224   3.714  0.1073  3.0340 -0.9180
 1615SOL     OW16303   4.089   2.237   4.278 -0.3584  1.1423  0.0511
 1615SOL    HW116304   4.069   2.306   4.215  0.2013  0.6202 -0.6873
 1615SOL    HW216305   4.069   2.291   4.355  3.4418  0.8956  1.1905
 1616SOL     OW16306   2.607   4.519   5.907 -0.0055 -0.1356 -0.0384
 1616SOL    HW116307   2.631   4.544   5.818 -0.1184  0.9378  0.2356
 1616SOL    HW216308   2.514   4.500   5.895 -1.3340  4.3809  3.1898
 1617SOL     OW16309   2.793   4.567   3.577  0.1796 -0.3874 -0.5220
 1617SOL    HW116310   2.721   4.505   3.575  1.0185 -1.3537 -0.6212
 1617SOL    HW216311   2.789   4.610   3.492  1.0664 -0.8590 -0.7974
 1618SOL     OW16312   1.059   2.488   2.619  0.0568 -0.3612  0.1145
 1618SOL    HW116313   1.139   2.496   2.669  1.0219 -0.7707 -1.3631
 1618SOL    HW216314   1.090   2.514   2.532 -1.6630 -1.5179 -0.8647
 1619SOL     OW16315   4.583   1.205  12.464 -0.0755  0.1978 -0.3150
 1619SOL    HW116316   4.654   1.226  12.404 -0.4182 -0.5648 -0.9894
 1619SOL    HW216317   4.634   1.195  12.545  1.0556 -2.4411 -1.3410
 1620SOL     OW16318   0.270   3.528  14.468  0.3418  0.2541 -0.4000
 1620SOL    HW116319   0.317   3.506  14.549 -1.2445  0.3541  0.5587
 1620SOL    HW216320   0.202   3.460  14.475  0.0738  0.4311 -1.2714
 1621SOL     OW16321   2.962   3.868   6.965 -0.1004 -0.3218 -0.1420
 1621SOL    HW116322   2.912   3.818   7.030 -0.5246 -0.9549 -0.9535
 1621SOL    HW216323   2.911   3.858   6.884 -1.8755  3.4061  0.5396
 1622SOL     OW16324   0.188   3.425  15.837 -0.1745  0.3418 -0.5584
 1622SOL    HW116325   0.164   3.477  15.760 -1.3238 -1.4626 -1.4212
 1622SOL    HW216326   0.269   3.461  15.872 -0.7790 -0.6923  1.8490
 1623SOL     OW16327   0.358   2.342  14.944 -0.0558  0.2249  0.0840
 1623SOL    HW116328   0.434   2.399  14.935 -0.8418  0.8815 -2.4646
 1623SOL    HW216329   0.377   2.296  15.025  1.5607  1.3168  0.3411
 1624SOL     OW16330   2.546   3.850   3.772 -0.2394  0.3125 -0.3121
 1624SOL    HW116331   2.476   3.833   3.835  0.0528  1.9259  0.4504
 1624SOL    HW216332   2.544   3.945   3.761 -0.0839  0.4254  0.6704
 1625SOL     OW16333   3.996   1.999   7.590 -0.1587  0.0089  0.3434
 1625SOL    HW116334   3.902   2.017   7.599  0.1799  1.2980  1.2918
 1625SOL    HW216335   4.031   2.082   7.622  0.9421  0.0662 -1.0169
 1626SOL     OW16336   2.624   0.684  12.270 -0.0561  0.2994  0.1177
 1626SOL    HW116337   2.607   0.733  12.351 -0.4609  0.4021 -0.0316
 1626SOL    HW216338   2.669   0.748  12.214  0.9443 -0.6072 -0.1157
 1627SOL     OW16339   0.793   2.957   6.364 -0.2034 -0.6336 -0.3483
 1627SOL    HW116340   0.822   2.907   6.287  1.6851 -0.1086  0.0059
 1627SOL    HW216341   0.736   3.028   6.335  0.1588  0.4592  1.6449
 1628SOL     OW16342   3.252   2.670  15.695 -0.1392 -0.0256 -0.6800
 1628SOL    HW116343   3.191   2.731  15.653 -0.3643  0.2670  0.0661
 1628SOL    HW216344   3.315   2.661  15.623  0.0034 -1.2028 -0.4146
 1629SOL     OW16345   2.468   4.150   6.145 -0.0109  0.5115 -0.5376
 1629SOL    HW116346   2.386   4.195   6.165  0.5305  0.7737  1.0691
 1629SOL    HW216347   2.521   4.217   6.102  1.5942 -0.9876 -0.8991
 1630SOL     OW16348   0.041   4.528   7.133  0.2080 -0.5091  0.0370
 1630SOL    HW116349   0.013   4.456   7.075 -0.8571 -0.3599  0.3585
 1630SOL    HW216350   0.133   4.533   7.108 -0.0612  0.5418 -0.7289
 1631SOL     OW16351   3.308   1.697  14.013  0.4590  0.0939 -0.7590
 1631SOL    HW116352   3.337   1.771  13.959 -2.6450  2.4095  0.7818
 1631SOL    HW216353   3.382   1.638  13.999  0.8198  1.1122 -3.1341
 1632SOL     OW16354   3.551   0.064  17.589 -0.3228 -0.1302 -0.2487
 1632SOL    HW116355   3.594   0.134  17.541  0.0561 -1.6801 -2.1787
 1632SOL    HW216356   3.508   0.122  17.652  0.5982  0.7722 -0.4440
 1633SOL     OW16357   0.086   0.339   4.328 -0.3538  0.2121  0.0011
 1633SOL    HW116358   0.088   0.346   4.423 -1.0747 -2.9148  0.2305
 1633SOL    HW216359   0.179   0.336   4.307 -0.1373  0.8050  0.8664
 1634SOL     OW16360   0.812   3.388   2.977  0.4658 -0.1703  0.4879
 1634SOL    HW116361   0.755   3.464   2.986  1.4065  0.5323  0.5141
 1634SOL    HW216362   0.851   3.370   3.062 -1.1949 -2.9861  0.6366
 1635SOL     OW16363   0.807   0.848   3.653  0.4373  0.4437  0.2911
 1635SOL    HW116364   0.863   0.803   3.589  2.4432 -1.6786  3.4651
 1635SOL    HW216365   0.744   0.882   3.590 -0.3592  0.6899  1.2195
 1636SOL     OW16366   1.935   1.192   7.696  0.0357 -0.2475  0.7016
 1636SOL    HW116367   1.864   1.129   7.682 -1.9814  2.3500 -0.6425
 1636SOL    HW216368   1.926   1.256   7.626  2.2162  0.9443  1.4932
 1637SOL     OW16369   4.333   1.550   0.914  0.0895  0.2132  0.5579
 1637SOL    HW116370   4.353   1.458   0.898  1.0625  0.4217  0.5835
 1637SOL    HW216371   4.422   1.579   0.933  0.3005 -1.4594  2.1055
 1638SOL     OW16372   2.658   0.605   2.413  0.1365  0.7651 -0.9411
 1638SOL    HW116373   2.581   0.563   2.376  0.0555  2.7327 -3.0092
 1638SOL    HW216374   2.712   0.531   2.439 -0.4442  0.6161 -0.1641
 1639SOL     OW16375   2.995   0.223   6.781 -0.3300 -0.1543 -0.0474
 1639SOL    HW116376   2.991   0.282   6.705  1.4241 -0.2619 -0.2056
 1639SOL    HW216377   3.085   0.236   6.811 -0.1358 -1.0147 -0.2730
 1640SOL     OW16378   3.709   3.121   7.501 -0.2102 -0.0850 -0.5423
 1640SOL    HW116379   3.660   3.202   7.508  0.1603  0.0603  0.4215
 1640SOL    HW216380   3.750   3.120   7.588 -0.7475 -1.2414 -0.3079
 1641SOL     OW16381   0.487   3.914   7.427 -0.0791 -0.6203 -0.0341
 1641SOL    HW116382   0.552   3.884   7.490  1.6699  3.5520  0.1731
 1641SOL    HW216383   0.529   3.909   7.341  1.5780  1.8411  0.6223
 1642SOL     OW16384   4.536   1.437  11.447 -0.0268  0.1125 -0.4143
 1642SOL    HW116385   4.581   1.406  11.525 -1.3463 -1.8152 -0.4268
 1642SOL    HW216386   4.528   1.356  11.397  1.2804  0.3732 -1.0597
 1643SOL     OW16387   2.065   0.631   9.321 -0.0092  0.0269 -0.0306
 1643SOL    HW116388   2.152   0.651   9.356  0.3799 -0.1374 -0.9186
 1643SOL    HW216389   2.054   0.691   9.247  0.1668 -0.5523 -0.5250
 1644SOL     OW16390   1.576   0.622   4.461 -0.2071 -0.3024 -0.1355
 1644SOL    HW116391   1.670   0.625   4.440 -0.1915  1.4183  0.1354
 1644SOL    HW216392   1.570   0.528   4.445 -1.4525 -0.1749 -0.3575
 1645SOL     OW16393   1.024   0.679   2.942 -0.0965 -0.2098 -0.1818
 1645SOL    HW116394   1.014   0.646   3.031 -1.0187 -1.9435 -0.9347
 1645SOL    HW216395   1.104   0.631   2.921  0.9190  1.7153 -0.7579
 1646SOL     OW16396   3.117   4.571   7.067  0.4873 -0.2786  0.7375
 1646SOL    HW116397   3.069   4.645   7.104 -0.5331 -1.3698  1.5923
 1646SOL    HW216398   3.062   4.494   7.080  0.8638 -0.2892  2.2694
 1647SOL     OW16399   4.419   0.661  15.937 -0.2441  0.0188  0.1011
 1647SOL    HW116400   4.390   0.718  16.008  2.4717  0.9668  0.4411
 1647SOL    HW216401   4.514   0.659  15.947 -0.3383 -0.5524  0.8201
 1648SOL     OW16402   3.602   1.459   7.720  0.4043  0.3329  0.2645
 1648SOL    HW116403   3.689   1.431   7.689 -0.6223 -0.6411 -1.7222
 1648SOL    HW216404   3.616   1.553   7.710 -0.8774  0.5619  0.6817
 1649SOL     OW16405   2.723   0.043  13.257 -0.5141 -0.1540 -0.6485
 1649SOL    HW116406   2.752   0.111  13.318  2.1629 -1.6939 -0.1847
 1649SOL    HW216407   2.774   4.693  13.287  0.3509  0.8475  0.4211
 1650SOL     OW16408   2.508   0.420   1.982  0.1640  0.0928 -0.0212
 1650SOL    HW116409   2.438   0.394   1.922  0.7359  0.2149 -0.7537
 1650SOL    HW216410   2.579   0.435   1.920  1.2673  1.2849  1.5428
 1651SOL     OW16411   2.778   2.933  14.308 -0.1632  0.6295 -0.3983
 1651SOL    HW116412   2.837   2.994  14.353 -0.2139 -0.2866  0.9149
 1651SOL    HW216413   2.837   2.870  14.266 -0.2007 -0.7932  1.7129
 1652SOL     OW16414   2.954   0.988  14.655 -0.4325 -0.9294  0.3806
 1652SOL    HW116415   2.928   1.070  14.698  2.6091 -0.6456  1.6426
 1652SOL    HW216416   2.869   0.960  14.620  0.0945 -1.7439 -0.2318
 1653SOL     OW16417   0.848   1.547   5.300 -0.6622  0.1236 -0.5076
 1653SOL    HW116418   0.935   1.571   5.330 -1.3904  0.0969  1.6346
 1653SOL    HW216419   0.848   1.596   5.217 -0.7338 -1.2669 -1.3310
 1654SOL     OW16420   4.689   2.804   3.451  0.4291  0.5355 -0.0483
 1654SOL    HW116421   4.668   2.714   3.428  0.5542  0.3208  0.6833
 1654SOL    HW216422   4.629   2.856   3.397 -1.8027 -2.0953 -0.0766
 1655SOL     OW16423   0.412   0.826   3.279 -0.2206  0.2607  0.0715
 1655SOL    HW116424   0.331   0.775   3.269 -0.4839  0.9711 -1.3365
 1655SOL    HW216425   0.380   0.909   3.244 -2.6693 -1.1842 -1.1486
 1656SOL     OW16426   0.824   3.980   3.832 -0.0339  1.0071 -0.1363
 1656SOL    HW116427   0.746   4.030   3.855 -1.8998 -1.4870 -0.9546
 1656SOL    HW216428   0.884   4.039   3.787  0.9479 -1.2123 -1.7623
 1657SOL     OW16429   1.280   0.543   5.868 -0.5317  0.5495  0.0089
 1657SOL    HW116430   1.352   0.598   5.898 -0.0422 -0.0211 -0.1454
 1657SOL    HW216431   1.205   0.578   5.918  0.3192  1.9361  0.3205
 1658SOL     OW16432   4.550   1.651   2.741  0.4763  1.1268 -0.5259
 1658SOL    HW116433   4.460   1.625   2.761  0.2178  0.9043 -1.9802
 1658SOL    HW216434   4.601   1.570   2.734 -0.1268  0.7094 -0.1184
 1659SOL     OW16435   3.733   1.464   2.878  0.2043 -0.4275  0.1014
 1659SOL    HW116436   3.759   1.546   2.921 -0.3021 -0.0814 -0.2504
 1659SOL    HW216437   3.638   1.477   2.878  0.5426  2.0936  0.7931
 1660SOL     OW16438   0.386   2.066   3.512 -0.1932 -0.0001  0.5589
 1660SOL    HW116439   0.480   2.072   3.496 -0.3027  0.8669  0.2152
 1660SOL    HW216440   0.376   2.130   3.583  1.4367 -0.9878  1.6976
 1661SOL     OW16441   4.057   3.123   4.451  0.5611 -0.1715 -0.1252
 1661SOL    HW116442   4.026   3.037   4.481 -0.5109  0.1501 -0.3209
 1661SOL    HW216443   3.978   3.174   4.466  1.4960  1.3136 -0.1891
 1662SOL     OW16444   3.028   0.665   5.404  0.0513  0.0505 -0.0984
 1662SOL    HW116445   3.062   0.755   5.405 -0.7972  0.3998 -2.1714
 1662SOL    HW216446   2.946   0.659   5.452  0.3436  3.0002  0.7882
 1663SOL     OW16447   2.418   2.799   6.273  0.0575  0.2056 -0.2655
 1663SOL    HW116448   2.412   2.842   6.358 -0.6649 -1.1999  0.4034
 1663SOL    HW216449   2.349   2.732   6.279 -0.7046  0.8391 -1.9118
 1664SOL     OW16450   1.822   0.778   8.261 -0.0896  0.4488  0.0964
 1664SOL    HW116451   1.817   0.853   8.321 -1.2117  1.5442 -1.3671
 1664SOL    HW216452   1.753   0.793   8.196  1.3286 -0.9587 -1.7319
 1665SOL     OW16453   0.232   2.416   1.254 -0.2361 -0.5828  0.4488
 1665SOL    HW116454   0.177   2.486   1.288 -1.0201 -1.0129  0.0547
 1665SOL    HW216455   0.307   2.435   1.310  0.4709 -0.0974 -0.6534
 1666SOL     OW16456   2.658   0.043  13.728  0.0159  0.5336  0.6742
 1666SOL    HW116457   2.742   0.087  13.714  0.4970 -0.5608  0.1341
 1666SOL    HW216458   2.621   0.087  13.805 -0.1540  0.6307  0.5371
 1667SOL     OW16459   2.151   2.981   7.978 -0.4910 -0.1864  0.0630
 1667SOL    HW116460   2.221   3.021   7.926 -0.1104 -0.8670  0.0498
 1667SOL    HW216461   2.168   3.016   8.065 -1.9945  0.1260  0.2248
 1668SOL     OW16462   3.441   3.445   8.083  0.2598  0.4487 -0.0621
 1668SOL    HW116463   3.460   3.450   7.989  2.7764 -1.3679  0.3532
 1668SOL    HW216464   3.459   3.534   8.115 -3.6319  1.0978  0.3745
 1669SOL     OW16465   1.573   3.391   6.939 -0.2161  0.3651 -0.4783
 1669SOL    HW116466   1.529   3.321   6.891 -0.8727 -0.8652  1.9017
 1669SOL    HW216467   1.506   3.405   7.005  0.0870 -1.2226  0.1838
 1670SOL     OW16468   3.575   0.329  15.193 -0.1762 -0.0078  0.6340
 1670SOL    HW116469   3.651   0.387  15.189  0.0941 -0.2652  1.8407
 1670SOL    HW216470   3.518   0.392  15.238  0.1125  0.2387  0.6511
 1671SOL     OW16471   2.606   3.085   0.187  0.1782  0.2019 -0.0517
 1671SOL    HW116472   2.635   3.079   0.278  0.3843 -0.7102 -0.1752
 1671SOL    HW216473   2.668   3.150   0.153  0.8080  0.5216  1.7247
 1672SOL     OW16474   3.158   3.116   3.389 -0.2803 -0.6397 -0.6489
 1672SOL    HW116475   3.204   3.094   3.470 -1.3019  0.6855  0.2839
 1672SOL    HW216476   3.103   3.185   3.427  1.4878  1.7685 -2.4614
 1673SOL     OW16477   1.866   2.090   8.165 -0.3723  0.1870 -0.1965
 1673SOL    HW116478   1.939   2.120   8.111 -1.5061  3.0891 -0.1107
 1673SOL    HW216479   1.806   2.165   8.164  1.5263  1.6919 -2.9593
 1674SOL     OW16480   2.330   0.352  17.269 -0.2861  0.1087  0.2629
 1674SOL    HW116481   2.370   0.343  17.355 -2.9461  0.7404  1.5728
 1674SOL    HW216482   2.251   0.402  17.289 -0.1451 -0.5967  2.5006
 1675SOL     OW16483   0.217   1.431  12.503  0.3271  0.2798 -0.4257
 1675SOL    HW116484   0.272   1.445  12.426  0.7401 -2.1209 -0.5588
 1675SOL    HW216485   0.164   1.510  12.490 -0.5020 -0.2156 -0.0660
 1676SOL     OW16486   4.648   2.175   8.583 -0.3605 -0.7266 -0.2375
 1676SOL    HW116487   4.612   2.120   8.652 -0.8472 -0.0513  0.0448
 1676SOL    HW216488   4.607   2.123   8.513 -0.1487 -0.3265 -0.6597
 1677SOL     OW16489   4.140   0.828  11.917  0.6052  0.2457 -0.4454
 1677SOL    HW116490   4.055   0.807  11.955  0.1138  0.5386 -1.3775
 1677SOL    HW216491   4.127   0.920  11.892  1.9446  0.3981 -0.5833
 1678SOL     OW16492   3.330   1.940   8.694 -0.2661 -0.6063  0.5286
 1678SOL    HW116493   3.336   1.864   8.637 -2.1489 -1.5630  1.6230
 1678SOL    HW216494   3.236   1.932   8.709 -0.1849 -1.7855  0.4146
 1679SOL     OW16495   0.138   4.346   5.819 -0.6949 -0.1200 -0.0187
 1679SOL    HW116496   0.160   4.348   5.726  2.8732  0.8409  0.8453
 1679SOL    HW216497   0.094   4.430   5.833 -0.5964 -0.1717  0.5996
 1680SOL     OW16498   2.477   1.947   0.089 -0.1406 -0.4772 -0.2617
 1680SOL    HW116499   2.471   1.866   0.039 -2.9115 -0.4141 -0.0588
 1680SOL    HW216500   2.572   1.950   0.093 -0.1902  3.3704 -2.1996
 1681SOL     OW16501   4.664   0.602   9.309 -0.7752  0.1892  0.2516
 1681SOL    HW116502   0.023   0.631   9.344 -0.0193  1.4591 -2.6083
 1681SOL    HW216503   4.623   0.686   9.291  0.9135  0.6844 -1.2634
 1682SOL     OW16504   0.806   4.068  16.978  0.7986  0.3485  0.0025
 1682SOL    HW116505   0.837   4.127  17.047  0.0825  2.6819 -1.7255
 1682SOL    HW216506   0.750   4.129  16.932 -0.8940 -2.3788 -1.5617
 1683SOL     OW16507   2.890   2.704   8.570  0.1675  0.2756  0.0445
 1683SOL    HW116508   2.825   2.682   8.504 -1.6201  2.1052  1.1991
 1683SOL    HW216509   2.944   2.625   8.570  0.6875  0.6273 -0.6366
 1684SOL     OW16510   3.950   2.299   6.419  0.1640 -0.6094  0.0972
 1684SOL    HW116511   3.886   2.241   6.377 -2.2516  0.1152  2.7221
 1684SOL    HW216512   3.909   2.385   6.413  0.8143 -0.3949 -1.1428
 1685SOL     OW16513   1.532   0.152  11.723 -0.5180 -0.0691  0.5926
 1685SOL    HW116514   1.587   0.152  11.645 -1.3747  0.8785 -0.0146
 1685SOL    HW216515   1.506   0.060  11.726 -1.6843  0.2240 -0.9402
 1686SOL     OW16516   2.380   1.523   9.082 -0.3208  0.4610  0.0705
 1686SOL    HW116517   2.384   1.612   9.048  1.0777  0.7113  0.9239
 1686SOL    HW216518   2.314   1.528   9.151  0.8343 -0.2563  1.2095
 1687SOL     OW16519   3.066   1.874   8.669 -0.5599  0.2114 -0.1249
 1687SOL    HW116520   2.983   1.920   8.657 -1.8506 -1.7468  1.3220
 1687SOL    HW216521   3.085   1.856   8.576  2.0463 -2.7293  0.9752
 1688SOL     OW16522   1.172   2.704  17.694 -0.0365 -0.5060 -0.0904
 1688SOL    HW116523   1.169   2.613  17.664  2.1521 -0.5295 -0.2234
 1688SOL    HW216524   1.159   2.687   0.082 -3.3185 -1.6748 -0.7922
 1689SOL     OW16525   4.451   2.810  15.453 -0.0655  0.0048 -0.1545
 1689SOL    HW116526   4.408   2.832  15.535  2.3383 -0.5846  1.2826
 1689SOL    HW216527   4.531   2.768  15.486 -0.2369 -0.2108 -0.0188
 1690SOL     OW16528   1.389   0.388  16.287 -0.2303 -0.0161  0.1876
 1690SOL    HW116529   1.466   0.371  16.232 -1.0962  1.4660 -1.4868
 1690SOL    HW216530   1.417   0.331  16.359  0.5680  1.9574  1.4137
 1691SOL     OW16531   3.097   0.322   1.198 -0.4073 -0.0129 -0.5305
 1691SOL    HW116532   3.146   0.321   1.280 -3.0240  0.8549  1.0514
 1691SOL    HW216533   3.007   0.305   1.227 -0.4350 -0.9364 -1.1720
 1692SOL     OW16534   3.854   2.883   7.745 -0.0291 -0.1794 -0.0809
 1692SOL    HW116535   3.774   2.837   7.722  0.9319 -1.2606 -1.2838
 1692SOL    HW216536   3.903   2.817   7.794 -1.4109  0.2184  1.8086
 1693SOL     OW16537   3.925   2.423   5.320  0.0721 -0.0905 -0.2400
 1693SOL    HW116538   3.927   2.366   5.397 -1.1761  0.7153  0.3991
 1693SOL    HW216539   3.873   2.496   5.355 -2.0277 -0.2778 -3.0364
 1694SOL     OW16540   0.861   4.722  14.645 -0.0193 -0.0783  0.0467
 1694SOL    HW116541   0.799   4.657  14.610  0.5224 -1.2331  1.2261
 1694SOL    HW216542   0.939   4.674  14.617  1.4562  2.0970  0.4278
 1695SOL     OW16543   1.216   0.996  14.637 -0.2255  1.0712 -0.0944
 1695SOL    HW116544   1.147   0.929  14.633  0.3672  0.6146 -2.5771
 1695SOL    HW216545   1.183   1.035  14.718 -0.0596 -1.0510  1.0008
 1696SOL     OW16546   4.287   0.136   9.169 -0.1210  0.5484 -0.1325
 1696SOL    HW116547   4.266   0.185   9.090  1.3009  3.0180  0.9868
 1696SOL    HW216548   4.318   0.056   9.128  0.2173 -0.1975  1.5566
 1697SOL     OW16549   3.971   3.268  16.485  0.4500 -0.8176  0.1475
 1697SOL    HW116550   3.968   3.195  16.423  0.6254 -2.2204  1.7923
 1697SOL    HW216551   4.066   3.277  16.495  0.2156  2.6282 -0.6961
 1698SOL     OW16552   2.093   1.288   0.457  0.4749  0.1007  0.4731
 1698SOL    HW116553   2.179   1.278   0.498  0.9206 -1.4975 -0.8523
 1698SOL    HW216554   2.057   1.200   0.449  0.2359  0.2117  0.3315
 1699SOL     OW16555   0.502   1.824  13.233 -0.6055  0.1498  0.8614
 1699SOL    HW116556   0.498   1.909  13.188  0.3311 -0.9074 -1.2117
 1699SOL    HW216557   0.595   1.826  13.255 -0.2138 -0.0860 -0.7645
 1700SOL     OW16558   3.259   0.087   3.312  0.2434  0.0511 -0.3575
 1700SOL    HW116559   3.328   0.109   3.249 -0.5421  1.5301 -0.7046
 1700SOL    HW216560   3.261   0.158   3.376  1.3579 -0.2761 -0.0347
 1701SOL     OW16561   1.196   1.558  17.603  0.2749  0.5065  0.0632
 1701SOL    HW116562   1.109   1.539  17.638  0.8158 -0.4525  0.8785
 1701SOL    HW216563   1.224   1.624  17.667  0.0154 -0.5063  1.2118
 1702SOL     OW16564   4.550   0.988   8.056  0.4215  0.0881 -0.1376
 1702SOL    HW116565   4.467   1.037   8.054 -0.9753 -2.1961  1.2732
 1702SOL    HW216566   4.612   1.061   8.060  0.2707  0.1825  0.5667
 1703SOL     OW16567   2.413   0.112   2.211 -0.0914 -0.2629 -0.4199
 1703SOL    HW116568   2.369   0.177   2.156  0.6606 -1.4740 -2.4352
 1703SOL    HW216569   2.504   0.140   2.202 -0.3140  0.5890 -0.0523
 1704SOL     OW16570   1.141   0.485   1.983  0.3281  0.7042  0.7552
 1704SOL    HW116571   1.103   0.539   2.052 -1.9183 -0.8078  0.6872
 1704SOL    HW216572   1.226   0.467   2.021 -0.0615 -1.1773  0.7113
 1705SOL     OW16573   1.203   3.871  11.122 -0.1901  0.0816  0.3094
 1705SOL    HW116574   1.114   3.872  11.088  0.2822 -0.5216 -0.9257
 1705SOL    HW216575   1.221   3.778  11.137 -0.9324  0.0118  0.7548
 1706SOL     OW16576   3.341   3.854   0.068  0.0005 -0.5619 -0.1250
 1706SOL    HW116577   3.378   3.838   0.155  0.6876  1.3146 -0.0856
 1706SOL    HW216578   3.255   3.885   0.096  1.1666  0.0066  2.8700
 1707SOL     OW16579   3.322   0.220   0.611  0.1903  0.2110 -0.1705
 1707SOL    HW116580   3.357   0.305   0.637  0.7327  0.8184 -2.9066
 1707SOL    HW216581   3.338   0.164   0.687  0.1322 -1.0138 -1.0769
 1708SOL     OW16582   2.469   4.330   0.552 -1.2933 -0.0627  0.6086
 1708SOL    HW116583   2.454   4.363   0.640 -0.2071 -3.2515  1.9821
 1708SOL    HW216584   2.391   4.283   0.522 -1.1953  0.3551 -0.3268
 1709SOL     OW16585   0.816   4.517   7.741 -0.1544  0.2832 -0.1954
 1709SOL    HW116586   0.893   4.476   7.781 -0.5019 -3.1121 -3.0226
 1709SOL    HW216587   0.768   4.546   7.819 -1.7365  0.1374 -1.1218
 1710SOL     OW16588   0.068   4.635   4.994 -0.1417  0.0574  0.1602
 1710SOL    HW116589   4.709   4.630   4.950 -0.2455  2.5472  0.0812
 1710SOL    HW216590   0.081   4.540   5.006 -1.6806 -0.2169 -0.4027
 1711SOL     OW16591   3.986   4.053  13.570  0.1467 -0.1890  0.2535
 1711SOL    HW116592   4.029   4.027  13.488 -0.0807  2.3736 -0.6820
 1711SOL    HW216593   4.009   3.978  13.625 -0.7523 -0.7843 -0.1635
 1712SOL     OW16594   1.368   3.551   7.904 -0.4164  0.2128 -0.3231
 1712SOL    HW116595   1.431   3.585   7.841  0.8613 -0.6726  0.4656
 1712SOL    HW216596   1.382   3.631   7.954 -1.2452 -0.7885  1.5346
 1713SOL     OW16597   2.320   3.619   1.944  0.5675 -0.1970 -0.2915
 1713SOL    HW116598   2.294   3.547   1.887  1.1060  0.3027 -1.1696
 1713SOL    HW216599   2.261   3.686   1.910 -1.9165 -1.8762  0.7222
 1714SOL     OW16600   1.624   2.992   6.302  0.2642 -0.5390  0.2922
 1714SOL    HW116601   1.580   3.070   6.271 -0.0446 -0.7940  0.0912
 1714SOL    HW216602   1.651   2.945   6.223 -1.8941  0.6442 -1.1065
 1715SOL     OW16603   3.482   4.169   4.625 -0.0495 -0.1604  0.2048
 1715SOL    HW116604   3.476   4.106   4.697  1.2989 -0.2719  0.2161
 1715SOL    HW216605   3.573   4.152   4.602  0.3824  1.0918  0.9943
 1716SOL     OW16606   3.453   2.398   6.709  0.3016 -0.2352 -0.3206
 1716SOL    HW116607   3.496   2.464   6.763 -1.8786  1.1711 -0.2928
 1716SOL    HW216608   3.394   2.452   6.657 -0.2978 -0.6146 -0.0443
 1717SOL     OW16609   2.802   4.364   2.430  0.0306  0.3058  1.1205
 1717SOL    HW116610   2.896   4.347   2.419 -0.3703 -0.3118 -1.4593
 1717SOL    HW216611   2.762   4.282   2.400  2.8670 -0.6866  0.0083
 1718SOL     OW16612   1.297   0.065   1.892  0.1116 -0.3215 -0.4879
 1718SOL    HW116613   1.280   0.120   1.816  0.8585 -0.0544 -0.4632
 1718SOL    HW216614   1.392   0.066   1.901 -0.0174 -2.0633  1.0272
 1719SOL     OW16615   2.612   1.687   6.143 -0.1995 -0.1009  0.3585
 1719SOL    HW116616   2.529   1.653   6.111  1.0978 -2.8329 -0.1188
 1719SOL    HW216617   2.577   1.762   6.189 -2.3724 -0.9253  0.0672
 1720SOL     OW16618   2.952   3.793  13.322  0.2270  0.2410  0.5327
 1720SOL    HW116619   2.911   3.784  13.409  2.0740  2.0895  1.5742
 1720SOL    HW216620   3.011   3.867  13.337 -0.0283  0.3523  1.0177
 1721SOL     OW16621   0.725   3.582   5.492  0.3016 -0.6362 -0.3763
 1721SOL    HW116622   0.744   3.604   5.401  0.0487 -0.4714 -0.3911
 1721SOL    HW216623   0.753   3.658   5.544  0.1274 -0.0387 -1.1562
 1722SOL     OW16624   0.514   3.579   3.606  0.2881 -0.1096  0.0043
 1722SOL    HW116625   0.593   3.556   3.558 -0.4167 -3.2151  0.3389
 1722SOL    HW216626   0.497   3.499   3.656 -1.3279  0.4500  0.3457
 1723SOL     OW16627   4.295   2.329   3.711  0.0297  0.1872  0.0364
 1723SOL    HW116628   4.287   2.403   3.652  0.1508 -1.7311 -2.4069
 1723SOL    HW216629   4.390   2.334   3.722  0.2315 -0.8355 -1.2311
 1724SOL     OW16630   0.695   2.638   0.774 -0.3233 -0.4455 -0.5798
 1724SOL    HW116631   0.630   2.569   0.777 -0.8428 -0.0864 -2.8365
 1724SOL    HW216632   0.636   2.713   0.767 -0.1624 -0.1934  0.9069
 1725SOL     OW16633   1.983   1.993  13.991  0.6048  1.0084 -0.2998
 1725SOL    HW116634   1.928   2.004  14.069  0.0082  1.6749 -0.8110
 1725SOL    HW216635   2.061   2.043  14.016  2.4010 -0.4039 -3.0276
 1726SOL     OW16636   4.646   0.567  11.415  0.6517  0.3956 -0.2119
 1726SOL    HW116637   4.638   0.559  11.320  2.8706 -1.2907 -0.2627
 1726SOL    HW216638   4.572   0.515  11.446  0.7473  1.1622  1.3066
 1727SOL     OW16639   0.217   2.190   8.835  0.2157  0.3185  0.1149
 1727SOL    HW116640   0.274   2.205   8.760  1.0848  1.0771  0.9299
 1727SOL    HW216641   0.276   2.217   8.905  0.3614  0.7058 -0.1595
 1728SOL     OW16642   3.255   3.147   1.796 -0.5490  0.8505 -0.1660
 1728SOL    HW116643   3.176   3.130   1.847 -0.2431 -1.4856 -0.4589
 1728SOL    HW216644   3.301   3.178   1.873 -0.0188 -0.3038 -0.0139
 1729SOL     OW16645   0.467   0.399  10.639  0.2459  0.0962 -0.1846
 1729SOL    HW116646   0.372   0.392  10.647  0.1043  1.2687 -0.9174
 1729SOL    HW216647   0.464   0.439  10.552  0.1922  1.6014  0.5159
 1730SOL     OW16648   0.886   1.326   0.200  0.6019  0.1409  0.2593
 1730SOL    HW116649   0.974   1.340   0.236 -0.1345  1.4659  1.5669
 1730SOL    HW216650   0.887   1.232   0.180  0.8967  0.8573 -3.0823
 1731SOL     OW16651   4.221   1.666   0.640  0.3465 -0.5011 -0.0184
 1731SOL    HW116652   4.250   1.650   0.730  1.1081 -1.9380 -0.5299
 1731SOL    HW216653   4.257   1.589   0.596  3.5041  0.8761  0.1559
 1732SOL     OW16654   0.239   1.867   4.683 -0.1348  0.5944 -0.0304
 1732SOL    HW116655   0.196   1.949   4.656  1.3100  0.4655 -2.7931
 1732SOL    HW216656   0.162   1.811   4.676 -0.2743  0.9637 -1.5435
 1733SOL     OW16657   2.031   1.198  11.130 -0.9684  0.1528  0.0302
 1733SOL    HW116658   2.024   1.266  11.196  0.0472 -0.1872  0.4838
 1733SOL    HW216659   2.010   1.247  11.051  0.8190  0.9707  0.0724
 1734SOL     OW16660   3.972   1.826  16.562  0.3318 -0.2229 -0.0845
 1734SOL    HW116661   3.887   1.788  16.541 -0.3862  0.1772  2.1262
 1734SOL    HW216662   3.972   1.817  16.657 -0.7069 -1.0426 -0.1678
 1735SOL     OW16663   2.278   0.195  16.724 -0.6753 -0.1011  0.3278
 1735SOL    HW116664   2.240   0.123  16.674 -0.4857 -0.2523  0.4036
 1735SOL    HW216665   2.303   0.251  16.651  0.5586 -1.8708 -0.5999
 1736SOL     OW16666   1.961   1.047   1.441  0.1298  0.3414 -1.3587
 1736SOL    HW116667   1.951   1.142   1.448 -1.1323  0.2005 -1.2434
 1736SOL    HW216668   1.974   1.041   1.346  0.7801  2.3553 -1.4021
 1737SOL     OW16669   0.361   0.790   4.057  0.6718 -0.3110  0.1014
 1737SOL    HW116670   0.275   0.772   4.095  0.5704  1.3792  0.6692
 1737SOL    HW216671   0.339   0.876   4.022 -2.5875 -1.5280 -0.8578
 1738SOL     OW16672   1.478   0.695  14.575 -0.1856 -0.5872 -0.1354
 1738SOL    HW116673   1.546   0.641  14.536 -0.7452  1.2009 -3.5549
 1738SOL    HW216674   1.529   0.770  14.607 -1.9349  0.3621  0.4536
 1739SOL     OW16675   4.530   1.941   5.785 -0.3006  0.0916 -0.3380
 1739SOL    HW116676   4.489   1.956   5.700 -1.4237 -0.8454  0.0400
 1739SOL    HW216677   4.535   2.030   5.819 -0.3700 -0.4122  0.9882
 1740SOL     OW16678   1.110   4.710   3.637  0.3087 -0.2198 -0.1900
 1740SOL    HW116679   1.074   0.067   3.607 -0.9059 -0.3611  0.8580
 1740SOL    HW216680   1.149   0.004   3.722  0.2706  0.1463 -0.2585
 1741SOL     OW16681   0.058   3.920   6.610 -0.5836  0.1038  0.1324
 1741SOL    HW116682   0.138   3.972   6.621  1.0827 -2.8559  1.8115
 1741SOL    HW216683   0.102   3.847   6.568 -1.5388  1.1160 -2.6614
 1742SOL     OW16684   3.312   2.421   6.013  0.7727 -0.0904 -0.7153
 1742SOL    HW116685   3.346   2.372   6.088 -0.5791  0.0444 -0.0120
 1742SOL    HW216686   3.373   2.493   5.997  0.9081  0.2949  1.4977
 1743SOL     OW16687   1.075   2.749   1.417  0.0984  0.5386  0.0021
 1743SOL    HW116688   1.027   2.821   1.378 -0.0206  0.4865  0.0508
 1743SOL    HW216689   1.131   2.721   1.344 -1.2480 -0.1614 -0.7658
 1744SOL     OW16690   2.548   2.088   3.946  0.5187  0.3195 -0.2313
 1744SOL    HW116691   2.552   2.157   3.880  2.9814  0.7547  0.3715
 1744SOL    HW216692   2.557   2.135   4.029 -0.6147  1.6308 -0.8432
 1745SOL     OW16693   2.347   1.715   3.129 -0.2382  0.2273  0.3075
 1745SOL    HW116694   2.356   1.659   3.052 -2.1428 -0.2955  0.4540
 1745SOL    HW216695   2.256   1.745   3.117 -0.2421  0.2664  0.4268
 1746SOL     OW16696   4.114   0.717   9.185 -0.3002  0.2516  0.2367
 1746SOL    HW116697   4.103   0.735   9.092  2.2922 -0.9232 -0.2903
 1746SOL    HW216698   4.102   0.802   9.227 -1.0793  0.0989  0.3093
 1747SOL     OW16699   2.396   2.912  13.777 -0.2671 -0.1043 -0.3416
 1747SOL    HW116700   2.376   3.005  13.769 -1.1301 -0.2171  0.5450
 1747SOL    HW216701   2.362   2.887  13.691 -2.4061  0.5167  0.3364
 1748SOL     OW16702   4.459   0.059   3.974 -0.1423 -0.3424  0.0019
 1748SOL    HW116703   4.496   0.122   4.036 -1.0183 -0.6807  0.8706
 1748SOL    HW216704   4.473   4.698   4.013  1.2254  0.2533  0.8377
 1749SOL     OW16705   2.645   0.949  16.875  0.1018  0.3089 -0.1039
 1749SOL    HW116706   2.639   0.878  16.939  0.3949 -1.8723 -2.5052
 1749SOL    HW216707   2.681   0.896  16.804 -2.9116  1.0627 -2.2078
 1750SOL     OW16708   1.211   1.998  13.042  0.0489  0.2801 -0.9028
 1750SOL    HW116709   1.206   2.034  13.130  2.5090  0.7069 -0.9328
 1750SOL    HW216710   1.147   1.927  13.040 -1.7672  1.8917 -0.7831
 1751SOL     OW16711   1.649   4.711  17.686  0.8254 -0.1227 -0.2469
 1751SOL    HW116712   1.729   4.686   0.028  1.0289 -0.9372 -1.0398
 1751SOL    HW216713   1.643   0.079  17.704  0.6329 -0.5830  2.1344
 1752SOL     OW16714   2.306   2.496   6.651 -0.1328  0.2849  0.4935
 1752SOL    HW116715   2.339   2.543   6.575  1.6537  0.9554  1.6848
 1752SOL    HW216716   2.324   2.561   6.718  1.9780  0.5884 -0.3896
 1753SOL     OW16717   0.434   1.780   5.643 -0.1531  0.0913 -0.2029
 1753SOL    HW116718   0.451   1.870   5.672  0.8282 -0.0560 -0.3228
 1753SOL    HW216719   0.514   1.761   5.595 -0.5561  1.3476 -1.4123
 1754SOL     OW16720   0.496   4.101   1.643  0.2752 -0.0376 -0.3712
 1754SOL    HW116721   0.446   4.040   1.590  1.4603  0.2138 -1.7655
 1754SOL    HW216722   0.508   4.061   1.729 -2.8040  0.9809  0.5431
 1755SOL     OW16723   2.491   4.115   4.349 -0.7741  0.3015  0.0184
 1755SOL    HW116724   2.494   4.203   4.310  0.1868  0.3889  0.2927
 1755SOL    HW216725   2.439   4.135   4.427 -2.1877  0.2951 -0.9281
 1756SOL     OW16726   0.008   3.522   4.852 -0.3760  0.4843 -0.3316
 1756SOL    HW116727   4.641   3.540   4.866 -0.5349  0.1857 -1.0173
 1756SOL    HW216728   0.038   3.531   4.943  0.5933 -1.1401 -0.4882
 1757SOL     OW16729   0.677   1.289   8.197  0.4298 -0.3540  0.0018
 1757SOL    HW116730   0.719   1.308   8.281 -0.5134  0.9033  0.1957
 1757SOL    HW216731   0.675   1.194   8.210  1.7432 -0.4203 -0.3562
 1758SOL     OW16732   1.522   1.108  15.363  0.0630  0.0823 -0.2163
 1758SOL    HW116733   1.497   1.027  15.319 -0.3308 -0.7005  1.4641
 1758SOL    HW216734   1.615   1.092  15.383  0.2152 -1.1794 -1.8733
 1759SOL     OW16735   1.470   1.891  16.272  0.1854 -0.0120 -0.6747
 1759SOL    HW116736   1.536   1.960  16.276 -1.6211  1.5987  1.3112
 1759SOL    HW216737   1.415   1.907  16.196  1.5843  1.1899 -1.4460
 1760SOL     OW16738   1.238   3.858   2.214 -0.2771 -0.2217  0.1329
 1760SOL    HW116739   1.232   3.900   2.128  1.9475 -2.2435 -0.9895
 1760SOL    HW216740   1.222   3.929   2.276  1.1375 -0.2358  0.5033
 1761SOL     OW16741   1.851   4.005   2.371  0.2318  0.4611  0.4379
 1761SOL    HW116742   1.761   3.977   2.387  0.0596 -0.6555 -2.3957
 1761SOL    HW216743   1.892   3.997   2.457 -0.3884  0.4443  0.7315
 1762SOL     OW16744   2.188   4.362   5.151  0.3847  0.7993 -0.3523
 1762SOL    HW116745   2.219   4.353   5.242 -3.7323 -1.2307  0.8520
 1762SOL    HW216746   2.093   4.360   5.165  0.0844 -1.3247 -2.7711
 1763SOL     OW16747   3.709   3.156   3.696  0.1600 -0.8097 -0.3602
 1763SOL    HW116748   3.746   3.082   3.744 -1.5568 -2.1371 -1.0800
 1763SOL    HW216749   3.778   3.182   3.635  0.2590 -2.5376 -0.9927
 1764SOL     OW16750   4.195   3.729   6.643  0.5243 -0.3382 -0.0915
 1764SOL    HW116751   4.282   3.758   6.614  1.0808  0.6512  2.4888
 1764SOL    HW216752   4.223   3.693   6.728 -0.4640  1.7316  1.0915
 1765SOL     OW16753   2.984   3.290   5.110  0.4880 -0.1826 -0.0211
 1765SOL    HW116754   2.928   3.243   5.171  0.7515  0.4639  0.7120
 1765SOL    HW216755   2.990   3.229   5.036 -1.4926  2.1208 -2.1230
 1766SOL     OW16756   1.275   3.345   8.575 -0.3068 -0.3172 -0.0531
 1766SOL    HW116757   1.278   3.423   8.518 -1.1031  0.1612  0.5689
 1766SOL    HW216758   1.217   3.374   8.645 -0.0197  0.5386 -0.1567
 1767SOL     OW16759   0.668   1.544  10.961 -0.0878 -0.0647  0.3275
 1767SOL    HW116760   0.740   1.604  10.978 -1.7201  1.6034  1.3265
 1767SOL    HW216761   0.611   1.617  10.937  1.5962  0.9757 -0.4982
 1768SOL     OW16762   0.892   4.462   3.815  0.4572  0.3867  0.1648
 1768SOL    HW116763   0.979   4.434   3.785  0.6769  1.2309  0.0132
 1768SOL    HW216764   0.863   4.516   3.742 -2.0175  1.9789  2.3043
 1769SOL     OW16765   3.954   2.485   8.176  0.4352 -0.3169 -0.5122
 1769SOL    HW116766   4.039   2.440   8.176  0.4361 -0.3148  1.0304
 1769SOL    HW216767   3.902   2.410   8.204 -1.7018  0.0114 -3.6478
 1770SOL     OW16768   1.164   2.841   7.537 -0.4033 -0.1975 -0.3222
 1770SOL    HW116769   1.181   2.920   7.588  3.9022  0.5676 -3.0073
 1770SOL    HW216770   1.121   2.877   7.459  1.8914  1.7669 -0.6653
 1771SOL     OW16771   4.339   3.106   5.296 -0.0529  0.0732 -0.2132
 1771SOL    HW116772   4.323   3.020   5.257 -0.1457  0.2766 -0.6241
 1771SOL    HW216773   4.324   3.087   5.388  2.2074  2.4664  0.6634
 1772SOL     OW16774   2.619   2.261   3.727 -0.0638  0.3965 -1.0780
 1772SOL    HW116775   2.702   2.259   3.681  0.3392 -0.2932 -0.3100
 1772SOL    HW216776   2.556   2.242   3.657 -0.0267 -0.7081 -0.8074
 1773SOL     OW16777   4.078   3.952   7.926  0.0072  0.1732  0.0520
 1773SOL    HW116778   4.070   3.895   8.003  2.2007 -1.7687 -1.1609
 1773SOL    HW216779   4.173   3.943   7.923 -0.1423 -1.6743  0.7890
 1774SOL     OW16780   1.984   1.823   9.080  0.5173  0.0566  0.4019
 1774SOL    HW116781   1.943   1.898   9.123  1.4547  0.9388 -0.2557
 1774SOL    HW216782   1.910   1.762   9.079  0.6336 -0.0322 -1.6145
 1775SOL     OW16783   4.030   1.705  13.958  0.3837  0.3171  0.3002
 1775SOL    HW116784   3.948   1.735  13.919 -0.7192 -2.2139  0.6797
 1775SOL    HW216785   4.092   1.762  13.913  0.0115 -1.1928 -2.1427
 1776SOL     OW16786   4.350   1.171   8.044 -0.0991  0.1598 -0.2879
 1776SOL    HW116787   4.306   1.240   7.995 -0.4151  0.0757 -0.1245
 1776SOL    HW216788   4.272   1.126   8.079 -0.5776  0.8186 -0.5156
 1777SOL     OW16789   0.398   1.386   0.292  0.2550 -0.0347  0.3771
 1777SOL    HW116790   0.406   1.348   0.379 -0.7826  2.0408  1.3638
 1777SOL    HW216791   0.489   1.403   0.268  0.4388  0.2379  1.2887
 1778SOL     OW16792   2.758   2.170   0.901 -0.2249  0.6700 -0.0684
 1778SOL    HW116793   2.709   2.197   0.824 -0.1257 -1.0423 -0.7285
 1778SOL    HW216794   2.695   2.105   0.930 -0.5449  0.3010 -1.6105
 1779SOL     OW16795   4.290   2.620   4.016  0.3043  0.3212  0.8225
 1779SOL    HW116796   4.308   2.677   3.941  0.9933 -1.5502 -0.4174
 1779SOL    HW216797   4.218   2.571   3.975  0.2251 -0.5130  1.9659
 1780SOL     OW16798   0.897   1.540  11.465 -0.4008  0.6231 -0.4447
 1780SOL    HW116799   0.991   1.539  11.482 -0.5309 -1.0169  0.1103
 1780SOL    HW216800   0.866   1.530  11.555  0.4357 -1.4654 -0.3912
 1781SOL     OW16801   4.350   2.745   5.706  0.5122  0.5308  0.2985
 1781SOL    HW116802   4.431   2.735   5.656  0.4359 -2.0123  0.6709
 1781SOL    HW216803   4.353   2.664   5.758  2.2371  1.0098  0.9269
 1782SOL     OW16804   2.585   4.470  13.077 -0.3006 -0.1169 -0.0388
 1782SOL    HW116805   2.563   4.478  13.170  0.2861  0.6757  0.0350
 1782SOL    HW216806   2.499   4.500  13.046  0.2672  2.8247  1.1833
 1783SOL     OW16807   0.246   0.668   1.618 -0.2348  0.3995  0.0830
 1783SOL    HW116808   0.208   0.671   1.530 -3.6876  0.8240  1.5748
 1783SOL    HW216809   0.285   0.581   1.618 -0.4265  0.3004 -2.7697
 1784SOL     OW16810   4.636   4.199   5.058  0.7788  0.3691  0.2469
 1784SOL    HW116811   4.600   4.110   5.059  2.7044 -0.4534 -1.6006
 1784SOL    HW216812   4.632   4.222   4.965 -1.2381  2.2933  0.8169
 1785SOL     OW16813   2.295   0.901   1.368 -0.1192  0.3744  0.3097
 1785SOL    HW116814   2.272   0.860   1.284  1.4226 -0.1955  0.1462
 1785SOL    HW216815   2.246   0.844   1.428  0.9762  1.0667  1.8610
 1786SOL     OW16816   2.151   3.963  16.040  0.2455 -0.0213  0.1892
 1786SOL    HW116817   2.164   4.001  15.953 -1.9573  1.2626  0.4212
 1786SOL    HW216818   2.118   4.046  16.075 -0.2252 -0.0282 -0.2354
 1787SOL     OW16819   4.527   2.469   6.018 -0.2671 -0.3572 -0.5176
 1787SOL    HW116820   4.568   2.510   6.095 -0.5943  0.1499 -0.6152
 1787SOL    HW216821   4.560   2.379   6.024  1.0868  0.4581  4.7342
 1788SOL     OW16822   2.256   3.444   1.750 -0.0481 -0.1188 -0.3110
 1788SOL    HW116823   2.260   3.472   1.658  1.0581  3.1198  0.7096
 1788SOL    HW216824   2.345   3.411   1.755 -0.3826 -1.0989 -0.8723
 1789SOL     OW16825   2.455   0.413   3.028  0.6289 -0.3323 -0.7152
 1789SOL    HW116826   2.513   0.344   3.059 -1.0676 -1.0937  0.7613
 1789SOL    HW216827   2.398   0.371   2.963  2.1446 -1.0671 -1.5607
 1790SOL     OW16828   2.732   1.290   4.588  0.3776  0.1291 -0.2499
 1790SOL    HW116829   2.767   1.377   4.569 -0.1115  0.5678  0.8701
 1790SOL    HW216830   2.722   1.284   4.683  1.4758 -2.5244 -0.2968
 1791SOL     OW16831   0.822   0.248   2.713 -0.7701  0.0966 -0.0817
 1791SOL    HW116832   0.807   0.331   2.759 -2.0685 -1.0755  1.6083
 1791SOL    HW216833   0.845   0.286   2.628 -0.3347  0.9750  0.4276
 1792SOL     OW16834   3.305   3.791   3.353  0.0884  0.6858 -0.1211
 1792SOL    HW116835   3.225   3.806   3.302 -0.9916  0.9841  1.6711
 1792SOL    HW216836   3.270   3.720   3.407 -0.5259  1.5844  0.6604
 1793SOL     OW16837   4.454   3.601   9.383  0.2498 -0.9256 -0.8419
 1793SOL    HW116838   4.385   3.630   9.443  1.3870  0.3644 -0.1639
 1793SOL    HW216839   4.438   3.653   9.305  0.6402  0.1457 -0.1933
 1794SOL     OW16840   4.152   1.261   3.985  0.0210  0.7106 -0.5162
 1794SOL    HW116841   4.240   1.293   4.000 -0.3937  1.6534 -0.1054
 1794SOL    HW216842   4.165   1.251   3.891 -0.0724  0.1521 -0.4700
 1795SOL     OW16843   0.909   0.134   3.948  0.1262 -0.0546 -0.0004
 1795SOL    HW116844   0.871   0.156   4.033 -1.0354  1.8388 -1.0197
 1795SOL    HW216845   0.844   0.184   3.899  1.0557 -1.0099 -2.2335
 1796SOL     OW16846   0.123   3.993   2.899 -0.1788 -0.4880  0.8559
 1796SOL    HW116847   0.188   3.982   2.969  0.1421 -1.6480  0.3795
 1796SOL    HW216848   0.161   4.070   2.856  0.0089 -1.2399 -0.3192
 1797SOL     OW16849   4.410   3.994   0.267 -0.0893  0.4846 -0.3905
 1797SOL    HW116850   4.485   3.951   0.306  0.2581  0.7861 -0.7324
 1797SOL    HW216851   4.410   4.078   0.315  0.0941  0.3475 -0.1536
 1798SOL     OW16852   0.691   2.338   9.020  0.0967 -0.1430 -0.5562
 1798SOL    HW116853   0.639   2.264   9.050 -2.5569  1.3849 -1.4334
 1798SOL    HW216854   0.627   2.398   8.982  0.9015  1.8293  1.1897
 1799SOL     OW16855   2.635   4.284   3.568 -1.0887 -0.4552  0.0955
 1799SOL    HW116856   2.614   4.259   3.658  1.1495  1.9830  1.3070
 1799SOL    HW216857   2.557   4.258   3.519 -2.1417 -0.1654  1.6149
 1800SOL     OW16858   2.330   3.109   0.475 -0.1626 -0.2031 -0.2279
 1800SOL    HW116859   2.369   3.024   0.493 -0.6774 -0.3595  0.1559
 1800SOL    HW216860   2.279   3.133   0.552  1.0151  2.1762 -0.1643
 1801SOL     OW16861   1.946   0.791   9.813  0.1997  0.0780  0.4459
 1801SOL    HW116862   1.929   0.873   9.859  1.7970  0.7880 -0.2476
 1801SOL    HW216863   2.023   0.811   9.759 -1.0658  2.6814 -0.4087
 1802SOL     OW16864   4.451   0.085   8.081 -0.4935  0.5981  0.3235
 1802SOL    HW116865   4.432   4.723   8.113 -0.7612  0.0912 -1.2260
 1802SOL    HW216866   4.394   0.129   8.145 -2.4758 -2.7239  0.8078
 1803SOL     OW16867   0.820   0.119   8.245  0.1144 -0.3201  0.1148
 1803SOL    HW116868   0.870   0.200   8.237 -1.2306  0.2623 -2.5368
 1803SOL    HW216869   0.769   0.148   8.320  0.8649  0.7728  0.2072
 1804SOL     OW16870   1.588   1.294  12.448  0.3703  0.4171 -0.4041
 1804SOL    HW116871   1.520   1.228  12.463 -0.5678  1.3629 -0.5000
 1804SOL    HW216872   1.636   1.261  12.372 -0.8130 -1.4752 -0.3271
 1805SOL     OW16873   3.998   0.756   3.838  0.7504 -0.0252 -0.1115
 1805SOL    HW116874   3.926   0.721   3.889  1.5376  0.6730  1.4749
 1805SOL    HW216875   3.950   0.787   3.761  1.8532  0.0122 -0.7981
 1806SOL     OW16876   1.434   1.767   7.345 -0.0080  0.5428  0.1376
 1806SOL    HW116877   1.404   1.803   7.428 -2.0546  0.2306 -0.4662
 1806SOL    HW216878   1.362   1.713   7.313 -0.1509  2.1608 -2.2313
 1807SOL     OW16879   1.246   0.185   7.107  0.4624  0.2059 -0.0917
 1807SOL    HW116880   1.178   0.124   7.136 -0.6721  0.4757 -2.2148
 1807SOL    HW216881   1.251   0.244   7.183  1.1756 -0.0782  0.0743
 1808SOL     OW16882   0.803   3.103   7.685 -0.2694 -0.1423 -0.0775
 1808SOL    HW116883   0.759   3.054   7.754 -0.7959 -3.3102 -2.6382
 1808SOL    HW216884   0.795   3.194   7.714  0.3842  0.1983 -0.9485
 1809SOL     OW16885   3.500   0.618   7.243 -0.5209 -0.4473  0.3122
 1809SOL    HW116886   3.470   0.603   7.332 -1.7307  1.3029  0.1890
 1809SOL    HW216887   3.447   0.558   7.191  2.1181 -1.0581 -1.6983
 1810SOL     OW16888   3.906   3.419   2.001  0.0803  0.3274  0.3388
 1810SOL    HW116889   3.811   3.404   2.007  0.3064 -0.7301  1.1513
 1810SOL    HW216890   3.941   3.429   2.090 -2.7041 -0.1840  1.4977
 1811SOL     OW16891   2.155   4.465   6.653  0.1685 -0.1156  0.1939
 1811SOL    HW116892   2.080   4.425   6.608  0.8540 -0.8843 -0.2578
 1811SOL    HW216893   2.109   4.542   6.687  0.5377 -0.5587  1.6966
 1812SOL     OW16894   2.850   3.547  15.283  0.2225  0.2507  0.2976
 1812SOL    HW116895   2.856   3.465  15.233  1.1416  1.9065 -2.3078
 1812SOL    HW216896   2.898   3.607  15.225  0.2240  1.0699  1.1523
 1813SOL     OW16897   2.473   0.412   6.336 -0.0828  0.3396 -0.2743
 1813SOL    HW116898   2.561   0.447   6.323 -0.7196  1.2796 -2.1425
 1813SOL    HW216899   2.475   0.350   6.263  1.6055 -0.6904  0.6479
 1814SOL     OW16900   0.568   4.076   3.917  0.0990  0.3262  0.1688
 1814SOL    HW116901   0.478   4.048   3.933  0.0984  0.1221 -0.1936
 1814SOL    HW216902   0.545   4.144   3.854  0.4926  1.4322  1.2242
 1815SOL     OW16903   2.784   1.693  15.582 -0.1515  0.2766  0.4814
 1815SOL    HW116904   2.800   1.622  15.520 -0.2396  1.1900 -0.5887
 1815SOL    HW216905   2.800   1.770  15.529  1.3802 -0.1130  0.3894
 1816SOL     OW16906   2.398   2.354   2.269  0.4028  0.0937 -0.0044
 1816SOL    HW116907   2.323   2.381   2.217  0.7779  2.5589  0.7421
 1816SOL    HW216908   2.467   2.379   2.208  0.3330 -2.1829 -1.0074
 1817SOL     OW16909   1.165   1.503  11.506 -0.2208 -0.2771 -0.3993
 1817SOL    HW116910   1.239   1.480  11.449 -0.7507 -0.7747 -0.8882
 1817SOL    HW216911   1.132   1.423  11.545 -0.3539 -0.0652 -0.0821
 1818SOL     OW16912   4.321   2.795   6.987  0.1147  0.0057 -0.0837
 1818SOL    HW116913   4.413   2.821   6.993 -0.0730  1.1732 -2.6206
 1818SOL    HW216914   4.320   2.802   6.892 -0.7197  1.2320  0.0193
 1819SOL     OW16915   3.978   2.996   3.175 -0.0570  0.6513 -0.6010
 1819SOL    HW116916   3.928   2.994   3.093 -2.6090 -1.0859  0.9718
 1819SOL    HW216917   3.951   3.082   3.207 -0.4836 -0.1711  1.2545
 1820SOL     OW16918   2.163   0.389   4.756  0.4709  0.6520  0.1031
 1820SOL    HW116919   2.207   0.431   4.682  0.4012 -1.3699 -1.0834
 1820SOL    HW216920   2.236   0.390   4.819  1.4711 -1.9341 -1.0116
 1821SOL     OW16921   2.300   2.529   7.312  0.4032  0.2328 -0.2942
 1821SOL    HW116922   2.364   2.500   7.247 -1.2374 -1.1740 -1.2713
 1821SOL    HW216923   2.234   2.471   7.275 -2.4561  2.0266  2.0292
 1822SOL     OW16924   0.274   0.301   5.908  0.0652  0.1489 -0.1316
 1822SOL    HW116925   0.295   0.377   5.853 -1.4857 -0.3785 -1.4651
 1822SOL    HW216926   0.279   0.343   5.994 -0.9919  0.4491 -0.2068
 1823SOL     OW16927   1.088   0.075   6.391  0.1308 -0.0122 -0.1387
 1823SOL    HW116928   1.103   0.025   6.311  2.1218  1.4077 -0.6411
 1823SOL    HW216929   0.998   0.043   6.402  0.2669  0.2824  1.7979
 1824SOL     OW16930   1.542   0.703   1.812  0.1432 -0.7252 -0.2458
 1824SOL    HW116931   1.499   0.673   1.892  0.4181  0.7211  0.4403
 1824SOL    HW216932   1.584   0.785   1.840  1.5053 -2.1628  1.8859
 1825SOL     OW16933   0.092   0.105   1.590  0.0952 -0.0439  0.0900
 1825SOL    HW116934   0.045   0.172   1.640  2.7160  1.8031  0.0585
 1825SOL    HW216935   0.101   0.041   1.661 -0.1896  0.6798  0.7766
 1826SOL     OW16936   0.957   0.593   9.780  0.1805  0.3315 -1.0867
 1826SOL    HW116937   0.875   0.612   9.826 -0.1187 -1.7985 -0.7308
 1826SOL    HW216938   1.025   0.636   9.832  0.8441 -0.5558 -1.2255
 1827SOL     OW16939   1.932   3.144   3.967 -0.1273 -0.4713  0.5336
 1827SOL    HW116940   1.894   3.080   3.907  1.5309 -0.8408 -0.1298
 1827SOL    HW216941   1.978   3.201   3.904 -1.3929 -0.5530 -0.4707
 1828SOL     OW16942   1.762   3.381   8.576  0.5725 -0.2648 -0.2491
 1828SOL    HW116943   1.704   3.442   8.623  0.8168  0.3204 -0.7163
 1828SOL    HW216944   1.780   3.429   8.496 -1.4370  0.6405 -0.1590
 1829SOL     OW16945   2.201   4.592   6.108  0.3470  0.3082 -0.1013
 1829SOL    HW116946   2.258   4.641   6.049 -0.4183 -0.2822 -1.3281
 1829SOL    HW216947   2.112   4.615   6.083 -0.4260 -2.0927  0.4497
 1830SOL     OW16948   0.722   4.685   3.725 -0.2881  0.0110 -0.2599
 1830SOL    HW116949   0.686   0.001   3.647 -1.6856 -1.8428 -0.5928
 1830SOL    HW216950   0.657   4.708   3.791  0.4632 -0.8722  0.7730
 1831SOL     OW16951   1.622   2.638   0.348 -0.0653 -0.0659 -0.7618
 1831SOL    HW116952   1.717   2.628   0.353 -0.1067 -0.2369 -0.2357
 1831SOL    HW216953   1.614   2.720   0.398 -0.6502 -0.9046  0.5261
 1832SOL     OW16954   3.061   2.339   6.555 -0.3523  0.0548  0.2471
 1832SOL    HW116955   3.083   2.264   6.500 -1.4051  0.5103 -0.7874
 1832SOL    HW216956   3.109   2.327   6.637  1.4272  2.5109 -0.4307
 1833SOL     OW16957   2.365   0.493  15.499  0.3474 -0.5089  0.5120
 1833SOL    HW116958   2.277   0.457  15.508 -0.4412  1.6294  1.3032
 1833SOL    HW216959   2.341   0.585  15.486 -1.9649 -1.6558 -2.9880
 1834SOL     OW16960   1.118   0.692   0.142  0.2074 -0.1252  0.3436
 1834SOL    HW116961   1.157   0.771   0.180  2.9452 -0.7941 -1.0286
 1834SOL    HW216962   1.051   0.679   0.209 -0.8519 -2.1225 -1.0837
 1835SOL     OW16963   4.326   0.442   4.388  0.1789 -0.6861  0.3024
 1835SOL    HW116964   4.410   0.486   4.404  0.4026 -0.3782 -1.7185
 1835SOL    HW216965   4.339   0.430   4.294 -0.4907 -0.5395  0.1932
 1836SOL     OW16966   4.579   3.289  12.683 -0.0535  0.4629  0.3755
 1836SOL    HW116967   4.631   3.363  12.715 -0.5470 -0.0616  2.4111
 1836SOL    HW216968   4.626   3.272  12.602  1.5297  3.2258  0.7022
 1837SOL     OW16969   3.309   0.028   5.786  0.5857  0.0954  0.1470
 1837SOL    HW116970   3.289   0.121   5.795  0.9127  0.1874 -0.1039
 1837SOL    HW216971   3.260   0.007   5.707  0.1023  3.2065 -0.3907
 1838SOL     OW16972   1.723   3.090   2.996 -0.4200  0.2916 -0.2498
 1838SOL    HW116973   1.641   3.134   2.972  0.2877  0.9183 -1.5221
 1838SOL    HW216974   1.699   3.087   3.088 -1.0846  4.2399 -0.3110
 1839SOL     OW16975   4.581   0.933   9.186 -0.8926  0.0737  0.3819
 1839SOL    HW116976   4.530   0.974   9.256 -3.8958 -0.8747 -1.2616
 1839SOL    HW216977   4.511   0.889   9.138 -1.8929  3.3071 -1.1044
 1840SOL     OW16978   0.048   0.905   6.802  0.2622  0.0542  0.0354
 1840SOL    HW116979   0.060   0.840   6.871  0.4173  0.1817  0.1288
 1840SOL    HW216980   0.135   0.916   6.763  0.7266 -1.7234  0.5764
 1841SOL     OW16981   0.598   2.329   1.680  0.3083  0.7462 -0.0307
 1841SOL    HW116982   0.564   2.415   1.657 -1.1912  0.6586  1.8636
 1841SOL    HW216983   0.611   2.333   1.775  1.1494 -1.1745 -0.0504
 1842SOL     OW16984   3.986   3.625   3.572  0.8216 -0.3514  0.7062
 1842SOL    HW116985   4.074   3.660   3.566  0.9440 -0.5942  1.0405
 1842SOL    HW216986   3.969   3.603   3.480  1.2378  2.7695 -0.0889
 1843SOL     OW16987   0.564   3.929   5.042 -0.2567 -0.6716  0.3857
 1843SOL    HW116988   0.476   3.930   5.079  0.1181  1.6775  1.1818
 1843SOL    HW216989   0.539   3.876   4.966  0.5964 -0.9503  0.2930
 1844SOL     OW16990   3.723   1.008   6.678 -0.4172 -0.4750  0.0491
 1844SOL    HW116991   3.728   1.034   6.770  0.9025  0.0879 -0.1829
 1844SOL    HW216992   3.645   1.055   6.648  0.6235  0.7269 -0.7997
 1845SOL     OW16993   4.238   3.816   6.113 -0.2795  0.5265 -0.0487
 1845SOL    HW116994   4.184   3.895   6.120  0.4858  1.2907 -2.5772
 1845SOL    HW216995   4.296   3.820   6.188 -0.6340 -1.7715  0.3463
 1846SOL     OW16996   0.651   0.495   7.426 -0.4757 -0.4519 -0.5964
 1846SOL    HW116997   0.581   0.554   7.452  0.3953 -0.9389  2.8953
 1846SOL    HW216998   0.726   0.545   7.458 -1.0682  0.6937 -1.0167
 1847SOL     OW16999   1.738   1.946   7.004  0.1882 -0.0084  0.5095
 1847SOL    HW117000   1.663   2.005   7.014  0.6284  0.8818 -1.4664
 1847SOL    HW217001   1.780   1.952   7.089  1.7476 -1.8609 -0.1038
 1848SOL     OW17002   3.011   2.397  13.155  0.2567 -0.9144 -0.3237
 1848SOL    HW117003   3.096   2.392  13.110 -0.0443  0.9391 -1.1102
 1848SOL    HW217004   2.996   2.306  13.181 -2.9458 -0.7952 -1.7420
 1849SOL     OW17005   2.024   1.050  12.276  0.0927  0.2879 -0.1707
 1849SOL    HW117006   1.959   1.062  12.207  0.5225  0.4324 -0.5512
 1849SOL    HW217007   2.081   0.984  12.237 -0.5449 -0.0597 -0.4924
 1850SOL     OW17008   1.253   4.240   1.487 -0.4770  0.1175 -0.5017
 1850SOL    HW117009   1.337   4.281   1.509 -0.9762  0.1166  1.4215
 1850SOL    HW217010   1.200   4.297   1.544 -0.6531 -0.6547  0.1113
 1851SOL     OW17011   3.472   2.410  10.135 -0.6161 -0.0461 -0.3027
 1851SOL    HW117012   3.545   2.403  10.196 -1.2473 -1.1720  0.3235
 1851SOL    HW217013   3.405   2.442  10.196  0.9518  1.2202  0.7699
 1852SOL     OW17014   2.298   4.499  11.432 -0.4750 -0.5315 -0.0246
 1852SOL    HW117015   2.279   4.543  11.515  0.3302 -0.3657  0.0738
 1852SOL    HW217016   2.247   4.420  11.452  1.3545 -1.4107  1.1725
 1853SOL     OW17017   4.245   1.652   3.791 -0.1561 -0.0188 -0.0281
 1853SOL    HW117018   4.158   1.613   3.791 -0.1763  0.0336 -1.3392
 1853SOL    HW217019   4.267   1.645   3.698 -0.6288  1.1296 -0.2195
 1854SOL     OW17020   3.483   1.786   5.423  0.1027 -0.1574  0.2681
 1854SOL    HW117021   3.551   1.790   5.356  0.6439 -1.7265  0.7161
 1854SOL    HW217022   3.435   1.714   5.382 -0.1102  1.0439 -1.5708
 1855SOL     OW17023   4.649   4.362   5.250  0.1976  0.3889 -0.1079
 1855SOL    HW117024   4.621   4.320   5.169 -0.7366 -0.1234  0.4801
 1855SOL    HW217025   0.012   4.326   5.254  0.6659  1.7699  2.4608
 1856SOL     OW17026   2.831   3.391  10.907  0.3777 -0.3538 -0.2074
 1856SOL    HW117027   2.774   3.399  10.830 -0.8360  0.1251  0.7368
 1856SOL    HW217028   2.802   3.473  10.947  0.9524  0.1326 -0.8006
 1857SOL     OW17029   4.628   1.613   2.484  0.4949  0.6393 -0.3135
 1857SOL    HW117030   4.542   1.585   2.451  0.6051 -2.9106  2.3458
 1857SOL    HW217031   4.599   1.642   2.571 -0.9515  1.0315 -0.9233
 1858SOL     OW17032   1.310   2.553   5.163 -0.1927  0.3216  0.2283
 1858SOL    HW117033   1.301   2.461   5.184 -0.4898  0.3222  0.0958
 1858SOL    HW217034   1.385   2.578   5.217 -0.6097  0.6358  0.6611
 1859SOL     OW17035   2.358   0.017   3.984 -0.0855 -0.4971  0.0243
 1859SOL    HW117036   2.331   0.054   3.900  0.4663  2.4892  1.1565
 1859SOL    HW217037   2.292   4.675   3.999  1.4128 -1.8135  0.6611
 1860SOL     OW17038   3.187   0.384   7.937  0.6497  0.1188 -0.5463
 1860SOL    HW117039   3.115   0.324   7.917  0.7959 -0.4622  0.6654
 1860SOL    HW217040   3.131   0.447   7.982 -0.2808 -0.9619 -0.1976
 1861SOL     OW17041   3.005   0.869   6.765 -0.3137 -0.0996  0.2309
 1861SOL    HW117042   3.008   0.950   6.817  0.6219  0.7233 -1.1198
 1861SOL    HW217043   3.098   0.860   6.743 -0.7025  0.0087 -1.4521
 1862SOL     OW17044   0.360   3.457   8.687  0.3181  0.4262 -0.3361
 1862SOL    HW117045   0.349   3.378   8.740  1.5142 -0.9453 -2.1051
 1862SOL    HW217046   0.277   3.498   8.711  0.1229 -0.5799  0.7123
 1863SOL     OW17047   1.708   1.307  17.346 -0.0574  0.4985 -0.7353
 1863SOL    HW117048   1.685   1.394  17.378 -0.1718  1.0186 -2.2525
 1863SOL    HW217049   1.622   1.277  17.319 -1.0995  1.2290  1.7435
 1864SOL     OW17050   4.609   2.292   7.766 -0.1830  0.2584  0.4849
 1864SOL    HW117051   4.663   2.369   7.749  1.5276 -1.4860 -1.9573
 1864SOL    HW217052   4.656   2.228   7.714 -1.4641 -0.8892  0.7442
 1865SOL     OW17053   1.613   3.832   6.744 -0.1272 -0.0971  0.2294
 1865SOL    HW117054   1.640   3.879   6.822  1.5044 -0.1471 -0.2983
 1865SOL    HW217055   1.520   3.839   6.764 -0.2032  1.0545 -0.4890
 1866SOL     OW17056   1.245   1.671   3.520  0.0838 -0.1357 -0.2237
 1866SOL    HW117057   1.331   1.648   3.555  0.3102 -1.8151 -1.8447
 1866SOL    HW217058   1.185   1.650   3.592 -0.2446 -2.3999 -1.1509
 1867SOL     OW17059   2.811   0.487   0.210  0.3094  0.4774  0.2084
 1867SOL    HW117060   2.760   0.447   0.140  0.4816 -0.7877  0.8101
 1867SOL    HW217061   2.884   0.426   0.200 -0.7579 -0.3966 -2.2433
 1868SOL     OW17062   4.632   2.919   9.006  0.1464  0.0534  0.0040
 1868SOL    HW117063   4.691   2.963   9.067 -1.2323 -0.0416  1.4082
 1868SOL    HW217064   4.689   2.857   8.959  0.6170  1.4926 -1.3458
 1869SOL     OW17065   0.233   1.735   7.865 -0.4088 -0.4033  0.4075
 1869SOL    HW117066   0.188   1.809   7.825  0.1741 -2.0684 -3.3058
 1869SOL    HW217067   0.320   1.751   7.830 -0.8973  0.9705 -0.1807
 1870SOL     OW17068   0.592   4.313   7.067 -0.0409 -0.7868  0.1538
 1870SOL    HW117069   0.552   4.337   6.984  0.4947 -0.5833 -0.0466
 1870SOL    HW217070   0.533   4.361   7.125  1.0188 -1.0454  1.4335
 1871SOL     OW17071   1.031   0.602   5.957  0.1930 -0.3366  0.2676
 1871SOL    HW117072   0.960   0.659   5.985  1.4030  0.7835  1.0723
 1871SOL    HW217073   0.998   0.515   5.977  0.8715 -0.0625  2.5290
 1872SOL     OW17074   2.085   4.194  10.840 -0.0946  0.1957  0.2136
 1872SOL    HW117075   2.169   4.191  10.793 -0.1363 -1.9766  0.2698
 1872SOL    HW217076   2.050   4.107  10.822  0.3608  0.1800 -0.6266
 1873SOL     OW17077   2.996   1.560   3.376 -0.6004 -0.0259  0.8661
 1873SOL    HW117078   2.937   1.545   3.303  0.7248  2.9313 -0.8460
 1873SOL    HW217079   3.011   1.655   3.381  1.6014 -0.3200 -0.1422
 1874SOL     OW17080   2.182   1.320   2.373 -0.2878 -0.6716  0.0036
 1874SOL    HW117081   2.252   1.311   2.309  1.3487 -2.4924  2.0237
 1874SOL    HW217082   2.230   1.324   2.456  1.6165  0.0387 -1.1121
 1875SOL     OW17083   0.354   0.272   6.927  0.1036 -0.0720 -0.6245
 1875SOL    HW117084   0.401   0.193   6.953 -0.2772  0.0106  0.3064
 1875SOL    HW217085   0.390   0.340   6.984 -1.1162 -0.6217  0.7861
 1876SOL     OW17086   3.435   4.091   8.824  0.3923 -0.1659 -0.2067
 1876SOL    HW117087   3.483   4.057   8.900  0.6466  1.6449  0.4463
 1876SOL    HW217088   3.430   4.013   8.769  2.6672 -1.1542  0.9953
 1877SOL     OW17089   1.458   4.086   8.199 -0.3156 -0.1417  0.1883
 1877SOL    HW117090   1.409   4.012   8.162  0.0305 -0.4661  0.3712
 1877SOL    HW217091   1.519   4.099   8.127 -0.5657 -1.2983 -0.2359
 1878SOL     OW17092   4.278   3.703   0.907  0.1205  0.4911 -0.3148
 1878SOL    HW117093   4.326   3.770   0.859 -1.7155  0.3904 -2.2855
 1878SOL    HW217094   4.344   3.637   0.930  0.3311  0.6222 -0.5447
 1879SOL     OW17095   0.156   2.959   5.507 -0.6205 -0.8159  0.0982
 1879SOL    HW117096   0.172   3.027   5.441  2.1689 -1.9189 -0.3532
 1879SOL    HW217097   0.202   2.994   5.584 -1.7139  0.4760  0.1603
 1880SOL     OW17098   4.414   1.981   6.385 -0.0487  0.4201 -0.1183
 1880SOL    HW117099   4.321   1.987   6.363  0.0982  1.0665 -0.5464
 1880SOL    HW217100   4.421   1.929   6.465 -0.1602  0.0046 -0.3805
 1881SOL     OW17101   2.121   1.884   4.514 -0.1277  0.0358 -0.6077
 1881SOL    HW117102   2.040   1.927   4.489  0.5947  1.4750 -0.4686
 1881SOL    HW217103   2.105   1.865   4.606 -1.1409  0.2980 -0.7346
 1882SOL     OW17104   1.807   3.149  10.323  0.1231 -0.0554  0.0030
 1882SOL    HW117105   1.715   3.127  10.339 -0.5220  0.5158 -2.7942
 1882SOL    HW217106   1.829   3.148  10.416 -0.7076 -0.2742  0.2023
 1883SOL     OW17107   0.712   0.265  12.616  0.1327 -0.1441 -0.0596
 1883SOL    HW117108   0.777   0.208  12.574  0.8716  0.2446  0.5702
 1883SOL    HW217109   0.760   0.346  12.632 -0.9106  0.2932  0.8199
 1884SOL     OW17110   4.078   1.301   2.836 -0.1813  0.2969  0.6593
 1884SOL    HW117111   4.026   1.340   2.766  1.2714  0.4087 -0.3649
 1884SOL    HW217112   4.010   1.273   2.897  0.7826 -0.3888  1.4220
 1885SOL     OW17113   0.829   1.670   3.825  0.4389  0.5405 -0.2678
 1885SOL    HW117114   0.734   1.663   3.826  0.4356  0.7245  0.5271
 1885SOL    HW217115   0.844   1.663   3.919  1.5335 -1.6690 -0.5976
 1886SOL     OW17116   1.988   3.436   5.578 -0.2395  0.5336 -0.2659
 1886SOL    HW117117   2.062   3.432   5.638 -1.6766 -0.0146  1.5047
 1886SOL    HW217118   1.996   3.526   5.548 -2.3178  1.1633  1.0321
 1887SOL     OW17119   3.539   0.847  11.318  0.6125  0.2944 -0.2142
 1887SOL    HW117120   3.595   0.850  11.240  2.2355 -0.5159  0.9222
 1887SOL    HW217121   3.526   0.753  11.324  0.8966  0.4039  1.9608
 1888SOL     OW17122   0.522   1.289   8.814  0.5187  0.6740 -0.4151
 1888SOL    HW117123   0.567   1.286   8.898 -1.9130  0.5804  0.8850
 1888SOL    HW217124   0.441   1.319   8.854  0.5530 -0.7723  0.7244
 1889SOL     OW17125   3.003   2.343   8.196  0.0396 -0.3120  0.2065
 1889SOL    HW117126   2.908   2.341   8.184 -0.2296 -1.6837  2.6598
 1889SOL    HW217127   3.031   2.307   8.112 -1.7559 -0.2945 -0.4075
 1890SOL     OW17128   3.042   2.345  12.676 -0.0232 -0.0938  0.1658
 1890SOL    HW117129   3.099   2.274  12.646 -0.6416  0.0608 -1.3525
 1890SOL    HW217130   2.956   2.313  12.646 -0.0163  0.8910 -0.9011
 1891SOL     OW17131   4.656   4.154   7.399 -0.2947  0.1047 -0.4194
 1891SOL    HW117132   0.009   4.149   7.345 -0.9747 -0.7756 -1.3141
 1891SOL    HW217133   4.634   4.248   7.400  0.1641  0.2189 -1.2147
 1892SOL     OW17134   1.839   3.797   3.416 -0.0594 -0.8358  0.2063
 1892SOL    HW117135   1.867   3.864   3.479  1.5879  1.4294 -2.9543
 1892SOL    HW217136   1.744   3.792   3.422 -0.0609 -0.2217  0.7607
 1893SOL     OW17137   0.604   3.322   6.931 -0.0180 -0.2424  0.4128
 1893SOL    HW117138   0.614   3.369   6.848  1.8762 -0.8331  0.3137
 1893SOL    HW217139   0.635   3.390   6.991 -0.5004  0.6353 -0.3184
 1894SOL     OW17140   3.638   3.427   8.627 -0.0231 -0.3520 -0.5135
 1894SOL    HW117141   3.726   3.459   8.608  1.6674 -2.6945  3.2602
 1894SOL    HW217142   3.655   3.388   8.713  0.9738  0.1632 -0.4811
 1895SOL     OW17143   0.044   1.446   8.172  0.0819 -0.2634 -0.2107
 1895SOL    HW117144   0.016   1.471   8.084  2.9454  0.9853 -0.7663
 1895SOL    HW217145   0.122   1.502   8.171 -0.0429 -0.0798  0.3679
 1896SOL     OW17146   1.467   4.594   3.811 -0.4844 -0.0587 -0.3682
 1896SOL    HW117147   1.426   4.590   3.897 -0.2586 -0.2969 -0.2720
 1896SOL    HW217148   1.469   4.505   3.774 -1.1793 -0.1206 -0.2613
 1897SOL     OW17149   3.518   2.835   5.630  0.1074  0.2036  0.1574
 1897SOL    HW117150   3.542   2.857   5.540  0.5786 -0.5984  0.0919
 1897SOL    HW217151   3.586   2.866   5.690 -1.2682 -0.0233  1.8678
 1898SOL     OW17152   0.752   1.881   5.857  0.0609  0.1306 -0.0849
 1898SOL    HW117153   0.840   1.912   5.880  0.5987 -1.3625 -0.1331
 1898SOL    HW217154   0.761   1.786   5.865  1.6524  0.2639 -0.1474
 1899SOL     OW17155   0.848   1.171   4.139  0.2067  0.2706  0.0694
 1899SOL    HW117156   0.766   1.202   4.099 -0.7752 -2.9416 -0.3733
 1899SOL    HW217157   0.911   1.240   4.117 -0.0792  0.0224 -1.5619
 1900SOL     OW17158   0.316   3.149   3.234 -0.1398  0.5844  0.3675
 1900SOL    HW117159   0.256   3.171   3.163 -1.7503 -2.0363  0.8754
 1900SOL    HW217160   0.301   3.056   3.252 -2.3494  0.6228 -1.2441
 1901SOL     OW17161   4.450   2.113   5.303 -0.3415  0.4973  0.5133
 1901SOL    HW117162   4.521   2.177   5.300 -0.3072  0.4178 -0.1879
 1901SOL    HW217163   4.481   2.045   5.363  0.0049  0.6805  0.5397
 1902SOL     OW17164   2.292   3.348   3.986  0.2511  0.3048 -0.2952
 1902SOL    HW117165   2.319   3.352   4.078 -1.5499 -2.3571  0.3535
 1902SOL    HW217166   2.332   3.423   3.942 -2.8774  0.6586 -2.4998
 1903SOL     OW17167   0.317   0.789   5.141  0.1998  0.0350 -0.1363
 1903SOL    HW117168   0.312   0.751   5.229  0.4577  1.1506  0.3691
 1903SOL    HW217169   0.286   0.876   5.168 -1.5150 -1.0610  1.4159
 1904SOL     OW17170   0.391   2.576  17.326 -0.4748 -0.1733 -0.3370
 1904SOL    HW117171   0.296   2.578  17.309 -0.3402  0.2317 -1.0638
 1904SOL    HW217172   0.396   2.660  17.370  0.0162 -0.6161  0.4479
 1905SOL     OW17173   0.596   1.976   9.345 -0.3928  0.0131 -0.0236
 1905SOL    HW117174   0.665   1.921   9.308 -0.5421 -1.1511  1.4496
 1905SOL    HW217175   0.595   2.050   9.284 -0.9181  0.0552  0.0364
 1906SOL     OW17176   4.058   2.304   7.432 -0.1776  0.8270 -0.5770
 1906SOL    HW117177   4.007   2.284   7.353 -1.0017  1.1284 -0.1150
 1906SOL    HW217178   3.989   2.335   7.490 -1.8002 -2.5987 -0.6509
 1907SOL     OW17179   0.392   3.761   2.590 -0.2168  0.1761 -0.5471
 1907SOL    HW117180   0.462   3.823   2.610  1.0005 -0.8235 -1.7386
 1907SOL    HW217181   0.353   3.798   2.511  1.4189  0.7434 -1.0836
 1908SOL     OW17182   3.752   4.119   5.686  0.3323  0.6502  0.1516
 1908SOL    HW117183   3.674   4.099   5.737  0.8425 -2.2294 -0.1874
 1908SOL    HW217184   3.802   4.040   5.706 -0.2408 -0.2041 -1.7543
 1909SOL     OW17185   1.809   2.661   6.721 -0.0602  0.3005  0.7948
 1909SOL    HW117186   1.786   2.628   6.634  1.7496 -1.0946  0.8337
 1909SOL    HW217187   1.719   2.682   6.746  0.4337  0.8278  2.1369
 1910SOL     OW17188   3.121   2.484  11.861  0.3672 -0.3693 -0.3146
 1910SOL    HW117189   3.055   2.491  11.792 -0.1979  0.3494  0.3054
 1910SOL    HW217190   3.190   2.427  11.829 -2.1017 -3.2954 -0.4828
 1911SOL     OW17191   3.364   0.226   4.436  0.3848 -0.1171  0.3516
 1911SOL    HW117192   3.423   0.301   4.430 -1.6264  1.5123  0.8317
 1911SOL    HW217193   3.341   0.217   4.343 -0.5684 -2.0116  0.7681
 1912SOL     OW17194   1.185   3.016   4.696  0.0588 -0.1773  0.6094
 1912SOL    HW117195   1.156   2.930   4.667  1.7672  0.5233 -3.2475
 1912SOL    HW217196   1.278   2.997   4.704  0.4283  0.5350 -1.7374
 1913SOL     OW17197   1.424   3.544   1.829  0.3482 -0.1046  0.2201
 1913SOL    HW117198   1.387   3.568   1.914 -1.4585  0.2203 -0.6466
 1913SOL    HW217199   1.358   3.583   1.772 -0.4933 -3.3467 -1.0671
 1914SOL     OW17200   2.234   0.974   5.628  0.2153 -0.4352  0.6678
 1914SOL    HW117201   2.168   0.908   5.610 -0.6428 -0.1020  2.6109
 1914SOL    HW217202   2.312   0.936   5.587 -0.2701  0.4341 -1.0506
 1915SOL     OW17203   3.705   2.717   3.032 -0.1072 -0.4407 -0.5154
 1915SOL    HW117204   3.655   2.636   3.029 -0.4603 -0.2632  0.4245
 1915SOL    HW217205   3.650   2.783   3.075  0.0546  0.5820 -1.8548
 1916SOL     OW17206   4.560   1.318  11.904  0.3698 -0.1759  0.5081
 1916SOL    HW117207   4.525   1.229  11.901  0.0951 -0.0583  0.3062
 1916SOL    HW217208   4.475   1.361  11.904  0.5142  0.0598 -2.2531
 1917SOL     OW17209   0.750   0.841   1.152  0.1982  0.2902  1.0571
 1917SOL    HW117210   0.836   0.881   1.146  0.1804 -0.2803 -3.0438
 1917SOL    HW217211   0.696   0.916   1.177  0.8045  0.5418  1.5978
 1918SOL     OW17212   3.554   4.048  14.774 -0.2392  0.0116  0.2107
 1918SOL    HW117213   3.523   3.960  14.795 -1.1346  0.1974 -0.3468
 1918SOL    HW217214   3.563   4.045  14.679  1.2455  1.0698  0.3126
 1919SOL     OW17215   4.224   3.570  15.927 -0.4394 -0.0085 -0.0290
 1919SOL    HW117216   4.135   3.603  15.916 -0.9974 -1.0148  1.6049
 1919SOL    HW217217   4.215   3.548  16.019 -1.1530 -0.9612 -0.3287
 1920SOL     OW17218   1.932   0.430  14.575 -0.2468 -0.1800  0.0132
 1920SOL    HW117219   2.021   0.454  14.548 -1.4544  2.3380 -1.7042
 1920SOL    HW217220   1.902   0.377  14.501  2.0413 -0.9105 -0.3972
 1921SOL     OW17221   0.614   0.149   3.543  0.5874 -0.1268  0.4084
 1921SOL    HW117222   0.527   0.136   3.507 -0.3419  0.3725  2.4556
 1921SOL    HW217223   0.589   0.180   3.630  4.2166  2.4022  0.5702
 1922SOL     OW17224   1.994   1.521   4.892  0.0648 -0.2797  0.3320
 1922SOL    HW117225   1.928   1.482   4.950 -3.5290  3.0657 -1.4694
 1922SOL    HW217226   2.065   1.532   4.955 -1.3498  1.6347  1.6039
 1923SOL     OW17227   0.574   1.031   4.874 -0.0471 -0.2182 -0.1533
 1923SOL    HW117228   0.504   1.059   4.815 -0.7929 -1.6584  0.0394
 1923SOL    HW217229   0.635   0.991   4.813 -0.5826  0.9996 -1.4721
 1924SOL     OW17230   0.061   2.575  10.715  0.3782  0.0837  0.5540
 1924SOL    HW117231   0.088   2.492  10.754  1.6010 -0.4458 -1.4050
 1924SOL    HW217232   0.123   2.633  10.759  0.2462  0.3706  0.3633
 1925SOL     OW17233   0.102   1.624  11.482  0.6190 -0.2471 -0.2255
 1925SOL    HW117234   0.050   1.601  11.559 -0.1947 -0.0641 -0.7243
 1925SOL    HW217235   0.152   1.696  11.521  1.2229  0.2217 -1.8663
 1926SOL     OW17236   1.641   1.229   3.102  0.6106 -0.6456 -0.0212
 1926SOL    HW117237   1.688   1.192   3.177 -0.2941  0.3541  1.0415
 1926SOL    HW217238   1.627   1.156   3.042  0.6473  0.4832 -1.3992
 1927SOL     OW17239   1.601   3.941   7.776  0.2538 -0.1231 -0.3913
 1927SOL    HW117240   1.628   3.959   7.686  2.7412 -3.9451 -0.4044
 1927SOL    HW217241   1.664   3.871   7.794  0.0721 -0.4232 -0.9183
 1928SOL     OW17242   1.660   0.900   9.855  0.2361  0.2199  0.0923
 1928SOL    HW117243   1.609   0.867   9.781  0.3542 -1.7439  0.8952
 1928SOL    HW217244   1.695   0.818   9.889  1.7134  1.1166  0.7223
 1929SOL     OW17245   3.703   1.240   1.689 -0.6063  0.1237  0.1034
 1929SOL    HW117246   3.623   1.269   1.645 -1.0038 -0.7321  0.2804
 1929SOL    HW217247   3.724   1.163   1.637 -2.2848  0.6278 -1.3325
 1930SOL     OW17248   0.971   1.313  14.557 -0.2453  0.5701 -0.5490
 1930SOL    HW117249   0.984   1.336  14.465 -0.3889  2.2583 -0.1556
 1930SOL    HW217250   0.932   1.227  14.543 -0.1217  0.0752  2.1556
 1931SOL     OW17251   2.293   0.893  14.731  0.2915  0.5405  0.2920
 1931SOL    HW117252   2.329   0.954  14.666 -0.9464  0.3526 -0.5490
 1931SOL    HW217253   2.283   0.945  14.811 -2.1489  0.4848  0.0135
 1932SOL     OW17254   0.333   4.684   5.333 -0.0952  0.2107  0.4112
 1932SOL    HW117255   0.255   4.722   5.373 -0.2212 -0.2352  0.5925
 1932SOL    HW217256   0.326   0.006   5.250  0.1895 -0.3150  0.0798
 1933SOL     OW17257   3.273   0.318   8.795  0.4505 -0.1354 -0.4141
 1933SOL    HW117258   3.292   0.229   8.764  1.5797  0.7424 -2.2428
 1933SOL    HW217259   3.271   0.366   8.712  2.3190  0.0634 -0.3489
 1934SOL     OW17260   2.028   3.699   2.800  0.2128 -0.5233 -0.8906
 1934SOL    HW117261   2.119   3.711   2.826  0.4324  3.1994 -3.2753
 1934SOL    HW217262   2.013   3.623   2.856  2.8736 -1.9682 -2.1627
 1935SOL     OW17263   0.895   0.918   5.688  0.0303 -0.7347  0.1272
 1935SOL    HW117264   0.949   0.854   5.734  0.9243 -1.3984 -1.8419
 1935SOL    HW217265   0.925   0.917   5.597 -1.2756 -0.5618 -0.3103
 1936SOL     OW17266   1.359   2.849   1.402  0.3062  0.2889 -0.4837
 1936SOL    HW117267   1.319   2.825   1.485 -0.3383  2.1401 -0.2735
 1936SOL    HW217268   1.323   2.782   1.344  1.1815  1.6685 -2.6311
 1937SOL     OW17269   3.885   4.430   3.322  0.2130 -0.6617 -0.0778
 1937SOL    HW117270   3.856   4.405   3.235 -0.4406 -0.6425  0.1326
 1937SOL    HW217271   3.967   4.472   3.298  0.4504 -0.4490  1.0925
 1938SOL     OW17272   2.087   3.386   1.994  0.9038  0.1504  0.7326
 1938SOL    HW117273   2.102   3.403   1.901  0.6883  2.4396  1.1101
 1938SOL    HW217274   2.153   3.439   2.039  0.5255 -0.2090  1.7124
 1939SOL     OW17275   3.501   3.034  10.207 -0.3856 -0.6050  0.0111
 1939SOL    HW117276   3.410   3.013  10.229 -0.5635  0.5688  0.3923
 1939SOL    HW217277   3.516   2.974  10.133  1.1978 -2.4726  1.8539
 1940SOL     OW17278   2.181   2.695   8.591 -0.3929  0.1430  0.7005
 1940SOL    HW117279   2.271   2.662   8.585 -1.4590 -2.5727 -0.3291
 1940SOL    HW217280   2.157   2.690   8.499 -0.6443  2.2950  0.6639
 1941SOL     OW17281   1.477   3.215   6.169  0.1647 -0.7297 -0.0156
 1941SOL    HW117282   1.525   3.297   6.151 -2.8392  1.1758  0.6539
 1941SOL    HW217283   1.398   3.249   6.211  1.8674  2.6947  0.4517
 1942SOL     OW17284   2.441   4.240  11.280  0.4426  0.2038 -0.2713
 1942SOL    HW117285   2.380   4.270  11.348  0.3998  2.0872 -1.1259
 1942SOL    HW217286   2.394   4.174  11.230 -1.1231  0.4573  0.8443
 1943SOL     OW17287   4.683   4.597   3.623  0.7177  0.3875  0.0477
 1943SOL    HW117288   0.045   4.561   3.636  1.0610  0.8495 -0.9562
 1943SOL    HW217289   4.645   4.537   3.559 -1.4217  0.6524  1.0787
 1944SOL     OW17290   3.557   3.410   3.703 -0.1158  0.6604  0.5845
 1944SOL    HW117291   3.602   3.328   3.722  1.7893  1.2106 -1.5602
 1944SOL    HW217292   3.482   3.397   3.762 -1.0271 -2.2437 -1.1855
 1945SOL     OW17293   4.649   4.071   7.740 -0.0257 -0.3861  0.2739
 1945SOL    HW117294   4.656   3.989   7.691 -1.3053  0.6664 -1.6796
 1945SOL    HW217295   0.002   4.118   7.713  0.1578 -0.6709  0.3073
 1946SOL     OW17296   2.686   1.283   1.144 -0.6049 -0.3384 -0.1713
 1946SOL    HW117297   2.722   1.355   1.092  0.5432 -1.7348 -1.2965
 1946SOL    HW217298   2.746   1.212   1.124 -0.1254  0.5814 -2.0528
 1947SOL     OW17299   1.907   1.034  17.209  0.1161  0.0556 -0.5958
 1947SOL    HW117300   1.887   1.122  17.240  1.8213  0.7601 -1.4915
 1947SOL    HW217301   1.832   1.012  17.154  1.8091 -3.2686 -1.5413
 1948SOL     OW17302   4.714   1.762   4.032  0.3538 -0.3072 -0.1585
 1948SOL    HW117303   0.039   1.713   4.096 -1.0284  0.0831  1.2200
 1948SOL    HW217304   4.635   1.715   4.004  0.9867 -0.9997 -0.7952
 1949SOL     OW17305   4.374   3.009  12.144 -0.4480  0.1112  0.4884
 1949SOL    HW117306   4.450   3.067  12.150 -1.1118  1.3047 -2.7262
 1949SOL    HW217307   4.304   3.073  12.150 -0.7051 -0.2157  0.9356
 1950SOL     OW17308   4.366   1.895   4.231 -0.0876  0.0354  0.1850
 1950SOL    HW117309   4.351   1.909   4.325  2.0000  0.2668  0.4761
 1950SOL    HW217310   4.445   1.944   4.210 -0.6392  0.1853 -1.5577
 1951SOL     OW17311   0.821   4.178   7.713 -0.2329 -0.0050 -0.4860
 1951SOL    HW117312   0.744   4.233   7.729  0.4687  0.1922  2.1174
 1951SOL    HW217313   0.791   4.093   7.747 -3.4404  1.2031 -0.2219
 1952SOL     OW17314   2.163   0.101  15.441 -0.1860  0.1137  0.2271
 1952SOL    HW117315   2.150   0.192  15.468 -1.9797 -0.6261  1.8157
 1952SOL    HW217316   2.245   0.110  15.392  0.0938 -1.1802  0.4407
 1953SOL     OW17317   1.929   3.889   4.867  0.3721 -0.2217  0.2381
 1953SOL    HW117318   2.005   3.943   4.888  0.7728  0.2274 -2.2954
 1953SOL    HW217319   1.901   3.861   4.954 -2.4631 -1.2196 -0.9896
 1954SOL     OW17320   1.429   2.647   2.470 -0.0726  0.5066  0.4742
 1954SOL    HW117321   1.513   2.605   2.455  0.2038  1.4326 -0.5369
 1954SOL    HW217322   1.456   2.701   2.545  2.9457 -0.1327 -0.1787
 1955SOL     OW17323   1.395   3.450   0.854  0.5407  0.1298 -0.4432
 1955SOL    HW117324   1.343   3.526   0.882  0.0399 -0.4748  0.2547
 1955SOL    HW217325   1.483   3.477   0.829  0.2852  1.3101 -0.0490
 1956SOL     OW17326   0.418   0.729   0.558 -0.3383 -0.0813 -0.5031
 1956SOL    HW117327   0.488   0.745   0.495  0.6462  1.4389  0.9696
 1956SOL    HW217328   0.340   0.739   0.503 -0.9953 -2.8346 -0.0672
 1957SOL     OW17329   1.290   2.263   1.027  0.3992  0.0270  0.4216
 1957SOL    HW117330   1.281   2.220   0.942 -0.9051  2.9129 -0.9194
 1957SOL    HW217331   1.307   2.190   1.087  1.8188 -0.4636 -0.5936
 1958SOL     OW17332   0.259   2.867  13.277  0.5504  0.1552 -0.5701
 1958SOL    HW117333   0.240   2.950  13.233  0.2539 -0.6097 -1.9019
 1958SOL    HW217334   0.303   2.900  13.355 -0.3379  0.2950 -0.1241
 1959SOL     OW17335   4.413   1.288  14.653  0.3393 -0.3286 -0.5208
 1959SOL    HW117336   4.358   1.272  14.730 -0.3476  1.3323 -0.6612
 1959SOL    HW217337   4.494   1.312  14.699 -1.4890  2.4194  1.2914
 1960SOL     OW17338   1.950   3.392  11.289 -0.4879 -0.6771 -0.1452
 1960SOL    HW117339   2.028   3.352  11.329 -0.4093 -0.3744  0.0085
 1960SOL    HW217340   1.983   3.481  11.277  0.9349 -1.2236 -0.3783
 1961SOL     OW17341   3.238   2.374   2.644  0.1328  0.2324 -0.1892
 1961SOL    HW117342   3.162   2.408   2.597  0.1501  0.4853 -0.0334
 1961SOL    HW217343   3.304   2.442   2.629 -1.6625  1.6312 -1.7040
 1962SOL     OW17344   3.683   2.046  13.257 -0.6329 -0.3647  0.0267
 1962SOL    HW117345   3.727   2.050  13.172 -0.7379  1.5032  0.0579
 1962SOL    HW217346   3.702   1.957  13.285  1.0658 -0.6352 -2.0017
 1963SOL     OW17347   1.960   0.759  13.899 -0.0081  0.0070  0.4477
 1963SOL    HW117348   2.015   0.745  13.823 -0.0201 -1.1897  0.6679
 1963SOL    HW217349   2.032   0.771  13.961  0.4232 -0.2166 -0.0101
 1964SOL     OW17350   1.961   0.524   8.320 -0.3103 -0.3545 -0.3115
 1964SOL    HW117351   2.029   0.539   8.386 -1.1302 -1.0335  0.6999
 1964SOL    HW217352   1.902   0.598   8.336  0.3886  0.8701 -3.4884
 1965SOL     OW17353   0.737   1.025   5.885 -0.3359  0.4145 -0.3629
 1965SOL    HW117354   0.793   0.990   5.815 -2.5482 -1.0789 -1.3750
 1965SOL    HW217355   0.658   1.045   5.834 -1.4173 -1.7977  0.4963
 1966SOL     OW17356   1.670   2.389   1.507  0.7436  0.1279  0.0301
 1966SOL    HW117357   1.582   2.367   1.476 -0.4985  1.2370  2.7395
 1966SOL    HW217358   1.680   2.484   1.498  3.4810 -0.2203 -0.5051
 1967SOL     OW17359   3.424   4.549   4.440 -0.4193  0.1680 -0.4027
 1967SOL    HW117360   3.386   4.620   4.492  0.8174 -0.7734  1.7716
 1967SOL    HW217361   3.501   4.529   4.493 -1.0966  2.4664  1.4704
 1968SOL     OW17362   3.127   2.388   3.788  0.0134 -0.9494  0.4791
 1968SOL    HW117363   3.123   2.381   3.883 -2.8522 -0.6108  0.3807
 1968SOL    HW217364   3.215   2.351   3.788  0.2914 -0.3007  2.0512
 1969SOL     OW17365   4.381   2.054   3.583  0.2855 -0.2625 -0.6264
 1969SOL    HW117366   4.352   2.046   3.674  1.1208  0.7661 -0.2713
 1969SOL    HW217367   4.310   2.014   3.532 -0.5627 -0.5819  0.7979
 1970SOL     OW17368   0.839   0.624   9.422  0.0828  0.6000  0.0386
 1970SOL    HW117369   0.770   0.589   9.365  0.9411 -1.4805  0.2482
 1970SOL    HW217370   0.842   0.713   9.388 -1.3808  0.6997  0.1599
 1971SOL     OW17371   2.379   4.578   4.323  0.1480  0.8257  0.2314
 1971SOL    HW117372   2.431   4.636   4.379  1.8345  1.1642 -1.6907
 1971SOL    HW217373   2.332   4.644   4.271 -0.7896  0.4157  0.5725
 1972SOL     OW17374   3.105   2.463   3.258  0.3829 -0.0035 -0.3977
 1972SOL    HW117375   3.186   2.509   3.236 -0.4456  1.7548  0.2107
 1972SOL    HW217376   3.144   2.414   3.330  0.1953 -0.8715 -0.8882
 1973SOL     OW17377   3.448   4.039  17.517 -0.0524  0.4728 -0.1555
 1973SOL    HW117378   3.408   4.073  17.597  0.4893  2.1977 -0.6268
 1973SOL    HW217379   3.526   4.094  17.517 -0.7963  1.5253  0.3792
 1974SOL     OW17380   0.953   2.970   1.330  0.3174  0.3525 -0.2901
 1974SOL    HW117381   0.914   2.990   1.244  0.8207  0.6099 -0.4580
 1974SOL    HW217382   0.983   3.057   1.357  1.5410 -0.1248 -0.1097
 1975SOL     OW17383   1.642   1.917  13.374  0.0143  0.1690 -0.1026
 1975SOL    HW117384   1.552   1.885  13.375 -0.0636  0.2942 -2.7691
 1975SOL    HW217385   1.634   1.951  13.285  0.3302 -0.8815 -0.5397
 1976SOL     OW17386   2.832   3.728   4.908  0.1529 -0.4222 -0.0557
 1976SOL    HW117387   2.884   3.720   4.828 -1.2893  0.3589 -1.0742
 1976SOL    HW217388   2.827   3.635   4.928  0.8259 -0.4049  0.1901
 1977SOL     OW17389   2.339   3.472   6.411 -0.1536 -0.2681  0.1239
 1977SOL    HW117390   2.383   3.413   6.473 -0.3961 -1.3476 -0.7179
 1977SOL    HW217391   2.408   3.538   6.402 -0.2470 -0.2480 -0.4220
 1978SOL     OW17392   4.713   1.277  10.184 -0.2803 -0.4061  0.4173
 1978SOL    HW117393   0.000   1.187  10.214 -1.3117 -1.1354 -1.3365
 1978SOL    HW217394   0.074   1.307  10.210  0.0596 -0.3116 -0.8240
 1979SOL     OW17395   3.832   3.210   6.022  0.0604 -0.1420 -0.3628
 1979SOL    HW117396   3.872   3.221   5.936  0.5098  2.5961  0.1749
 1979SOL    HW217397   3.752   3.260   6.010  0.4826  1.0430  1.5673
 1980SOL     OW17398   2.972   0.998   8.982 -0.0039 -0.3090  0.0840
 1980SOL    HW117399   3.031   0.956   9.044 -1.4557 -0.9264  1.0591
 1980SOL    HW217400   2.955   0.926   8.920 -2.6290 -0.6264  1.1698
 1981SOL     OW17401   2.186   1.840   1.294 -0.0162 -0.0588  0.2019
 1981SOL    HW117402   2.216   1.751   1.278  0.3239  0.0689  0.1104
 1981SOL    HW217403   2.149   1.854   1.206 -0.0504  0.6045  0.3168
 1982SOL     OW17404   2.920   1.031   1.948  0.1189 -0.0807  0.5322
 1982SOL    HW117405   2.827   1.035   1.926  0.4209  2.1853 -0.2970
 1982SOL    HW217406   2.929   0.938   1.971  1.5302  0.0034  0.3325
 1983SOL     OW17407   2.604   1.639   1.096 -0.5708  0.0196 -0.1749
 1983SOL    HW117408   2.616   1.718   1.042 -0.8007 -0.2557 -0.6292
 1983SOL    HW217409   2.677   1.585   1.066 -0.0772  1.1456 -0.9969
 1984SOL     OW17410   0.482   1.847   1.467 -0.1427 -0.2682 -0.6533
 1984SOL    HW117411   0.426   1.809   1.535  0.5993  0.2462  0.2402
 1984SOL    HW217412   0.494   1.937   1.497 -0.8266 -0.1644 -0.6891
 1985SOL     OW17413   0.189   2.265  10.766  0.7600  0.3864  0.0367
 1985SOL    HW117414   0.121   2.198  10.775  1.3150 -0.3580 -1.3045
 1985SOL    HW217415   0.164   2.302  10.681  0.5803 -0.0938 -0.1241
 1986SOL     OW17416   0.144   2.597  11.095 -0.6338  0.6962  0.0482
 1986SOL    HW117417   0.055   2.632  11.084  0.0366  1.2690 -3.6107
 1986SOL    HW217418   0.181   2.636  11.016  1.3600 -1.1226  0.0860
 1987SOL     OW17419   1.298   0.157   6.821  0.1412 -0.1539 -0.3893
 1987SOL    HW117420   1.314   0.112   6.904 -1.4472 -1.5689 -0.8671
 1987SOL    HW217421   1.232   0.220   6.849  0.6830  0.9950 -1.6302
 1988SOL     OW17422   4.550   3.025  15.258 -0.2020  0.6835 -0.0752
 1988SOL    HW117423   4.624   3.079  15.287 -0.7551 -0.2299  2.9828
 1988SOL    HW217424   4.559   2.955  15.322 -2.4866 -1.4428 -2.0915
 1989SOL     OW17425   2.405   1.690  17.376  0.3036  0.0055 -0.4973
 1989SOL    HW117426   2.415   1.747  17.299  2.8070  0.7751  0.3977
 1989SOL    HW217427   2.310   1.684  17.387  0.2319  0.5887 -0.7671
 1990SOL     OW17428   0.941   0.771   5.016 -0.5175  0.1920 -1.2036
 1990SOL    HW117429   0.880   0.835   5.053 -0.6158 -1.1986  0.9880
 1990SOL    HW217430   1.027   0.810   5.002 -0.5862  0.9117  0.3846
 1991SOL     OW17431   1.540   0.720  17.202 -0.3320  0.1992  0.4140
 1991SOL    HW117432   1.598   0.779  17.251  2.5518 -2.1903 -0.1293
 1991SOL    HW217433   1.609   0.700  17.138 -0.8576  0.8628 -0.3750
 1992SOL     OW17434   3.487   0.541   5.848  0.4100  0.3912 -0.4928
 1992SOL    HW117435   3.437   0.491   5.912 -0.4100 -1.6485 -2.6976
 1992SOL    HW217436   3.508   0.476   5.781 -1.6930  0.2756 -1.0392
 1993SOL     OW17437   3.972   1.125   2.204 -1.1211  0.4607  0.9900
 1993SOL    HW117438   4.032   1.137   2.131  1.5534 -2.3266  2.7437
 1993SOL    HW217439   4.030   1.105   2.277  0.8151 -0.9388 -0.9530
 1994SOL     OW17440   1.004   3.514   2.183  0.0228 -0.3482 -0.7231
 1994SOL    HW117441   0.950   3.545   2.110 -0.3900  3.2979  1.1751
 1994SOL    HW217442   0.933   3.484   2.241  0.5892  1.1326  0.7074
 1995SOL     OW17443   0.503   2.343   7.658  0.5271 -0.0218  0.0587
 1995SOL    HW117444   0.545   2.290   7.725 -0.2990  0.0173  0.6056
 1995SOL    HW217445   0.476   2.417   7.713  0.0775 -1.0376  1.1912
 1996SOL     OW17446   2.262   2.123  10.361  0.0184  0.1061  0.2742
 1996SOL    HW117447   2.267   2.164  10.274 -0.3526 -0.9482 -0.2466
 1996SOL    HW217448   2.178   2.077  10.360 -1.6700  3.1843  0.5040
 1997SOL     OW17449   3.097   2.428   4.701 -0.0819 -0.4050 -0.4992
 1997SOL    HW117450   3.121   2.368   4.771 -1.8916 -0.2940  0.2315
 1997SOL    HW217451   3.151   2.507   4.707 -0.3095 -0.3316  0.5329
 1998SOL     OW17452   4.363   0.894  17.553  0.4227 -0.2513  0.0281
 1998SOL    HW117453   4.458   0.884  17.562  0.8203  1.5452 -2.1392
 1998SOL    HW217454   4.349   0.915  17.645  1.5387  1.3914 -0.1819
 1999SOL     OW17455   1.659   4.138   2.153 -0.2523 -0.2799  0.2079
 1999SOL    HW117456   1.717   4.202   2.194 -0.4540  1.1183 -1.6835
 1999SOL    HW217457   1.723   4.088   2.102  1.1098 -0.9752  2.6118
 2000SOL     OW17458   0.107   0.170   3.331  0.3075  0.1297  0.2484
 2000SOL    HW117459   0.032   0.214   3.291  0.2003 -0.0212  0.2827
 2000SOL    HW217460   0.148   0.246   3.371  1.1697  0.7503 -1.8099
 2001SOL     OW17461   3.335   4.162   7.169  0.1962  0.2830 -0.1764
 2001SOL    HW117462   3.330   4.160   7.265  0.9068  3.9426 -0.0682
 2001SOL    HW217463   3.272   4.092   7.153 -1.3506  1.2502  1.6912
 2002SOL     OW17464   3.478   1.270  14.540  0.3748  0.1884  0.3777
 2002SOL    HW117465   3.465   1.210  14.614 -0.3079  0.7966  0.7633
 2002SOL    HW217466   3.386   1.272  14.514 -0.1617 -2.0211  2.1029
 2003SOL     OW17467   3.374   3.483   4.990  0.0808  0.9216 -0.0167
 2003SOL    HW117468   3.300   3.425   4.971  0.0143  1.2038 -0.6218
 2003SOL    HW217469   3.374   3.521   4.902  0.8587  1.0126  0.0246
 2004SOL     OW17470   3.964   1.667  17.596 -0.2744 -0.5387 -0.5950
 2004SOL    HW117471   3.961   1.729  17.669 -1.7387 -0.0771 -1.0664
 2004SOL    HW217472   3.870   1.647  17.599 -0.5993  1.0390 -0.5976
 2005SOL     OW17473   4.359   2.605  15.097  0.2432 -0.0477 -0.3936
 2005SOL    HW117474   4.325   2.554  15.170 -1.7038  0.6767 -0.7834
 2005SOL    HW217475   4.348   2.689  15.142 -0.5042  1.0255 -2.5430
 2006SOL     OW17476   0.860   1.685   4.099 -0.1208  0.3871 -0.4015
 2006SOL    HW117477   0.873   1.609   4.154  1.1142  1.2006  0.4336
 2006SOL    HW217478   0.946   1.726   4.087 -0.5374  1.7628  1.3645
 2007SOL     OW17479   3.065   4.459   4.679  0.9415  0.4317  0.1277
 2007SOL    HW117480   3.151   4.437   4.714  1.3470  1.7012 -0.0692
 2007SOL    HW217481   3.080   4.416   4.595  1.3669 -0.1530  0.5020
 2008SOL     OW17482   0.102   2.118   4.667  0.2080 -0.0937 -0.0760
 2008SOL    HW117483   0.040   2.190   4.664 -0.7242 -0.8586  1.3835
 2008SOL    HW217484   0.165   2.145   4.600  2.2074  2.3702  2.8080
 2009SOL     OW17485   4.186   2.767  11.843  0.3019  0.1814  0.7531
 2009SOL    HW117486   4.126   2.806  11.907  0.1294  0.0169  0.6904
 2009SOL    HW217487   4.130   2.794  11.770 -0.7868  1.8768  2.2304
 2010SOL     OW17488   1.909   0.004  10.017 -0.2804 -0.0854 -0.2052
 2010SOL    HW117489   1.824   0.011  10.060 -1.2541 -2.1205 -1.7839
 2010SOL    HW217490   1.949   0.089  10.038  1.0416 -0.6261 -0.5306
 2011SOL     OW17491   2.452   3.270   5.639  0.2282 -0.1980 -0.0222
 2011SOL    HW117492   2.380   3.330   5.658 -0.4735 -0.7120 -1.0393
 2011SOL    HW217493   2.440   3.246   5.547  1.3568 -1.4937  0.1691
 2012SOL     OW17494   1.951   0.308   9.194 -0.4273  1.2771 -0.0295
 2012SOL    HW117495   2.023   0.340   9.248 -0.7865  1.6040  0.2526
 2012SOL    HW217496   2.000   0.254   9.132 -1.6381 -0.7175  0.7572
 2013SOL     OW17497   0.394   3.386   3.335 -0.1768 -0.9775  0.1365
 2013SOL    HW117498   0.351   3.306   3.304  0.1450 -0.3781 -1.8982
 2013SOL    HW217499   0.465   3.357   3.392 -0.2247  1.0400  1.2259
 2014SOL     OW17500   3.375   4.398  16.985  0.5034  0.9752 -0.5704
 2014SOL    HW117501   3.310   4.340  17.025 -1.2836  1.4594 -2.7905
 2014SOL    HW217502   3.368   4.381  16.891  0.5944  0.0347 -0.4050
 2015SOL     OW17503   1.541   0.400  10.729 -0.2113  0.1395 -0.3719
 2015SOL    HW117504   1.622   0.423  10.685  0.8601 -1.2038  0.9137
 2015SOL    HW217505   1.560   0.412  10.822  0.6496  0.9655 -0.6716
 2016SOL     OW17506   1.974   3.180   3.336 -0.0464  0.7882  0.0083
 2016SOL    HW117507   1.917   3.256   3.349  1.0028  1.4596  0.7280
 2016SOL    HW217508   2.059   3.218   3.361 -0.1524  0.6568  0.5650
 2017SOL     OW17509   2.478   1.171   5.774  0.0129 -0.1844  0.8108
 2017SOL    HW117510   2.527   1.145   5.852  1.4562  1.6464  0.4848
 2017SOL    HW217511   2.516   1.257   5.757 -0.7186  0.2734  1.4884
 2018SOL     OW17512   1.189   0.032   8.938 -0.2627  0.2956 -0.2120
 2018SOL    HW117513   1.223   0.052   9.026 -0.9901 -2.2255  0.6486
 2018SOL    HW217514   1.135   4.681   8.958 -1.3844  1.1753  0.1626
 2019SOL     OW17515   1.441   0.971  14.823 -0.2014 -0.0350 -0.2408
 2019SOL    HW117516   1.526   0.939  14.793 -0.9518  0.2466 -2.6838
 2019SOL    HW217517   1.397   0.989  14.740 -1.4422  1.0427  0.6599
 2020SOL     OW17518   0.063   4.269  13.335  0.3228 -0.5860 -0.1253
 2020SOL    HW117519   0.073   4.361  13.361 -2.5679 -0.4168  0.3907
 2020SOL    HW217520   0.043   4.279  13.242 -1.0176  0.2814  0.2420
 2021SOL     OW17521   2.185   1.422   5.692  0.3654  0.3593  0.5718
 2021SOL    HW117522   2.107   1.433   5.638  1.9357 -1.4544 -2.0130
 2021SOL    HW217523   2.168   1.338   5.736  0.8454  0.3239  0.6955
 2022SOL     OW17524   1.161   1.098   6.954 -0.5317  0.2104 -0.0361
 2022SOL    HW117525   1.115   1.050   6.885  1.5469  0.9564 -1.9876
 2022SOL    HW217526   1.090   1.113   7.016 -2.2185 -1.0566 -1.6851
 2023SOL     OW17527   4.053   2.012   4.467  0.0341  0.0584  0.5045
 2023SOL    HW117528   4.054   2.107   4.477 -1.8529  0.2464 -1.1178
 2023SOL    HW217529   4.019   1.999   4.378 -0.9543  0.6045  0.8008
 2024SOL     OW17530   4.067   1.276   8.918 -0.4840  0.0225 -0.2987
 2024SOL    HW117531   4.021   1.354   8.947  1.8286  0.5476  1.9946
 2024SOL    HW217532   4.109   1.310   8.839 -1.0242  0.5487 -0.3522
 2025SOL     OW17533   4.136   3.378   2.863 -0.2737 -0.1079  0.1024
 2025SOL    HW117534   4.176   3.306   2.911  1.4267 -1.0951 -2.8042
 2025SOL    HW217535   4.211   3.437   2.848 -1.0608  0.7093 -0.6138
 2026SOL     OW17536   2.511   0.665   4.507  0.0960  0.2316  0.3193
 2026SOL    HW117537   2.598   0.624   4.505  0.2023  0.3674  2.5422
 2026SOL    HW217538   2.513   0.703   4.594 -0.6718  0.7727  0.0942
 2027SOL     OW17539   3.740   0.183   5.243 -0.6288  0.5074  0.1229
 2027SOL    HW117540   3.648   0.159   5.246 -0.0060 -2.0726 -0.9945
 2027SOL    HW217541   3.766   0.150   5.329  1.4159  0.0631 -0.6472
 2028SOL     OW17542   1.625   1.308   9.265  0.4864  0.4272 -0.0880
 2028SOL    HW117543   1.689   1.379   9.260  0.8793  0.2051  2.0537
 2028SOL    HW217544   1.660   1.255   9.336  0.1746 -1.5530 -1.4013
 2029SOL     OW17545   0.280   4.571   7.004  0.2346  0.3178 -0.5207
 2029SOL    HW117546   0.339   4.628   7.054 -0.6249  0.8978 -0.1772
 2029SOL    HW217547   0.238   4.640   6.953 -0.8362 -1.1705 -1.6415
 2030SOL     OW17548   2.212   0.405   9.177  0.2352 -0.8414  0.5315
 2030SOL    HW117549   2.274   0.454   9.230 -1.1736  1.0914  0.4135
 2030SOL    HW217550   2.254   0.319   9.181 -0.3279 -1.2464 -2.2584
 2031SOL     OW17551   4.073   4.145   3.224 -0.6487  0.2601 -0.3507
 2031SOL    HW117552   4.054   4.208   3.154 -1.5575  0.6511  0.2485
 2031SOL    HW217553   4.068   4.194   3.306 -0.2285  2.2058 -1.4826
 2032SOL     OW17554   2.075   0.277   6.315  0.6732  0.3538  0.0301
 2032SOL    HW117555   2.118   0.312   6.393  0.3131 -0.5998  0.6488
 2032SOL    HW217556   1.997   0.241   6.358  2.3246 -0.8854  1.9873
 2033SOL     OW17557   3.390   1.512   5.391  0.4656  0.2665  0.9949
 2033SOL    HW117558   3.310   1.468   5.363  0.2029 -0.4096  2.8355
 2033SOL    HW217559   3.449   1.438   5.401  1.0630  0.6946  0.6677
 2034SOL     OW17560   2.139   3.913  16.488 -0.2183 -0.5479 -0.3227
 2034SOL    HW117561   2.044   3.915  16.482 -0.3554  3.5947  3.2241
 2034SOL    HW217562   2.154   4.000  16.524 -2.7501 -0.2370 -0.0214
 2035SOL     OW17563   2.271   2.974   3.800  0.0306 -0.3772 -0.1190
 2035SOL    HW117564   2.214   3.049   3.819  0.2487 -0.3325  0.3460
 2035SOL    HW217565   2.210   2.901   3.801  1.0464 -1.1862  1.4572
 2036SOL     OW17566   3.996   4.650   7.337 -0.1171 -0.1513  0.9073
 2036SOL    HW117567   3.902   4.642   7.324  0.3694 -1.4859 -1.9081
 2036SOL    HW217568   4.003   4.693   7.423 -0.4766 -0.3360  1.0271
 2037SOL     OW17569   0.110   2.473   7.737  0.2017  0.9321 -0.1128
 2037SOL    HW117570   0.150   2.387   7.749 -2.5934 -0.0813  2.1297
 2037SOL    HW217571   0.121   2.482   7.642 -2.0842 -1.7518 -0.6149
 2038SOL     OW17572   3.651   1.335   3.696 -0.3594  0.0190  0.5346
 2038SOL    HW117573   3.719   1.333   3.629 -1.4074  1.0489 -0.5571
 2038SOL    HW217574   3.581   1.392   3.664  1.3831  0.7537 -1.9281
 2039SOL     OW17575   4.551   2.965   1.457 -0.5100 -0.4605  0.3765
 2039SOL    HW117576   4.499   3.042   1.483  1.0684 -0.2969  3.1093
 2039SOL    HW217577   4.577   2.931   1.543  1.5456 -2.1663 -0.9297
 2040SOL     OW17578   4.308   4.532   7.031  0.1122  0.3116  0.1404
 2040SOL    HW117579   4.320   4.442   7.060 -0.3209  0.0941 -0.3469
 2040SOL    HW217580   4.218   4.552   7.057  1.1049  1.8264  2.4290
 2041SOL     OW17581   4.474   1.482   4.664 -0.1124 -0.2698 -0.5249
 2041SOL    HW117582   4.493   1.569   4.699  0.3186 -1.1158  1.3656
 2041SOL    HW217583   4.457   1.435   4.746 -3.4574  2.5805  0.4438
 2042SOL     OW17584   4.230   0.933   3.854 -0.2838 -0.2660 -0.9492
 2042SOL    HW117585   4.186   0.859   3.813  1.0011 -0.0029 -2.8269
 2042SOL    HW217586   4.183   0.942   3.936 -0.4169 -1.7569 -0.8638
 2043SOL     OW17587   1.897   0.817   1.569  0.0522 -0.1635 -0.1375
 2043SOL    HW117588   1.926   0.894   1.519 -1.0861  0.1972 -0.2607
 2043SOL    HW217589   1.939   0.828   1.654 -0.9747 -0.2554  0.3859
 2044SOL     OW17590   2.831   3.644   3.791  0.4245  0.1176  0.7520
 2044SOL    HW117591   2.823   3.718   3.851 -2.7946 -0.3591  0.8976
 2044SOL    HW217592   2.750   3.600   3.815  1.5013 -3.4331 -2.1707
 2045SOL     OW17593   1.060   0.885  13.839  0.2114 -0.0662 -0.0202
 2045SOL    HW117594   1.090   0.976  13.841 -0.3080  0.1097 -0.2125
 2045SOL    HW217595   1.075   0.870  13.932  2.1604 -1.0121 -0.4955
 2046SOL     OW17596   0.564   4.564   2.854 -0.7978 -0.2357 -0.4603
 2046SOL    HW117597   0.587   4.637   2.912 -1.3644 -1.0629  0.8081
 2046SOL    HW217598   0.643   4.554   2.801 -1.8826 -1.2242 -1.8964
 2047SOL     OW17599   4.697   4.135   2.247  0.2960  0.0703 -0.1861
 2047SOL    HW117600   4.702   4.060   2.307 -0.3318  0.5735  0.4963
 2047SOL    HW217601   4.724   4.210   2.300  1.3957 -1.4376  1.3857
 2048SOL     OW17602   4.613   3.238  15.040  0.7377  0.0435  0.0299
 2048SOL    HW117603   4.580   3.149  15.041 -0.2220  0.3490 -2.9589
 2048SOL    HW217604   4.704   3.229  15.011  1.0518 -1.0426  1.3662
 2049SOL     OW17605   0.945   4.487   8.414 -0.1882  0.5808  0.2949
 2049SOL    HW117606   0.965   4.567   8.462  2.3410 -0.8995  1.7515
 2049SOL    HW217607   0.938   4.516   8.323 -0.2224  1.9235  0.7230
 2050SOL     OW17608   1.509   3.994   2.678  0.6630  0.1706 -0.1288
 2050SOL    HW117609   1.516   4.026   2.588  2.4497  0.7398  0.2109
 2050SOL    HW217610   1.440   4.051   2.712  0.2756  1.0187 -2.3041
 2051SOL     OW17611   3.096   3.853  15.972 -0.3068 -0.2333  0.0254
 2051SOL    HW117612   3.081   3.785  15.906  0.0086  0.6635 -0.9632
 2051SOL    HW217613   3.073   3.812  16.055 -0.1440  0.4031  0.3846
 2052SOL     OW17614   0.877   3.246   3.203  0.3540  0.2493 -0.4474
 2052SOL    HW117615   0.905   3.179   3.141  0.8032 -0.1293  0.1698
 2052SOL    HW217616   0.782   3.232   3.210  0.1849  1.7134  0.1656
 2053SOL     OW17617   0.381   3.392   6.105 -0.4712 -0.5581  0.1364
 2053SOL    HW117618   0.332   3.432   6.032  1.3788 -0.5496 -1.0988
 2053SOL    HW217619   0.414   3.467   6.155 -0.4838  0.3412 -1.1929
 2054SOL     OW17620   2.740   0.969   3.516 -0.1382  0.1105  0.1552
 2054SOL    HW117621   2.651   1.006   3.512  0.3962  1.3310 -0.5529
 2054SOL    HW217622   2.781   1.033   3.573  1.1813 -1.8985  1.4599
 2055SOL     OW17623   3.059   1.581   5.460 -0.6945  0.1716 -0.0478
 2055SOL    HW117624   3.054   1.675   5.476  0.7022  0.3426 -0.5861
 2055SOL    HW217625   3.103   1.557   5.542 -1.3707  0.2780  0.3388
 2056SOL     OW17626   1.846   0.668   2.137 -0.0087 -0.5356 -0.1646
 2056SOL    HW117627   1.808   0.635   2.218 -1.6727 -3.0579 -1.9826
 2056SOL    HW217628   1.837   0.762   2.154  0.4536 -0.9429  2.3249
 2057SOL     OW17629   2.230   2.435   7.576  0.1014  0.1301  0.3130
 2057SOL    HW117630   2.300   2.476   7.626  0.2213  0.2253  0.0683
 2057SOL    HW217631   2.268   2.441   7.488  0.8630 -0.1426  0.6214
 2058SOL     OW17632   4.470   1.229   2.584 -0.0167 -0.5551  0.2802
 2058SOL    HW117633   4.512   1.166   2.526  0.5888  0.2219 -0.1179
 2058SOL    HW217634   4.425   1.296   2.532 -0.2486 -0.4469  0.6198
 2059SOL     OW17635   4.523   1.143   2.114 -0.0288 -0.0231 -0.0093
 2059SOL    HW117636   4.442   1.108   2.077 -0.5470  0.4146  0.7003
 2059SOL    HW217637   4.589   1.086   2.075  1.2386  1.3822  0.1066
 2060SOL     OW17638   0.995   1.346   3.588  0.1973  0.0278 -0.0360
 2060SOL    HW117639   0.965   1.328   3.678  0.7808  2.1056  0.5920
 2060SOL    HW217640   1.029   1.434   3.606 -1.3438  0.7907 -0.7805
 2061SOL     OW17641   1.737   0.970  13.567 -0.0012  0.5476  0.5813
 2061SOL    HW117642   1.708   1.060  13.578 -1.8845  0.1445 -0.9750
 2061SOL    HW217643   1.727   0.935  13.656  0.5305 -1.9310 -0.3353
 2062SOL     OW17644   4.429   2.992  14.434 -0.2995  0.0442 -0.1812
 2062SOL    HW117645   4.486   2.957  14.366 -0.6645 -0.4592 -0.2290
 2062SOL    HW217646   4.364   2.922  14.430  0.4234 -0.5842 -0.7228
 2063SOL     OW17647   3.607   3.981   7.352  0.3014 -0.1247 -0.5476
 2063SOL    HW117648   3.591   3.923   7.277  1.6133 -2.1903  0.7705
 2063SOL    HW217649   3.702   3.989   7.349  0.2589  0.2255 -0.9111
 2064SOL     OW17650   3.122   1.743   2.893 -0.3421 -0.0229  0.6083
 2064SOL    HW117651   3.049   1.754   2.954 -1.1587  1.8248 -0.7155
 2064SOL    HW217652   3.155   1.832   2.880  0.4256 -0.2167  1.2282
 2065SOL     OW17653   3.532   0.092   5.552 -0.4505  0.2812 -0.6955
 2065SOL    HW117654   3.558   0.015   5.502  0.3123 -0.7645  1.3082
 2065SOL    HW217655   3.438   0.080   5.564 -0.5392 -0.6408 -2.2428
 2066SOL     OW17656   4.447   3.163   2.658 -0.3259 -0.0637 -0.7854
 2066SOL    HW117657   4.382   3.101   2.689 -1.1183  0.4661 -1.3891
 2066SOL    HW217658   4.484   3.112   2.586  3.3912  0.5244  0.7287
 2067SOL     OW17659   4.191   3.507   5.239 -0.3456 -0.1480  0.1344
 2067SOL    HW117660   4.137   3.434   5.267 -1.5084  0.9419  0.7410
 2067SOL    HW217661   4.273   3.464   5.215  0.5048  1.7879 -0.4537
 2068SOL     OW17662   3.613   3.973   0.075 -0.8876  0.6192  0.2368
 2068SOL    HW117663   3.686   3.945   0.019 -1.3914 -0.5907  0.1703
 2068SOL    HW217664   3.549   3.902   0.061 -1.6484  1.7890 -2.1612
 2069SOL     OW17665   1.454   2.525   4.890  0.1074  0.1721  0.0024
 2069SOL    HW117666   1.507   2.586   4.941 -1.4476 -1.3539  3.4836
 2069SOL    HW217667   1.400   2.501   4.966  0.0836  3.2410  0.9969
 2070SOL     OW17668   0.868   1.287   9.462 -0.1545  0.3938 -0.1482
 2070SOL    HW117669   0.921   1.272   9.540  0.2441  0.5938 -0.3757
 2070SOL    HW217670   0.932   1.346   9.420  3.2816 -2.1548  1.4705
 2071SOL     OW17671   0.111   3.520  17.568 -0.0741  0.1523 -0.0778
 2071SOL    HW117672   0.207   3.522  17.576 -0.0814 -1.2348  0.3284
 2071SOL    HW217673   0.094   3.605  17.527  0.1377  1.0977  1.7564
 2072SOL     OW17674   4.706   3.531  11.659  0.8288  0.2388  0.1872
 2072SOL    HW117675   4.700   3.465  11.728  0.7372  3.1097  2.9353
 2072SOL    HW217676   0.057   3.577  11.692  1.1771  0.0495 -0.3557
 2073SOL     OW17677   1.704   3.800   2.710  0.1777 -0.1579  0.2065
 2073SOL    HW117678   1.668   3.887   2.696  0.5595 -0.0510 -0.0827
 2073SOL    HW217679   1.626   3.754   2.742 -0.5419 -0.1966 -1.6037
 2074SOL     OW17680   4.282   0.943  11.186  0.0652  0.1169  0.0589
 2074SOL    HW117681   4.220   0.872  11.204 -0.8716  0.7641 -0.6508
 2074SOL    HW217682   4.303   0.985  11.270  1.5290 -3.4456  1.4756
 2075SOL     OW17683   4.115   3.968  13.978  0.0071 -0.7394  0.1915
 2075SOL    HW117684   4.087   3.915  13.903 -0.3446 -1.1241  0.5919
 2075SOL    HW217685   4.052   3.945  14.047  1.2477 -0.7053  1.3515
 2076SOL     OW17686   3.989   3.814  13.748  0.3321 -0.0438  0.1806
 2076SOL    HW117687   3.937   3.769  13.682  0.3182 -2.0208  1.5475
 2076SOL    HW217688   3.910   3.845  13.792 -0.8386 -0.9494 -1.3047
 2077SOL     OW17689   0.071   1.204   3.824 -0.3443 -0.3329 -0.7378
 2077SOL    HW117690   0.032   1.288   3.800  2.2052  0.3160 -2.6388
 2077SOL    HW217691   0.009   1.177   3.892  1.4547 -1.1975  0.5437
 2078SOL     OW17692   0.133   3.027   8.042 -0.0671 -0.5719 -0.1440
 2078SOL    HW117693   0.226   3.038   8.064 -0.2087  0.9023 -0.2905
 2078SOL    HW217694   0.096   2.993   8.124 -0.8560  0.1680 -0.1934
 2079SOL     OW17695   0.877   1.579  10.327  0.0485 -0.3305 -0.5039
 2079SOL    HW117696   0.888   1.484  10.317  0.8071  0.0155 -2.8355
 2079SOL    HW217697   0.904   1.610  10.241 -1.3676  0.8684 -0.5107
 2080SOL     OW17698   3.658   3.841   4.685  0.0252 -0.3217  0.1409
 2080SOL    HW117699   3.615   3.765   4.646  2.2121 -0.4400 -2.0849
 2080SOL    HW217700   3.640   3.831   4.778  0.5057  0.1517  0.2890
 2081SOL     OW17701   1.564   3.520   2.444  0.2416  0.4036 -0.5262
 2081SOL    HW117702   1.501   3.582   2.482  2.2137  1.0342  1.6989
 2081SOL    HW217703   1.549   3.449   2.505 -0.7397  0.0210 -1.1969
 2082SOL     OW17704   3.349   1.316   8.011 -0.2740  0.1034  0.2685
 2082SOL    HW117705   3.325   1.250   8.076 -1.1711  0.9675  0.8073
 2082SOL    HW217706   3.379   1.264   7.936  1.1277  1.5932 -0.1990
 2083SOL     OW17707   3.900   4.040   7.309 -0.2457  0.2182 -0.1352
 2083SOL    HW117708   3.966   4.046   7.240  0.8622 -1.9417  0.7357
 2083SOL    HW217709   3.924   4.107   7.372 -0.5795 -0.3408  0.5877
 2084SOL     OW17710   0.078   0.664   6.995  0.6436  0.0512 -0.8823
 2084SOL    HW117711   0.065   0.724   7.068 -0.0175  0.0902 -1.0342
 2084SOL    HW217712   0.059   0.584   7.044 -1.1864  0.0848 -1.5446
 2085SOL     OW17713   0.757   2.333   8.620  0.4361  0.2848  0.7027
 2085SOL    HW117714   0.700   2.380   8.560  0.4624 -0.5926 -0.0086
 2085SOL    HW217715   0.825   2.312   8.555 -2.9136  0.6097 -2.9085
 2086SOL     OW17716   0.176   1.877   9.098  0.4908 -0.2480 -0.2608
 2086SOL    HW117717   0.152   1.787   9.074  0.4566 -0.3194  0.0405
 2086SOL    HW217718   0.180   1.868   9.193 -1.1109 -0.0269 -0.1775
 2087SOL     OW17719   0.717   2.869   3.951  0.9010 -0.0907 -0.2141
 2087SOL    HW117720   0.720   2.791   4.006  0.3688 -0.1936 -0.3255
 2087SOL    HW217721   0.756   2.937   4.007  1.0244 -1.2781  1.1452
 2088SOL     OW17722   1.347   2.444   3.820 -0.6415 -0.0340 -0.2587
 2088SOL    HW117723   1.278   2.379   3.834 -1.0993  0.1240 -1.8198
 2088SOL    HW217724   1.329   2.451   3.726  0.0505  1.2078 -0.2866
 2089SOL     OW17725   4.175   2.359   2.511 -0.1485  0.0263 -0.5284
 2089SOL    HW117726   4.109   2.294   2.536 -2.2450  1.0369 -3.3826
 2089SOL    HW217727   4.140   2.370   2.422  1.1115 -3.1841 -1.4543
 2090SOL     OW17728   3.529   0.638   8.977 -0.0631 -0.5660 -0.1416
 2090SOL    HW117729   3.510   0.731   8.965 -0.7525 -0.7691 -0.6598
 2090SOL    HW217730   3.497   0.609   8.891 -1.6177 -0.8708  0.5372
 2091SOL     OW17731   1.620   2.996  14.058  0.0628  0.3785  0.4945
 2091SOL    HW117732   1.632   3.056  13.984 -2.2361 -1.0807 -1.0773
 2091SOL    HW217733   1.530   3.013  14.089  0.2794  1.6552  0.4145
 2092SOL     OW17734   1.972   3.124   2.052  0.2924 -0.7268 -0.4899
 2092SOL    HW117735   2.029   3.200   2.058 -0.4151 -0.2831  0.7013
 2092SOL    HW217736   1.915   3.162   1.985 -3.6289 -0.6503  2.9255
 2093SOL     OW17737   0.572   0.179   3.122  0.3882  0.2128 -0.2588
 2093SOL    HW117738   0.486   0.137   3.132 -1.0964  3.9286  2.5224
 2093SOL    HW217739   0.621   0.102   3.152 -2.7620 -0.8257  2.2170
 2094SOL     OW17740   3.275   2.138   7.350 -0.1880  0.2150  0.3607
 2094SOL    HW117741   3.321   2.097   7.423 -0.3032 -0.9429 -0.2282
 2094SOL    HW217742   3.319   2.223   7.350  1.0134 -0.4085  1.4417
 2095SOL     OW17743   4.179   4.617   3.632  0.1107  0.4141 -0.5184
 2095SOL    HW117744   4.188   4.523   3.649 -0.0792  0.1354 -1.9120
 2095SOL    HW217745   4.246   4.652   3.691  0.4834  2.6544 -2.2643
 2096SOL     OW17746   3.953   4.617   8.045 -0.1940 -0.0341  0.3420
 2096SOL    HW117747   3.993   4.697   8.011 -0.3250 -1.1437 -2.4582
 2096SOL    HW217748   3.875   4.616   7.990 -1.2875  2.0916  1.8851
 2097SOL     OW17749   4.379   4.562   8.199 -0.7385  0.1534  0.1247
 2097SOL    HW117750   4.343   4.477   8.224  0.3821 -1.1275 -2.5815
 2097SOL    HW217751   4.331   4.569   8.116 -0.6435 -0.5627  0.0040
 2098SOL     OW17752   3.094   1.497   0.935  0.0002  0.0739  0.2888
 2098SOL    HW117753   3.079   1.406   0.960  1.3759  0.0770  1.0772
 2098SOL    HW217754   3.125   1.527   1.020 -1.9992  1.4166  0.5558
 2099SOL     OW17755   0.437   1.375   3.553 -0.0646 -0.1219 -0.3984
 2099SOL    HW117756   0.433   1.282   3.529  1.3206 -0.6711  1.4862
 2099SOL    HW217757   0.347   1.404   3.563  0.1452  0.0822  0.8608
 2100SOL     OW17758   0.414   1.553   5.819 -0.0117 -0.3225  0.8127
 2100SOL    HW117759   0.417   1.624   5.756  1.2441 -1.7305 -0.7194
 2100SOL    HW217760   0.415   1.606   5.899 -1.2280  2.8299 -1.2611
 2101SOL     OW17761   4.069   4.442   8.574 -0.1775  0.6426 -0.1846
 2101SOL    HW117762   4.035   4.355   8.555  0.2474  0.2794  0.7146
 2101SOL    HW217763   4.077   4.472   8.484 -1.0577 -1.5883 -0.9734
 2102SOL     OW17764   2.634   3.672  17.364  0.4035  0.2174 -0.3223
 2102SOL    HW117765   2.632   3.606  17.295 -0.6284  1.4329 -1.4436
 2102SOL    HW217766   2.539   3.676  17.375  0.4234  0.6158 -0.2765
 2103SOL     OW17767   4.609   0.725   7.603 -0.1385 -0.4109  0.6419
 2103SOL    HW117768   4.628   0.788   7.673 -0.3209  0.6485 -0.2711
 2103SOL    HW217769   4.564   0.783   7.542  1.9609  1.9974  1.3734
 2104SOL     OW17770   3.812   4.455   7.069 -0.2559  0.4485  0.3308
 2104SOL    HW117771   3.733   4.444   7.015  0.4751 -1.7994 -0.2750
 2104SOL    HW217772   3.771   4.462   7.155  0.1398 -1.6164  0.6950
 2105SOL     OW17773   1.678   2.334   3.463  0.3307  0.0024 -0.2567
 2105SOL    HW117774   1.633   2.313   3.545  1.2991  1.2833  0.6085
 2105SOL    HW217775   1.606   2.344   3.401  1.2074 -0.0372 -1.2847
 2106SOL     OW17776   4.124   0.851   7.879 -0.5942 -0.3590 -0.3854
 2106SOL    HW117777   4.133   0.770   7.829  1.3962 -1.5848  1.9587
 2106SOL    HW217778   4.057   0.901   7.831 -0.7942  0.8804  1.1931
 2107SOL     OW17779   4.157   1.019  13.746  0.0491 -0.0612 -0.1103
 2107SOL    HW117780   4.204   0.935  13.746 -0.0356 -0.1139  0.9531
 2107SOL    HW217781   4.065   0.994  13.737  0.2136 -0.1334 -1.5284
 2108SOL     OW17782   3.198   3.177   4.137 -0.1720 -0.1056  0.1429
 2108SOL    HW117783   3.240   3.109   4.085 -0.9461 -1.0036  0.6944
 2108SOL    HW217784   3.105   3.154   4.135  0.7288 -3.7017 -0.4729
 2109SOL     OW17785   3.518   0.264   5.942 -0.3026 -0.0358  0.3129
 2109SOL    HW117786   3.422   0.260   5.932 -0.1612  1.3437 -1.6705
 2109SOL    HW217787   3.529   0.264   6.037 -0.2645 -0.0420  0.3082
 2110SOL     OW17788   4.370   3.525   2.910 -0.2509 -0.0298  0.4332
 2110SOL    HW117789   4.416   3.602   2.877 -1.7994 -0.3509 -2.4710
 2110SOL    HW217790   4.336   3.570   2.988  0.9292 -0.4105  1.1669
 2111SOL     OW17791   3.901   3.616   8.077  0.1369 -0.2062 -0.6205
 2111SOL    HW117792   3.924   3.627   7.985  1.3132 -0.6190 -0.3761
 2111SOL    HW217793   3.898   3.521   8.081  1.3555 -0.1937  0.5232
 2112SOL     OW17794   1.849   4.294   2.295  0.1227  0.3002 -0.6484
 2112SOL    HW117795   1.842   4.377   2.342  1.3608  0.3502 -0.5518
 2112SOL    HW217796   1.893   4.235   2.356  1.2110  0.6055 -1.1397
 2113SOL     OW17797   4.501   3.880   6.958 -0.0488 -0.5770  0.1721
 2113SOL    HW117798   4.481   3.972   6.974  0.4837 -0.1567 -1.5581
 2113SOL    HW217799   4.527   3.851   7.045 -0.9713  0.2946  0.7271
 2114SOL     OW17800   1.149   0.418   0.093  0.0919 -0.1032 -0.2283
 2114SOL    HW117801   1.154   0.510   0.118  3.7200 -1.0843  2.6705
 2114SOL    HW217802   1.226   0.408   0.038  0.7588 -2.0867  1.0600
 2115SOL     OW17803   1.344   3.245  14.983  0.4489 -0.0360  0.3961
 2115SOL    HW117804   1.364   3.297  14.904  0.4966  0.0047  0.4349
 2115SOL    HW217805   1.379   3.291  15.059  2.8212 -0.3481 -0.5015
 2116SOL     OW17806   3.180   3.475   1.282 -0.2953  0.5290 -0.0044
 2116SOL    HW117807   3.154   3.564   1.258  0.6783  0.5388 -1.0254
 2116SOL    HW217808   3.250   3.451   1.221  0.8753  0.2522  1.4660
 2117SOL     OW17809   0.673   0.471   8.186  0.1483  0.1630  1.0405
 2117SOL    HW117810   0.746   0.520   8.225  0.9631  0.5478 -0.9815
 2117SOL    HW217811   0.678   0.392   8.239  1.3774 -1.3047 -1.2495
 2118SOL     OW17812   3.572   4.281   7.353 -0.3913  0.2730 -0.2257
 2118SOL    HW117813   3.544   4.199   7.394  2.1010 -0.1836  0.5031
 2118SOL    HW217814   3.531   4.263   7.268  2.4939 -1.0540 -1.2969
 2119SOL     OW17815   3.172   2.468   7.603  0.1648 -0.1471 -0.0424
 2119SOL    HW117816   3.077   2.460   7.591  0.0640  1.0907 -0.0788
 2119SOL    HW217817   3.202   2.438   7.518 -1.4919  0.2909 -0.7715
 2120SOL     OW17818   3.187   1.011   0.547  0.3922  0.3419  0.3921
 2120SOL    HW117819   3.153   1.096   0.575  2.1599  1.5024 -0.9677
 2120SOL    HW217820   3.166   0.960   0.625  0.1940  1.4610  1.0774
 2121SOL     OW17821   4.150   0.068   7.150 -0.1825 -0.4962  0.7772
 2121SOL    HW117822   4.202   0.129   7.202 -0.2309  0.2552 -0.0622
 2121SOL    HW217823   4.142   4.719   7.209  0.3912 -0.6347  0.6898
 2122SOL     OW17824   0.022   0.446   9.938  0.0774 -0.2615 -0.1295
 2122SOL    HW117825   4.658   0.430   9.968 -0.2981  2.1480 -0.0242
 2122SOL    HW217826   0.069   0.366   9.960  1.0082  0.1549 -0.6286
 2123SOL     OW17827   4.438   4.483   3.071 -0.3630  0.0990 -0.0328
 2123SOL    HW117828   4.451   4.459   2.979 -1.7963  0.9565 -0.4664
 2123SOL    HW217829   4.441   4.397   3.111 -0.5632 -0.0425 -0.3196
 2124SOL     OW17830   0.370   2.696  15.598  0.1289  0.7488 -0.1606
 2124SOL    HW117831   0.396   2.626  15.538 -1.8816 -0.0505 -0.1037
 2124SOL    HW217832   0.276   2.713  15.585 -0.1743 -0.8106  0.0191
 2125SOL     OW17833   2.136   2.826  11.126 -0.6483 -0.2723 -0.1227
 2125SOL    HW117834   2.107   2.831  11.217  0.0524  2.8653 -0.0713
 2125SOL    HW217835   2.202   2.895  11.120 -1.6035  0.7777  1.1676
 2126SOL     OW17836   1.642   3.767   5.640  0.4627  0.0429 -0.2136
 2126SOL    HW117837   1.679   3.795   5.723 -0.0031  1.1093 -0.3708
 2126SOL    HW217838   1.693   3.688   5.622  0.3122 -0.3011  0.8769
 2127SOL     OW17839   1.915   3.453   1.632  0.4798 -0.3657  0.1045
 2127SOL    HW117840   1.967   3.494   1.563  1.0408  0.2047  0.8602
 2127SOL    HW217841   1.848   3.409   1.580  0.9869  1.7441 -2.3068
 2128SOL     OW17842   4.161   1.309   0.197  0.0785 -0.3369 -0.1695
 2128SOL    HW117843   4.226   1.266   0.141 -0.4512 -0.7120 -0.5049
 2128SOL    HW217844   4.117   1.233   0.235 -0.3110  1.1571  2.3839
 2129SOL     OW17845   0.276   3.752   7.682 -0.5203 -0.6777 -0.2241
 2129SOL    HW117846   0.269   3.845   7.702  0.1664 -0.6572 -0.0592
 2129SOL    HW217847   0.353   3.742   7.626  0.0393 -0.1224  0.4425
 2130SOL     OW17848   0.726   2.054   3.162  0.1697  0.1151  0.3029
 2130SOL    HW117849   0.816   2.065   3.129  0.7266 -0.1613  1.7391
 2130SOL    HW217850   0.701   1.976   3.113  2.6138  0.3541 -1.3631
 2131SOL     OW17851   3.929   0.089   3.748 -0.6118  0.0344  0.0882
 2131SOL    HW117852   3.990   0.075   3.675 -0.6430  0.0664  0.0558
 2131SOL    HW217853   3.862   0.142   3.704  0.8802  1.0771 -0.9008
 2132SOL     OW17854   4.717   2.145   3.346 -0.4612  0.3372  0.0758
 2132SOL    HW117855   4.649   2.202   3.382 -0.0479  2.7013 -2.7958
 2132SOL    HW217856   4.685   2.156   3.256  2.3277 -0.9507 -1.0798
 2133SOL     OW17857   4.237   3.541   1.659  0.1672 -0.0231 -0.3776
 2133SOL    HW117858   4.159   3.523   1.711 -0.0558  1.6949 -0.1306
 2133SOL    HW217859   4.200   3.575   1.577  1.3961 -0.3457 -1.0625
 2134SOL     OW17860   2.554   0.319   5.265 -0.5071  0.3219  0.3176
 2134SOL    HW117861   2.595   0.367   5.337 -0.2263 -1.1883  1.1607
 2134SOL    HW217862   2.464   0.305   5.294 -0.5421 -0.6259 -0.2565
 2135SOL     OW17863   0.897   0.680   4.115  0.2126 -0.1697  0.9250
 2135SOL    HW117864   0.823   0.633   4.154  0.9127 -1.9381  0.1336
 2135SOL    HW217865   0.926   0.717   4.199  1.6735  0.0304  0.3191
 2136SOL     OW17866   0.027   2.131   0.642  0.2511 -0.1959 -0.4393
 2136SOL    HW117867   4.690   2.178   0.588 -0.0937 -0.6305 -0.4221
 2136SOL    HW217868   0.110   2.174   0.622  0.8365 -1.2636 -0.3332
 2137SOL     OW17869   2.174   4.292  14.351  0.2514  0.0096  0.2775
 2137SOL    HW117870   2.164   4.309  14.258 -0.8330  1.3459  0.6322
 2137SOL    HW217871   2.258   4.336  14.364  0.0476 -0.0054  1.7285
 2138SOL     OW17872   0.637   0.987   6.561  0.3887  0.3867 -0.2960
 2138SOL    HW117873   0.671   0.919   6.619 -0.9136 -0.9937 -1.1492
 2138SOL    HW217874   0.561   1.024   6.607  1.7786 -0.0651  2.3474
 2139SOL     OW17875   0.182   1.269   1.678  0.4776 -0.3295 -0.0436
 2139SOL    HW117876   0.192   1.273   1.773 -1.4478  2.2284  0.0563
 2139SOL    HW217877   0.104   1.322   1.660 -1.1898 -2.8136 -0.1632
 2140SOL     OW17878   1.728   1.864  17.355 -0.3466 -0.4475 -0.0834
 2140SOL    HW117879   1.769   1.871  17.269  1.5792  0.4088  0.8961
 2140SOL    HW217880   1.664   1.933  17.365 -0.5983 -0.9561  1.8202
 2141SOL     OW17881   2.684   1.508  12.457 -0.0436 -0.7462 -0.0051
 2141SOL    HW117882   2.707   1.560  12.381 -2.2981 -0.3830 -0.4278
 2141SOL    HW217883   2.665   1.421  12.421 -0.4218  0.2134 -2.0915
 2142SOL     OW17884   2.475   2.149   3.512 -0.3915 -0.2221 -0.2521
 2142SOL    HW117885   2.411   2.079   3.508 -1.7030  0.8477  2.3575
 2142SOL    HW217886   2.554   2.098   3.495 -0.7127 -0.4056 -1.1693
 2143SOL     OW17887   2.547   1.109   2.327 -0.7400 -0.4929  0.1166
 2143SOL    HW117888   2.527   1.022   2.363 -0.9944 -0.7042 -0.5430
 2143SOL    HW217889   2.638   1.094   2.304 -0.8764  2.9993 -2.6810
 2144SOL     OW17890   2.170   1.664   4.213 -0.3466  0.5018 -0.1849
 2144SOL    HW117891   2.248   1.700   4.253  0.1912 -0.5058 -0.3337
 2144SOL    HW217892   2.175   1.689   4.121  0.9900 -0.6190 -0.4120
 2145SOL     OW17893   0.165   4.233   1.453  0.1259  0.5728 -0.6232
 2145SOL    HW117894   0.072   4.256   1.457  0.2769  0.9825  0.5982
 2145SOL    HW217895   0.207   4.318   1.468  0.8167 -0.0373  0.8914
 2146SOL     OW17896   3.665   3.422   4.830 -0.2817  0.8176  0.3737
 2146SOL    HW117897   3.578   3.446   4.798 -0.6996  0.1709  1.0131
 2146SOL    HW217898   3.708   3.504   4.857 -1.5360  1.8669 -0.8726
 2147SOL     OW17899   1.038   1.926   1.199  0.3434 -0.4073 -0.2396
 2147SOL    HW117900   1.123   1.926   1.155 -0.0417 -0.5989 -0.9780
 2147SOL    HW217901   1.050   1.860   1.268  2.8821 -0.2455 -0.5288
 2148SOL     OW17902   0.455   0.705   8.078  0.0797 -0.4983  0.5430
 2148SOL    HW117903   0.547   0.729   8.083 -0.3471  0.9809  1.5908
 2148SOL    HW217904   0.438   0.669   8.165 -2.1372 -0.2114  0.2498
 2149SOL     OW17905   4.621   1.524   6.258 -0.1631 -0.1672  0.4302
 2149SOL    HW117906   4.637   1.516   6.352 -0.4493  2.6725  0.7253
 2149SOL    HW217907   4.713   1.530   6.231  0.1613  0.1986  1.6343
 2150SOL     OW17908   3.107   4.449   8.587 -0.4320 -0.0813 -0.9441
 2150SOL    HW117909   3.097   4.486   8.675  1.5856 -1.0196 -0.3160
 2150SOL    HW217910   3.105   4.357   8.612 -0.9914  0.7335  2.0024
 2151SOL     OW17911   2.864   3.271   5.680  0.2128 -0.8272 -0.1136
 2151SOL    HW117912   2.786   3.323   5.700 -0.5713 -1.6093 -1.1077
 2151SOL    HW217913   2.820   3.190   5.655 -0.8405  0.0672 -1.1703
 2152SOL     OW17914   1.001   3.888   1.724  0.0801  0.2604 -0.0367
 2152SOL    HW117915   1.001   3.831   1.801 -0.7572  1.9348  1.2058
 2152SOL    HW217916   1.027   3.973   1.759  2.4056  0.1210 -1.4081
 2153SOL     OW17917   1.754   0.338   1.688 -0.0588 -0.3321  0.5717
 2153SOL    HW117918   1.730   0.369   1.775 -1.2287  0.1786  0.0713
 2153SOL    HW217919   1.743   0.419   1.637 -1.8121 -0.9131  0.0312
 2154SOL     OW17920   0.141   2.993   6.091  0.5471 -0.5286  0.0726
 2154SOL    HW117921   0.200   3.057   6.052  1.2498 -1.1859  0.0699
 2154SOL    HW217922   0.188   2.957   6.166  1.2553  3.7231  1.7168
 2155SOL     OW17923   2.444   1.498  11.327  0.0758 -0.5770 -0.1905
 2155SOL    HW117924   2.454   1.423  11.268 -1.4266 -1.0809  0.1814
 2155SOL    HW217925   2.531   1.511  11.364 -0.0123  0.2913 -0.2900
 2156SOL     OW17926   3.527   1.961   1.926 -0.0023 -0.3587 -0.0106
 2156SOL    HW117927   3.479   2.003   1.997  0.8430  2.0586 -0.8563
 2156SOL    HW217928   3.538   1.874   1.965  1.3217 -0.2873 -0.2061
 2157SOL     OW17929   3.795   1.571  10.381 -0.1050 -0.1756  0.1923
 2157SOL    HW117930   3.736   1.630  10.335 -0.4166 -1.6974 -1.3827
 2157SOL    HW217931   3.746   1.541  10.459  0.3147 -0.9507  0.1632
 2158SOL     OW17932   1.186   2.358   5.520 -0.4386  0.4219 -0.5964
 2158SOL    HW117933   1.236   2.276   5.522 -1.7875 -0.4265 -0.9164
 2158SOL    HW217934   1.101   2.319   5.497  0.2921 -1.8449  0.5452
 2159SOL     OW17935   1.048   4.282   6.996  0.8169 -0.9382  0.1053
 2159SOL    HW117936   1.037   4.348   6.928  0.9673 -0.9989  0.0225
 2159SOL    HW217937   0.981   4.312   7.058  0.2584  0.4123 -1.1448
 2160SOL     OW17938   0.757   1.556  13.678 -0.3157 -0.3132  0.7812
 2160SOL    HW117939   0.700   1.566  13.755  0.1334 -1.1778  1.2280
 2160SOL    HW217940   0.708   1.578  13.598  3.0717  2.9804 -0.3560
 2161SOL     OW17941   1.680   2.350  13.934 -0.2634 -0.7377  0.0899
 2161SOL    HW117942   1.724   2.270  13.905  3.1647  0.5996  1.6150
 2161SOL    HW217943   1.699   2.410  13.862 -0.5879 -1.4507 -0.5942
 2162SOL     OW17944   3.442   0.527   7.538 -0.7379 -0.3781  0.3121
 2162SOL    HW117945   3.360   0.497   7.576 -1.7132  2.3240  0.2922
 2162SOL    HW217946   3.495   0.449   7.553  2.4703  1.6336 -0.6286
 2163SOL     OW17947   4.425   0.698   1.963 -0.2486 -0.1701  0.3584
 2163SOL    HW117948   4.439   0.618   2.015 -0.0974 -0.5006 -0.1959
 2163SOL    HW217949   4.430   0.672   1.871 -2.4915 -0.2042  0.2678
 2164SOL     OW17950   0.984   2.932   9.119  0.6027 -0.3247  0.6004
 2164SOL    HW117951   0.982   2.844   9.155 -2.0322 -0.1033  1.0204
 2164SOL    HW217952   1.002   2.911   9.028 -1.6565 -1.6399  0.4514
 2165SOL     OW17953   2.278   3.502   7.890  0.2581  0.3447  0.3509
 2165SOL    HW117954   2.264   3.554   7.812  0.2889  0.3861  0.3729
 2165SOL    HW217955   2.340   3.563   7.929  1.7263 -0.2334 -1.0895
 2166SOL     OW17956   0.943   1.431   4.199  0.2367 -0.3448  0.2280
 2166SOL    HW117957   1.030   1.397   4.177  0.5153  0.4911  0.0391
 2166SOL    HW217958   0.916   1.400   4.285  1.5882  0.3966  0.9302
 2167SOL     OW17959   3.857   3.957   4.354  0.3382  0.0035 -0.0287
 2167SOL    HW117960   3.764   3.951   4.330 -0.2968 -0.7477  2.6510
 2167SOL    HW217961   3.893   3.980   4.268  0.7126  1.3846  0.4908
 2168SOL     OW17962   2.688   4.601  10.058  0.3824  0.3018 -0.1230
 2168SOL    HW117963   2.730   4.683  10.083 -0.1846  0.1947  1.1713
 2168SOL    HW217964   2.755   4.538  10.084 -0.0274 -0.0518  0.0615
 2169SOL     OW17965   1.972   2.282  10.375 -0.1961 -0.3923 -0.5332
 2169SOL    HW117966   1.891   2.267  10.424  0.1459  0.6344  0.3523
 2169SOL    HW217967   2.009   2.193  10.383 -0.5480 -0.6177 -1.4525
 2170SOL     OW17968   4.379   4.158   4.718 -0.1264  0.5692 -0.1727
 2170SOL    HW117969   4.368   4.156   4.623  0.0973 -0.8810 -0.1793
 2170SOL    HW217970   4.410   4.070   4.741 -0.8314  0.6330  1.0200
 2171SOL     OW17971   1.326   0.632   2.678 -0.7840  0.9253 -0.2743
 2171SOL    HW117972   1.262   0.602   2.614 -0.3833 -0.0628 -0.2034
 2171SOL    HW217973   1.303   0.581   2.756 -1.5166 -0.3338 -1.3199
 2172SOL     OW17974   0.470   1.788   4.157 -0.3189  0.9051 -0.1018
 2172SOL    HW117975   0.450   1.765   4.067  0.4591  0.5037 -0.1721
 2172SOL    HW217976   0.419   1.869   4.167 -2.2738 -0.0258 -2.3738
 2173SOL     OW17977   2.677   3.390   6.188  0.1398 -0.0356  0.2484
 2173SOL    HW117978   2.764   3.362   6.158 -0.5921 -1.1341 -0.8656
 2173SOL    HW217979   2.622   3.335   6.132 -0.9949  1.2990  0.0803
 2174SOL     OW17980   4.027   2.096  16.954 -0.0585 -0.0733  0.3573
 2174SOL    HW117981   4.002   2.019  17.005  0.4621  1.0503  2.2864
 2174SOL    HW217982   4.076   2.153  17.013 -1.0498  0.1804  0.9201
 2175SOL     OW17983   1.539   3.833   3.837 -0.4991 -0.3562 -0.5100
 2175SOL    HW117984   1.529   3.905   3.901  1.5152  0.5098 -1.1921
 2175SOL    HW217985   1.575   3.769   3.898 -2.4633 -0.5089  0.5046
 2176SOL     OW17986   2.891   1.029   1.083 -0.0851  0.2916  0.4530
 2176SOL    HW117987   2.848   1.001   1.163  0.7562  0.0630  0.8259
 2176SOL    HW217988   2.923   0.945   1.053 -0.8880  0.8022 -1.8194
 2177SOL     OW17989   3.429   0.721   0.103  0.2019 -0.4015 -0.5526
 2177SOL    HW117990   3.513   0.747   0.065 -0.9700  0.9818 -2.2023
 2177SOL    HW217991   3.369   0.764   0.042  1.7447 -0.5664 -2.2192
 2178SOL     OW17992   3.841   1.330   6.017  0.5968 -0.2169 -0.1896
 2178SOL    HW117993   3.896   1.314   5.940 -2.2176  0.8667 -2.4304
 2178SOL    HW217994   3.881   1.277   6.086  0.2015 -1.0266 -0.5760
 2179SOL     OW17995   1.309   3.570  16.329 -0.2550 -0.0935  0.2465
 2179SOL    HW117996   1.303   3.604  16.240 -3.1489  0.1267  0.5047
 2179SOL    HW217997   1.358   3.490  16.310  0.5546  0.5256 -0.2472
 2180SOL     OW17998   2.667   3.373   3.221 -0.4808 -0.0716  0.0366
 2180SOL    HW117999   2.701   3.328   3.143  0.1137  1.1977 -0.4484
 2180SOL    HW218000   2.715   3.456   3.219  0.4100 -0.5879  0.0918
 2181SOL     OW18001   1.461   3.829   8.005  0.5516 -0.8001 -0.0670
 2181SOL    HW118002   1.376   3.861   8.037  0.8364 -0.5440  0.4406
 2181SOL    HW218003   1.478   3.866   7.919  0.1272 -1.4829 -0.4451
 2182SOL     OW18004   2.175   3.924   5.156  0.5896  0.1208  0.1442
 2182SOL    HW118005   2.133   3.989   5.100 -0.0366 -0.0275  0.4402
 2182SOL    HW218006   2.155   3.843   5.110 -0.2390 -0.3128  1.2728
 2183SOL     OW18007   0.373   2.532  15.811 -0.0287  0.4278 -0.1730
 2183SOL    HW118008   0.391   2.591  15.738 -0.6729 -1.7956 -2.1318
 2183SOL    HW218009   0.311   2.586  15.860 -3.0873 -0.8487 -2.6577
 2184SOL     OW18010   0.945   2.096  15.009 -0.5987 -0.4735 -0.4475
 2184SOL    HW118011   0.964   2.168  14.949 -0.7247 -0.3481 -0.3396
 2184SOL    HW218012   1.017   2.107  15.071  0.0703 -1.9425 -0.9829
 2185SOL     OW18013   4.029   3.675   5.633 -0.3599 -0.7284  0.2892
 2185SOL    HW118014   4.059   3.612   5.698  0.1148 -1.8560 -1.0396
 2185SOL    HW218015   4.113   3.708   5.601 -0.7615 -1.4502 -1.5286
 2186SOL     OW18016   1.384   1.665   0.591 -0.0250 -0.1566  0.3402
 2186SOL    HW118017   1.467   1.621   0.574  0.9604  1.2020  1.6634
 2186SOL    HW218018   1.341   1.598   0.644  1.2762 -0.7518  0.6526
 2187SOL     OW18019   0.890   4.236  15.949 -0.0666 -0.8356 -0.2726
 2187SOL    HW118020   0.956   4.230  15.880 -2.0495 -0.7514 -2.1407
 2187SOL    HW218021   0.934   4.300  16.006  1.4962 -1.4795 -0.7541
 2188SOL     OW18022   3.012   1.007  15.599  0.0572  0.2611  0.9899
 2188SOL    HW118023   2.919   0.995  15.619 -0.2467  0.7058 -0.1394
 2188SOL    HW218024   3.052   0.973  15.679  0.7302 -1.4223 -0.0764
 2189SOL     OW18025   4.047   3.811   1.782 -0.0633  0.0083  0.4784
 2189SOL    HW118026   4.101   3.814   1.861  2.1397  0.8018 -1.0784
 2189SOL    HW218027   4.109   3.764   1.727 -0.4975  1.4977 -1.2685
 2190SOL     OW18028   2.016   2.952   4.179  0.3595 -0.1078 -0.0536
 2190SOL    HW118029   1.942   2.962   4.240 -1.3222 -0.5917 -2.0291
 2190SOL    HW218030   1.989   3.004   4.103  0.9994 -1.7811 -1.4113
 2191SOL     OW18031   1.705   4.113   5.608  0.2623  0.2912 -0.6453
 2191SOL    HW118032   1.722   4.179   5.541 -0.5110  1.2628  0.1199
 2191SOL    HW218033   1.751   4.041   5.564 -0.6673 -0.4389 -0.4208
 2192SOL     OW18034   0.532   3.927   9.921 -0.1436 -0.3721 -0.4985
 2192SOL    HW118035   0.515   3.988   9.993  1.5539 -0.4115 -0.0616
 2192SOL    HW218036   0.566   3.851   9.968  1.1576  0.0455 -0.7578
 2193SOL     OW18037   2.593   1.732   2.799  0.3816  0.0320 -0.7026
 2193SOL    HW118038   2.541   1.812   2.808 -1.6607 -1.0523 -2.9637
 2193SOL    HW218039   2.682   1.768   2.800  1.0878 -1.8470  2.4232
 2194SOL     OW18040   1.907   2.964   4.905 -0.5039 -0.1190 -0.3471
 2194SOL    HW118041   1.935   2.890   4.852 -0.2858 -0.9133  0.8598
 2194SOL    HW218042   1.896   3.027   4.835  3.1783 -0.1754 -0.9562
 2195SOL     OW18043   2.404   3.010   4.197 -0.2618 -0.3209  0.1531
 2195SOL    HW118044   2.437   2.983   4.111  1.5465 -1.2775  1.1551
 2195SOL    HW218045   2.444   3.097   4.191 -1.7009  0.2690 -0.8333
 2196SOL     OW18046   1.567   0.066   8.002  0.3277  0.3741 -0.0232
 2196SOL    HW118047   1.561   0.116   7.921 -2.1347 -1.6091 -1.1021
 2196SOL    HW218048   1.628   0.001   7.968 -1.3684 -1.6894  0.8730
 2197SOL     OW18049   4.558   2.779   0.583 -0.2796  0.6011 -0.5349
 2197SOL    HW118050   4.587   2.725   0.657 -2.1700 -0.9655 -0.9507
 2197SOL    HW218051   4.467   2.755   0.569 -0.1203  0.6233 -1.5518
 2198SOL     OW18052   0.971   3.665   1.915 -0.4439 -0.0803 -0.5351
 2198SOL    HW118053   1.016   3.599   1.864  0.5047 -1.1111  1.6281
 2198SOL    HW218054   0.878   3.645   1.900 -0.8137  0.8717  0.4593
 2199SOL     OW18055   3.357   4.087   8.401  0.2859  0.0499  0.2845
 2199SOL    HW118056   3.321   4.002   8.375  0.0330  0.4723 -0.7463
 2199SOL    HW218057   3.285   4.148   8.386 -0.1376 -0.2037  1.3026
 2200SOL     OW18058   2.608   4.360   3.930 -0.2608 -0.0621  0.5877
 2200SOL    HW118059   2.660   4.400   3.999 -0.3045  1.1461 -0.0792
 2200SOL    HW218060   2.578   4.434   3.877  0.0434 -0.5752 -0.2933
 2201SOL     OW18061   2.443   0.949   6.243 -0.4090 -0.1636 -0.8103
 2201SOL    HW118062   2.468   0.910   6.160 -1.3332  2.2308 -2.2159
 2201SOL    HW218063   2.528   0.977   6.276 -0.7339 -0.5947  0.3909
 2202SOL     OW18064   2.454   3.354   6.627 -0.0676  0.4474 -0.1461
 2202SOL    HW118065   2.395   3.395   6.691  1.0208  2.4099 -0.3798
 2202SOL    HW218066   2.493   3.285   6.680 -0.4953 -1.1891 -1.9638
 2203SOL     OW18067   3.863   0.821   3.094 -0.8106  0.3163 -0.4487
 2203SOL    HW118068   3.923   0.760   3.136 -0.9340  0.2965 -0.3017
 2203SOL    HW218069   3.890   0.911   3.112  0.6930 -0.1880 -0.2615
 2204SOL     OW18070   2.851   2.727   5.676  0.0526  0.0279 -0.2204
 2204SOL    HW118071   2.842   2.783   5.753 -0.4301  0.5425 -0.6476
 2204SOL    HW218072   2.774   2.671   5.680  1.6710 -2.1412  0.3204
 2205SOL     OW18073   0.239   2.713   5.482 -0.0380  0.1306 -0.5004
 2205SOL    HW118074   0.218   2.805   5.492 -0.2147  0.1460 -0.9932
 2205SOL    HW218075   0.170   2.671   5.532 -1.2509  2.0587 -0.5638
 2206SOL     OW18076   4.348   4.321  14.181  0.6617  0.1046 -0.0243
 2206SOL    HW118077   4.305   4.395  14.224 -0.3038 -0.5091  0.0629
 2206SOL    HW218078   4.402   4.366  14.116  0.2879 -0.9855 -1.1016
 2207SOL     OW18079   0.633   4.094   8.746  0.0314  0.2373 -0.5366
 2207SOL    HW118080   0.630   4.128   8.835 -0.4303  0.3988 -0.6141
 2207SOL    HW218081   0.593   4.009   8.762  0.4400  0.3002  0.8295
 2208SOL     OW18082   0.276   1.517   9.042 -0.2351  0.5621 -0.5561
 2208SOL    HW118083   0.283   1.444   9.103 -2.5586  0.1909 -0.7519
 2208SOL    HW218084   0.181   1.527   9.050 -0.3441  0.0960 -1.3393
 2209SOL     OW18085   3.020   1.376  14.387 -0.2864  0.2004  0.8611
 2209SOL    HW118086   3.067   1.446  14.433 -1.6341  1.5292  0.2220
 2209SOL    HW218087   3.092   1.322  14.356 -0.5293  1.6121 -2.0952
 2210SOL     OW18088   0.052   3.455   4.141 -0.1778 -0.0478 -0.5086
 2210SOL    HW118089   0.050   3.513   4.217  1.6073  0.4808 -0.8446
 2210SOL    HW218090   0.029   3.367   4.171  0.9823 -0.4961 -0.9206
 2211SOL     OW18091   0.776   2.125   6.835 -0.1431  0.1703  0.3926
 2211SOL    HW118092   0.823   2.047   6.865 -0.3920 -0.2868 -0.4148
 2211SOL    HW218093   0.694   2.104   6.880 -0.1481  1.8540  1.1502
 2212SOL     OW18094   4.544   3.178   7.444 -0.1272  0.2179 -0.1613
 2212SOL    HW118095   4.560   3.084   7.451  0.4857  0.5432  3.0948
 2212SOL    HW218096   4.459   3.188   7.486 -0.0620  0.2594 -0.0387
 2213SOL     OW18097   4.029   3.656   9.367  0.4056  0.3366 -0.3982
 2213SOL    HW118098   4.028   3.732   9.309  0.4971 -0.4229 -1.4093
 2213SOL    HW218099   4.109   3.673   9.417  0.3607  0.3730 -0.3386
 2214SOL     OW18100   0.965   2.822   2.739  0.3810  0.0059 -0.0248
 2214SOL    HW118101   0.991   2.896   2.795  1.3987  1.2806 -2.1797
 2214SOL    HW218102   1.043   2.815   2.684 -0.4649 -2.7003 -0.8522
 2215SOL     OW18103   1.068   2.951   7.983 -0.3040 -0.1121 -0.3220
 2215SOL    HW118104   0.989   2.949   7.929 -0.7112  0.2331  0.2539
 2215SOL    HW218105   1.138   2.970   7.921  0.4142 -0.0543  0.5126
 2216SOL     OW18106   2.910   0.514   5.046 -0.4120  0.3826 -0.5161
 2216SOL    HW118107   2.922   0.533   4.953 -1.3766  0.6739 -0.5787
 2216SOL    HW218108   2.899   0.420   5.028 -0.3638  0.1310  0.7652
 2217SOL     OW18109   1.258   1.351   6.137 -0.3857  0.1296  0.1473
 2217SOL    HW118110   1.197   1.377   6.068  3.5775  0.8748 -3.1100
 2217SOL    HW218111   1.235   1.412   6.208 -1.8616 -0.4491  0.1692
 2218SOL     OW18112   2.037   3.928   7.580 -0.4706  0.3131 -0.3984
 2218SOL    HW118113   2.014   3.994   7.645  2.6936  1.1868 -0.1164
 2218SOL    HW218114   2.125   3.895   7.597 -0.8282 -0.6457 -0.4385
 2219SOL     OW18115   2.016   1.643   7.831 -0.7188 -0.0159  0.1804
 2219SOL    HW118116   2.093   1.680   7.874  0.0560 -1.3659 -0.0632
 2219SOL    HW218117   2.063   1.611   7.754 -2.7496  0.3289 -1.1961
 2220SOL     OW18118   1.377   0.031   7.656 -0.0186 -0.1323 -0.1236
 2220SOL    HW118119   1.339   0.118   7.662 -0.6221 -0.3240 -1.2451
 2220SOL    HW218120   1.343   4.721   7.739 -0.8150  0.0501 -0.3733
 2221SOL     OW18121   2.040   2.444   6.545  0.2406 -0.1723  0.0483
 2221SOL    HW118122   2.079   2.503   6.480 -0.9030  0.1950 -0.3061
 2221SOL    HW218123   2.104   2.457   6.616  1.4705  0.7491 -1.2369
 2222SOL     OW18124   0.557   1.695   6.398  0.0885  0.3087 -0.2598
 2222SOL    HW118125   0.463   1.675   6.396  0.1134  0.0592  1.3732
 2222SOL    HW218126   0.578   1.686   6.305  0.9506 -1.5396  0.1210
 2223SOL     OW18127   3.048   0.964  11.800  0.1803  0.2273  0.1092
 2223SOL    HW118128   3.074   0.894  11.860 -1.3245 -1.3286 -1.0424
 2223SOL    HW218129   3.009   1.017  11.870  0.7382  1.0199 -0.1758
 2224SOL     OW18130   0.546   4.171   7.483  0.0404 -0.3607  0.2480
 2224SOL    HW118131   0.544   4.177   7.578 -1.1933 -2.6431  0.3723
 2224SOL    HW218132   0.519   4.082   7.458 -0.9402  0.2417 -0.8312
 2225SOL     OW18133   3.780   1.032   5.642 -0.5899 -0.1374  0.1101
 2225SOL    HW118134   3.798   0.972   5.715  0.9190  0.7444  0.4646
 2225SOL    HW218135   3.870   1.065   5.634 -0.8662  0.3369 -0.9370
 2226SOL     OW18136   4.584   3.933   4.998 -0.4728 -0.2644 -0.6514
 2226SOL    HW118137   4.540   3.926   4.914 -1.2438  0.1394 -0.2765
 2226SOL    HW218138   4.671   3.892   5.004 -0.7619 -0.8354 -0.4036
 2227SOL     OW18139   1.941   3.862  10.298  0.1605  0.6641  0.5379
 2227SOL    HW118140   1.900   3.826  10.377 -2.0737  1.4814 -0.2522
 2227SOL    HW218141   1.964   3.949  10.330 -0.7850  0.8185  0.8070
 2228SOL     OW18142   1.890   1.898   1.376 -0.2549 -0.1315  0.3071
 2228SOL    HW118143   1.845   1.974   1.412 -1.8993  0.2229 -2.4973
 2228SOL    HW218144   1.964   1.892   1.437 -1.7081 -0.9615  1.9678
 2229SOL     OW18145   4.068   0.881   1.706 -0.0669  0.2319 -0.5499
 2229SOL    HW118146   4.090   0.788   1.698 -1.4259 -0.1577  0.4096
 2229SOL    HW218147   3.999   0.876   1.771  1.0171  4.5040  0.8756
 2230SOL     OW18148   2.350   1.251   6.506  0.4583  0.1475  0.5177
 2230SOL    HW118149   2.403   1.291   6.575 -2.5849  2.2326  1.6330
 2230SOL    HW218150   2.394   1.274   6.424 -1.0113  0.7621 -0.1067
 2231SOL     OW18151   3.024   1.230   8.554  0.3463  0.6892  0.3926
 2231SOL    HW118152   2.991   1.146   8.587  0.1259  0.9756  0.8880
 2231SOL    HW218153   2.944   1.278   8.535  1.7780  2.5082 -1.0388
 2232SOL     OW18154   3.281   4.278   5.339 -1.4204 -0.2822 -0.0434
 2232SOL    HW118155   3.281   4.224   5.419  0.2187  1.3414  1.0649
 2232SOL    HW218156   3.339   4.349   5.367  0.3680 -1.3835 -0.9395
 2233SOL     OW18157   4.249   2.526   4.963 -0.5965 -0.3365  0.4574
 2233SOL    HW118158   4.300   2.452   4.933 -0.8419 -0.3386  0.0534
 2233SOL    HW218159   4.266   2.529   5.057  3.8632 -1.5296 -0.3522
 2234SOL     OW18160   4.001   3.456  16.780  0.4928 -0.0574 -0.2397
 2234SOL    HW118161   3.946   3.379  16.766 -0.9792  1.1826 -1.3619
 2234SOL    HW218162   4.033   3.442  16.869 -1.5526  0.2957  0.5574
 2235SOL     OW18163   2.252   4.001  11.218 -0.2981  0.3269  0.7602
 2235SOL    HW118164   2.166   4.042  11.204 -0.1861  0.4475  0.4363
 2235SOL    HW218165   2.240   3.978  11.310  0.3780 -1.2375  0.4565
 2236SOL     OW18166   2.863   1.743   3.034 -0.7600 -0.2332 -0.4530
 2236SOL    HW118167   2.862   1.652   3.065  1.5598 -0.2973 -0.5973
 2236SOL    HW218168   2.784   1.780   3.073 -0.8157 -0.4531 -0.3542
 2237SOL     OW18169   4.109   1.684   1.143  0.4266  0.1478  0.0422
 2237SOL    HW118170   4.106   1.624   1.069 -0.0994  1.5792 -1.1015
 2237SOL    HW218171   4.202   1.683   1.166  0.0825  2.1149  1.5976
 2238SOL     OW18172   0.702   2.898  17.050  0.0808  0.5601  0.7120
 2238SOL    HW118173   0.667   2.978  17.011 -0.7540  0.1804  0.6784
 2238SOL    HW218174   0.795   2.902  17.026 -0.0299  0.0086  0.1844
 2239SOL     OW18175   2.302   2.443   3.660  0.0627 -0.5554  0.9555
 2239SOL    HW118176   2.365   2.372   3.675  1.7144  0.5913 -0.6093
 2239SOL    HW218177   2.279   2.476   3.747  2.8072  1.0376  1.0799
 2240SOL     OW18178   1.132   3.566   5.183  0.0155  0.2329  0.2348
 2240SOL    HW118179   1.219   3.560   5.221 -0.8255 -0.4208  2.0508
 2240SOL    HW218180   1.161   3.632   5.120 -0.8954  0.1335 -0.2887
 2241SOL     OW18181   3.541   1.611   4.904 -0.6362  0.3334  0.2131
 2241SOL    HW118182   3.537   1.533   4.958 -0.2102  1.1589  1.4479
 2241SOL    HW218183   3.530   1.571   4.817 -0.0667 -0.1128  0.3472
 2242SOL     OW18184   2.914   1.931  15.130 -0.0126  0.0628 -0.7612
 2242SOL    HW118185   2.835   1.894  15.169 -1.2319  1.3747 -1.9878
 2242SOL    HW218186   2.932   1.873  15.055  2.0986  0.2006 -0.3519
 2243SOL     OW18187   1.493   1.844  16.563 -0.1530  0.0248  0.2061
 2243SOL    HW118188   1.481   1.852  16.468  0.9271 -0.8255 -0.0069
 2243SOL    HW218189   1.514   1.751  16.569  1.7758  0.5026  0.8204
 2244SOL     OW18190   2.151   2.249  14.327 -0.1004  0.6537 -0.1052
 2244SOL    HW118191   2.166   2.191  14.402  0.0676 -0.5609 -1.0684
 2244SOL    HW218192   2.116   2.326  14.371 -0.5383  0.8864 -0.8733
 2245SOL     OW18193   3.601   2.546  13.077 -0.2432  0.3088  0.2040
 2245SOL    HW118194   3.556   2.465  13.102 -1.1005  0.5810 -0.4825
 2245SOL    HW218195   3.525   2.601  13.057 -0.7840 -1.7521 -3.2926
 2246SOL     OW18196   4.258   1.178   3.727 -0.0932  0.2308  0.1558
 2246SOL    HW118197   4.268   1.088   3.759  0.3446  0.0269 -0.5260
 2246SOL    HW218198   4.348   1.195   3.697  0.6792 -1.2677  1.6502
 2247SOL     OW18199   4.709   1.125  12.120  0.1407  0.3687  0.3708
 2247SOL    HW118200   4.668   1.189  12.062 -1.7885 -1.8596 -0.7009
 2247SOL    HW218201   0.019   1.175  12.194 -1.7319  0.0030  1.5181
 2248SOL     OW18202   0.815   0.934   7.591  0.3779 -0.0751 -0.8945
 2248SOL    HW118203   0.795   0.982   7.672  0.2815 -2.7039  0.6552
 2248SOL    HW218204   0.725   0.937   7.560 -0.1103 -2.0470  0.3277
 2249SOL     OW18205   1.562   0.359   2.565 -0.2262  0.4352 -0.0449
 2249SOL    HW118206   1.602   0.272   2.563 -1.4671 -0.1098 -1.1133
 2249SOL    HW218207   1.581   0.386   2.655  1.1372  0.8304 -0.4512
 2250SOL     OW18208   0.182   3.128   3.000 -0.7045 -0.3964  0.0264
 2250SOL    HW118209   0.274   3.137   2.977 -0.7123 -1.4664 -0.4426
 2250SOL    HW218210   0.143   3.076   2.930 -1.7028  0.8728 -0.3606
 2251SOL     OW18211   3.658   0.614  16.158  0.0527  0.5552  0.0861
 2251SOL    HW118212   3.621   0.697  16.127 -1.4130  0.0289  0.4161
 2251SOL    HW218213   3.749   0.643  16.160  0.0632  0.5799 -0.9635
 2252SOL     OW18214   0.952   3.057  15.079 -0.0231 -0.2699  0.0129
 2252SOL    HW118215   0.990   3.143  15.061  0.4425 -0.4206  0.2758
 2252SOL    HW218216   0.939   3.071  15.172  1.0962 -2.7492  0.5326
 2253SOL     OW18217   1.242   3.366   4.011 -0.3072 -0.3928  0.0432
 2253SOL    HW118218   1.337   3.353   4.009 -0.3332 -0.5322 -0.1883
 2253SOL    HW218219   1.208   3.320   4.088  2.3244 -3.0945 -0.4239
 2254SOL     OW18220   3.580   4.467  16.140  0.4581  0.4008  0.1887
 2254SOL    HW118221   3.605   4.382  16.104  1.3055  0.0842  1.5166
 2254SOL    HW218222   3.610   4.529  16.074 -2.2945  1.3963 -0.1602
 2255SOL     OW18223   1.029   4.158   2.662 -0.3525 -0.0514 -0.0988
 2255SOL    HW118224   1.008   4.079   2.712 -0.0582  0.2851  0.5605
 2255SOL    HW218225   1.039   4.217   2.737  0.2628 -0.3207  0.0278
 2256SOL     OW18226   1.431   0.905   7.747 -0.3849 -0.1516 -0.1164
 2256SOL    HW118227   1.419   0.900   7.652  3.0767 -1.7142 -0.4643
 2256SOL    HW218228   1.462   0.996   7.749 -0.5876 -0.0863  0.1467
 2257SOL     OW18229   0.205   4.504   1.510 -0.2086  0.0831  0.3126
 2257SOL    HW118230   0.278   4.566   1.509  1.0006 -1.3739 -0.2210
 2257SOL    HW218231   0.168   4.543   1.589  0.1248  0.7036  0.1650
 2258SOL     OW18232   2.920   0.742   1.460  1.0194  0.2387  0.2157
 2258SOL    HW118233   2.893   0.656   1.427 -0.8473 -0.2293  2.9347
 2258SOL    HW218234   2.891   0.742   1.552  0.9320  1.1689  0.1831
 2259SOL     OW18235   2.364   1.748   4.019  0.0595 -0.5213  0.2413
 2259SOL    HW118236   2.409   1.675   4.062  1.0865  0.3892  0.7033
 2259SOL    HW218237   2.419   1.756   3.941 -0.0777 -1.1904  0.0753
 2260SOL     OW18238   2.441   0.662   3.327  0.3301 -0.2994 -0.8414
 2260SOL    HW118239   2.402   0.650   3.414  0.4599 -1.2246 -0.9111
 2260SOL    HW218240   2.535   0.667   3.344  0.3597 -1.2364 -0.7308
 2261SOL     OW18241   4.574   3.542  11.990 -0.6441 -0.1729  0.3619
 2261SOL    HW118242   4.666   3.561  12.007 -0.1061 -2.9846  0.7359
 2261SOL    HW218243   4.556   3.596  11.913  1.6845 -1.6382 -1.2134
 2262SOL     OW18244   0.551   0.207   8.354 -0.0904  0.1055  0.4146
 2262SOL    HW118245   0.527   0.121   8.388 -0.6588  0.1868  0.2155
 2262SOL    HW218246   0.466   0.244   8.329 -0.1939  1.1703  2.3483
 2263SOL     OW18247   2.097   4.190   8.567 -0.5328  0.4307  0.4847
 2263SOL    HW118248   2.087   4.132   8.491  1.8244  0.7695 -0.0858
 2263SOL    HW218249   2.043   4.149   8.634 -0.5060  1.5178  1.1794
 2264SOL     OW18250   3.106   1.316   3.093  0.4658  0.1862 -0.1134
 2264SOL    HW118251   3.015   1.304   3.065  0.3293 -0.5951  0.6407
 2264SOL    HW218252   3.139   1.385   3.036 -0.7464  0.2285 -0.7758
 2265SOL     OW18253   1.865   0.426   6.590 -0.5569  0.4436 -0.1622
 2265SOL    HW118254   1.816   0.346   6.569  2.9389 -1.7861  0.1303
 2265SOL    HW218255   1.927   0.381   6.648  1.4619  1.1122 -1.8096
 2266SOL     OW18256   4.595   1.576   1.018  0.3842 -0.2217 -0.6974
 2266SOL    HW118257   4.678   1.558   1.063 -0.0713  0.6971  0.4990
 2266SOL    HW218258   4.628   1.611   0.934 -0.4802  0.3348 -0.8086
 2267SOL     OW18259   4.108   2.283  10.544 -0.0996 -0.4867 -0.3266
 2267SOL    HW118260   4.041   2.317  10.604 -2.4867 -2.3054 -1.9358
 2267SOL    HW218261   4.188   2.323  10.578  0.0382 -0.4484 -0.6923
 2268SOL     OW18262   2.192   3.540   8.187 -0.0665  0.5972  0.5006
 2268SOL    HW118263   2.228   3.502   8.267  0.5150  1.2789  0.5619
 2268SOL    HW218264   2.244   3.504   8.115 -1.0378 -1.1947  0.7062
 2269SOL     OW18265   0.239   3.515   7.169  0.0348  0.0229  0.0043
 2269SOL    HW118266   0.309   3.577   7.189  0.8873 -0.8083 -0.3739
 2269SOL    HW218267   0.266   3.487   7.081 -0.8122 -0.8923  0.0342
 2270SOL     OW18268   4.723   4.431   4.382 -0.4997 -0.3027 -0.0929
 2270SOL    HW118269   0.086   4.431   4.346 -0.7490  0.1353 -0.6940
 2270SOL    HW218270   4.716   4.340   4.409 -0.3361 -0.0167  0.9462
 2271SOL     OW18271   3.131   4.505  15.247 -0.1424  0.0078  0.0649
 2271SOL    HW118272   3.110   4.483  15.338  1.2783  0.3149  0.4708
 2271SOL    HW218273   3.191   4.577  15.265 -0.0867  0.3799 -1.6023
 2272SOL     OW18274   1.255   0.178   2.747 -0.1096  0.3916  0.3561
 2272SOL    HW118275   1.347   0.177   2.772 -0.0531  0.3503  0.1458
 2272SOL    HW218276   1.205   0.199   2.826 -2.5593  1.3673 -1.4332
 2273SOL     OW18277   0.574   3.101  16.932  0.0549 -0.5976 -0.5331
 2273SOL    HW118278   0.500   3.145  16.890 -1.8127 -3.4619 -0.2622
 2273SOL    HW218279   0.648   3.158  16.912 -0.7880  0.4101 -0.8002
 2274SOL     OW18280   0.693   1.336   9.069  0.1127 -0.1920  0.0131
 2274SOL    HW118281   0.707   1.245   9.096 -2.5775 -0.2113  1.3641
 2274SOL    HW218282   0.646   1.366   9.147  2.1846  0.0982  1.1296
 2275SOL     OW18283   2.375   1.590  14.634  0.0320 -0.3572  0.3705
 2275SOL    HW118284   2.329   1.506  14.642  0.1206 -0.2778  1.7147
 2275SOL    HW218285   2.467   1.565  14.626  0.1075 -0.8126  2.6594
 2276SOL     OW18286   3.866   4.267   6.561 -0.4877  0.0143  0.0284
 2276SOL    HW118287   3.874   4.183   6.516  1.7180  0.4474 -0.3838
 2276SOL    HW218288   3.959   4.280   6.580 -0.4617  0.8703 -0.6706
 2277SOL     OW18289   3.484   4.679  16.724 -0.3768 -0.1347 -0.6989
 2277SOL    HW118290   3.574   4.711  16.717 -0.1724 -0.6449 -0.4029
 2277SOL    HW218291   3.433   0.031  16.746  0.7327  0.8612 -1.6290
 2278SOL     OW18292   2.687   2.253   5.044 -0.2736  0.1164  0.0602
 2278SOL    HW118293   2.706   2.321   5.109 -0.2606 -0.6573  0.8632
 2278SOL    HW218294   2.735   2.189   5.096  1.0657  0.8223 -0.3170
 2279SOL     OW18295   2.343   2.183   6.099  0.0267 -0.4424  0.4312
 2279SOL    HW118296   2.384   2.184   6.185 -0.3979  1.1214  0.6020
 2279SOL    HW218297   2.253   2.160   6.123 -0.0508 -0.8598 -0.2538
 2280SOL     OW18298   0.203   0.086   0.858  0.5493 -0.4853 -0.1993
 2280SOL    HW118299   0.129   0.077   0.918 -0.3339 -0.1480 -1.2509
 2280SOL    HW218300   0.263   0.127   0.921  1.0185 -0.9033 -0.3786
 2281SOL     OW18301   4.317   0.397   5.766  0.1772  0.6411  0.6798
 2281SOL    HW118302   4.261   0.341   5.713  0.6170 -0.5480  1.4598
 2281SOL    HW218303   4.380   0.326   5.781  0.2669  0.4960 -0.3830
 2282SOL     OW18304   4.343   2.525   8.761  0.3960  0.3010 -0.0985
 2282SOL    HW118305   4.393   2.449   8.732 -1.5797 -1.1227  0.2349
 2282SOL    HW218306   4.388   2.595   8.713 -0.4307  0.6416 -0.3860
 2283SOL     OW18307   4.678   0.563   2.603 -0.1319  0.6304 -0.2023
 2283SOL    HW118308   4.650   0.654   2.613 -1.2495  0.3540 -0.7704
 2283SOL    HW218309   0.032   0.563   2.655 -0.0562 -0.0445 -0.3130
 2284SOL     OW18310   3.252   1.331   3.852  0.2256  0.1682 -0.1449
 2284SOL    HW118311   3.214   1.372   3.774 -2.5629 -1.5215  0.3132
 2284SOL    HW218312   3.346   1.342   3.842  0.4777 -0.8568  1.1071
 2285SOL     OW18313   2.287   1.290  15.593 -0.7419 -0.0821  0.0650
 2285SOL    HW118314   2.379   1.301  15.571 -0.5529 -3.8790 -0.9850
 2285SOL    HW218315   2.238   1.281  15.511 -1.1325 -0.7692  0.3747
 2286SOL     OW18316   1.248   1.145   2.417 -0.5098  0.4917 -0.0026
 2286SOL    HW118317   1.316   1.110   2.475  0.9910  0.6148 -1.6878
 2286SOL    HW218318   1.263   1.240   2.416  2.3795  0.0039 -1.6440
 2287SOL     OW18319   2.936   1.427   5.258 -0.1795  0.2290  0.0284
 2287SOL    HW118320   2.991   1.467   5.326 -0.9424  1.3573 -0.0229
 2287SOL    HW218321   2.845   1.446   5.279  0.3822  1.3892  1.4720
 2288SOL     OW18322   4.223   0.124   9.483 -0.3665 -0.3042  0.0839
 2288SOL    HW118323   4.157   0.193   9.485  0.0049  0.0757 -1.1653
 2288SOL    HW218324   4.245   0.108   9.392  1.1664  0.0654  0.3930
 2289SOL     OW18325   2.779   2.926   8.701 -0.6143  0.0590 -0.0181
 2289SOL    HW118326   2.823   2.868   8.638 -0.7940  0.4239 -0.4831
 2289SOL    HW218327   2.812   3.012   8.675  2.2445 -0.8839  0.5737
 2290SOL     OW18328   0.827   1.635   8.233 -0.0203 -0.5068  0.0731
 2290SOL    HW118329   0.820   1.540   8.239  1.3586 -0.4740  2.1727
 2290SOL    HW218330   0.763   1.666   8.297  1.1700  1.7124  0.1947
 2291SOL     OW18331   3.899   2.048   3.868  0.1783  0.0152 -0.1597
 2291SOL    HW118332   3.909   2.030   3.962  0.4831 -0.0387 -0.2015
 2291SOL    HW218333   3.964   2.116   3.848  0.3867 -0.5235 -1.3030
 2292SOL     OW18334   2.949   3.911   9.667 -0.2095 -0.3811  0.0947
 2292SOL    HW118335   3.036   3.935   9.699 -0.0298 -0.2373 -0.4990
 2292SOL    HW218336   2.922   3.856   9.741  1.3878  0.0307  0.9774
 2293SOL     OW18337   3.196   1.777   1.748 -0.8576 -0.0092  0.0267
 2293SOL    HW118338   3.144   1.858   1.753 -0.1850  0.4931 -1.0027
 2293SOL    HW218339   3.264   1.806   1.687 -2.0858  0.3844 -1.1931
 2294SOL     OW18340   0.572   1.265   5.273 -0.1952 -0.1641 -0.0201
 2294SOL    HW118341   0.546   1.312   5.194  1.3533  0.9147  0.1202
 2294SOL    HW218342   0.598   1.185   5.227  0.7979  0.0578  0.1557
 2295SOL     OW18343   3.874   4.306   4.675 -0.1059  0.3586 -0.4681
 2295SOL    HW118344   3.960   4.294   4.635  0.8308 -0.8767  1.9183
 2295SOL    HW218345   3.827   4.223   4.666  0.5782 -0.3530  2.5421
 2296SOL     OW18346   1.732   2.229  12.910 -0.0864 -0.0157  0.4708
 2296SOL    HW118347   1.734   2.312  12.862  0.8647  0.3115  1.0609
 2296SOL    HW218348   1.736   2.162  12.843 -0.9442 -2.4832  2.8908
 2297SOL     OW18349   3.807   0.732   1.718 -0.3975  0.6134 -0.1298
 2297SOL    HW118350   3.821   0.641   1.743 -0.7801 -0.3781 -3.5525
 2297SOL    HW218351   3.827   0.739   1.625  0.0558 -1.9626 -0.2266
 2298SOL     OW18352   2.524   0.414   7.841 -0.3253 -0.1897 -0.4444
 2298SOL    HW118353   2.557   0.433   7.929 -2.3212 -1.3407  0.5744
 2298SOL    HW218354   2.593   0.426   7.776 -0.0450 -1.0949 -0.3211
 2299SOL     OW18355   3.709   2.517   5.739 -0.0403 -0.3771 -0.1214
 2299SOL    HW118356   3.742   2.569   5.812 -1.9161 -0.9759  1.1433
 2299SOL    HW218357   3.735   2.560   5.657 -0.5658  0.2737  0.0470
 2300SOL     OW18358   1.827   3.525   5.888  0.0514 -0.0582 -0.4706
 2300SOL    HW118359   1.796   3.612   5.864  0.6347  0.0922 -0.6872
 2300SOL    HW218360   1.796   3.471   5.816  1.7427  0.7955 -1.8321
 2301SOL     OW18361   1.131   1.854  11.190  0.1990 -0.1326 -0.2857
 2301SOL    HW118362   1.223   1.876  11.206  1.1603 -3.1886 -1.7794
 2301SOL    HW218363   1.139   1.764  11.159 -0.6111  0.3967 -2.0191
 2302SOL     OW18364   3.639   2.921   8.132 -0.1585 -0.1279  0.1765
 2302SOL    HW118365   3.629   2.839   8.084 -2.4972  0.6806 -0.6850
 2302SOL    HW218366   3.688   2.887   8.207 -1.4355 -0.3365  0.9193
 2303SOL     OW18367   4.053   0.748   6.537  0.0858  0.2637  0.0480
 2303SOL    HW118368   4.079   0.820   6.480 -1.3874  0.5171 -0.3123
 2303SOL    HW218369   3.991   0.700   6.482 -1.1149 -0.4099  1.9685
 2304SOL     OW18370   2.309   3.834   8.523 -0.4863 -0.6254  0.3009
 2304SOL    HW118371   2.355   3.918   8.529 -1.0415 -0.2366 -0.9495
 2304SOL    HW218372   2.227   3.851   8.476  0.2830  0.1484 -0.7543
 2305SOL     OW18373   3.361   4.448   8.480 -0.2591  0.0107 -0.1155
 2305SOL    HW118374   3.268   4.455   8.501 -0.5563 -0.5360 -1.2712
 2305SOL    HW218375   3.413   4.412   8.552 -1.0994 -0.0478  0.4552
 2306SOL     OW18376   3.016   2.944  14.593  0.1452  0.3078 -0.4155
 2306SOL    HW118377   2.974   3.018  14.549 -1.8150  0.0129  0.9848
 2306SOL    HW218378   3.086   2.928  14.529  0.5842  0.8161 -0.0564
 2307SOL     OW18379   2.644   1.611  13.303  0.7093  0.1860 -0.6100
 2307SOL    HW118380   2.570   1.649  13.255 -0.4967  0.3461  1.3345
 2307SOL    HW218381   2.691   1.691  13.326  0.6147  0.6765 -2.1074
 2308SOL     OW18382   0.317   2.299   3.703  0.3380 -0.6388  0.6436
 2308SOL    HW118383   0.228   2.304   3.737 -0.0304 -2.6908 -0.0475
 2308SOL    HW218384   0.371   2.337   3.773  0.7168 -3.5834  1.9122
 2309SOL     OW18385   0.755   2.041  15.954 -0.2350  0.4196  0.6201
 2309SOL    HW118386   0.684   2.104  15.969  1.5289  1.8944  2.6880
 2309SOL    HW218387   0.759   1.999  16.040  0.0492  0.1142  0.4563
 2310SOL     OW18388   3.668   3.672   5.358 -0.0404  0.5601 -0.0913
 2310SOL    HW118389   3.583   3.631   5.371 -0.7769  1.8065 -1.0015
 2310SOL    HW218390   3.709   3.639   5.438 -1.3042 -1.5998 -0.3443
 2311SOL     OW18391   1.449   3.196  12.041  0.1318 -0.2970  0.2961
 2311SOL    HW118392   1.392   3.217  12.115 -0.0782 -0.3624  0.1530
 2311SOL    HW218393   1.457   3.101  12.040  1.2688 -0.1879 -4.3907
 2312SOL     OW18394   4.002   2.318   4.520  0.2263 -0.1603  0.2285
 2312SOL    HW118395   3.951   2.258   4.575  0.7717 -0.5490  0.3237
 2312SOL    HW218396   4.022   2.391   4.578 -0.2408 -0.2908  0.5484
 2313SOL     OW18397   4.077   4.490   5.816 -0.3614  0.2829 -0.3842
 2313SOL    HW118398   4.014   4.420   5.832 -0.4144  0.8255  1.7765
 2313SOL    HW218399   4.050   4.558   5.877 -0.3392  1.1478 -1.3381
 2314SOL     OW18400   1.644   0.736  14.971 -0.5688 -0.2137  0.0075
 2314SOL    HW118401   1.728   0.761  14.933 -0.6996 -0.5802 -0.5213
 2314SOL    HW218402   1.677   0.670  15.033 -1.8858 -1.3563 -0.4937
 2315SOL     OW18403   4.417   4.216   4.470 -0.1625  0.2065 -0.4222
 2315SOL    HW118404   4.450   4.155   4.404 -1.6203 -1.8419  0.7480
 2315SOL    HW218405   4.322   4.207   4.459 -0.4175 -0.2415  2.2337
 2316SOL     OW18406   1.142   3.697  10.831  0.1078  0.1246  0.0090
 2316SOL    HW118407   1.133   3.677  10.925  3.0598 -0.4364  0.1687
 2316SOL    HW218408   1.058   3.671  10.794  0.2106  0.6554 -0.6014
 2317SOL     OW18409   0.547   3.470  11.838  0.2246  0.5798 -0.1701
 2317SOL    HW118410   0.589   3.556  11.831  0.8666  0.5501  3.3282
 2317SOL    HW218411   0.601   3.427  11.905 -0.1189 -1.8734 -1.4905
 2318SOL     OW18412   3.652   1.478   6.147  0.4655  0.7113 -0.4338
 2318SOL    HW118413   3.646   1.534   6.069  0.9981 -0.8500 -1.6175
 2318SOL    HW218414   3.716   1.413   6.117  0.5864  0.0764  1.1954
 2319SOL     OW18415   2.722   1.324   4.894  0.2620  0.0507 -0.2676
 2319SOL    HW118416   2.772   1.387   4.945 -0.9935  1.2959 -0.5697
 2319SOL    HW218417   2.711   1.249   4.952 -0.7252  0.6222  0.2881
 2320SOL     OW18418   4.709   1.047  16.042  0.4448  0.4632 -0.1639
 2320SOL    HW118419   0.066   1.036  15.995 -0.5371  1.7956 -2.2384
 2320SOL    HW218420   4.655   1.100  15.984  0.8304 -0.0120 -0.9575
 2321SOL     OW18421   3.159   3.226   4.425  0.1872 -0.3062  0.2703
 2321SOL    HW118422   3.137   3.265   4.340  0.6753 -1.5832 -0.4463
 2321SOL    HW218423   3.094   3.157   4.413 -1.2828  1.2800 -0.8848
 2322SOL     OW18424   4.536   0.826   6.726 -0.4023 -0.5618  0.2725
 2322SOL    HW118425   4.623   0.852   6.754 -0.1249 -0.1508 -1.0105
 2322SOL    HW218426   4.552   0.748   6.674 -1.3836 -0.0362 -0.8245
 2323SOL     OW18427   2.769   1.016   2.827  0.1449  0.0553  0.6602
 2323SOL    HW118428   2.766   0.985   2.918  0.4690 -0.5450  0.4639
 2323SOL    HW218429   2.783   0.932   2.783 -1.3659  1.4350 -2.4024
 2324SOL     OW18430   3.182   1.508  15.484 -0.0700 -0.1311 -0.4140
 2324SOL    HW118431   3.105   1.535  15.535  0.4041  3.5870 -1.7099
 2324SOL    HW218432   3.194   1.418  15.516  4.2188  1.0684  1.2252
 2325SOL     OW18433   4.321   2.974   2.282 -0.0776  0.1676  0.4281
 2325SOL    HW118434   4.375   2.918   2.226  1.1602  2.3130 -0.5462
 2325SOL    HW218435   4.273   2.903   2.324 -2.4782  1.8391  0.5163
 2326SOL     OW18436   4.689   4.672   2.753 -0.8185  0.1335  0.6399
 2326SOL    HW118437   4.680   0.006   2.678  2.8503 -2.5724 -2.0014
 2326SOL    HW218438   4.703   4.587   2.711 -1.5810  0.2937  0.0509
 2327SOL     OW18439   3.713   2.919   0.787  0.4412 -0.6659  0.0206
 2327SOL    HW118440   3.737   3.011   0.785  0.0168 -0.5764 -0.8886
 2327SOL    HW218441   3.792   2.878   0.823 -0.4694 -3.7866 -1.5219
 2328SOL     OW18442   3.163   2.199  15.403  0.3054 -0.7733  0.0602
 2328SOL    HW118443   3.229   2.240  15.459  0.3278 -3.5244  2.0114
 2328SOL    HW218444   3.171   2.107  15.427 -0.3021 -1.3682 -2.0282
 2329SOL     OW18445   3.952   4.559   4.160 -0.0417  0.5684  0.2315
 2329SOL    HW118446   3.938   4.577   4.067  1.2913  2.3324  0.3873
 2329SOL    HW218447   3.874   4.604   4.194  0.5318  0.2025  2.0519
 2330SOL     OW18448   1.358   4.277   0.060  0.1766 -0.2671 -0.1188
 2330SOL    HW118449   1.342   4.338   0.131 -0.0769  0.4862 -0.8328
 2330SOL    HW218450   1.267   4.252   0.043 -0.8622  1.4090  3.0842
 2331SOL     OW18451   1.072   0.514   7.175 -0.4327  0.2626  0.1510
 2331SOL    HW118452   1.076   0.501   7.080  0.2109  1.4545  0.0081
 2331SOL    HW218453   0.981   0.490   7.189 -0.7969  3.2152  2.7232
 2332SOL     OW18454   2.692   4.068   3.300  0.5388 -0.5350  0.0559
 2332SOL    HW118455   2.765   4.123   3.329  0.9662 -0.8394 -0.4446
 2332SOL    HW218456   2.693   3.998   3.365  0.0909 -1.5650 -1.0461
 2333SOL     OW18457   4.618   2.204   6.045 -0.0769 -0.0812  0.3569
 2333SOL    HW118458   4.690   2.164   5.996 -1.1756 -0.7357 -0.7351
 2333SOL    HW218459   4.623   2.160   6.130  0.5881 -0.0630  0.3200
 2334SOL     OW18460   4.176   1.369   7.966 -0.4148 -0.4290  0.1176
 2334SOL    HW118461   4.093   1.356   7.921 -0.2809  1.9609 -0.8224
 2334SOL    HW218462   4.209   1.442   7.913  0.3257 -1.2900 -0.6229
 2335SOL     OW18463   1.831   4.545   2.396 -0.5308  0.4885 -0.4435
 2335SOL    HW118464   1.836   4.635   2.363  0.9474  1.3407  2.0643
 2335SOL    HW218465   1.805   4.560   2.487 -1.0622 -1.1005 -0.3303
 2336SOL     OW18466   0.459   0.298  13.740  1.2774 -0.6046  0.2795
 2336SOL    HW118467   0.412   0.311  13.657  0.2221  0.8680  1.1008
 2336SOL    HW218468   0.470   0.203  13.735  0.5065 -0.6973  0.3280
 2337SOL     OW18469   1.505   4.388   1.534 -0.2846 -0.1476  0.7475
 2337SOL    HW118470   1.507   4.431   1.620 -0.1103 -1.0584  1.1926
 2337SOL    HW218471   1.555   4.452   1.483  0.1095 -0.7611  0.3603
 2338SOL     OW18472   3.663   0.098   4.533  0.3829 -0.5189  0.2104
 2338SOL    HW118473   3.680   0.192   4.527 -1.2841 -0.2283  0.1581
 2338SOL    HW218474   3.655   0.084   4.627 -0.1381 -0.9167  0.1043
 2339SOL     OW18475   4.277   1.133   2.769 -0.0044  0.3362  0.2161
 2339SOL    HW118476   4.192   1.177   2.761  0.4996  1.4231  0.7389
 2339SOL    HW218477   4.323   1.174   2.696 -0.8108  3.5543  1.4839
 2340SOL     OW18478   0.875   1.916   6.220  0.1484  0.0168 -0.3494
 2340SOL    HW118479   0.870   1.824   6.196  0.2854 -0.1456  0.2457
 2340SOL    HW218480   0.794   1.924   6.271  0.4042 -0.2237  0.0967
 2341SOL     OW18481   2.955   0.020   5.779 -0.0408  0.3682  0.3365
 2341SOL    HW118482   2.879   0.060   5.737 -0.2211 -1.1456 -0.7913
 2341SOL    HW218483   2.946   4.655   5.748 -1.3935  1.4643 -2.4745
 2342SOL     OW18484   0.371   0.504   3.599  0.0432 -0.2504 -0.8299
 2342SOL    HW118485   0.320   0.477   3.676 -0.3549  0.8427 -0.6969
 2342SOL    HW218486   0.327   0.579   3.557 -3.5403 -2.1122 -0.4482
 2343SOL     OW18487   0.646   0.310   6.863  0.9043 -0.5006 -0.5843
 2343SOL    HW118488   0.659   0.259   6.943 -2.2818  0.3997  0.5256
 2343SOL    HW218489   0.719   0.274   6.813  1.3551 -1.4681  0.7687
 2344SOL     OW18490   4.033   2.838   2.020 -0.6171  0.4213 -0.2077
 2344SOL    HW118491   4.045   2.803   1.932 -2.1566  3.0291 -1.4600
 2344SOL    HW218492   4.082   2.920   2.033 -1.2648  1.1200 -2.1658
 2345SOL     OW18493   1.459   1.884   3.697  0.0091  0.1718  0.1391
 2345SOL    HW118494   1.503   1.876   3.781 -0.0558  0.3097  0.1870
 2345SOL    HW218495   1.520   1.848   3.633 -0.4965  1.5682 -1.1386
 2346SOL     OW18496   3.364   3.601   1.090  0.3152  0.2929 -0.8356
 2346SOL    HW118497   3.325   3.659   1.155  0.1191  1.3130 -1.8629
 2346SOL    HW218498   3.450   3.580   1.127 -0.1446 -0.3127 -0.0943
 2347SOL     OW18499   3.136   4.086  17.430  0.0458  0.3456 -0.0065
 2347SOL    HW118500   3.193   4.129  17.368  0.9708  0.0520  0.6425
 2347SOL    HW218501   3.059   4.143  17.433 -0.4003 -0.2799  0.4449
 2348SOL     OW18502   0.839   0.477   2.864 -0.0003 -0.0098 -0.1586
 2348SOL    HW118503   0.918   0.528   2.848  0.6425 -1.7053 -2.4814
 2348SOL    HW218504   0.850   0.460   2.957 -0.0902 -0.6441 -0.2623
 2349SOL     OW18505   3.570   3.857   5.617  0.0214 -0.5232  0.4987
 2349SOL    HW118506   3.601   3.806   5.692  1.3503 -0.4592 -0.0136
 2349SOL    HW218507   3.635   3.837   5.551 -0.7389  1.6978 -0.9081
 2350SOL     OW18508   2.314   0.422   3.323 -0.7948  0.2660 -0.0228
 2350SOL    HW118509   2.314   0.392   3.232  0.7666  0.3714 -0.0587
 2350SOL    HW218510   2.363   0.500   3.298  0.4051 -0.4257  0.1643
 2351SOL     OW18511   3.906   2.348  10.759  0.0435  0.3323 -0.0232
 2351SOL    HW118512   3.966   2.422  10.767  1.8352 -0.9718 -1.3037
 2351SOL    HW218513   3.939   2.290  10.827 -2.7352 -1.6016 -0.3268
 2352SOL     OW18514   1.010   3.893   3.374  0.1921 -0.1836  0.4329
 2352SOL    HW118515   1.019   3.927   3.463 -0.7009  0.2653  0.3539
 2352SOL    HW218516   1.037   3.802   3.391  0.6459 -0.1022  0.1462
 2353SOL     OW18517   4.619   3.568   8.060 -0.0404  0.1832  0.4189
 2353SOL    HW118518   4.654   3.638   8.114  0.3535 -1.0389  1.7626
 2353SOL    HW218519   4.557   3.611   8.002 -1.2113 -0.3301  1.3099
 2354SOL     OW18520   2.901   3.013   1.708 -0.7168  0.5322 -0.1794
 2354SOL    HW118521   2.944   3.049   1.785 -0.7903 -0.1254  0.1621
 2354SOL    HW218522   2.981   2.991   1.661  0.1546  0.7260  1.2284
 2355SOL     OW18523   3.234   4.351  10.448  0.3837  0.1611  0.1217
 2355SOL    HW118524   3.166   4.290  10.474 -0.2018  0.6325 -0.2866
 2355SOL    HW218525   3.297   4.339  10.519  0.8155 -1.5829 -0.5782
 2356SOL     OW18526   2.971   0.401   7.514 -0.0788  0.2575  0.0369
 2356SOL    HW118527   2.973   0.318   7.467 -2.0026  0.5940 -0.6073
 2356SOL    HW218528   3.058   0.405   7.556 -0.5870  0.8642  1.0463
 2357SOL     OW18529   4.077   1.138   5.030  0.1986  0.7643  0.2423
 2357SOL    HW118530   4.054   1.226   5.000  0.7780  0.7278 -0.3136
 2357SOL    HW218531   3.993   1.093   5.029  0.1383  0.8803 -0.1496
 2358SOL     OW18532   0.735   4.586   4.306  0.7029 -0.3293 -0.7329
 2358SOL    HW118533   0.756   4.636   4.227  1.9846 -1.3953 -1.0669
 2358SOL    HW218534   0.821   4.547   4.319  0.2619 -0.6267  1.2912
 2359SOL     OW18535   2.232   1.834   6.958 -0.3896 -0.4262 -0.0788
 2359SOL    HW118536   2.231   1.766   6.890 -1.1547 -0.0864 -0.4156
 2359SOL    HW218537   2.216   1.914   6.908 -2.4913  0.2348  1.6635
 2360SOL     OW18538   1.991   2.164   2.647  0.1443 -0.1390 -0.0236
 2360SOL    HW118539   1.899   2.147   2.663  0.4456 -2.0755 -0.2921
 2360SOL    HW218540   2.017   2.158   2.739  0.0059 -2.0206 -0.1028
 2361SOL     OW18541   2.983   2.154   7.698 -0.7297  0.0396  0.2072
 2361SOL    HW118542   3.075   2.156   7.670 -0.6307  0.4844  0.5561
 2361SOL    HW218543   2.942   2.113   7.622 -0.4340  2.5579 -1.3198
 2362SOL     OW18544   3.381   4.473   0.436  0.4595 -0.4697  0.2099
 2362SOL    HW118545   3.386   4.448   0.529  0.6571 -0.0189  0.3221
 2362SOL    HW218546   3.377   4.388   0.392  0.2040  0.2591 -1.1645
 2363SOL     OW18547   4.115   0.582   6.057 -0.4040 -0.3641 -0.4658
 2363SOL    HW118548   4.067   0.647   6.109 -0.1191 -0.3538 -0.2160
 2363SOL    HW218549   4.047   0.519   6.037 -1.5565  1.3759 -2.0956
 2364SOL     OW18550   2.748   0.695   5.223  0.1223  0.5375  0.2225
 2364SOL    HW118551   2.801   0.637   5.167 -2.3612 -1.1713 -0.3253
 2364SOL    HW218552   2.667   0.706   5.174  1.4247  0.7045 -1.9108
 2365SOL     OW18553   2.700   4.316   0.371  0.0231  0.2486 -0.2953
 2365SOL    HW118554   2.689   4.386   0.307 -0.9115  0.5982  0.2446
 2365SOL    HW218555   2.634   4.344   0.434  0.3771 -0.7092  0.5046
 2366SOL     OW18556   4.572   3.069   0.560 -0.1124  0.1039 -0.3039
 2366SOL    HW118557   4.549   2.980   0.586 -0.8274  1.6034  4.2274
 2366SOL    HW218558   4.529   3.069   0.474 -1.6470 -1.2428  0.4726
 2367SOL     OW18559   0.674   4.448   5.072 -0.5418  0.3625  0.4520
 2367SOL    HW118560   0.638   4.366   5.037  0.8205  0.8586 -2.1371
 2367SOL    HW218561   0.590   4.480   5.104 -1.1367 -0.5716 -0.1347
 2368SOL     OW18562   3.375   0.128  15.568  0.4695  0.5949 -0.1875
 2368SOL    HW118563   3.462   0.099  15.596 -0.2310 -2.4857 -1.1912
 2368SOL    HW218564   3.353   0.064  15.501 -0.8106  2.5167 -1.5957
 2369SOL     OW18565   2.156   4.093   5.726 -0.4256  0.1138 -0.0794
 2369SOL    HW118566   2.165   4.188   5.719  2.9724 -0.2798 -0.9593
 2369SOL    HW218567   2.217   4.087   5.800 -1.4709  2.5817  0.9601
 2370SOL     OW18568   0.166   0.240  12.230 -0.1091 -0.7175  0.3163
 2370SOL    HW118569   0.173   0.178  12.303 -0.2409 -1.2042 -0.0817
 2370SOL    HW218570   0.204   0.194  12.155  0.1950 -0.8535  0.5531
 2371SOL     OW18571   0.371   3.218   8.864 -0.2164  0.0228 -0.1803
 2371SOL    HW118572   0.435   3.176   8.922  0.7609 -0.6241 -1.7327
 2371SOL    HW218573   0.329   3.137   8.836  0.2743 -0.3154  0.0647
 2372SOL     OW18574   1.753   3.714   6.234  0.1174 -0.5868  0.1827
 2372SOL    HW118575   1.788   3.699   6.321 -1.8978 -0.7243  0.9720
 2372SOL    HW218576   1.663   3.739   6.253  0.4674  0.8523 -0.1035
 2373SOL     OW18577   0.435   4.071   7.020  0.1927  0.1358 -0.1258
 2373SOL    HW118578   0.402   4.160   7.010  1.9687  0.8152 -0.0033
 2373SOL    HW218579   0.512   4.084   7.077  0.1752  1.9376 -0.5137
 2374SOL     OW18580   3.214   0.172   7.282 -0.0773  0.4518  0.0681
 2374SOL    HW118581   3.297   0.157   7.236 -0.3039 -0.8824  0.0879
 2374SOL    HW218582   3.142   0.158   7.220  1.6207 -0.4236 -1.7116
 2375SOL     OW18583   4.163   2.596   2.659 -0.4773  0.0819 -0.5276
 2375SOL    HW118584   4.238   2.654   2.649 -0.1309 -0.2160  0.3542
 2375SOL    HW218585   4.184   2.517   2.608  0.6786  0.5103 -0.7088
 2376SOL     OW18586   4.406   1.345   5.992 -0.2348  0.1990  0.7014
 2376SOL    HW118587   4.484   1.290   5.996  0.1634  0.7841  0.9280
 2376SOL    HW218588   4.370   1.316   5.908  2.6419 -0.4285 -0.3338
 2377SOL     OW18589   4.355   4.522   4.386  0.0001 -0.2803  0.4825
 2377SOL    HW118590   4.300   4.504   4.462  0.8285  0.7602  1.3233
 2377SOL    HW218591   4.300   4.588   4.342  0.4037 -1.6372 -2.0255
 2378SOL     OW18592   1.241   3.024  10.635  0.2092  0.4407  0.1087
 2378SOL    HW118593   1.312   2.981  10.586 -2.3219 -0.7875 -2.5043
 2378SOL    HW218594   1.279   3.112  10.642  1.4663 -0.1184  0.2992
 2379SOL     OW18595   3.859   3.222  16.757 -0.0543 -0.3581 -0.0530
 2379SOL    HW118596   3.829   3.132  16.772 -1.2527  0.1079  0.3771
 2379SOL    HW218597   3.866   3.224  16.661 -0.2592  0.2467 -0.0572
 2380SOL     OW18598   1.885   0.380   3.756 -0.0657 -0.2710 -0.3298
 2380SOL    HW118599   1.958   0.422   3.712  1.0557  0.5218  2.2958
 2380SOL    HW218600   1.830   0.361   3.679  0.9935 -2.6358 -0.5158
 2381SOL     OW18601   4.179   2.166   5.413 -0.3841  0.1383  0.2229
 2381SOL    HW118602   4.164   2.251   5.453  0.4392 -0.1617  1.1593
 2381SOL    HW218603   4.273   2.163   5.429 -0.5205 -1.1007  0.8083
 2382SOL     OW18604   1.394   0.371   8.086  0.3936  0.5143 -0.3047
 2382SOL    HW118605   1.415   0.465   8.079  1.3185  0.4122  1.0720
 2382SOL    HW218606   1.438   0.337   8.008  1.9618 -0.0138  0.8178
 2383SOL     OW18607   2.389   3.898  16.342  0.4935  0.4396 -0.6642
 2383SOL    HW118608   2.307   3.916  16.387 -0.1588 -0.7474 -1.3859
 2383SOL    HW218609   2.373   3.809  16.310 -1.6878  0.5217  0.2142
 2384SOL     OW18610   2.799   0.526   7.748 -0.6169 -0.5107 -0.3194
 2384SOL    HW118611   2.850   0.605   7.767 -1.0774 -0.7194  1.8124
 2384SOL    HW218612   2.847   0.491   7.673  0.6814 -0.0205  0.2841
 2385SOL     OW18613   4.688   1.395   2.663 -0.3421 -0.4806 -0.0104
 2385SOL    HW118614   4.622   1.327   2.647  0.1019 -1.1243  0.8655
 2385SOL    HW218615   4.701   1.407   2.569  1.0818 -1.0510  0.1127
 2386SOL     OW18616   0.200   3.095   3.624 -0.2561  0.0323  0.4204
 2386SOL    HW118617   0.149   3.159   3.574 -0.4480  0.6507  1.4275
 2386SOL    HW218618   0.145   3.089   3.702 -0.9366  0.4561 -0.0271
 2387SOL     OW18619   0.849   0.880   8.969 -0.2213 -0.5200 -0.3182
 2387SOL    HW118620   0.925   0.887   8.911  0.4004 -0.9569  0.4532
 2387SOL    HW218621   0.792   0.819   8.922 -0.1416 -0.2839 -0.7236
 2388SOL     OW18622   0.946   3.972   5.375 -0.6972 -0.4022  0.3874
 2388SOL    HW118623   0.905   3.945   5.293  0.8130  0.5799 -0.6806
 2388SOL    HW218624   0.966   4.060   5.345  3.1656 -1.0185  1.1543
 2389SOL     OW18625   0.225   1.276   6.823  0.6144 -0.9787 -0.1599
 2389SOL    HW118626   0.167   1.240   6.890  0.6058 -3.4269 -1.4847
 2389SOL    HW218627   0.200   1.225   6.746 -1.2146 -0.5603  0.1652
 2390SOL     OW18628   1.988   3.274   7.658 -0.3061 -0.1248  0.5461
 2390SOL    HW118629   1.919   3.215   7.630 -0.1819  0.3912 -0.8652
 2390SOL    HW218630   1.982   3.269   7.754  1.5582 -1.2040  0.5976
 2391SOL     OW18631   3.827   0.595   7.148  0.3939 -0.1724  0.6773
 2391SOL    HW118632   3.853   0.581   7.240 -2.3656  1.2432  1.6653
 2391SOL    HW218633   3.766   0.528   7.119 -0.6434  0.3174  1.7173
 2392SOL     OW18634   2.850   2.857  17.255  0.2264  0.3928 -0.1991
 2392SOL    HW118635   2.767   2.882  17.296  0.0955  2.0676 -1.5078
 2392SOL    HW218636   2.853   2.932  17.196 -3.7453  1.8641  1.4226
 2393SOL     OW18637   3.357   1.498  15.254 -0.4437 -0.3954 -1.2225
 2393SOL    HW118638   3.325   1.420  15.298 -0.0933 -1.6967 -3.2693
 2393SOL    HW218639   3.323   1.566  15.311 -2.1739 -2.4772  0.2215
 2394SOL     OW18640   1.573   4.532   2.891 -0.3244 -0.7458  0.3284
 2394SOL    HW118641   1.616   4.449   2.908  1.4323  0.2345  0.6198
 2394SOL    HW218642   1.617   4.575   2.964  1.0134  0.1853 -1.0247
 2395SOL     OW18643   2.960   3.840   4.275 -0.5756 -0.6678 -0.0534
 2395SOL    HW118644   3.007   3.853   4.193  1.0160  2.5491  1.3438
 2395SOL    HW218645   2.956   3.933   4.298 -0.0077  0.0865 -3.0872
 2396SOL     OW18646   3.944   1.424   4.073  0.1239  0.3295 -0.9249
 2396SOL    HW118647   4.022   1.381   4.039  1.3021  2.3198 -0.7112
 2396SOL    HW218648   3.975   1.434   4.162  0.4759  1.1655 -1.1393
 2397SOL     OW18649   1.206   3.048  13.074 -0.0161  0.4567  0.3477
 2397SOL    HW118650   1.165   3.119  13.125  0.6242  1.3356 -0.3527
 2397SOL    HW218651   1.285   3.091  13.042  0.4742  0.3499  1.3973
 2398SOL     OW18652   0.477   1.714   1.192  0.3477  0.5125  0.2663
 2398SOL    HW118653   0.402   1.771   1.177 -0.1092 -0.7193 -2.1650
 2398SOL    HW218654   0.471   1.691   1.285 -0.9475  0.9726  0.2992
 2399SOL     OW18655   2.141   3.253  13.911 -0.2951 -0.2151 -0.4653
 2399SOL    HW118656   2.150   3.171  13.961  1.9270 -0.6121 -1.4909
 2399SOL    HW218657   2.205   3.242  13.840 -2.3207 -0.4798 -2.2237
 2400SOL     OW18658   3.313   0.178  16.819 -0.4330  0.1374  0.2795
 2400SOL    HW118659   3.375   0.245  16.791  1.7281 -1.6188  0.9521
 2400SOL    HW218660   3.238   0.228  16.852 -0.5719 -0.4236  0.8110
 2401SOL     OW18661   3.058   0.425   2.789 -0.0620 -0.2482  0.3256
 2401SOL    HW118662   3.068   0.342   2.743 -1.8448  0.7335 -1.8190
 2401SOL    HW218663   2.964   0.439   2.798 -0.3605 -0.9568 -1.6431
 2402SOL     OW18664   1.898   1.929   6.384 -0.2816 -0.2337 -0.1825
 2402SOL    HW118665   1.919   1.949   6.475  0.3954  0.2905 -0.4554
 2402SOL    HW218666   1.958   1.854   6.374  1.0229  0.6266  1.2059
 2403SOL     OW18667   1.280   1.221   8.613  0.5728  0.3025 -0.0736
 2403SOL    HW118668   1.237   1.261   8.689 -0.1341  0.6601 -0.6596
 2403SOL    HW218669   1.299   1.134   8.648 -0.0373  0.0464 -0.3849
 2404SOL     OW18670   0.999   2.500   4.246  0.1531  0.2673  0.2431
 2404SOL    HW118671   0.979   2.594   4.252  0.1759  0.2859  0.0415
 2404SOL    HW218672   1.037   2.488   4.159 -1.1201 -0.7406 -0.1661
 2405SOL     OW18673   3.238   3.810  10.824  0.2411 -0.4034 -0.0486
 2405SOL    HW118674   3.198   3.880  10.773 -2.1489  0.2964  2.8079
 2405SOL    HW218675   3.287   3.859  10.889  0.0631  2.0267 -1.7688
 2406SOL     OW18676   2.830   4.010  17.257 -0.3208 -0.0540  0.1996
 2406SOL    HW118677   2.853   4.021  17.165  1.9709  0.5301  0.8338
 2406SOL    HW218678   2.852   3.917  17.271  0.6491  0.2672  0.8590
 2407SOL     OW18679   3.250   3.485   6.079 -0.2672 -0.0083  0.1673
 2407SOL    HW118680   3.306   3.421   6.124  0.1127 -1.3825 -2.2999
 2407SOL    HW218681   3.230   3.545   6.151  1.4443 -1.1569  1.6018
 2408SOL     OW18682   2.959   3.054   4.400 -0.2838  0.0507 -0.1245
 2408SOL    HW118683   2.969   2.999   4.322  0.7803 -1.4286  1.0731
 2408SOL    HW218684   2.914   2.990   4.455  0.7092 -1.1747 -0.7372
 2409SOL     OW18685   4.527   2.959  14.988  0.4499  0.5127 -0.4883
 2409SOL    HW118686   4.440   2.925  14.968  0.7414 -2.3475  3.0924
 2409SOL    HW218687   4.533   2.947  15.083 -0.2317  1.5523 -0.3100
 2410SOL     OW18688   4.415   1.566  11.159  0.4511  0.3570 -0.4019
 2410SOL    HW118689   4.397   1.660  11.150 -1.3291  0.0378 -0.1363
 2410SOL    HW218690   4.509   1.586  11.165  0.9014 -1.2384 -2.1668
 2411SOL     OW18691   3.712   4.573  10.017 -0.0898  0.1236 -0.3476
 2411SOL    HW118692   3.757   4.529  10.089 -1.8102 -0.0839  0.5885
 2411SOL    HW218693   3.636   4.515  10.007  0.5186 -0.9640  1.3356
 2412SOL     OW18694   2.097   1.312  11.893 -0.3567 -0.2530  0.6469
 2412SOL    HW118695   2.059   1.283  11.810  1.9105  0.2047 -0.5520
 2412SOL    HW218696   2.162   1.243  11.905  0.1439  0.3211  1.2627
 2413SOL     OW18697   0.925   1.573  14.588 -0.2838  0.0036  0.3101
 2413SOL    HW118698   0.940   1.481  14.610 -1.9857 -0.4101 -0.2489
 2413SOL    HW218699   0.960   1.616  14.666 -1.6120  1.5902  0.0266
 2414SOL     OW18700   4.112   3.568   4.408 -0.0713 -0.4758 -0.1326
 2414SOL    HW118701   4.126   3.479   4.375  0.8339 -1.0256  1.7726
 2414SOL    HW218702   4.192   3.606   4.371  0.3986 -1.9710 -0.6612
 2415SOL     OW18703   3.911   2.336   3.858 -0.1762  0.8619  0.1518
 2415SOL    HW118704   3.907   2.378   3.944  0.0664  0.6998  0.2421
 2415SOL    HW218705   3.989   2.373   3.817  0.6154 -2.5651 -1.4867
 2416SOL     OW18706   2.676   2.766   6.381 -0.0575 -0.0745 -0.0179
 2416SOL    HW118707   2.685   2.734   6.291 -1.7364 -0.8930  0.0964
 2416SOL    HW218708   2.665   2.860   6.362 -0.9852 -0.0881  0.4312
 2417SOL     OW18709   0.059   2.480   5.813  0.2702  0.3455 -0.1973
 2417SOL    HW118710   0.120   2.407   5.826  0.6030  0.1931 -2.4937
 2417SOL    HW218711   0.092   2.547   5.872  1.1123  0.8509 -1.2391
 2418SOL     OW18712   2.137   4.104  12.969  0.3882 -0.8218  0.3122
 2418SOL    HW118713   2.135   4.014  12.999  0.2933 -0.5332  1.1690
 2418SOL    HW218714   2.139   4.148  13.054 -0.5296 -0.8281  0.3315
 2419SOL     OW18715   3.941   2.944  11.997  0.6685 -0.0214 -0.1757
 2419SOL    HW118716   3.945   2.976  12.087 -0.2278 -0.5491  0.0421
 2419SOL    HW218717   4.026   2.969  11.961  0.4537  2.6945  1.2411
 2420SOL     OW18718   0.294   1.932   4.938 -0.6644  0.0853 -0.1981
 2420SOL    HW118719   0.383   1.897   4.942 -1.1608 -0.8883  2.1901
 2420SOL    HW218720   0.269   1.907   4.849  0.3226  0.5106 -0.5931
 2421SOL     OW18721   4.704   1.014  10.231  0.2931 -0.3089 -0.2826
 2421SOL    HW118722   4.665   0.993  10.146  0.7738  0.8500 -0.7813
 2421SOL    HW218723   4.638   0.970  10.286  0.0305 -0.2758 -0.5677
 2422SOL     OW18724   2.106   2.468  12.300  0.3358 -0.4539 -0.2338
 2422SOL    HW118725   2.131   2.539  12.360 -1.9054 -0.1744  0.3729
 2422SOL    HW218726   2.154   2.392  12.329 -1.5497 -2.3698 -2.1177
 2423SOL     OW18727   2.287   1.856  14.537 -0.4861 -0.1389  0.0601
 2423SOL    HW118728   2.320   1.841  14.449 -3.3428  1.1150 -1.2318
 2423SOL    HW218729   2.324   1.777  14.575 -0.8124 -1.1757 -1.7835
 2424SOL     OW18730   0.901   2.668  13.148  0.2665 -0.2541  0.1499
 2424SOL    HW118731   0.991   2.701  13.153  0.7479 -1.5948  0.3892
 2424SOL    HW218732   0.912   2.600  13.082 -0.2431  1.6535 -1.8628
 2425SOL     OW18733   1.117   0.179  14.423  0.2194  0.1246 -0.5969
 2425SOL    HW118734   1.139   0.265  14.389  0.1981  0.5445  0.4712
 2425SOL    HW218735   1.196   0.160  14.473  0.5814  0.1511 -1.1591
 2426SOL     OW18736   0.565   2.570  13.422  0.1823  0.5701 -0.9533
 2426SOL    HW118737   0.538   2.481  13.402 -0.7222  0.1385  2.2962
 2426SOL    HW218738   0.564   2.611  13.335  0.6615 -1.2082 -1.7892
 2427SOL     OW18739   1.472   1.657  10.926  0.5886 -0.0568  0.0958
 2427SOL    HW118740   1.544   1.629  10.869 -0.2412 -0.4234 -0.7797
 2427SOL    HW218741   1.515   1.717  10.987  0.7875 -0.7136  0.6055
 2428SOL     OW18742   0.680   0.248   0.567 -0.7049  0.0601 -1.0792
 2428SOL    HW118743   0.653   0.259   0.476  0.5521 -0.9714 -1.5840
 2428SOL    HW218744   0.616   0.296   0.619  0.2486 -1.1936  1.2410
 2429SOL     OW18745   1.191   3.756   3.829  0.2218  0.3863  0.2250
 2429SOL    HW118746   1.243   3.765   3.908 -2.2375  1.6352  1.7118
 2429SOL    HW218747   1.105   3.741   3.869  0.3481  1.0348  0.7339
 2430SOL     OW18748   2.582   3.072   8.088  0.1144  0.1975 -0.4169
 2430SOL    HW118749   2.622   2.998   8.042  0.9818  0.6663 -0.4193
 2430SOL    HW218750   2.512   3.102   8.030  0.4741 -1.1519 -1.5429
 2431SOL     OW18751   1.506   2.157   5.410  0.4568  0.2510  0.4613
 2431SOL    HW118752   1.523   2.239   5.363  1.7710  0.3299  1.0867
 2431SOL    HW218753   1.532   2.185   5.497  1.2514  0.0053  0.3063
 2432SOL     OW18754   1.904   3.671   4.400  0.5292 -0.2060  0.1494
 2432SOL    HW118755   1.967   3.601   4.384  3.3265  1.8236  2.5303
 2432SOL    HW218756   1.963   3.746   4.399  0.1921  0.0656  0.4773
 2433SOL     OW18757   1.813   0.805  11.117 -0.2889 -0.2976  0.1298
 2433SOL    HW118758   1.724   0.806  11.153 -0.5309  4.5677 -0.5858
 2433SOL    HW218759   1.805   0.733  11.055  2.6572  0.1755 -0.7792
 2434SOL     OW18760   3.600   2.705   2.045  0.0910 -0.0680 -0.5657
 2434SOL    HW118761   3.524   2.751   2.009 -0.0117 -0.5659 -0.9967
 2434SOL    HW218762   3.641   2.686   1.960  1.2275  0.1464 -0.0624
 2435SOL     OW18763   4.113   3.859  12.762 -0.3323  0.2433  0.1638
 2435SOL    HW118764   4.099   3.807  12.841  0.4441 -0.9518 -0.4941
 2435SOL    HW218765   4.207   3.856  12.745  0.0743 -0.0904  2.4451
 2436SOL     OW18766   4.492   1.233   3.611 -0.3771  0.5817 -0.4837
 2436SOL    HW118767   4.563   1.240   3.547 -0.9790 -0.4679 -1.2582
 2436SOL    HW218768   4.491   1.325   3.640 -0.4046  0.6016 -0.5486
 2437SOL     OW18769   4.591   2.661   5.428  0.2481  0.3234 -0.2418
 2437SOL    HW118770   4.636   2.580   5.454 -0.1714  0.4202  0.7825
 2437SOL    HW218771   4.584   2.701   5.515 -1.5890  0.3180 -0.4004
 2438SOL     OW18772   3.012   2.129   7.423 -0.1954 -0.0947  0.2625
 2438SOL    HW118773   2.989   2.099   7.335  0.7374 -0.1540  0.0379
 2438SOL    HW218774   3.105   2.133   7.404 -0.5656 -1.5045 -1.8019
 2439SOL     OW18775   1.293   1.215  15.716 -0.5593  0.0426 -0.2615
 2439SOL    HW118776   1.229   1.232  15.785 -0.3869  1.5017 -0.4566
 2439SOL    HW218777   1.333   1.301  15.704 -1.8884  1.0206  2.2999
 2440SOL     OW18778   3.542   4.271   8.653  0.3304 -0.3342 -0.0629
 2440SOL    HW118779   3.556   4.218   8.732  0.7280 -0.6925 -0.3732
 2440SOL    HW218780   3.542   4.203   8.586  1.1770  3.1161 -3.5803
 2441SOL     OW18781   3.858   2.449  13.001  0.2675  0.5993 -0.3589
 2441SOL    HW118782   3.865   2.499  12.920 -0.1447 -2.4605 -2.2948
 2441SOL    HW218783   3.802   2.500  13.059 -1.8324 -2.5154  0.3152
 2442SOL     OW18784   4.446   3.751   2.343  0.0147  0.0206 -0.0182
 2442SOL    HW118785   4.465   3.671   2.393 -1.3547  1.3085  2.5667
 2442SOL    HW218786   4.426   3.818   2.408 -1.3818 -0.0078 -0.4181
 2443SOL     OW18787   1.819   3.652   2.456  0.4577 -0.1032 -1.0312
 2443SOL    HW118788   1.873   3.614   2.387  2.6199  3.2922 -1.1663
 2443SOL    HW218789   1.739   3.598   2.451 -0.3558  1.0290 -0.2123
 2444SOL     OW18790   1.414   4.207   6.839 -0.3211 -0.0339 -0.3014
 2444SOL    HW118791   1.338   4.226   6.785  0.3243  0.8450 -0.8952
 2444SOL    HW218792   1.450   4.132   6.791  2.7475  0.9949  0.4183
 2445SOL     OW18793   2.071   0.546   5.406  0.2676 -0.1576  0.1975
 2445SOL    HW118794   2.149   0.493   5.423  1.4655  0.7258 -2.5987
 2445SOL    HW218795   2.109   0.622   5.361 -1.3383 -0.7013 -2.0735
 2446SOL     OW18796   0.000   3.802   4.554  0.2616 -0.2303 -0.4284
 2446SOL    HW118797   0.086   3.768   4.579  0.3930  1.0753  0.8712
 2446SOL    HW218798   0.017   3.896   4.551 -0.1776 -0.1114  0.7610
 2447SOL     OW18799   0.219   1.869   1.124  1.0094  0.2888  0.9906
 2447SOL    HW118800   0.177   1.952   1.105 -1.0157 -0.2466  3.1998
 2447SOL    HW218801   0.197   1.848   1.215 -0.0128 -0.1760  0.6445
 2448SOL     OW18802   1.452   4.542  15.271 -0.2645  0.2345  0.4843
 2448SOL    HW118803   1.358   4.531  15.254 -0.1917  0.0662  0.1797
 2448SOL    HW218804   1.471   4.451  15.295 -2.2636 -0.0111  1.1174
 2449SOL     OW18805   2.296   1.563   1.226  0.0576  0.3345  0.0278
 2449SOL    HW118806   2.371   1.572   1.285  0.0166 -0.6935  0.2301
 2449SOL    HW218807   2.320   1.478   1.189  0.7137  0.1057  0.9835
 2450SOL     OW18808   2.408   4.075   4.608  0.6972  0.1718 -0.5896
 2450SOL    HW118809   2.325   4.049   4.647  1.0428  1.2084  0.8247
 2450SOL    HW218810   2.469   4.042   4.674  1.1702 -1.2282 -1.6968
 2451SOL     OW18811   4.137   2.137   6.753 -0.0320 -0.4514  0.9234
 2451SOL    HW118812   4.149   2.074   6.683 -2.4833  3.2649 -2.8505
 2451SOL    HW218813   4.199   2.112   6.822 -0.1293 -0.4122  1.0250
 2452SOL     OW18814   1.740   4.031  16.230  0.0307 -0.4257 -0.1190
 2452SOL    HW118815   1.656   4.017  16.273 -0.6056  1.4452 -0.7227
 2452SOL    HW218816   1.730   4.001  16.139  0.6875  0.7084 -0.5763
 2453SOL     OW18817   3.953   2.342   6.705  0.2278 -0.2139 -0.1868
 2453SOL    HW118818   3.951   2.333   6.610 -0.0381  1.8312 -0.3628
 2453SOL    HW218819   4.014   2.276   6.739 -0.8754 -1.3984 -0.4824
 2454SOL     OW18820   2.002   0.198   1.722  0.1211 -0.5151 -0.0466
 2454SOL    HW118821   2.063   0.228   1.655 -0.3759 -1.9813 -1.1471
 2454SOL    HW218822   1.927   0.257   1.720  1.8293  1.6846  0.5948
 2455SOL     OW18823   3.418   3.531   4.723 -0.5913 -0.1968 -0.3380
 2455SOL    HW118824   3.349   3.465   4.716  0.8121 -1.4385 -2.6523
 2455SOL    HW218825   3.406   3.590   4.648  0.0262 -0.0216 -0.2967
 2456SOL     OW18826   0.462   3.251   6.453  0.0907 -0.4202  0.2231
 2456SOL    HW118827   0.530   3.298   6.406  0.3082 -0.7504  0.2045
 2456SOL    HW218828   0.481   3.161   6.424  0.6596 -0.5648  1.0337
 2457SOL     OW18829   0.801   3.649   7.226 -0.4521 -0.2089 -0.1462
 2457SOL    HW118830   0.840   3.687   7.304 -0.4514  1.7804 -1.1199
 2457SOL    HW218831   0.822   3.556   7.236  1.9055  0.3728  0.1302
 2458SOL     OW18832   4.421   4.388   4.104 -0.1523 -0.3971  0.3689
 2458SOL    HW118833   4.440   4.411   4.195  2.1045  0.4421 -0.2932
 2458SOL    HW218834   4.332   4.356   4.114 -1.1616  1.9075 -1.3743
 2459SOL     OW18835   4.634   0.549   7.908  0.4587  0.1460  0.4691
 2459SOL    HW118836   4.681   0.510   7.836 -2.6039 -1.9476 -0.4028
 2459SOL    HW218837   4.702   0.612   7.933  1.9115 -0.8222 -1.0673
 2460SOL     OW18838   2.431   2.159   8.081 -1.0132  0.5813  0.0098
 2460SOL    HW118839   2.377   2.238   8.091  0.2241  1.5587 -0.9576
 2460SOL    HW218840   2.514   2.166   8.129 -0.3893  3.3204 -1.4434
 2461SOL     OW18841   1.895   4.402   5.129 -0.2406 -0.3624 -0.4365
 2461SOL    HW118842   1.806   4.420   5.159  0.5063  0.0974  1.4667
 2461SOL    HW218843   1.927   4.482   5.086 -0.6536  0.7471  1.3034
 2462SOL     OW18844   4.018   1.214   4.704  0.1165 -0.0181  0.1125
 2462SOL    HW118845   4.008   1.308   4.687 -0.3171 -0.0175  0.3693
 2462SOL    HW218846   3.932   1.182   4.731  0.8343 -2.0084  0.0009
 2463SOL     OW18847   3.938   4.152   7.779 -0.4781 -0.0142 -0.7878
 2463SOL    HW118848   3.890   4.197   7.849  0.1321 -1.0984  0.3065
 2463SOL    HW218849   3.990   4.094   7.833  1.1952 -1.3374 -3.8278
 2464SOL     OW18850   1.994   4.186  16.168 -0.1185 -0.8463 -0.3711
 2464SOL    HW118851   1.918   4.229  16.129  1.0346  1.0116 -0.5519
 2464SOL    HW218852   1.940   4.135  16.228  0.5314 -0.5928  0.4290
 2465SOL     OW18853   0.408   2.849   8.510 -0.3579  0.2943  0.1437
 2465SOL    HW118854   0.444   2.914   8.570  0.2753  0.5131 -0.4772
 2465SOL    HW218855   0.487   2.848   8.457 -0.7925 -1.8883 -0.4798
 2466SOL     OW18856   0.925   1.177   5.064 -0.2364  0.5811  0.2498
 2466SOL    HW118857   0.934   1.268   5.091  0.0389  0.6278 -0.0025
 2466SOL    HW218858   0.840   1.144   5.092  0.2705 -0.0471  1.0513
 2467SOL     OW18859   0.253   3.079  13.106  0.2539 -0.2890  0.2807
 2467SOL    HW118860   0.247   3.022  13.029 -2.8948 -0.4031  0.6108
 2467SOL    HW218861   0.175   3.135  13.106 -2.0926 -3.5406  0.0865
 2468SOL     OW18862   2.166   1.681   7.183 -0.4554 -0.3444 -0.0021
 2468SOL    HW118863   2.239   1.686   7.244  1.0774  0.9203 -1.9636
 2468SOL    HW218864   2.186   1.748   7.118  1.0747 -0.7495  0.0636
 2469SOL     OW18865   3.349   3.821   4.231  0.2240  0.3600 -0.4396
 2469SOL    HW118866   3.338   3.737   4.275  2.0232  0.0884 -0.5208
 2469SOL    HW218867   3.262   3.823   4.190 -0.3847 -0.7117  0.8071
 2470SOL     OW18868   0.110   0.416   0.966 -0.2416  0.1026 -0.1715
 2470SOL    HW118869   0.044   0.348   0.981 -1.7752  1.6044 -0.1054
 2470SOL    HW218870   0.099   0.471   1.043 -0.5046 -1.3509  0.8255
 2471SOL     OW18871   4.072   2.794   8.111 -0.0188 -0.4219 -0.0423
 2471SOL    HW118872   4.153   2.750   8.135  1.0718  1.4278 -0.3715
 2471SOL    HW218873   4.045   2.813   8.201  1.1245  1.4752 -0.1096
 2472SOL     OW18874   0.016   2.409   4.534  0.5411 -0.7062  0.4853
 2472SOL    HW118875   4.711   2.423   4.445  3.2623  0.3688 -0.2591
 2472SOL    HW218876   0.070   2.483   4.560 -0.7301  0.7116 -0.9122
 2473SOL     OW18877   0.354   3.137   6.011  0.2396 -0.2691 -0.2687
 2473SOL    HW118878   0.355   3.220   6.059  1.2335 -0.3557 -0.1298
 2473SOL    HW218879   0.391   3.164   5.927 -0.2870  1.1956 -0.0325
 2474SOL     OW18880   2.116   1.931   8.250  0.4039 -0.1606  0.3463
 2474SOL    HW118881   2.116   1.903   8.342 -0.6081 -0.3832  0.2721
 2474SOL    HW218882   2.028   1.967   8.241  0.8250  0.5730 -0.8928
 2475SOL     OW18883   0.881   4.607   4.973  0.2717  0.1792 -0.1429
 2475SOL    HW118884   0.811   4.581   5.032  1.7694  0.1305  1.5884
 2475SOL    HW218885   0.839   4.618   4.888 -0.8344  0.9099  0.5058
 2476SOL     OW18886   2.556   0.790   5.049 -0.1873 -0.0064  0.1271
 2476SOL    HW118887   2.546   0.885   5.041  1.1758  0.2215  1.1508
 2476SOL    HW218888   2.467   0.759   5.064 -0.2071  0.4717  1.0072
 2477SOL     OW18889   4.608   0.536  13.940 -0.3854  0.2450 -0.0880
 2477SOL    HW118890   4.596   0.468  13.873  2.3505 -1.6722  1.3706
 2477SOL    HW218891   4.697   0.561  13.918  0.8173 -1.8032  2.4876
 2478SOL     OW18892   3.395   4.628  12.210  0.5084  0.0183  0.0898
 2478SOL    HW118893   3.403   4.722  12.226  2.4411  0.6212 -4.3871
 2478SOL    HW218894   3.403   4.615  12.116 -4.4865  3.1735 -0.7429
 2479SOL     OW18895   1.719   4.095  12.089 -0.0856 -0.1666 -0.4707
 2479SOL    HW118896   1.784   4.044  12.043 -0.7695 -1.7934  0.3485
 2479SOL    HW218897   1.775   4.151  12.142 -0.8486 -0.0042  0.1722
 2480SOL     OW18898   1.494   4.084  11.932 -0.0533  0.0376 -0.0915
 2480SOL    HW118899   1.551   4.051  11.862 -0.1180  0.0937 -0.1718
 2480SOL    HW218900   1.564   4.109  11.992  0.2471  0.3168 -0.5505
 2481SOL     OW18901   3.407   3.121   4.469 -0.9515  0.2814  0.1774
 2481SOL    HW118902   3.317   3.155   4.467 -0.8586  0.5187  0.1608
 2481SOL    HW218903   3.435   3.147   4.382 -0.5394 -2.5241 -0.5391
 2482SOL     OW18904   4.351   0.015   2.785  0.4853  0.9792  0.4529
 2482SOL    HW118905   4.258   0.019   2.764  0.7580  4.0246 -0.1857
 2482SOL    HW218906   4.357   0.056   2.871 -0.0401  1.3967  0.2869
 2483SOL     OW18907   0.013   3.326   3.653 -0.2373 -0.0945 -0.0314
 2483SOL    HW118908   0.021   3.339   3.747  0.3478 -1.8775  0.1551
 2483SOL    HW218909   4.719   3.415   3.623  0.6857  1.3185  3.5350
 2484SOL     OW18910   2.480   1.308  14.944  0.2266  0.1101  0.3791
 2484SOL    HW118911   2.556   1.276  14.895 -1.2058  0.7811 -2.2811
 2484SOL    HW218912   2.415   1.238  14.933 -0.1864  0.6202 -0.3978
 2485SOL     OW18913   0.823   0.553   9.026  0.2365  0.2658 -0.0368
 2485SOL    HW118914   0.744   0.534   8.976 -0.8211  3.4898  0.4113
 2485SOL    HW218915   0.791   0.569   9.115 -2.4005  2.3510 -1.3540
 2486SOL     OW18916   1.463   1.569   6.797  0.6197 -0.2520  0.0741
 2486SOL    HW118917   1.535   1.603   6.850  1.1162  1.3086 -1.5885
 2486SOL    HW218918   1.441   1.491   6.849 -1.2289  0.9018  1.0234
 2487SOL     OW18919   0.556   1.070   9.096  0.2309  0.4485 -0.7218
 2487SOL    HW118920   0.474   1.022   9.111  1.4372 -2.1094 -2.2960
 2487SOL    HW218921   0.559   1.040   9.005 -0.2853 -0.2767 -0.4983
 2488SOL     OW18922   2.546   4.371   7.764  0.1723 -0.1255  0.0692
 2488SOL    HW118923   2.588   4.339   7.844  0.3494  0.5973  0.2600
 2488SOL    HW218924   2.521   4.459   7.792 -4.0957 -1.0408 -0.8396
 2489SOL     OW18925   0.850   2.312  10.767  0.8684 -0.2493 -0.0058
 2489SOL    HW118926   0.868   2.405  10.780 -3.5971  0.3420  1.7905
 2489SOL    HW218927   0.821   2.309  10.676 -0.0487 -0.3060  0.2865
 2490SOL     OW18928   3.026   2.311   5.141 -0.4181  0.1270 -0.0592
 2490SOL    HW118929   3.068   2.307   5.227 -0.9935  0.0881  0.2172
 2490SOL    HW218930   2.938   2.287   5.170 -0.4299  0.6112  0.3095
 2491SOL     OW18931   2.764   0.120   6.579  0.3741 -0.1216  0.2985
 2491SOL    HW118932   2.783   0.070   6.659  0.8925 -1.0379 -0.4044
 2491SOL    HW218933   2.690   0.075   6.538 -1.4446 -0.1459  3.5312
 2492SOL     OW18934   4.526   3.738   2.811  0.2908 -0.1407  0.3911
 2492SOL    HW118935   4.551   3.803   2.877  1.2071  0.0770 -0.1816
 2492SOL    HW218936   4.610   3.709   2.778 -0.5438 -1.7788 -0.2927
 2493SOL     OW18937   3.497   0.011   5.002  0.8294 -0.5653  0.7478
 2493SOL    HW118938   3.488   0.021   5.096  1.2188 -0.1746  0.7444
 2493SOL    HW218939   3.590   0.028   4.986  1.1060 -1.7662  1.0805
 2494SOL     OW18940   4.233   1.642   8.991 -0.1959  0.4455  0.1573
 2494SOL    HW118941   4.274   1.580   9.051  1.1237  0.5098 -0.6893
 2494SOL    HW218942   4.216   1.590   8.913  0.2092 -0.9299  0.9994
 2495SOL     OW18943   1.109   2.938   8.621  0.3250  0.9560 -0.1570
 2495SOL    HW118944   1.031   2.958   8.569 -0.4727 -2.4599 -0.2396
 2495SOL    HW218945   1.185   2.952   8.564 -0.8623  1.2221 -1.6987
 2496SOL     OW18946   1.336   2.607  16.827 -0.4644 -0.1645  0.0877
 2496SOL    HW118947   1.389   2.528  16.817 -0.6860 -0.1369 -1.2659
 2496SOL    HW218948   1.378   2.653  16.899 -0.4355  1.1124 -0.7522
 2497SOL     OW18949   2.952   0.590  10.979  0.3884 -0.0396 -0.1673
 2497SOL    HW118950   2.917   0.640  11.052 -0.2995  1.0587 -1.2459
 2497SOL    HW218951   3.043   0.618  10.976  0.3300  0.2365  0.8748
 2498SOL     OW18952   0.120   1.140   8.366  0.3682 -0.1918 -0.1138
 2498SOL    HW118953   0.169   1.219   8.386 -2.1266  0.8573  1.8927
 2498SOL    HW218954   0.032   1.165   8.394  0.8498  1.5003 -0.1271
 2499SOL     OW18955   1.020   0.320  11.800 -0.3232  0.3544 -0.1793
 2499SOL    HW118956   1.065   0.353  11.878  0.8984  0.5384 -0.9612
 2499SOL    HW218957   0.941   0.373  11.790 -2.2779 -2.2501  1.1504
 2500SOL     OW18958   0.460   2.287   6.492 -0.2938 -0.5393 -0.5016
 2500SOL    HW118959   0.400   2.213   6.494 -2.3870  1.1008 -2.8247
 2500SOL    HW218960   0.531   2.249   6.441 -0.3509  1.8498 -2.3659
 2501SOL     OW18961   4.699   1.387  11.683  0.0001  0.2035  0.5223
 2501SOL    HW118962   4.654   1.348  11.758 -0.8736 -0.2260 -0.2281
 2501SOL    HW218963   0.029   1.455  11.721  1.3081 -0.6268  0.1027
 2502SOL     OW18964   1.903   1.706   3.757 -0.3066 -0.7839 -0.0339
 2502SOL    HW118965   1.878   1.796   3.779  0.5178 -0.7318  0.6902
 2502SOL    HW218966   1.844   1.684   3.685  0.2246  2.0417 -1.3302
 2503SOL     OW18967   4.164   2.946   4.133 -0.0781 -0.0348 -0.1800
 2503SOL    HW118968   4.163   3.032   4.090  1.9989 -0.6912 -1.5156
 2503SOL    HW218969   4.148   2.885   4.061 -0.1556  1.5226 -1.4894
 2504SOL     OW18970   0.320   0.900   4.551  0.0556 -0.6018  0.1135
 2504SOL    HW118971   0.260   0.901   4.476 -0.4734  2.2963  0.5804
 2504SOL    HW218972   0.281   0.975   4.595  0.8184 -2.4787  3.9893
 2505SOL     OW18973   0.974   0.348   8.235 -0.4856  0.3965 -0.3580
 2505SOL    HW118974   1.066   0.335   8.262 -0.2532  1.1726 -0.7877
 2505SOL    HW218975   0.953   0.428   8.283  0.8474 -0.2262  1.2975
 2506SOL     OW18976   3.240   1.620  12.349 -1.3546 -0.1323  0.6192
 2506SOL    HW118977   3.285   1.704  12.343 -0.3515 -0.6742  0.6576
 2506SOL    HW218978   3.299   1.571  12.407  0.6148  2.6483  0.9685
 2507SOL     OW18979   4.135   0.249   5.591 -0.1585 -0.3350 -0.0541
 2507SOL    HW118980   4.164   0.160   5.573 -1.8787 -0.9755  0.3392
 2507SOL    HW218981   4.041   0.234   5.600 -0.7216  0.1448 -5.0421
 2508SOL     OW18982   1.031   0.251  16.176  0.2071 -1.2537 -0.2349
 2508SOL    HW118983   0.939   0.233  16.194 -0.3256  3.9517  2.1518
 2508SOL    HW218984   1.027   0.331  16.124  2.0197  0.2512  1.9349
 2509SOL     OW18985   3.550   4.499   4.921  0.3785 -0.6009  0.5323
 2509SOL    HW118986   3.524   4.582   4.961 -1.2680  0.1385 -2.0815
 2509SOL    HW218987   3.552   4.448   5.002 -0.3587  0.8530  1.4714
 2510SOL     OW18988   1.250   4.429   8.242 -1.0668 -0.1915 -0.5244
 2510SOL    HW118989   1.209   4.515   8.252 -0.2156  0.0393  1.0420
 2510SOL    HW218990   1.259   4.403   8.334  2.1451 -1.3649 -1.1830
 2511SOL     OW18991   3.359   4.114   4.909  0.4015  0.6537 -0.1872
 2511SOL    HW118992   3.301   4.126   4.984  1.0730 -0.2959  0.4815
 2511SOL    HW218993   3.448   4.124   4.943 -0.7113  0.3892  2.7206
 2512SOL     OW18994   0.275   2.551   8.446  0.3093 -0.2916  0.3644
 2512SOL    HW118995   0.293   2.593   8.531 -2.2712  0.4725  0.5364
 2512SOL    HW218996   0.226   2.623   8.407  1.0373  0.8531  1.5700
 2513SOL     OW18997   2.467   0.758   6.022  0.2896 -1.0402 -0.2290
 2513SOL    HW118998   2.456   0.719   5.935 -1.2093 -0.0052 -0.5008
 2513SOL    HW218999   2.424   0.696   6.081 -1.3966  1.4128  1.0857
 2514SOL     OW19000   2.417   2.012   5.858  0.7977 -0.3789 -0.2383
 2514SOL    HW119001   2.400   2.063   5.937  1.5822 -1.0542  0.3755
 2514SOL    HW219002   2.513   2.014   5.864  0.7506 -1.0049  0.7646
 2515SOL     OW19003   3.355   1.145   0.960 -0.1782  0.3160  0.3899
 2515SOL    HW119004   3.360   1.167   1.053  0.9119  1.4906  0.0575
 2515SOL    HW219005   3.437   1.177   0.923  0.5785  0.2146  2.0118
 2516SOL     OW19006   4.282   4.261  17.697 -0.2168 -0.7549  0.0635
 2516SOL    HW119007   4.219   4.292  17.632  0.3235 -1.0438 -0.5970
 2516SOL    HW219008   4.286   4.329   0.059  1.1378  0.3082 -1.1247
 2517SOL     OW19009   3.138   2.812  15.933  0.2075 -0.0583 -0.3303
 2517SOL    HW119010   3.083   2.841  15.860 -1.1443 -1.3595  0.1650
 2517SOL    HW219011   3.223   2.786  15.899  0.6560  1.4715 -0.3543
 2518SOL     OW19012   0.051   1.638   5.773  0.4254 -0.2685  0.1620
 2518SOL    HW119013   4.693   1.637   5.727  1.5234  1.9262 -1.8501
 2518SOL    HW219014   0.018   1.663   5.859  1.1630  0.8483  0.1157
 2519SOL     OW19015   0.370   2.797  17.443  0.6992  0.2167 -0.1354
 2519SOL    HW119016   0.418   2.833  17.518  1.5342 -0.6966 -0.2401
 2519SOL    HW219017   0.403   2.851  17.371  1.3435  1.0341  0.7700
 2520SOL     OW19018   4.020   3.015   2.663  0.0918  0.0412 -0.8002
 2520SOL    HW119019   4.002   2.942   2.605 -2.2049 -0.7277  0.8847
 2520SOL    HW219020   3.937   3.054   2.689 -0.3008 -0.8366 -0.7530
 2521SOL     OW19021   0.613   0.495   6.155 -0.5001  0.1072  0.1033
 2521SOL    HW119022   0.613   0.514   6.249  0.7452  0.4083  0.0490
 2521SOL    HW219023   0.561   0.569   6.124  0.7260  1.4917  1.2894
 2522SOL     OW19024   0.898   0.115  14.189  0.2504  0.5260  0.2162
 2522SOL    HW119025   0.840   0.050  14.227 -0.8457  1.0065 -0.6266
 2522SOL    HW219026   0.890   0.184  14.256  0.1417  1.2631 -0.5537
 2523SOL     OW19027   0.827   4.568   6.148  0.3214 -0.3746  0.1045
 2523SOL    HW119028   0.779   4.641   6.107 -0.1321  0.1917  1.6237
 2523SOL    HW219029   0.914   4.602   6.129 -0.4804  1.9923  0.6418
 2524SOL     OW19030   2.094   0.176   5.525  0.2535  0.6631  0.0156
 2524SOL    HW119031   2.040   0.190   5.447  1.3486  0.8350 -0.7109
 2524SOL    HW219032   2.058   0.235   5.592  1.1944  0.4077  0.7330
 2525SOL     OW19033   4.671   3.027   6.539 -0.3174 -0.2536  0.1936
 2525SOL    HW119034   0.029   3.068   6.516 -0.5505  1.0026  1.6076
 2525SOL    HW219035   4.691   2.937   6.516  2.0419  0.4483 -0.5105
 2526SOL     OW19036   2.025   4.443   2.113  0.2927  0.0736 -0.5155
 2526SOL    HW119037   2.076   4.362   2.115 -2.4213 -1.5654  2.4975
 2526SOL    HW219038   2.075   4.494   2.049 -0.4643 -0.2365 -1.3442
 2527SOL     OW19039   4.153   0.207   4.025 -0.4676  0.1293 -0.3155
 2527SOL    HW119040   4.079   0.226   4.082  0.1137  0.6720  0.2486
 2527SOL    HW219041   4.191   0.145   4.087  0.8006  0.2313 -0.9845
 2528SOL     OW19042   1.087   0.159   2.046 -0.2008  0.2063  0.8013
 2528SOL    HW119043   1.059   0.216   1.975 -0.3360 -0.3286  0.4315
 2528SOL    HW219044   1.164   0.117   2.006 -0.1536  1.6970 -0.6657
 2529SOL     OW19045   3.640   2.631   3.516  0.1597 -0.0472 -0.1958
 2529SOL    HW119046   3.674   2.561   3.460 -0.2512  0.4490 -1.0540
 2529SOL    HW219047   3.617   2.582   3.595 -1.6587  2.8038  1.0600
 2530SOL     OW19048   2.538   3.002   1.436 -0.5642  0.2861  0.6268
 2530SOL    HW119049   2.584   2.939   1.492 -1.6536  1.0729  2.3844
 2530SOL    HW219050   2.612   3.040   1.389 -1.1243 -0.5016 -0.9065
 2531SOL     OW19051   0.082   3.598   6.805 -0.0081 -0.7150 -0.0095
 2531SOL    HW119052   0.120   3.682   6.832 -1.0862 -0.7850  1.7075
 2531SOL    HW219053   4.717   3.611   6.833  0.1013  1.5254 -0.6823
 2532SOL     OW19054   4.250   0.561   6.469  0.2106 -0.1736  0.6282
 2532SOL    HW119055   4.188   0.611   6.522  1.1818  0.4670  1.1736
 2532SOL    HW219056   4.246   0.474   6.509  1.8367 -1.2316 -1.5367
 2533SOL     OW19057   0.413   4.253   4.787  0.0048  0.0843  0.2942
 2533SOL    HW119058   0.403   4.305   4.707 -0.2270 -0.0593  0.2298
 2533SOL    HW219059   0.509   4.247   4.792 -0.0443 -0.3430  0.6774
 2534SOL     OW19060   2.010   2.900   8.341  0.0158 -0.1291  0.1809
 2534SOL    HW119061   2.067   2.977   8.334 -1.6019  0.8109 -2.3624
 2534SOL    HW219062   2.062   2.829   8.303  1.1686  1.9350 -2.1588
 2535SOL     OW19063   1.174   3.298   2.404 -0.3948  0.6640  0.0363
 2535SOL    HW119064   1.169   3.260   2.317 -1.4277  2.4871 -0.7047
 2535SOL    HW219065   1.257   3.270   2.443 -0.7255 -1.0531 -0.5156
 2536SOL     OW19066   2.277   4.548   4.659  0.0088  0.3762  0.1716
 2536SOL    HW119067   2.183   4.531   4.652  0.3358 -1.0787 -0.6218
 2536SOL    HW219068   2.286   4.641   4.636  2.0082 -0.2951 -1.7272
 2537SOL     OW19069   0.863   1.980   9.145  0.1760 -0.2740  0.0011
 2537SOL    HW119070   0.809   2.051   9.111  0.6669  0.3042  0.4425
 2537SOL    HW219071   0.949   2.023   9.145 -0.9560  1.9889  0.2503
 2538SOL     OW19072   1.296   2.925   3.391  0.0389 -0.0843 -0.3996
 2538SOL    HW119073   1.332   2.972   3.467  0.5884  0.2518 -0.8656
 2538SOL    HW219074   1.233   2.864   3.429  0.7389  0.4117  1.5766
 2539SOL     OW19075   2.802   3.573   8.087  0.0828 -0.1152  0.5283
 2539SOL    HW119076   2.778   3.540   8.000 -1.1177 -1.9414  1.5493
 2539SOL    HW219077   2.864   3.643   8.066 -1.1965  0.5738 -0.9352
 2540SOL     OW19078   0.057   0.912  10.864  0.2631 -0.1519  0.3393
 2540SOL    HW119079   0.103   0.964  10.930  0.0235 -2.4752  2.3352
 2540SOL    HW219080   0.089   0.945  10.780  2.3730 -1.2670  0.7082
 2541SOL     OW19081   0.373   3.915   8.673 -0.0838 -0.5461  0.1014
 2541SOL    HW119082   0.298   3.971   8.653 -1.6270 -1.9906  1.7870
 2541SOL    HW219083   0.405   3.917   8.583 -2.0672  0.3520 -0.6000
 2542SOL     OW19084   0.214   0.744   0.821  0.3477  0.0158  0.0910
 2542SOL    HW119085   0.155   0.769   0.892 -1.2813 -1.3968 -0.7677
 2542SOL    HW219086   0.206   0.825   0.770  1.3553 -0.7902 -1.3523
 2543SOL     OW19087   2.162   2.647   6.387  0.0510 -0.4028  0.6927
 2543SOL    HW119088   2.106   2.712   6.343  0.8936 -0.6153 -0.6989
 2543SOL    HW219089   2.176   2.673   6.477  1.0341 -1.4338  0.8315
 2544SOL     OW19090   4.137   0.103   8.913  0.5235  0.3151 -0.5516
 2544SOL    HW119091   4.082   0.090   8.990 -0.6885 -1.3366 -1.6978
 2544SOL    HW219092   4.079   0.170   8.875  0.3801  0.4916 -0.0266
 2545SOL     OW19093   2.950   2.691  14.632 -0.2286 -0.0347  0.3345
 2545SOL    HW119094   2.972   2.782  14.612  0.1403 -0.2026  0.0013
 2545SOL    HW219095   2.937   2.656  14.544  0.6116  2.8564 -0.9394
 2546SOL     OW19096   2.284   2.561   6.967 -0.0771  0.1367  0.2965
 2546SOL    HW119097   2.350   2.515   6.914 -0.5417  0.3092 -0.4281
 2546SOL    HW219098   2.201   2.544   6.923 -1.7737  2.1312  2.7642
 2547SOL     OW19099   2.814   2.234  15.427  0.1390 -0.0948  0.2849
 2547SOL    HW119100   2.802   2.293  15.353 -0.1770 -0.9653 -0.3510
 2547SOL    HW219101   2.910   2.242  15.427  0.1142  0.2652  0.9703
 2548SOL     OW19102   0.773   1.052   7.849  0.7501 -0.2709  0.4066
 2548SOL    HW119103   0.693   1.105   7.849 -0.1295 -1.5997  0.1432
 2548SOL    HW219104   0.754   0.987   7.917 -1.4232  0.7215  0.7474
 2549SOL     OW19105   4.471   2.023   7.312  0.0459 -0.2439 -0.0991
 2549SOL    HW119106   4.394   1.978   7.278  1.5474 -2.2008 -0.8920
 2549SOL    HW219107   4.503   2.084   7.246  2.5881  0.6309  1.9569
 2550SOL     OW19108   1.954   3.684   9.511 -0.3467  0.3696 -1.1080
 2550SOL    HW119109   2.044   3.653   9.503 -0.7288 -1.1403  0.4101
 2550SOL    HW219110   1.976   3.762   9.562 -1.2691 -0.1479  0.0898
 2551SOL     OW19111   4.301   1.006   4.837  0.0856  0.2493  0.1943
 2551SOL    HW119112   4.327   1.080   4.783  0.7559  0.2430  0.5135
 2551SOL    HW219113   4.248   1.047   4.906  0.8927  0.9334  0.3940
 2552SOL     OW19114   0.990   2.487   4.995 -0.1354  0.2971  0.2164
 2552SOL    HW119115   1.015   2.568   5.039 -0.7639  0.8075 -0.3530
 2552SOL    HW219116   1.062   2.492   4.933 -1.0235  1.2832 -0.7353
 2553SOL     OW19117   1.015   0.908   4.015  0.3405 -0.0385  0.0739
 2553SOL    HW119118   0.957   0.844   4.056 -0.9668  0.1346 -1.5059
 2553SOL    HW219119   1.098   0.862   4.027  0.3068 -0.0417  0.2942
 2554SOL     OW19120   1.198   3.222   4.245  0.6027  0.3375 -0.4243
 2554SOL    HW119121   1.140   3.265   4.308  0.3979 -0.6630  0.0719
 2554SOL    HW219122   1.226   3.147   4.297 -0.2638  0.9876  0.9836
 2555SOL     OW19123   1.890   2.044   4.416  0.2763 -0.2478 -0.7929
 2555SOL    HW119124   1.937   2.087   4.488 -1.4031 -0.6645  0.5335
 2555SOL    HW219125   1.881   2.109   4.346  0.6760 -0.7696 -1.3283
 2556SOL     OW19126   2.133   2.023   6.812  0.4088 -0.6698 -0.2427
 2556SOL    HW119127   2.187   2.073   6.751 -0.5755 -0.5627 -1.0194
 2556SOL    HW219128   2.089   1.960   6.756 -1.3172 -1.3973  1.8928
 2557SOL     OW19129   4.707   2.871   3.766 -0.0583 -0.1672  0.0726
 2557SOL    HW119130   4.657   2.822   3.701  1.5696  0.0516 -1.3638
 2557SOL    HW219131   4.669   2.957   3.748  0.3924 -0.5328 -2.6806
 2558SOL     OW19132   2.833   2.493  14.790  0.1448  0.3436  0.0476
 2558SOL    HW119133   2.873   2.406  14.796  2.0025  1.1609 -0.8173
 2558SOL    HW219134   2.903   2.542  14.747  0.1990 -0.6146 -0.9605
 2559SOL     OW19135   0.633   2.854   4.889 -0.4894 -0.1717 -0.3071
 2559SOL    HW119136   0.593   2.848   4.803  1.6338  0.1927 -1.3186
 2559SOL    HW219137   0.579   2.928   4.916  3.3473  1.7266  2.1820
 2560SOL     OW19138   1.909   0.905   5.550 -0.0869 -0.1549 -0.3327
 2560SOL    HW119139   1.913   0.811   5.566  0.0631 -0.3619 -1.6098
 2560SOL    HW219140   1.845   0.929   5.618 -0.2791  2.5993 -1.4796
 2561SOL     OW19141   3.580   1.942   7.868  0.0144 -0.2032 -0.2513
 2561SOL    HW119142   3.544   1.857   7.846  2.1609 -0.6727 -1.9017
 2561SOL    HW219143   3.530   1.971   7.945  0.0682  1.3068 -0.7792
 2562SOL     OW19144   3.195   4.521   4.978  0.3742  0.3323  0.0320
 2562SOL    HW119145   3.237   4.453   4.926 -1.0553 -0.7419  0.2824
 2562SOL    HW219146   3.263   4.586   4.995  1.7181 -0.6784 -1.5268
 2563SOL     OW19147   0.131   2.703  13.051 -0.5363  0.4940  0.4963
 2563SOL    HW119148   0.146   2.750  13.133  1.2157  0.7895  0.0215
 2563SOL    HW219149   0.168   2.760  12.983  1.9767 -1.7588 -0.0398
 2564SOL     OW19150   1.659   3.406   2.203  0.4633  0.0875 -0.0259
 2564SOL    HW119151   1.737   3.381   2.253 -0.8873 -0.6279  1.7298
 2564SOL    HW219152   1.613   3.459   2.269  2.4780  1.9806 -0.1402
 2565SOL     OW19153   0.177   1.141   5.920  0.6017  0.5178 -0.8876
 2565SOL    HW119154   0.151   1.187   5.839  2.1662 -0.4550 -1.9427
 2565SOL    HW219155   0.178   1.213   5.983  1.4531 -1.2765  1.0983
 2566SOL     OW19156   1.419   0.619  17.502  0.5960 -0.2108  0.0385
 2566SOL    HW119157   1.503   0.640  17.462  0.0465 -0.3727 -1.2163
 2566SOL    HW219158   1.365   0.610  17.423  2.8229 -0.1871 -1.4926
 2567SOL     OW19159   0.227   0.404   3.270 -0.9156  0.3293 -0.4940
 2567SOL    HW119160   0.204   0.455   3.348  1.6703  0.6883  0.0245
 2567SOL    HW219161   0.318   0.432   3.268 -0.6093 -0.7155 -1.2206
 2568SOL     OW19162   2.287   4.635   8.542 -0.0139 -0.4295  0.4703
 2568SOL    HW119163   2.230   4.570   8.500  0.4738 -1.0645  0.7906
 2568SOL    HW219164   2.238   4.716   8.530  0.2282 -0.2578  0.6460
 2569SOL     OW19165   2.179   0.757   0.282 -0.6575  0.1323  0.3165
 2569SOL    HW119166   2.203   0.830   0.225  1.9546 -1.2134 -0.2805
 2569SOL    HW219167   2.265   0.737   0.321 -0.0516  0.2737 -0.9561
 2570SOL     OW19168   3.802   0.728   6.702 -0.0841  0.2748 -0.0978
 2570SOL    HW119169   3.757   0.811   6.720  0.0206  0.0240  1.3465
 2570SOL    HW219170   3.870   0.736   6.769  1.2561 -0.4912 -1.3675
 2571SOL     OW19171   0.883   1.083  14.455  0.3520 -0.3737 -0.2284
 2571SOL    HW119172   0.885   1.001  14.504 -1.2417  0.0815  0.5872
 2571SOL    HW219173   0.870   1.035  14.373 -0.5348 -1.0461  0.3019
 2572SOL     OW19174   3.728   1.227  10.736  0.1992 -0.1303 -0.3072
 2572SOL    HW119175   3.807   1.191  10.776  0.1413 -0.1655 -0.2248
 2572SOL    HW219176   3.672   1.230  10.813 -0.4542 -0.1010 -0.7833
 2573SOL     OW19177   0.042   0.733   5.423 -0.6151 -0.4835  0.0076
 2573SOL    HW119178   0.047   0.658   5.481 -1.3050  0.8984  1.8703
 2573SOL    HW219179   0.134   0.756   5.432 -0.8685  1.6499 -2.7313
 2574SOL     OW19180   3.413   4.020  10.694  0.0346 -0.0961  0.4261
 2574SOL    HW119181   3.369   3.978  10.620  0.0016  0.9657 -0.1581
 2574SOL    HW219182   3.334   4.067  10.719 -0.5694  0.6549 -2.8938
 2575SOL     OW19183   2.559   1.317  12.691 -0.1805 -0.4129  0.3251
 2575SOL    HW119184   2.504   1.299  12.615  0.6605  0.4910 -0.5057
 2575SOL    HW219185   2.539   1.405  12.722 -1.6811 -1.1421  1.4368
 2576SOL     OW19186   3.645   0.019  13.663 -0.3513  0.2026 -0.0148
 2576SOL    HW119187   3.685   0.014  13.750 -0.8861 -1.2804  0.1430
 2576SOL    HW219188   3.566   4.692  13.676  0.0727 -0.1503  1.1826
 2577SOL     OW19189   2.886   1.484   6.508  0.1627 -0.2127 -0.1889
 2577SOL    HW119190   2.910   1.564   6.554 -2.4218  1.1647 -1.2749
 2577SOL    HW219191   2.796   1.477   6.538 -0.9075  0.4570 -3.2464
 2578SOL     OW19192   3.825   3.443   7.245  0.0697  0.3424 -0.0433
 2578SOL    HW119193   3.766   3.517   7.231  1.8208  1.6207 -0.5964
 2578SOL    HW219194   3.897   3.459   7.184  0.4928 -0.0403  0.3531
 2579SOL     OW19195   2.208   1.748   7.995 -0.7298 -0.1601  0.2464
 2579SOL    HW119196   2.266   1.799   8.051 -0.1957 -0.3174 -0.1541
 2579SOL    HW219197   2.142   1.731   8.062 -0.1454 -0.5343  0.7307
 2580SOL     OW19198   2.638   1.424   9.101 -0.4783  0.2632  0.9232
 2580SOL    HW119199   2.674   1.338   9.081 -1.0195  0.0247  0.9746
 2580SOL    HW219200   2.545   1.408   9.119 -0.1318  0.1750  2.6159
 2581SOL     OW19201   1.635   4.676   5.510 -0.0751  0.4733  0.3665
 2581SOL    HW119202   1.564   4.705   5.453  0.6701  2.3088  0.3865
 2581SOL    HW219203   1.592   4.598   5.547 -1.1423  0.5004 -0.8345
 2582SOL     OW19204   1.940   3.355  10.047 -0.3683  0.3062 -0.0721
 2582SOL    HW119205   1.866   3.330  10.102 -0.0701  0.8757  0.5723
 2582SOL    HW219206   2.011   3.326  10.103  1.2074  0.7236 -1.8384
 2583SOL     OW19207   0.440   4.429   7.772 -0.4911  0.1034  0.0913
 2583SOL    HW119208   0.364   4.400   7.822 -2.9152  2.0550 -2.4478
 2583SOL    HW219209   0.416   4.499   7.711 -0.2331  0.6881  0.6487
 2584SOL     OW19210   2.014   1.363   8.736  0.3919 -0.3724  0.2344
 2584SOL    HW119211   2.074   1.365   8.810 -0.7094 -0.8147  1.1319
 2584SOL    HW219212   1.935   1.401   8.775  0.4016  1.3865 -1.4535
 2585SOL     OW19213   2.823   3.720   7.126  0.2297 -0.1291  0.0782
 2585SOL    HW119214   2.747   3.720   7.184 -0.4353 -0.4884 -0.7841
 2585SOL    HW219215   2.868   3.639   7.147  0.1449  0.2734  1.7861
 2586SOL     OW19216   2.352   0.186  13.286 -0.2113  0.0167 -0.0420
 2586SOL    HW119217   2.282   0.246  13.262  0.3231  1.2145  1.4127
 2586SOL    HW219218   2.403   0.251  13.333 -2.0099  0.3490  1.4612
 2587SOL     OW19219   2.878   2.068   4.164  0.2061  0.5269  0.2370
 2587SOL    HW119220   2.858   2.031   4.250 -0.1113  0.5395  0.1708
 2587SOL    HW219221   2.839   2.156   4.157 -1.4204 -0.4567 -2.8903
 2588SOL     OW19222   1.041   1.876   3.137 -0.7134 -0.0910 -0.2359
 2588SOL    HW119223   0.979   1.844   3.073 -0.2446  0.3171 -0.8946
 2588SOL    HW219224   1.068   1.803   3.192 -0.4630 -1.5482 -2.3017
 2589SOL     OW19225   2.055   2.161   7.988 -0.2217  0.4330  0.2656
 2589SOL    HW119226   2.032   2.200   7.904  3.4617 -0.2421 -1.0832
 2589SOL    HW219227   2.141   2.200   8.007 -0.2550  0.2322  0.8281
 2590SOL     OW19228   1.472   2.127   4.679 -0.0756  0.1292  0.0771
 2590SOL    HW119229   1.463   2.071   4.756  0.7021 -1.1095 -0.7425
 2590SOL    HW219230   1.486   2.053   4.620  1.2429  0.3684  0.0951
 2591SOL     OW19231   4.264   0.876   2.827  0.7084 -0.4722 -0.0514
 2591SOL    HW119232   4.272   0.966   2.796 -0.7567 -0.5864 -0.7427
 2591SOL    HW219233   4.171   0.860   2.815  1.0096 -2.1500 -0.2624
 2592SOL     OW19234   3.549   3.287   3.078 -0.0412  0.2984 -0.5122
 2592SOL    HW119235   3.475   3.278   3.018  0.1164 -0.1707 -0.6421
 2592SOL    HW219236   3.506   3.329   3.152  0.1458  0.7912 -0.6816
 2593SOL     OW19237   1.728   2.883   8.238 -0.5874 -0.1700  0.5818
 2593SOL    HW119238   1.818   2.880   8.269  0.8336 -0.1204 -3.4967
 2593SOL    HW219239   1.703   2.966   8.279  0.0778  0.0549  0.5397
 2594SOL     OW19240   2.113   4.631  15.620 -0.0474  0.4984  0.4228
 2594SOL    HW119241   2.149   4.694  15.556  0.2200 -0.1129 -0.0314
 2594SOL    HW219242   2.075   4.562  15.566  0.0581 -0.9102  2.1331
 2595SOL     OW19243   4.336   1.953  15.585  0.2053 -0.0693  0.2734
 2595SOL    HW119244   4.315   1.910  15.668  1.7609 -1.9651 -0.3166
 2595SOL    HW219245   4.290   2.036  15.593 -2.4892 -1.4852 -0.4756
 2596SOL     OW19246   3.974   1.545   8.977  0.2218 -0.4107 -0.2672
 2596SOL    HW119247   4.035   1.603   9.021 -0.6128 -0.5036  1.0299
 2596SOL    HW219248   3.932   1.600   8.911 -0.3782  2.3716  2.4300
 2597SOL     OW19249   2.091   1.129   8.320 -0.2794  0.1185 -0.3504
 2597SOL    HW119250   2.182   1.098   8.320 -0.0370  0.8217 -1.8796
 2597SOL    HW219251   2.099   1.213   8.274  0.2216  0.0667 -0.3594
 2598SOL     OW19252   3.125   3.673   2.607  0.5937  0.0858 -0.4803
 2598SOL    HW119253   3.145   3.580   2.616 -0.1918  0.1893  2.2712
 2598SOL    HW219254   3.079   3.675   2.523 -0.8164  0.6109  0.3046
 2599SOL     OW19255   2.451   4.221   1.946 -0.6201 -0.1523 -0.1655
 2599SOL    HW119256   2.437   4.247   1.855 -1.0108  1.5575  0.3688
 2599SOL    HW219257   2.478   4.130   1.934 -0.1884  0.0944 -1.1540
 2600SOL     OW19258   2.339   1.919   7.513 -0.6852 -0.2216  0.3539
 2600SOL    HW119259   2.342   1.830   7.477  0.5918 -0.8581  2.0383
 2600SOL    HW219260   2.277   1.905   7.584 -1.7900 -2.4487 -1.0481
 2601SOL     OW19261   1.502   1.414   6.399 -0.0872 -0.1569  0.0934
 2601SOL    HW119262   1.507   1.493   6.452  2.1808  0.4081 -0.9528
 2601SOL    HW219263   1.534   1.448   6.315  0.5929 -2.3254 -0.5245
 2602SOL     OW19264   1.796   1.389   5.014 -0.0045 -0.5709 -0.2070
 2602SOL    HW119265   1.747   1.307   5.027  3.1960 -2.6895 -1.3858
 2602SOL    HW219266   1.736   1.415   4.944  2.0686  0.8235 -1.4577
 2603SOL     OW19267   3.070   1.412  16.017 -0.0789 -0.2544 -0.0149
 2603SOL    HW119268   2.976   1.394  16.023 -0.3615  0.4029 -2.5347
 2603SOL    HW219269   3.102   1.327  16.048  2.5277  0.7346  0.0323
 2604SOL     OW19270   2.453   2.228  14.484 -0.0769  0.3802  0.7416
 2604SOL    HW119271   2.478   2.291  14.417 -0.6811  1.8009  1.8631
 2604SOL    HW219272   2.473   2.151  14.430 -1.8840 -0.4566  1.2874
 2605SOL     OW19273   3.960   3.945   8.456  0.6683  0.1549  0.3848
 2605SOL    HW119274   4.024   3.874   8.447  0.2946 -0.0257 -0.8305
 2605SOL    HW219275   3.886   3.892   8.486  1.7694 -1.7458 -0.2781
 2606SOL     OW19276   1.155   1.065  15.169 -0.0025 -0.1761 -0.4579
 2606SOL    HW119277   1.135   1.098  15.081 -1.9285  3.1169  1.1848
 2606SOL    HW219278   1.222   0.999  15.155  0.6268 -0.1105  2.3488
 2607SOL     OW19279   0.870   2.657   9.839 -0.3075  0.6278  0.3609
 2607SOL    HW119280   0.876   2.597   9.765 -1.7713 -0.6467  1.2704
 2607SOL    HW219281   0.789   2.624   9.879 -0.8210  0.8572 -0.4914
 2608SOL     OW19282   1.534   2.656   5.808  0.3549  0.1833  0.0598
 2608SOL    HW119283   1.617   2.620   5.780  2.0384  2.6222  1.8918
 2608SOL    HW219284   1.465   2.607   5.763  0.5987 -0.9057  0.8741
 2609SOL     OW19285   0.437   0.770   9.953  0.3322  0.1246  0.0122
 2609SOL    HW119286   0.399   0.780  10.041 -0.1821  2.3386 -0.4674
 2609SOL    HW219287   0.422   0.856   9.915 -1.1025 -0.9865 -1.9197
 2610SOL     OW19288   4.186   2.495   5.240 -0.2000 -0.1569  0.3125
 2610SOL    HW119289   4.096   2.488   5.272 -0.0957 -1.4250  0.3222
 2610SOL    HW219290   4.193   2.404   5.213 -0.4825 -0.5411  1.5619
 2611SOL     OW19291   2.587   4.129   3.793 -0.1239  0.3573  0.4695
 2611SOL    HW119292   2.683   4.119   3.788 -0.4456 -1.7911 -1.4153
 2611SOL    HW219293   2.581   4.194   3.863 -1.6448  1.1144 -0.3674
 2612SOL     OW19294   4.519   2.636   9.508 -0.2356  0.6362 -0.4667
 2612SOL    HW119295   4.449   2.683   9.464 -0.3850  0.8379 -0.0048
 2612SOL    HW219296   4.555   2.709   9.559  1.8685 -0.7332  0.0176
 2613SOL     OW19297   1.632   0.507   7.114 -0.4988 -0.5685 -0.8580
 2613SOL    HW119298   1.605   0.511   7.206  1.3018  0.0751 -0.3538
 2613SOL    HW219299   1.693   0.580   7.122  1.8632 -2.5525 -0.9402
 2614SOL     OW19300   1.244   0.864   1.031 -0.5567 -0.4297 -0.1407
 2614SOL    HW119301   1.329   0.829   1.058 -0.5838  0.8662  1.5957
 2614SOL    HW219302   1.267   0.954   1.005 -1.6159 -0.0568  0.1918
 2615SOL     OW19303   2.000   2.678   1.314  0.0959 -0.6504 -0.2300
 2615SOL    HW119304   1.982   2.753   1.371 -1.8771 -0.4471 -1.1057
 2615SOL    HW219305   2.096   2.680   1.313  0.0747  0.4194 -0.3492
 2616SOL     OW19306   0.830   1.278  10.098  0.0317 -0.2930  0.3571
 2616SOL    HW119307   0.826   1.280  10.194  1.8319  1.3604  0.3872
 2616SOL    HW219308   0.915   1.234  10.092  0.2804  0.2244  0.1073
 2617SOL     OW19309   0.339   3.974   6.200 -0.2059 -0.0541  0.2209
 2617SOL    HW119310   0.340   4.059   6.157  2.5910 -0.0804  0.2500
 2617SOL    HW219311   0.391   4.003   6.274 -0.5181 -0.3327  0.5538
 2618SOL     OW19312   0.331   3.151   9.848  0.1510  0.4027  0.5256
 2618SOL    HW119313   0.332   3.208   9.925  1.9923  0.1736  0.6764
 2618SOL    HW219314   0.260   3.093   9.872 -0.4540  0.9304  0.0084
 2619SOL     OW19315   1.229   1.590   1.612 -0.2326 -0.0250 -0.4520
 2619SOL    HW119316   1.260   1.661   1.556  0.4294 -0.1434 -0.2382
 2619SOL    HW219317   1.200   1.529   1.544 -1.0756  0.0785 -0.1803
 2620SOL     OW19318   1.746   4.489   2.072  0.0680 -0.4375 -0.1784
 2620SOL    HW119319   1.806   4.552   2.032 -0.3989 -0.3841 -0.7951
 2620SOL    HW219320   1.805   4.437   2.127 -0.5775  0.0711  1.0024
 2621SOL     OW19321   2.459   0.657  13.717 -0.1101  0.2088  0.0171
 2621SOL    HW119322   2.516   0.618  13.651 -1.5464 -0.7245 -0.6645
 2621SOL    HW219323   2.435   0.733  13.664  0.5471  1.7033  1.8651
 2622SOL     OW19324   1.107   3.321   4.951 -0.4633  0.0031  0.1392
 2622SOL    HW119325   1.186   3.375   4.942 -0.3846  0.2583  2.3200
 2622SOL    HW219326   1.062   3.367   5.022 -0.9034 -0.5385  0.2071
 2623SOL     OW19327   2.037   1.036  14.148 -0.1492 -0.3159 -0.3145
 2623SOL    HW119328   2.006   1.120  14.183 -0.4138 -0.3383 -0.4887
 2623SOL    HW219329   2.085   0.998  14.221 -2.4976 -1.5650  0.5709
 2624SOL     OW19330   0.283   3.951  15.219 -0.2650 -0.1647 -0.2483
 2624SOL    HW119331   0.226   3.920  15.289 -0.9109  0.7009 -0.3841
 2624SOL    HW219332   0.325   3.870  15.192 -1.4068 -0.8770  0.0981
 2625SOL     OW19333   0.183   2.314   2.905  0.3311 -0.5880 -0.2596
 2625SOL    HW119334   0.168   2.222   2.884 -0.8278 -0.8543  1.7576
 2625SOL    HW219335   0.278   2.307   2.916  0.3465  1.3187  0.7100
 2626SOL     OW19336   0.859   0.329   2.424  0.1997  0.0841  0.1298
 2626SOL    HW119337   0.863   0.363   2.335 -2.4532 -1.4422 -0.5696
 2626SOL    HW219338   0.949   0.301   2.443  0.2613 -1.1740 -1.9561
 2627SOL     OW19339   3.102   2.683   4.837  0.3039  0.0078  0.0700
 2627SOL    HW119340   3.030   2.634   4.877 -0.5552  0.3448 -1.0629
 2627SOL    HW219341   3.171   2.652   4.896 -1.4774 -0.7199  1.8042
 2628SOL     OW19342   3.098   3.393  15.123 -0.1571  0.2730 -0.7378
 2628SOL    HW119343   3.175   3.388  15.067  0.1260  0.5088 -0.3703
 2628SOL    HW219344   3.082   3.487  15.130 -3.7989 -0.3985  0.1643
 2629SOL     OW19345   3.321   2.519   9.938 -0.1933 -0.3012  0.3367
 2629SOL    HW119346   3.387   2.588   9.923 -0.2695  0.1865  2.3292
 2629SOL    HW219347   3.372   2.453   9.985  0.8676  1.5696  1.7910
 2630SOL     OW19348   0.186   2.663  15.949 -0.3990  0.2449 -0.2298
 2630SOL    HW119349   0.111   2.604  15.940  0.7593 -1.3794  0.6521
 2630SOL    HW219350   0.218   2.650  16.039  0.6469 -3.4246 -1.1311
 2631SOL     OW19351   3.280   1.866   9.007  0.0773 -1.0367  0.2435
 2631SOL    HW119352   3.356   1.924   9.001 -0.1939 -0.9700 -2.8861
 2631SOL    HW219353   3.198   1.914   9.023  0.4035  0.0078 -1.1797
 2632SOL     OW19354   4.020   4.432   6.231 -0.0381  0.3699 -0.1170
 2632SOL    HW119355   4.047   4.517   6.196 -2.9457  1.3793  0.1061
 2632SOL    HW219356   3.944   4.404   6.180 -0.0388  0.8693 -0.3837
 2633SOL     OW19357   1.346   0.814  10.406 -0.0985 -0.1068  0.5375
 2633SOL    HW119358   1.328   0.897  10.450 -1.0343 -1.0331  1.9071
 2633SOL    HW219359   1.316   0.758  10.478  1.7437 -0.2944  1.1404
 2634SOL     OW19360   3.560   0.892  10.885  0.0354 -0.3275  0.1515
 2634SOL    HW119361   3.619   0.898  10.809 -0.2688  0.2376 -0.0429
 2634SOL    HW219362   3.621   0.848  10.945 -1.4792 -0.9707  1.2062
 2635SOL     OW19363   2.229   3.022   5.782 -0.3123  0.1642  0.5342
 2635SOL    HW119364   2.303   3.079   5.762 -1.9770  1.8628 -0.7914
 2635SOL    HW219365   2.163   3.078   5.825 -1.7549 -0.1670 -1.2385
 2636SOL     OW19366   0.503   2.650   5.530 -0.0657 -0.4763 -0.4245
 2636SOL    HW119367   0.408   2.647   5.544  0.3074 -1.2540  1.9060
 2636SOL    HW219368   0.508   2.718   5.463 -1.3059  1.6435  1.6471
 2637SOL     OW19369   2.475   3.894   2.813  0.7372  0.4670  0.3014
 2637SOL    HW119370   2.569   3.892   2.830  0.7838 -0.5981 -0.0890
 2637SOL    HW219371   2.454   3.980   2.851 -1.5138  0.4117 -0.8009
 2638SOL     OW19372   4.202   4.461   9.137 -0.5175 -0.0484  0.2771
 2638SOL    HW119373   4.153   4.541   9.155  2.1345  0.9520  3.0445
 2638SOL    HW219374   4.203   4.421   9.224 -2.9163 -0.6249  0.0400
 2639SOL     OW19375   3.510   2.857   7.584  0.1794 -0.1683 -0.6730
 2639SOL    HW119376   3.471   2.944   7.589 -2.2036 -1.0931 -2.8552
 2639SOL    HW219377   3.576   2.860   7.515  0.4952  0.9390 -0.3184
 2640SOL     OW19378   3.616   1.016   7.604  0.1660  0.4194 -0.3003
 2640SOL    HW119379   3.536   0.969   7.580 -0.0363  1.1587 -1.0472
 2640SOL    HW219380   3.678   0.953   7.567 -1.8564 -1.1395 -1.0304
 2641SOL     OW19381   4.433   3.229   1.481  0.9270  0.2269  0.1251
 2641SOL    HW119382   4.339   3.227   1.495  0.6245  2.2659 -1.6512
 2641SOL    HW219383   4.440   3.228   1.385 -3.4551 -2.5532 -0.1591
 2642SOL     OW19384   0.317   0.055   3.495 -0.0108  0.1574  0.5889
 2642SOL    HW119385   0.291   0.005   3.573 -0.9807 -0.8369 -0.3868
 2642SOL    HW219386   0.233   0.070   3.452 -0.7862 -0.3240  1.9420
 2643SOL     OW19387   1.472   4.392   5.528  0.8939  0.7165 -0.1857
 2643SOL    HW119388   1.442   4.440   5.451 -1.6268  0.0149  0.3480
 2643SOL    HW219389   1.446   4.302   5.508 -1.4458  1.3981 -0.3105
 2644SOL     OW19390   0.884   4.199   4.372  0.0060  0.5043 -0.2315
 2644SOL    HW119391   0.789   4.201   4.381 -0.2751  1.4389 -3.4435
 2644SOL    HW219392   0.904   4.168   4.460 -1.5923 -1.1642 -0.4505
 2645SOL     OW19393   1.449   4.361   3.166 -0.2280 -0.1052  0.1788
 2645SOL    HW119394   1.436   4.324   3.253 -0.8387 -1.4858 -0.4863
 2645SOL    HW219395   1.506   4.437   3.178  0.2101  0.2179 -3.7829
 2646SOL     OW19396   3.999   3.414  17.592  0.4416 -0.3394 -0.2059
 2646SOL    HW119397   4.031   3.376  17.673 -0.4303 -0.7968 -0.0708
 2646SOL    HW219398   4.034   3.356  17.524  1.0171 -1.0986  0.7488
 2647SOL     OW19399   0.645   0.693   3.877  0.5361  0.0162 -0.7013
 2647SOL    HW119400   0.687   0.728   3.956 -0.9811 -0.6474  0.4029
 2647SOL    HW219401   0.674   0.751   3.806  2.1126  1.4419  1.0865
 2648SOL     OW19402   0.739   1.779   1.412  0.1497  0.1425  0.0191
 2648SOL    HW119403   0.649   1.808   1.425  0.0537  0.2019 -0.7535
 2648SOL    HW219404   0.777   1.861   1.381  0.8575 -0.0609  0.3323
 2649SOL     OW19405   0.398   3.788   2.868  0.2253  0.4134  0.1518
 2649SOL    HW119406   0.338   3.718   2.893  1.4670 -1.3373 -1.8669
 2649SOL    HW219407   0.378   3.802   2.775 -0.3278  1.4498  0.4169
 2650SOL     OW19408   4.011   1.755   5.749 -0.5539 -0.7500  0.2861
 2650SOL    HW119409   4.103   1.745   5.775 -0.7354  1.5196  1.8083
 2650SOL    HW219410   3.968   1.713   5.823 -1.8392 -0.1758 -0.1425
 2651SOL     OW19411   1.329   1.208   2.818 -0.4075  0.3434 -0.3340
 2651SOL    HW119412   1.364   1.159   2.744 -0.1334  0.4985 -0.3048
 2651SOL    HW219413   1.307   1.291   2.776  0.9756  0.8658 -0.0342
 2652SOL     OW19414   1.613   0.371  12.145  0.4277  0.1549  0.0566
 2652SOL    HW119415   1.528   0.414  12.144  0.0050 -0.7388 -2.0402
 2652SOL    HW219416   1.593   0.282  12.174 -0.5728  1.3854  3.1820
 2653SOL     OW19417   3.542   1.839   9.604  0.1361  0.1570  0.4903
 2653SOL    HW119418   3.568   1.854   9.695 -1.3292  2.6608  0.4914
 2653SOL    HW219419   3.604   1.899   9.562 -1.2019 -0.8589 -2.9192
 2654SOL     OW19420   0.080   1.234   1.202  0.5076  0.2365 -0.1783
 2654SOL    HW119421   0.148   1.228   1.269 -1.4389  1.2581  1.8750
 2654SOL    HW219422   4.725   1.259   1.247  1.7675  0.5305  1.9456
 2655SOL     OW19423   3.738   3.991   8.186 -0.0285 -0.5603 -0.2001
 2655SOL    HW119424   3.826   4.010   8.220  0.2677  0.8991 -1.7457
 2655SOL    HW219425   3.736   3.902   8.220  1.4849 -0.4317  0.2613
 2656SOL     OW19426   3.667   2.702  10.147  0.0272 -0.0766 -0.0873
 2656SOL    HW119427   3.713   2.755  10.212  1.4604 -1.8626  0.3867
 2656SOL    HW219428   3.715   2.619  10.154 -0.4592 -0.4294 -0.9024
 2657SOL     OW19429   2.299   0.033  17.530 -0.5530  0.3960  0.2010
 2657SOL    HW119430   2.304   0.012  17.436 -3.7912  1.4005 -0.1941
 2657SOL    HW219431   2.208   0.009  17.547 -0.3992  0.4480  1.1123
 2658SOL     OW19432   4.630   0.061   5.245  0.1079 -0.2305 -0.0821
 2658SOL    HW119433   4.648   0.098   5.158 -0.3887 -0.3701 -0.2429
 2658SOL    HW219434   4.541   0.085   5.273  0.7111  0.2990  1.3752
 2659SOL     OW19435   1.144   1.889   9.731 -0.0960  0.2497 -0.3550
 2659SOL    HW119436   1.099   1.833   9.795 -0.5038  0.8299 -0.1408
 2659SOL    HW219437   1.172   1.813   9.680  0.3062  0.2201 -0.0891
 2660SOL     OW19438   0.695   0.977   1.610 -0.0748  0.0162  0.0159
 2660SOL    HW119439   0.735   0.895   1.582 -2.2504 -1.4127  1.1245
 2660SOL    HW219440   0.766   1.037   1.587 -0.8039  1.5670  1.7744
 2661SOL     OW19441   0.664   4.072   9.191  0.9552  0.2435  0.3491
 2661SOL    HW119442   0.627   4.117   9.267  0.6178 -0.3827  0.5560
 2661SOL    HW219443   0.610   3.996   9.212 -0.4313  0.7855 -1.2113
 2662SOL     OW19444   0.406   3.548   5.711  0.1850 -0.0128 -0.0255
 2662SOL    HW119445   0.406   3.465   5.759  1.4173 -1.0247 -1.8020
 2662SOL    HW219446   0.366   3.514   5.631 -0.7233  0.1437  0.3619
 2663SOL     OW19447   1.319   4.494   6.973  0.2119  0.8684 -0.2033
 2663SOL    HW119448   1.336   4.405   7.004  0.5534  0.9336 -0.2104
 2663SOL    HW219449   1.391   4.543   7.012  0.9641  1.3818 -2.3058
 2664SOL     OW19450   3.263   3.219  13.100 -0.0863 -0.6245 -0.5271
 2664SOL    HW119451   3.212   3.290  13.062  0.9131  1.5650  2.1880
 2664SOL    HW219452   3.293   3.272  13.174 -2.9389 -1.5785  1.3225
 2665SOL     OW19453   2.849   0.573   5.586 -0.4543 -0.2082  0.0779
 2665SOL    HW119454   2.888   0.486   5.575 -1.4483 -0.6410 -0.0239
 2665SOL    HW219455   2.891   0.605   5.666 -0.1447  2.6467 -1.2264
 2666SOL     OW19456   3.101   1.881   7.977  0.5123  0.0358 -0.2016
 2666SOL    HW119457   3.124   1.825   7.903 -1.8166  0.1732 -1.0491
 2666SOL    HW219458   3.005   1.885   7.976  0.4351 -2.0813 -0.5148
 2667SOL     OW19459   3.281   0.550   2.634 -0.0435 -0.0797 -0.2463
 2667SOL    HW119460   3.214   0.550   2.702 -0.5917  0.3920 -0.7893
 2667SOL    HW219461   3.330   0.471   2.658 -2.0618 -0.9758  0.8960
 2668SOL     OW19462   3.319   4.351  13.987 -0.1601 -0.3133  0.1730
 2668SOL    HW119463   3.223   4.347  13.982 -0.2049  0.1465  0.5265
 2668SOL    HW219464   3.319   4.373  14.081  1.4411  1.1123 -0.1551
 2669SOL     OW19465   3.908   2.040   5.951 -0.2003 -0.2332  0.0599
 2669SOL    HW119466   3.854   1.979   6.001 -1.0911 -0.8907 -1.6971
 2669SOL    HW219467   3.958   2.085   6.019  2.3964  2.5632 -3.6856
 2670SOL     OW19468   3.723   2.853  11.840  0.0799 -0.5581 -0.1420
 2670SOL    HW119469   3.786   2.904  11.891  0.3851 -0.9092 -0.1707
 2670SOL    HW219470   3.704   2.914  11.769  0.3748  0.9710  1.0783
 2671SOL     OW19471   3.605   2.443   8.031  0.2287 -0.3406  0.5174
 2671SOL    HW119472   3.655   2.408   8.105 -0.1825  0.5406  1.2125
 2671SOL    HW219473   3.634   2.377   7.968  1.3937 -2.4168  3.2196
 2672SOL     OW19474   1.584   3.218   5.035  0.6602  0.4040 -0.9181
 2672SOL    HW119475   1.679   3.228   5.033  0.6163  1.1460  1.9469
 2672SOL    HW219476   1.571   3.205   4.941 -2.1680 -2.5504 -0.1295
 2673SOL     OW19477   1.995   1.666  16.847  0.5133  0.3409  0.3133
 2673SOL    HW119478   2.024   1.747  16.889 -1.7113  1.7506 -0.9178
 2673SOL    HW219479   2.066   1.602  16.861  0.2486  0.0214  0.2082
 2674SOL     OW19480   0.536   2.446   4.851  0.3043  0.4222 -0.2870
 2674SOL    HW119481   0.515   2.480   4.937  2.4770 -1.3833  0.9598
 2674SOL    HW219482   0.458   2.476   4.805  0.5824  1.5619  0.0071
 2675SOL     OW19483   1.117   4.138  16.891  0.0525  0.0301 -0.4596
 2675SOL    HW119484   1.042   4.096  16.933  0.7061 -1.2618 -0.5835
 2675SOL    HW219485   1.117   4.092  16.807 -2.3298 -0.4808 -0.1825
 2676SOL     OW19486   0.461   0.390   4.090  0.4994  0.2305  0.0471
 2676SOL    HW119487   0.548   0.371   4.056 -0.0678 -1.5713 -0.3751
 2676SOL    HW219488   0.421   0.461   4.039 -1.1432 -1.5506 -1.1268
 2677SOL     OW19489   3.743   0.153   2.695 -0.4278  0.1116  0.3059
 2677SOL    HW119490   3.685   0.214   2.648  0.1771 -1.3052 -2.2860
 2677SOL    HW219491   3.671   0.098   2.724  2.4044 -3.0002  1.3448
 2678SOL     OW19492   4.438   4.629  17.582  0.3420 -0.0857  0.9122
 2678SOL    HW119493   4.505   4.564  17.604  0.0237 -0.7052 -0.0063
 2678SOL    HW219494   4.363   4.575  17.559  0.2345  0.0237  1.0029
 2679SOL     OW19495   3.913   3.515   2.739  0.5701 -0.3646 -0.5299
 2679SOL    HW119496   4.004   3.488   2.742  0.2390 -1.4100  0.5404
 2679SOL    HW219497   3.866   3.454   2.682 -0.8393  0.7705 -0.6045
 2680SOL     OW19498   4.633   3.060   0.248 -0.2167 -0.0413 -0.1356
 2680SOL    HW119499   4.676   3.004   0.313  0.5459 -0.7439 -1.2514
 2680SOL    HW219500   4.582   2.999   0.194  0.1406 -0.3707 -0.1004
 2681SOL     OW19501   0.893   3.118   8.437 -0.1864  0.3691  0.2806
 2681SOL    HW119502   0.933   3.187   8.490  1.7646 -0.1351 -0.5204
 2681SOL    HW219503   0.853   3.162   8.363  0.1920 -0.1288 -0.2183
 2682SOL     OW19504   4.196   1.462   0.408 -0.4824  0.1391  0.0133
 2682SOL    HW119505   4.220   1.393   0.470  2.4853 -1.6441 -3.0991
 2682SOL    HW219506   4.187   1.405   0.331 -0.1022  0.4684 -0.2801
 2683SOL     OW19507   1.528   1.319   6.096  0.0128 -0.5965 -0.2256
 2683SOL    HW119508   1.438   1.309   6.128  0.6267 -0.8738  1.3897
 2683SOL    HW219509   1.509   1.404   6.056 -0.0934 -0.9065 -0.8277
 2684SOL     OW19510   2.904   4.475   4.898 -0.4150 -0.1960  0.0795
 2684SOL    HW119511   2.961   4.488   4.822  0.8534  6.5182  2.1355
 2684SOL    HW219512   2.966   4.424   4.950  1.6547  2.2737  0.0433
 2685SOL     OW19513   2.001   2.391  14.092 -0.4276  0.3819 -0.0488
 2685SOL    HW119514   2.060   2.334  14.143 -2.8832 -1.4298  0.7740
 2685SOL    HW219515   1.990   2.337  14.014 -0.6628 -0.2388  0.4130
 2686SOL     OW19516   1.679   0.135   8.256 -0.3385 -0.0516  0.1071
 2686SOL    HW119517   1.643   0.110   8.171 -1.3438 -1.6323  0.9852
 2686SOL    HW219518   1.596   0.162   8.295 -1.8619 -1.8417 -1.8163
 2687SOL     OW19519   0.471   1.386   1.490  0.0946  0.2672 -0.3166
 2687SOL    HW119520   0.508   1.414   1.573  2.0788 -4.0057  0.2548
 2687SOL    HW219521   0.480   1.291   1.497  1.9594  0.6184  1.7721
 2688SOL     OW19522   2.606   0.547   5.434  0.1811 -0.2884  0.3127
 2688SOL    HW119523   2.674   0.559   5.500  1.8762 -0.7220 -1.3869
 2688SOL    HW219524   2.637   0.593   5.357 -1.7408  1.6425  0.6575
 2689SOL     OW19525   2.526   2.235   4.444  0.5730 -0.5358 -0.0146
 2689SOL    HW119526   2.592   2.174   4.412 -0.8671 -2.3818  0.5283
 2689SOL    HW219527   2.442   2.191   4.432 -0.4957  1.8429 -1.4006
 2690SOL     OW19528   4.706   2.102   7.565 -0.2037 -0.1901 -0.5109
 2690SOL    HW119529   4.694   2.167   7.496 -0.0002  0.1203 -0.2550
 2690SOL    HW219530   4.645   2.030   7.549 -1.8675  1.4787 -1.6127
 2691SOL     OW19531   2.584   0.923   1.048 -0.0233  0.3697  0.2419
 2691SOL    HW119532   2.618   0.847   1.001  0.4405 -0.2265  1.5303
 2691SOL    HW219533   2.597   0.894   1.138  1.0467 -1.0887 -0.3869
 2692SOL     OW19534   0.735   3.495   3.460 -0.3091 -0.2664 -0.0715
 2692SOL    HW119535   0.758   3.530   3.374 -0.5224  0.4627  0.1730
 2692SOL    HW219536   0.782   3.412   3.465 -0.2564 -0.3909 -2.7493
 2693SOL     OW19537   2.766   0.989   7.066 -0.1571  0.2353  0.1555
 2693SOL    HW119538   2.772   1.042   7.145  2.5044 -0.9279  0.7183
 2693SOL    HW219539   2.673   0.966   7.074  0.2944 -2.0775 -1.2616
 2694SOL     OW19540   2.398   3.430   3.159 -0.3345  0.4617  0.6697
 2694SOL    HW119541   2.477   3.406   3.209 -0.5157 -0.6450  0.4298
 2694SOL    HW219542   2.433   3.458   3.074 -0.3078  1.4328  0.9998
 2695SOL     OW19543   2.948   3.493   8.358 -0.0721  0.4734  0.1768
 2695SOL    HW119544   2.874   3.515   8.415  1.0329  0.0259  1.7858
 2695SOL    HW219545   2.952   3.397   8.354  0.5390  0.5287 -0.4073
 2696SOL     OW19546   1.702   2.138   2.385 -0.0593 -0.1517  0.3779
 2696SOL    HW119547   1.772   2.198   2.358 -0.3210 -0.2998 -0.6154
 2696SOL    HW219548   1.644   2.144   2.310 -3.5430 -0.5398  3.0628
 2697SOL     OW19549   3.999   4.346  14.335 -1.0758  0.3208 -0.0827
 2697SOL    HW119550   3.956   4.432  14.344 -0.1294  0.7463  0.3537
 2697SOL    HW219551   4.077   4.352  14.390 -0.5317  0.6487 -0.8722
 2698SOL     OW19552   1.028   2.086  16.872  0.0266 -0.4914 -0.0671
 2698SOL    HW119553   1.088   2.160  16.871 -1.4060  0.6695 -0.8069
 2698SOL    HW219554   1.021   2.076  16.967  0.0509  0.3336  0.0232
 2699SOL     OW19555   0.564   1.973   1.896  0.7367 -0.0818  0.8048
 2699SOL    HW119556   0.643   2.023   1.879 -0.7748  2.1124  0.2926
 2699SOL    HW219557   0.510   2.042   1.935  1.1823  1.4771 -1.3515
 2700SOL     OW19558   0.454   2.220  11.923  0.4543  0.1068 -0.5093
 2700SOL    HW119559   0.527   2.177  11.966 -0.6990 -0.8042  0.5289
 2700SOL    HW219560   0.499   2.302  11.901  1.6448 -0.2001  0.8798
 2701SOL     OW19561   1.647   4.321   4.097  0.0419  1.3557  0.3659
 2701SOL    HW119562   1.606   4.390   4.150 -1.5257  1.0494 -0.4221
 2701SOL    HW219563   1.650   4.259   4.170  1.0943  1.0078  0.0155
 2702SOL     OW19564   3.457   2.877   3.118 -0.0984  0.0220  0.0280
 2702SOL    HW119565   3.500   2.960   3.098  1.3102 -0.5285  0.7578
 2702SOL    HW219566   3.480   2.869   3.210  0.7100  1.1028 -0.0840
 2703SOL     OW19567   1.890   1.097  15.829 -0.1384 -0.0943  0.5516
 2703SOL    HW119568   1.797   1.101  15.850  0.0087 -0.4921  1.2577
 2703SOL    HW219569   1.933   1.083  15.913  0.2852  0.4384  0.4237
 2704SOL     OW19570   1.750   2.214   6.746 -0.0389  0.0338  0.2836
 2704SOL    HW119571   1.678   2.248   6.692 -0.0516 -0.6136 -0.1043
 2704SOL    HW219572   1.779   2.293   6.792 -0.1074 -0.8440  1.7991
 2705SOL     OW19573   1.239   0.865   8.955 -0.3897 -0.9206  0.4796
 2705SOL    HW119574   1.256   0.930   9.024 -0.1196 -0.5329  0.0486
 2705SOL    HW219575   1.327   0.841   8.928 -1.4860 -3.3740 -0.8882
 2706SOL     OW19576   3.229   1.015   0.025  0.4656  0.6432  0.1179
 2706SOL    HW119577   3.280   1.089   0.056  0.2772 -1.0206  4.2967
 2706SOL    HW219578   3.139   1.027   0.057  0.1476  0.7256 -0.7994
 2707SOL     OW19579   2.897   0.503  16.599  0.3689 -0.0348 -0.2722
 2707SOL    HW119580   2.959   0.568  16.567  2.9111 -0.5907  3.4896
 2707SOL    HW219581   2.958   0.436  16.631  0.6077  0.1024 -0.4520
 2708SOL     OW19582   1.117   4.710  16.095 -0.5545  0.0408  0.1658
 2708SOL    HW119583   1.108   0.077  16.115 -0.2000  0.2289 -0.5447
 2708SOL    HW219584   1.059   4.703  16.019  0.2344  2.8955 -0.6878
 2709SOL     OW19585   1.475   2.077   1.839 -0.7181  0.2153 -0.7092
 2709SOL    HW119586   1.536   2.144   1.807 -3.0012  3.0112  0.6670
 2709SOL    HW219587   1.524   2.028   1.906 -0.3060 -0.1214 -1.2641
 2710SOL     OW19588   1.215   1.847   4.778  0.1051 -0.1909 -0.4275
 2710SOL    HW119589   1.291   1.805   4.737  0.1712 -1.2176  0.7567
 2710SOL    HW219590   1.225   1.826   4.871 -0.5238  1.7254  0.0632
 2711SOL     OW19591   3.283   2.920  10.288 -0.3123  0.2886 -0.1694
 2711SOL    HW119592   3.243   2.878  10.364  3.9647 -0.6274  1.6028
 2711SOL    HW219593   3.223   2.922  10.213  1.2235 -1.8100 -1.4571
 2712SOL     OW19594   1.824   1.799   4.575 -0.3471 -0.0969 -0.2245
 2712SOL    HW119595   1.885   1.752   4.518 -1.6200 -1.1281 -0.7499
 2712SOL    HW219596   1.887   1.819   4.645 -0.5037 -2.0058  0.4734
 2713SOL     OW19597   0.979   3.761  13.659 -0.1618  0.5685  0.0446
 2713SOL    HW119598   0.994   3.788  13.749 -0.5654 -2.5060  1.0351
 2713SOL    HW219599   0.942   3.673  13.668  0.1732  0.6667  2.3299
 2714SOL     OW19600   4.606   0.349   3.240 -0.1967 -0.4158  0.4205
 2714SOL    HW119601   4.566   0.428   3.204 -0.2515 -0.5211  0.2509
 2714SOL    HW219602   4.569   0.336   3.327 -1.8244 -1.7999 -0.4776
 2715SOL     OW19603   4.349   1.175   6.513  0.3462  0.8327 -0.1446
 2715SOL    HW119604   4.359   1.134   6.427  0.6974 -0.4787  0.5397
 2715SOL    HW219605   4.381   1.110   6.575  0.8692  0.3166 -0.9619
 2716SOL     OW19606   1.950   4.138   3.745 -0.5347  0.2182 -0.1405
 2716SOL    HW119607   1.886   4.072   3.770 -1.2349  0.5290 -1.0910
 2716SOL    HW219608   1.963   4.111   3.654 -0.1079 -0.0898  0.0161
 2717SOL     OW19609   1.951   3.151  12.894  0.5465 -0.4320 -0.2765
 2717SOL    HW119610   1.959   3.079  12.831  1.0023  0.7214 -1.5249
 2717SOL    HW219611   1.927   3.220  12.833  0.3172 -0.6043 -0.3816
 2718SOL     OW19612   3.338   3.337   6.777 -0.0702 -0.8651  0.1478
 2718SOL    HW119613   3.307   3.266   6.835  0.9912 -1.7977 -0.4165
 2718SOL    HW219614   3.400   3.385   6.833  0.7163  0.0619 -1.5218
 2719SOL     OW19615   4.465   0.441   2.907  0.1462 -0.5238 -0.0737
 2719SOL    HW119616   4.422   0.511   2.858  1.4178 -0.2900 -0.8598
 2719SOL    HW219617   4.492   0.497   2.979  0.9462  2.0950 -2.3974
 2720SOL     OW19618   4.337   4.055   2.457  0.1221 -0.7431 -0.2514
 2720SOL    HW119619   4.342   4.137   2.505 -1.6567 -0.9471  0.2702
 2720SOL    HW219620   4.397   3.991   2.497  0.0035  0.3188  1.6027
 2721SOL     OW19621   1.474   2.135  15.260  0.3782  0.4584 -0.5084
 2721SOL    HW119622   1.527   2.128  15.181  1.2772  0.3805  0.1043
 2721SOL    HW219623   1.542   2.143  15.327  1.9739  0.5277 -2.1529
 2722SOL     OW19624   0.641   0.700   5.563  0.6501 -0.2276 -0.3332
 2722SOL    HW119625   0.717   0.643   5.559  0.2545 -0.7402 -0.5195
 2722SOL    HW219626   0.610   0.672   5.649 -0.2614  1.8780  0.0322
 2723SOL     OW19627   1.430   0.839   3.702 -0.5027 -0.2563 -0.0979
 2723SOL    HW119628   1.367   0.890   3.754  0.3917  1.2614 -0.5134
 2723SOL    HW219629   1.502   0.900   3.687  1.9551 -3.4896 -1.3317
 2724SOL     OW19630   3.731   2.397   9.869  0.3063 -0.1648 -0.3246
 2724SOL    HW119631   3.727   2.405   9.965 -2.2688  0.8376 -0.5073
 2724SOL    HW219632   3.735   2.489   9.842  1.4229 -0.6856 -1.9281
 2725SOL     OW19633   3.664   4.534   6.060  0.0540 -0.9582  0.5567
 2725SOL    HW119634   3.606   4.601   6.024 -1.4034 -1.9626  1.0487
 2725SOL    HW219635   3.660   4.466   5.993 -1.7473 -0.2060 -0.0920
 2726SOL     OW19636   1.933   0.238   0.042  1.2775 -0.0546  0.1439
 2726SOL    HW119637   1.900   0.160   0.087  2.2486  0.7840  2.3179
 2726SOL    HW219638   1.927   0.294   0.119 -2.0143  0.2394 -0.3138
 2727SOL     OW19639   1.491   0.090  10.934 -0.5868 -0.2555 -0.5666
 2727SOL    HW119640   1.461   0.004  10.963 -1.5111  0.6932  1.2672
 2727SOL    HW219641   1.502   0.083  10.839  0.4295 -1.0117 -0.3844
 2728SOL     OW19642   3.177   3.721  13.607 -0.1597  0.0201 -0.0520
 2728SOL    HW119643   3.151   3.675  13.527 -0.9183  0.3206  0.0232
 2728SOL    HW219644   3.210   3.643  13.652  3.1595  2.8840  2.4259
 2729SOL     OW19645   4.525   3.317   9.298  0.4182 -0.5512 -0.6182
 2729SOL    HW119646   4.480   3.381   9.353 -1.6346 -1.7466 -0.9123
 2729SOL    HW219647   4.492   3.233   9.330 -1.2368  2.0176  4.5358
 2730SOL     OW19648   2.368   3.289   0.273 -0.0755  0.0356  0.0297
 2730SOL    HW119649   2.415   3.368   0.300  1.6563 -0.8510 -0.3970
 2730SOL    HW219650   2.400   3.225   0.336 -0.3504 -0.1987 -0.0686
 2731SOL     OW19651   2.473   3.330   4.884 -0.4009 -0.0308 -0.1358
 2731SOL    HW119652   2.453   3.262   4.819  1.1023 -2.8607  2.3628
 2731SOL    HW219653   2.556   3.363   4.849  1.4522 -3.9114  0.6596
 2732SOL     OW19654   3.011   0.216   8.994  0.6295 -0.0500  0.0759
 2732SOL    HW119655   2.987   0.303   8.963  3.0600  0.2474 -0.9413
 2732SOL    HW219656   3.106   0.214   8.987  0.4557 -1.7799 -1.6700
 2733SOL     OW19657   0.832   0.795  16.979  0.3099 -0.7983  0.1135
 2733SOL    HW119658   0.815   0.711  16.938  2.3636 -2.5875  2.8913
 2733SOL    HW219659   0.825   0.857  16.907 -3.1986 -1.6985 -0.3059
 2734SOL     OW19660   2.602   3.533   3.892 -0.7231 -0.3793 -0.1820
 2734SOL    HW119661   2.517   3.569   3.865 -0.2539  1.3055  0.6207
 2734SOL    HW219662   2.587   3.547   3.985 -0.4001 -1.8959  0.0896
 2735SOL     OW19663   2.897   4.188   8.080 -0.1775 -0.3176  0.6665
 2735SOL    HW119664   2.835   4.251   8.044 -1.3224 -2.8190 -1.7538
 2735SOL    HW219665   2.851   4.119   8.127  0.8807 -1.3597  0.1736
 2736SOL     OW19666   1.562   3.470   3.324 -0.5578 -0.0348  0.4789
 2736SOL    HW119667   1.472   3.480   3.295 -0.2352  3.3474  0.6593
 2736SOL    HW219668   1.547   3.452   3.417  1.3939  2.6140  1.3024
 2737SOL     OW19669   3.599   1.823   4.165 -0.1316 -0.8052  0.0031
 2737SOL    HW119670   3.516   1.777   4.168 -0.7173  0.3003  1.1147
 2737SOL    HW219671   3.595   1.861   4.077 -3.1894  0.5038  0.7169
 2738SOL     OW19672   3.021   2.214   6.930  0.3784  0.4530 -0.3673
 2738SOL    HW119673   3.089   2.269   6.893  1.8169 -2.0174 -1.3731
 2738SOL    HW219674   3.045   2.129   6.893  0.4603  0.8165 -1.1441
 2739SOL     OW19675   3.155   0.574   6.240  0.2539 -0.6303 -0.5558
 2739SOL    HW119676   3.235   0.585   6.292  0.4520 -1.4977 -0.6803
 2739SOL    HW219677   3.086   0.597   6.302  1.2531 -0.1783  0.3927
 2740SOL     OW19678   0.295   1.620   6.371 -0.1351  0.1824 -0.5239
 2740SOL    HW119679   0.268   1.531   6.393  0.2321 -0.5350 -2.9534
 2740SOL    HW219680   0.235   1.638   6.298 -1.9999 -0.8166  0.7634
 2741SOL     OW19681   0.411   2.220   6.823  1.0444  0.2240  0.3243
 2741SOL    HW119682   0.402   2.234   6.918 -0.5539 -0.7374  0.3108
 2741SOL    HW219683   0.486   2.271   6.790 -0.7610  2.2585 -0.6406
 2742SOL     OW19684   4.348   2.450   6.718  0.4794  0.9814 -0.3487
 2742SOL    HW119685   4.410   2.381   6.694 -0.8731 -0.4392  0.2329
 2742SOL    HW219686   4.271   2.398   6.742 -0.4520  1.7418 -1.7281
 2743SOL     OW19687   3.845   1.331   8.564  0.0544  0.1076  0.8573
 2743SOL    HW119688   3.808   1.249   8.598  1.3468 -0.6568  0.4494
 2743SOL    HW219689   3.933   1.311   8.532  0.0514 -0.9836  1.5153
 2744SOL     OW19690   3.926   1.001   0.608 -0.0163 -0.3674 -0.9360
 2744SOL    HW119691   3.958   0.912   0.622 -0.3687 -0.3596 -0.0570
 2744SOL    HW219692   4.011   1.044   0.601  0.4362 -1.1806 -0.5123
 2745SOL     OW19693   2.223   3.907  13.441  0.3908  0.2636 -0.1342
 2745SOL    HW119694   2.294   3.955  13.483 -0.5931  2.2907 -0.8077
 2745SOL    HW219695   2.241   3.816  13.466 -1.2060  0.2786  1.0389
 2746SOL     OW19696   2.668   3.506   9.517 -0.5738 -0.0084  0.4337
 2746SOL    HW119697   2.697   3.466   9.435 -0.1223  1.5210 -0.1546
 2746SOL    HW219698   2.711   3.589   9.496 -1.4835  1.0378  2.6170
 2747SOL     OW19699   1.568   1.833   8.388 -0.3455 -0.4635 -0.4537
 2747SOL    HW119700   1.558   1.906   8.449  0.1707 -0.7825  0.0159
 2747SOL    HW219701   1.510   1.767   8.427 -1.9938  1.2884  0.0411
 2748SOL     OW19702   2.212   2.373   5.323 -0.0301  0.0722  0.6450
 2748SOL    HW119703   2.204   2.308   5.393  0.4547  0.0359  0.6675
 2748SOL    HW219704   2.280   2.425   5.366 -0.1431 -0.5028  1.5198
 2749SOL     OW19705   1.360   2.234   6.424  0.6045 -0.2402 -0.5261
 2749SOL    HW119706   1.390   2.318   6.392 -0.0019 -0.7086 -2.3338
 2749SOL    HW219707   1.289   2.206   6.366 -0.9709 -0.2747  1.4197
 2750SOL     OW19708   1.385   0.886  15.101 -0.1144  0.4258 -0.3943
 2750SOL    HW119709   1.407   0.907  15.010  0.7042  1.0222 -0.0609
 2750SOL    HW219710   1.340   0.802  15.091 -2.4954  1.6047  0.3751
 2751SOL     OW19711   0.237   1.189   1.425  0.0989 -0.5952  0.3297
 2751SOL    HW119712   0.295   1.120   1.457 -1.0869 -1.6395  0.2096
 2751SOL    HW219713   0.242   1.257   1.493 -2.3741 -0.5627  0.4815
 2752SOL     OW19714   3.508   2.813   6.652 -0.2892  0.1923  0.4049
 2752SOL    HW119715   3.499   2.738   6.711  0.4809 -0.0913  0.1593
 2752SOL    HW219716   3.498   2.887   6.712  0.1797  1.8450 -1.5681
 2753SOL     OW19717   2.431   3.127   8.386  0.0553 -0.1848  0.5074
 2753SOL    HW119718   2.493   3.199   8.401  1.4774 -1.3909  0.3860
 2753SOL    HW219719   2.467   3.059   8.443 -0.6699 -0.3266  0.7932
 2754SOL     OW19720   4.460   3.247   4.350 -0.3121  0.1697  0.4868
 2754SOL    HW119721   4.458   3.160   4.310  3.0491 -0.0530  0.7834
 2754SOL    HW219722   4.467   3.224   4.443  0.2054 -1.1079  0.1438
 2755SOL     OW19723   0.623   1.055   4.440 -0.4532 -0.4736  0.4352
 2755SOL    HW119724   0.531   1.055   4.414 -0.4481  2.7093  0.4480
 2755SOL    HW219725   0.660   1.023   4.358 -0.0809 -0.5765  0.6443
 2756SOL     OW19726   2.359   4.311   9.608  0.2873 -0.1698 -0.1874
 2756SOL    HW119727   2.372   4.307   9.514 -0.1826  2.3015 -0.3565
 2756SOL    HW219728   2.447   4.327   9.643  0.5486 -1.8049 -0.1289
 2757SOL     OW19729   0.108   3.617  12.015 -0.2930 -0.4724 -0.2800
 2757SOL    HW119730   0.139   3.636  11.927  0.7929 -0.5865  0.0693
 2757SOL    HW219731   0.168   3.550  12.047 -0.0628  0.1881  0.6924
 2758SOL     OW19732   4.385   0.798   9.066  0.0748 -0.1121 -0.2661
 2758SOL    HW119733   4.314   0.753   9.112  0.3800 -0.4222 -0.1014
 2758SOL    HW219734   4.333   0.834   8.993 -0.4640  1.7662  1.0492
 2759SOL     OW19735   1.931   1.725   2.968  0.0076  0.1533  0.0512
 2759SOL    HW119736   1.876   1.649   2.945 -3.9706  3.0745 -0.1464
 2759SOL    HW219737   1.874   1.800   2.949  1.2067  1.6017  2.2862
 2760SOL     OW19738   1.502   2.066   2.930  0.1651 -0.3224 -0.3553
 2760SOL    HW119739   1.512   2.054   2.835 -0.8240  0.5366 -0.5630
 2760SOL    HW219740   1.407   2.067   2.942 -0.0566 -0.6106 -1.9927
 2761SOL     OW19741   2.147   3.575   9.846  0.6619 -0.0975 -0.2142
 2761SOL    HW119742   2.214   3.532   9.793 -1.1222 -0.6329 -2.0374
 2761SOL    HW219743   2.187   3.658   9.868  3.7740 -1.3137 -1.3395
 2762SOL     OW19744   0.845   0.260  14.441  0.6814 -0.0789 -0.2944
 2762SOL    HW119745   0.920   0.230  14.492  0.0628  1.3421  1.4495
 2762SOL    HW219746   0.778   0.220  14.497  0.8169  1.7966  1.2065
 2763SOL     OW19747   0.445   2.806  16.815  0.4596 -0.3605  0.3754
 2763SOL    HW119748   0.517   2.746  16.794 -0.6614 -0.5667 -2.8052
 2763SOL    HW219749   0.473   2.877  16.758 -2.6470  0.2143 -0.4203
 2764SOL     OW19750   3.197   3.894   8.296 -0.4087 -0.5070  0.1839
 2764SOL    HW119751   3.137   3.823   8.318 -2.5072  1.2544  0.2051
 2764SOL    HW219752   3.263   3.834   8.263  0.2433 -0.1561  0.8621
 2765SOL     OW19753   0.293   0.926   2.107  0.3651  0.2374  0.2161
 2765SOL    HW119754   0.308   0.860   2.040  1.1284 -0.6192  1.2177
 2765SOL    HW219755   0.256   0.999   2.057  3.1861 -0.0461 -2.2390
 2766SOL     OW19756   2.219   0.555   8.963 -0.2150 -0.2489  0.1219
 2766SOL    HW119757   2.311   0.572   8.981  0.4031 -1.1851 -2.1784
 2766SOL    HW219758   2.194   0.493   9.032  0.6623 -0.8444 -0.0945
 2767SOL     OW19759   3.369   0.159   0.105 -0.8009 -0.1464 -0.2250
 2767SOL    HW119760   3.362   0.064   0.107 -2.5377  0.0442  2.6244
 2767SOL    HW219761   3.280   0.185   0.082 -1.6536 -0.5737  2.5467
 2768SOL     OW19762   1.333   3.803   4.051 -0.7632  0.0672 -0.0039
 2768SOL    HW119763   1.413   3.752   4.038 -1.0519 -0.5439  0.6601
 2768SOL    HW219764   1.338   3.845   4.137  0.7255 -0.6789  0.2768
 2769SOL     OW19765   2.377   0.836   9.713 -0.0186 -0.6245 -0.2769
 2769SOL    HW119766   2.381   0.745   9.683  1.0520 -1.3087  1.8640
 2769SOL    HW219767   2.445   0.870   9.655  0.1107  0.6881  0.6534
 2770SOL     OW19768   0.597   4.394   4.420  0.0880  0.0769  0.1159
 2770SOL    HW119769   0.540   4.443   4.480 -1.0620  1.2439 -1.8940
 2770SOL    HW219770   0.653   4.460   4.379  2.4279 -2.9365 -1.5351
 2771SOL     OW19771   4.308   3.174   3.751 -0.3500  0.1608  0.0661
 2771SOL    HW119772   4.398   3.153   3.778 -0.1032  0.9942 -0.1276
 2771SOL    HW219773   4.337   3.215   3.670 -1.3087  2.2856  0.7958
 2772SOL     OW19774   3.973   4.432  11.746  0.1684 -0.4255  0.0911
 2772SOL    HW119775   3.898   4.452  11.801  0.0080 -0.1269 -0.2368
 2772SOL    HW219776   3.933   4.377  11.678 -0.7162 -0.8237  0.9349
 2773SOL     OW19777   1.995   2.944   1.460 -0.0932 -0.5138  0.0533
 2773SOL    HW119778   1.965   3.027   1.421 -0.3033 -0.3541  0.5613
 2773SOL    HW219779   2.036   2.982   1.538  0.7023 -0.5673 -0.3346
 2774SOL     OW19780   4.098   0.343  10.454  0.0068  0.0823 -0.6086
 2774SOL    HW119781   4.113   0.254  10.425 -3.4612  0.0335 -2.2537
 2774SOL    HW219782   4.171   0.392  10.416  1.0130 -0.5601  0.4997
 2775SOL     OW19783   0.969   1.663   0.747 -0.0331  0.0264 -0.1857
 2775SOL    HW119784   0.933   1.746   0.717 -1.7939 -0.1255  1.5070
 2775SOL    HW219785   0.966   1.620   0.661 -0.4712  0.0185 -0.1650
 2776SOL     OW19786   2.700   3.455   5.219  0.0488  0.1742 -0.0567
 2776SOL    HW119787   2.727   3.465   5.310  1.2350  1.7072 -0.5822
 2776SOL    HW219788   2.608   3.429   5.218  0.1451 -0.1039 -1.7223
 2777SOL     OW19789   3.030   2.649   2.934  0.2372  0.0936 -0.0052
 2777SOL    HW119790   3.119   2.680   2.948  0.4030  0.4698 -1.8145
 2777SOL    HW219791   3.037   2.557   2.907 -0.3186 -1.1448  4.0221
 2778SOL     OW19792   3.414   2.335   3.726 -0.1435 -0.0579  0.3919
 2778SOL    HW119793   3.509   2.343   3.711 -0.2357 -1.4670 -0.8480
 2778SOL    HW219794   3.420   2.281   3.805 -1.6588 -2.5535 -1.2310
 2779SOL     OW19795   2.714   2.838   7.941 -0.0550 -0.4586  0.0648
 2779SOL    HW119796   2.750   2.753   7.917 -1.1484 -1.6328  2.5694
 2779SOL    HW219797   2.755   2.856   8.026 -1.2275  0.0147  0.5398
 2780SOL     OW19798   1.560   3.877  12.883 -0.3662  0.8508 -0.1549
 2780SOL    HW119799   1.471   3.905  12.904  0.2245  0.7328  2.4972
 2780SOL    HW219800   1.604   3.940  12.940 -0.2920  0.3123  0.3866
 2781SOL     OW19801   2.556   0.203   6.980 -0.4353  0.0719  0.2219
 2781SOL    HW119802   2.643   0.242   6.985  0.1434 -1.2334  0.3764
 2781SOL    HW219803   2.510   0.215   7.063 -0.5399  1.2676 -0.0117
 2782SOL     OW19804   0.933   3.662   8.376  0.2449  0.4238  0.1420
 2782SOL    HW119805   0.848   3.628   8.404  0.9004 -0.9928  0.4074
 2782SOL    HW219806   0.984   3.668   8.456 -4.3052 -0.4641  3.1367
 2783SOL     OW19807   4.614   3.079   8.644 -0.4659  0.3096  0.4085
 2783SOL    HW119808   4.674   3.008   8.623 -1.5144 -0.9983  1.8161
 2783SOL    HW219809   4.667   3.149   8.605 -0.2289  0.3508  0.8029
 2784SOL     OW19810   2.907   0.227   4.716 -0.2699  0.5132 -0.1540
 2784SOL    HW119811   2.980   0.177   4.680 -1.1276 -2.1783  1.8272
 2784SOL    HW219812   2.939   0.317   4.727 -0.4514  0.5890 -0.2455
 2785SOL     OW19813   3.049   0.565   6.492 -0.0239  0.0800  0.2969
 2785SOL    HW119814   3.022   0.474   6.480 -0.9463  0.7563 -2.7789
 2785SOL    HW219815   3.006   0.583   6.575 -0.9416  0.4911 -0.2737
 2786SOL     OW19816   0.164   4.152   7.643 -0.1178  0.1766 -0.0341
 2786SOL    HW119817   0.140   4.106   7.562  1.4414 -0.7713  0.0519
 2786SOL    HW219818   0.178   4.237   7.600 -0.5065  0.0029 -0.5117
 2787SOL     OW19819   0.362   3.372   9.381 -0.3243  0.5028  0.6121
 2787SOL    HW119820   0.400   3.342   9.464 -0.6944  0.6437  0.8359
 2787SOL    HW219821   0.424   3.434   9.344  0.3724 -1.0617 -0.8192
 2788SOL     OW19822   4.320   3.959  12.980  0.6213 -0.1674  0.5183
 2788SOL    HW119823   4.335   3.900  12.906  1.0474 -0.7730  1.0901
 2788SOL    HW219824   4.412   3.970  13.004  0.4017 -0.8696  1.6553
 2789SOL     OW19825   1.583   3.558   9.541 -0.3683  0.4229 -0.1778
 2789SOL    HW119826   1.630   3.499   9.600 -1.1711 -0.0354  0.0120
 2789SOL    HW219827   1.619   3.525   9.459 -0.2303  0.1139  0.0077
 2790SOL     OW19828   0.940   4.119  15.320 -0.6649 -0.1849  0.0718
 2790SOL    HW119829   0.961   4.027  15.336 -1.3617 -0.6208 -1.5254
 2790SOL    HW219830   0.846   4.113  15.303 -0.3789 -2.5444 -0.7330
 2791SOL     OW19831   3.323   0.652   3.489 -0.0854  0.1982 -0.9549
 2791SOL    HW119832   3.266   0.576   3.474 -0.0134  0.1791 -1.1346
 2791SOL    HW219833   3.371   0.660   3.406 -0.6999 -2.4373 -1.5791
 2792SOL     OW19834   1.578   0.715   3.223  0.0140  0.4618 -0.1984
 2792SOL    HW119835   1.515   0.721   3.295  2.1761  0.3702  1.6860
 2792SOL    HW219836   1.620   0.799   3.237  1.4584 -0.2332 -0.3375
 2793SOL     OW19837   0.407   3.090   4.911 -0.1583  0.3122 -0.1103
 2793SOL    HW119838   0.350   3.166   4.921  0.1079  0.6258 -1.0489
 2793SOL    HW219839   0.441   3.091   5.001 -0.2698  2.0513 -0.0983
 2794SOL     OW19840   2.297   2.533   0.770  0.0670 -0.2014 -0.3707
 2794SOL    HW119841   2.294   2.584   0.850 -0.0423 -3.5599  1.7828
 2794SOL    HW219842   2.210   2.548   0.734  0.2474 -0.2044 -0.8107
 2795SOL     OW19843   1.528   2.352   6.615 -0.1395  0.2929 -0.3560
 2795SOL    HW119844   1.519   2.315   6.527 -0.2442  0.0342 -0.2345
 2795SOL    HW219845   1.510   2.446   6.604 -1.1461  0.3057  1.2865
 2796SOL     OW19846   3.542   0.308  16.747 -0.3594 -0.0678 -0.3795
 2796SOL    HW119847   3.479   0.327  16.677 -0.6251  0.3099 -0.0400
 2796SOL    HW219848   3.619   0.276  16.700  0.7807  0.7408  0.9464
 2797SOL     OW19849   4.005   3.733  15.995 -0.1275 -0.5776 -0.2102
 2797SOL    HW119850   3.978   3.680  16.070 -3.9982  1.2836 -0.2990
 2797SOL    HW219851   3.924   3.783  15.983  2.0777  2.9378 -0.5328
 2798SOL     OW19852   2.488   2.318  12.952  0.1762 -0.5561 -0.4177
 2798SOL    HW119853   2.552   2.303  12.882  2.6862 -0.0142  1.7376
 2798SOL    HW219854   2.487   2.413  12.940  2.0029 -0.2448  1.8031
 2799SOL     OW19855   1.468   4.478  16.757  0.3965 -0.1297 -0.6116
 2799SOL    HW119856   1.439   4.395  16.796 -0.4234  1.1433  1.4698
 2799SOL    HW219857   1.555   4.501  16.787  0.7963  0.5027 -2.2797
 2800SOL     OW19858   1.385   1.237   4.309 -0.1403  0.0188  0.0482
 2800SOL    HW119859   1.352   1.210   4.395  0.5033 -0.2926  0.2003
 2800SOL    HW219860   1.466   1.282   4.331  0.1863 -0.0610 -1.0234
 2801SOL     OW19861   0.156   3.288   2.733  0.2967 -0.5012 -0.0403
 2801SOL    HW119862   0.097   3.352   2.694  0.6220 -0.7063 -0.8621
 2801SOL    HW219863   0.090   3.220   2.748 -1.1211  1.1389  1.2454
 2802SOL     OW19864   3.486   3.294   0.421 -0.6954 -0.0901  0.4183
 2802SOL    HW119865   3.442   3.317   0.503 -3.1153  1.1058 -1.2307
 2802SOL    HW219866   3.422   3.233   0.385  1.1788 -0.4423 -2.3073
 2803SOL     OW19867   3.071   4.227   3.246 -0.6495  0.0938  0.4382
 2803SOL    HW119868   3.142   4.225   3.309 -1.8708  2.3883  1.8818
 2803SOL    HW219869   2.997   4.211   3.305 -0.3598  1.9054  1.2816
 2804SOL     OW19870   2.512   1.263   1.915  0.1585 -0.2032  0.2018
 2804SOL    HW119871   2.582   1.325   1.894  0.0763 -0.8776 -2.0598
 2804SOL    HW219872   2.557   1.179   1.904  2.0212  0.6209  1.3910
 2805SOL     OW19873   0.889   0.491  10.975  0.1205  0.1151 -0.5849
 2805SOL    HW119874   0.890   0.473  10.881  0.1536  0.5253 -0.6641
 2805SOL    HW219875   0.919   0.411  11.017 -0.2622  0.9873  1.3825
 2806SOL     OW19876   3.311   0.168  10.618 -0.3952  0.2426 -0.1599
 2806SOL    HW119877   3.280   0.079  10.606 -2.1900  1.2739 -3.1426
 2806SOL    HW219878   3.299   0.200  10.529  0.0087  0.8862  0.0097
 2807SOL     OW19879   2.622   0.277   2.198  0.1357  0.6958  0.1853
 2807SOL    HW119880   2.595   0.339   2.131 -2.3450 -2.4064 -1.7114
 2807SOL    HW219881   2.717   0.277   2.190 -0.0969 -2.5388 -2.8902
 2808SOL     OW19882   4.385   0.834  12.035 -0.3666  0.4808  0.6614
 2808SOL    HW119883   4.290   0.833  12.022 -0.0194  0.0646 -1.9206
 2808SOL    HW219884   4.408   0.919  12.072  1.2558 -0.0052  0.7532
 2809SOL     OW19885   0.981   2.012   3.385  0.3938 -0.6361  0.4748
 2809SOL    HW119886   1.043   1.999   3.313  0.1298  0.0331  0.1351
 2809SOL    HW219887   0.914   1.946   3.368 -1.9465  1.8099  0.3270
 2810SOL     OW19888   3.946   2.012   2.800 -0.5100  0.0622  0.1787
 2810SOL    HW119889   3.980   1.969   2.878  0.3141  0.4974  0.0657
 2810SOL    HW219890   4.000   1.975   2.729 -1.5118 -1.9893  0.4728
 2811SOL     OW19891   4.125   0.614   7.592  0.3743 -0.5135  0.4288
 2811SOL    HW119892   4.103   0.590   7.682 -2.7083  0.5709 -0.0372
 2811SOL    HW219893   4.220   0.602   7.587  0.4862  0.2021  0.7526
 2812SOL     OW19894   3.510   3.126  13.340 -0.5210  0.1256 -0.6104
 2812SOL    HW119895   3.581   3.157  13.396  0.4839 -2.7455 -0.3046
 2812SOL    HW219896   3.458   3.206  13.346  1.2286  1.1534  0.7107
 2813SOL     OW19897   1.700   4.437  14.520  0.0023  0.4185 -0.4388
 2813SOL    HW119898   1.735   4.524  14.540 -0.0560  0.7947 -1.9742
 2813SOL    HW219899   1.605   4.451  14.526  0.0863  1.8641 -2.2576
 2814SOL     OW19900   3.421   2.576  16.006 -0.0176 -0.1518 -0.1282
 2814SOL    HW119901   3.438   2.667  15.981 -3.5813  0.5913  0.1295
 2814SOL    HW219902   3.506   2.535  16.021 -0.1499 -0.8051 -1.1617
 2815SOL     OW19903   3.830   3.479  16.449  0.6557  0.6589  0.3068
 2815SOL    HW119904   3.886   3.407  16.478  0.7976  0.9930  0.8628
 2815SOL    HW219905   3.759   3.423  16.419  3.4170 -2.5670 -0.2212
 2816SOL     OW19906   3.003   1.451   0.325 -0.0435 -0.1080  0.1384
 2816SOL    HW119907   3.086   1.499   0.332  1.7577 -2.9122 -1.7154
 2816SOL    HW219908   2.963   1.465   0.410 -2.0771 -2.0779 -0.4851
 2817SOL     OW19909   1.121   2.479   4.499  0.1099  0.3261  0.0332
 2817SOL    HW119910   1.068   2.471   4.419  0.0073  2.0159 -0.0624
 2817SOL    HW219911   1.192   2.417   4.482 -0.4275 -0.9006  2.1958
 2818SOL     OW19912   4.342   2.804   9.393 -0.5559 -0.3698  0.0421
 2818SOL    HW119913   4.352   2.797   9.298  1.5883  1.2879  0.1590
 2818SOL    HW219914   4.247   2.798   9.407 -0.6583 -0.0406 -0.4852
 2819SOL     OW19915   0.289   3.477   2.368  0.6676  0.4295  0.8176
 2819SOL    HW119916   0.309   3.396   2.323 -0.0549  0.9288 -0.3921
 2819SOL    HW219917   0.250   3.452   2.452 -0.4155  0.5543  0.3560
 2820SOL     OW19918   3.767   3.656   7.502  0.1040  0.2733  0.0088
 2820SOL    HW119919   3.810   3.571   7.509 -2.5216 -0.9684  1.1526
 2820SOL    HW219920   3.841   3.716   7.498 -0.6656  1.0023 -3.9774
 2821SOL     OW19921   3.304   2.919   6.486 -0.8658 -0.0307 -0.5610
 2821SOL    HW119922   3.249   2.861   6.539 -0.0043  0.4426  0.8660
 2821SOL    HW219923   3.390   2.925   6.526 -0.8392 -3.7699 -0.0309
 2822SOL     OW19924   2.860   4.682   6.803 -0.1789  0.5890  0.5415
 2822SOL    HW119925   2.817   4.672   6.888 -0.9328  1.3101  0.2383
 2822SOL    HW219926   2.911   0.034   6.825  0.1017  0.7299 -0.6372
 2823SOL     OW19927   2.208   3.704   5.660  0.0092  0.1703  0.3879
 2823SOL    HW119928   2.204   3.673   5.570 -0.6306 -0.0902  0.5079
 2823SOL    HW219929   2.230   3.795   5.637 -3.6752  1.0529  0.3062
 2824SOL     OW19930   0.027   2.467   6.646 -0.3090  0.5683 -0.0344
 2824SOL    HW119931   0.087   2.394   6.630 -1.8114 -0.7433  0.3678
 2824SOL    HW219932   4.665   2.429   6.654  0.9473 -2.6217 -1.3750
 2825SOL     OW19933   1.918   2.581  16.253  0.2673 -0.8029 -0.0184
 2825SOL    HW119934   1.999   2.553  16.210  0.8130 -0.9604  1.1156
 2825SOL    HW219935   1.860   2.540  16.190  0.3761 -1.0241  0.0261
 2826SOL     OW19936   3.827   3.726  10.351 -0.4296  0.0387  0.3146
 2826SOL    HW119937   3.741   3.718  10.392 -0.5177  1.5703  0.4126
 2826SOL    HW219938   3.825   3.668  10.274 -1.9277  0.6942 -0.1362
 2827SOL     OW19939   0.712   3.765   6.501  0.7576  0.1047 -0.1956
 2827SOL    HW119940   0.708   3.770   6.405 -2.3497  0.0089 -0.0948
 2827SOL    HW219941   0.794   3.806   6.528  0.0584  2.4770 -1.6726
 2828SOL     OW19942   3.106   2.157   8.011 -0.0442 -0.2345  0.2853
 2828SOL    HW119943   3.089   2.063   7.999  0.8908 -0.4882  0.9719
 2828SOL    HW219944   3.202   2.153   8.012  0.0202  1.3267 -1.2895
 2829SOL     OW19945   0.812   2.707   8.823  0.8765 -0.1964 -0.8749
 2829SOL    HW119946   0.879   2.769   8.852  1.2866 -0.8383 -0.4756
 2829SOL    HW219947   0.848   2.671   8.742  0.4551  0.4985 -1.3794
 2830SOL     OW19948   3.967   4.029   0.737 -0.2507  0.0715 -0.4098
 2830SOL    HW119949   3.963   4.042   0.832  1.6398  2.5469 -0.6565
 2830SOL    HW219950   4.052   3.985   0.737  0.1360  0.8306 -1.2849
 2831SOL     OW19951   3.277   1.855   4.960 -0.0381 -0.4958  0.6308
 2831SOL    HW119952   3.255   1.891   4.874  0.4593 -1.7090  0.0010
 2831SOL    HW219953   3.372   1.847   4.963 -0.2626 -3.2186  0.6280
 2832SOL     OW19954   4.571   2.808   9.696 -0.1146  0.3904 -0.1325
 2832SOL    HW119955   4.649   2.857   9.724  0.5152 -0.1289 -1.0087
 2832SOL    HW219956   4.511   2.877   9.724 -0.2862  0.3725 -0.4628
 2833SOL     OW19957   1.807   2.463  13.135 -0.2651  0.2055  0.0412
 2833SOL    HW119958   1.780   2.373  13.149 -0.6725  0.5713  1.5893
 2833SOL    HW219959   1.736   2.489  13.075 -0.0040  1.9094  0.4511
 2834SOL     OW19960   1.007   0.538   3.194  0.3534 -0.0681 -0.2110
 2834SOL    HW119961   0.937   0.475   3.177 -0.7914  1.3859 -0.8850
 2834SOL    HW219962   1.010   0.548   3.289 -0.5935 -0.5566 -0.1315
 2835SOL     OW19963   2.665   1.771  12.147  0.3014  0.2124 -0.7319
 2835SOL    HW119964   2.597   1.832  12.117 -1.3645 -1.5316 -0.4833
 2835SOL    HW219965   2.621   1.699  12.103 -0.5475  1.5802 -2.1454
 2836SOL     OW19966   2.565   3.387   0.524 -0.3214  0.1200  0.0784
 2836SOL    HW119967   2.616   3.454   0.569 -0.4697 -0.1611  0.6683
 2836SOL    HW219968   2.481   3.434   0.520 -1.2485 -1.5649 -0.2084
 2837SOL     OW19969   4.400   4.354  10.074 -0.6532 -0.5070  0.0201
 2837SOL    HW119970   4.374   4.267  10.045 -1.1057  0.2115 -1.6843
 2837SOL    HW219971   4.493   4.348  10.097 -0.1267 -0.3281 -2.1402
 2838SOL     OW19972   4.308   0.088   2.501 -0.0246 -0.4374 -0.6921
 2838SOL    HW119973   4.345   0.044   2.577  2.1492  1.5066 -0.6162
 2838SOL    HW219974   4.258   0.021   2.454 -0.8152  0.3081 -0.9065
 2839SOL     OW19975   4.677   0.852   7.134  0.0277 -0.0143  0.1507
 2839SOL    HW119976   4.607   0.797   7.099 -1.7777  0.7427  2.6538
 2839SOL    HW219977   4.633   0.937   7.136  0.6916  0.3569 -0.9074
 2840SOL     OW19978   3.247   3.105   4.694 -0.2246  0.3620 -0.6471
 2840SOL    HW119979   3.318   3.091   4.632  2.2943  1.4304  2.0027
 2840SOL    HW219980   3.222   3.012   4.694 -1.5647  0.7208  0.3500
 2841SOL     OW19981   1.777   0.550   3.954 -0.3828  0.1916 -0.7965
 2841SOL    HW119982   1.701   0.594   3.915 -0.7695  1.7720  1.7080
 2841SOL    HW219983   1.795   0.501   3.874  1.7658  0.4270 -0.4605
 2842SOL     OW19984   0.539   4.485   6.850 -0.1730 -0.0053 -0.0310
 2842SOL    HW119985   0.576   4.408   6.807 -0.2751  1.7745 -3.3507
 2842SOL    HW219986   0.557   4.556   6.788  1.6762 -2.7765 -2.6272
 2843SOL     OW19987   3.360   1.897  13.850 -0.0544 -0.3254 -0.7442
 2843SOL    HW119988   3.283   1.906  13.794 -1.2582 -1.1170  0.7894
 2843SOL    HW219989   3.401   1.980  13.825 -0.1032  0.0728  0.4571
 2844SOL     OW19990   1.288   4.196   0.598  0.0733  0.2559  0.1247
 2844SOL    HW119991   1.372   4.164   0.631  0.6506  0.8373 -0.7684
 2844SOL    HW219992   1.318   4.287   0.607  0.8350  0.1739 -1.5074
 2845SOL     OW19993   0.084   0.747   3.300  0.5844 -0.3082 -0.0812
 2845SOL    HW119994   0.091   0.680   3.368 -0.0310  0.1459  0.4247
 2845SOL    HW219995   4.720   0.774   3.320  0.9477  0.4079  0.6203
 2846SOL     OW19996   1.188   2.233   8.854  0.7057  0.0591  0.1059
 2846SOL    HW119997   1.096   2.258   8.851  1.0496  1.3976  0.4211
 2846SOL    HW219998   1.179   2.138   8.846  0.6177  0.0572  0.2363
 2847SOL     OW19999   1.502   0.145   2.843 -0.0018 -0.1034  0.2093
 2847SOL    HW120000   1.565   0.178   2.906  0.7282  1.2361 -1.2118
 2847SOL    HW220001   1.560   0.086   2.794  1.2334  1.4755 -0.2113
 2848SOL     OW20002   2.511   0.036   4.859  0.2450 -0.6610  0.2651
 2848SOL    HW120003   2.605   0.024   4.862  0.1745 -0.7477  2.3405
 2848SOL    HW220004   2.478   4.673   4.866 -1.1597 -0.1392  0.3049
 2849SOL     OW20005   0.007   4.647   7.885 -0.1290 -0.2829 -0.2555
 2849SOL    HW120006   0.089   4.673   7.926 -1.5873  0.0404  2.4238
 2849SOL    HW220007   4.707   4.577   7.944  1.4157 -1.4775 -1.0181
 2850SOL     OW20008   0.505   3.951   6.443 -0.8806 -0.0844 -0.0013
 2850SOL    HW120009   0.557   3.890   6.495  1.1295  0.9190 -0.8448
 2850SOL    HW220010   0.569   4.021   6.442  2.2323 -2.9349 -1.3264
 2851SOL     OW20011   4.301   2.283   2.983  0.1101  0.2147 -0.2575
 2851SOL    HW120012   4.238   2.342   2.941  0.4953 -0.2814 -1.5209
 2851SOL    HW220013   4.299   2.327   3.068  0.3182 -0.7866  0.2606
 2852SOL     OW20014   3.239   4.021  11.024  0.1674  0.3198  0.0880
 2852SOL    HW120015   3.211   4.079  11.094  0.6573  1.1144 -0.3732
 2852SOL    HW220016   3.322   3.988  11.059  0.1903 -0.5306 -0.7604
 2853SOL     OW20017   2.568   1.013   7.643 -0.3363 -0.0594  0.6557
 2853SOL    HW120018   2.642   1.067   7.614 -0.1074 -0.2318  0.9218
 2853SOL    HW220019   2.538   0.969   7.563 -1.5205  2.2881 -0.1997
 2854SOL     OW20020   4.331   3.582   8.628  0.5644  0.7058 -0.0449
 2854SOL    HW120021   4.350   3.493   8.660 -0.5059  1.0720  1.5788
 2854SOL    HW220022   4.353   3.578   8.535 -0.7357  0.9437 -0.3586
 2855SOL     OW20023   4.532   4.461   2.479  0.2124 -0.7584 -0.4016
 2855SOL    HW120024   4.551   4.549   2.509  1.6808 -0.4070 -2.2996
 2855SOL    HW220025   4.612   4.445   2.429  0.7189 -1.6216  0.6787
 2856SOL     OW20026   3.078   0.812   6.427  0.3661 -0.0710  0.1732
 2856SOL    HW120027   3.148   0.867   6.463  0.8713  1.5321 -3.2448
 2856SOL    HW220028   3.095   0.720   6.449  0.9734  0.3071  1.3079
 2857SOL     OW20029   3.783   4.689   1.787 -0.2803 -0.6660 -0.0139
 2857SOL    HW120030   3.775   4.610   1.840  2.5792 -0.1826  1.1436
 2857SOL    HW220031   3.757   4.654   1.702 -0.5967 -1.2427  0.3261
 2858SOL     OW20032   0.586   3.291  10.921 -1.0446  0.2485 -0.0205
 2858SOL    HW120033   0.634   3.251  10.993 -2.9957 -1.1839  0.4947
 2858SOL    HW220034   0.607   3.228  10.852  0.2079  0.8154 -0.1480
 2859SOL     OW20035   2.148   0.142   8.496 -0.3562  0.0385  0.2556
 2859SOL    HW120036   2.071   0.117   8.547  0.4764  0.7724  1.8644
 2859SOL    HW220037   2.107   0.167   8.413  1.9165  1.0593 -0.5450
 2860SOL     OW20038   4.390   4.056   1.847  0.2388  0.3324 -0.3602
 2860SOL    HW120039   4.356   4.107   1.774 -1.1256 -0.4590 -0.2639
 2860SOL    HW220040   4.438   4.119   1.901  1.4330 -0.2037 -0.7765
 2861SOL     OW20041   2.020   3.328   2.617 -0.1740 -0.3773  0.3800
 2861SOL    HW120042   2.071   3.409   2.619 -0.1040 -0.4504  2.1117
 2861SOL    HW220043   1.999   3.320   2.711 -1.3219 -0.0519  0.1532
 2862SOL     OW20044   1.834   4.140   8.994 -0.1098 -0.4337 -0.1690
 2862SOL    HW120045   1.887   4.131   8.915 -0.5193 -0.1129 -0.4805
 2862SOL    HW220046   1.756   4.087   8.980 -0.7685  0.6568 -0.6245
 2863SOL     OW20047   4.447   3.740  11.733  0.3919  0.2452 -0.3671
 2863SOL    HW120048   4.391   3.724  11.809  0.4219  1.2824 -0.1210
 2863SOL    HW220049   4.462   3.834  11.744 -1.4617  0.3615  1.1195
 2864SOL     OW20050   0.011   0.325  12.963 -0.1238  0.6849  0.4380
 2864SOL    HW120051   0.093   0.373  12.977 -0.0569  0.9378 -0.7649
 2864SOL    HW220052   4.697   0.359  13.043  1.0063  1.8362  0.5270
 2865SOL     OW20053   0.465   1.394  12.683  0.1311 -0.1910  0.1706
 2865SOL    HW120054   0.387   1.374  12.631 -0.8925  2.8671  0.5612
 2865SOL    HW220055   0.525   1.448  12.630  2.7535 -0.3730  2.9892
 2866SOL     OW20056   1.875   2.808   6.947  0.6511  0.0844 -0.5222
 2866SOL    HW120057   1.862   2.755   6.869 -2.8349  0.1096  0.0356
 2866SOL    HW220058   1.806   2.872   6.929  1.5078  0.8510 -1.1330
 2867SOL     OW20059   2.120   0.415  15.554 -0.4801 -0.9261 -0.4947
 2867SOL    HW120060   2.044   0.473  15.549  0.0476 -0.2970 -1.2214
 2867SOL    HW220061   2.104   0.381  15.642  0.3106  1.7392  0.6531
 2868SOL     OW20062   3.569   2.106   6.720 -0.2082 -0.1060 -0.3496
 2868SOL    HW120063   3.534   2.017   6.724  0.8016 -0.5301 -0.9732
 2868SOL    HW220064   3.519   2.149   6.789  0.5283  0.3904 -0.1249
 2869SOL     OW20065   3.753   1.213  15.374 -0.2000 -0.0188  0.5180
 2869SOL    HW120066   3.700   1.232  15.298 -0.9309  1.2728  1.3388
 2869SOL    HW220067   3.732   1.121  15.386 -3.0595  0.6731  0.8336
 2870SOL     OW20068   0.810   3.321  15.631  0.0545  0.0400  0.1335
 2870SOL    HW120069   0.867   3.253  15.667  0.6556 -1.5052 -3.7387
 2870SOL    HW220070   0.763   3.348  15.710  2.9656  0.9980  1.5170
 2871SOL     OW20071   2.770   2.517   5.862 -0.2503  0.4005 -0.1651
 2871SOL    HW120072   2.796   2.425   5.860 -2.3125 -0.2306  1.9447
 2871SOL    HW220073   2.808   2.535   5.948  0.0520  0.5088 -0.3230
 2872SOL     OW20074   1.673   1.152  17.040 -0.3248  0.2546  0.2202
 2872SOL    HW120075   1.604   1.125  16.980 -0.1488 -0.2677  0.2550
 2872SOL    HW220076   1.622   1.146  17.121  0.6366 -0.7683  0.7468
 2873SOL     OW20077   0.840   2.744   7.661 -0.1862 -0.4673  0.1079
 2873SOL    HW120078   0.842   2.835   7.691  1.5091 -0.5475  0.2533
 2873SOL    HW220079   0.854   2.698   7.744  1.4910 -1.7278 -0.8824
 2874SOL     OW20080   4.385   2.304  12.481 -0.2887  0.7456  0.0229
 2874SOL    HW120081   4.328   2.256  12.541  0.2974  0.9653  0.7534
 2874SOL    HW220082   4.440   2.338  12.552  1.7099  1.0462 -1.6648
 2875SOL     OW20083   3.549   3.450   6.954  0.8714  0.3729  0.5353
 2875SOL    HW120084   3.615   3.437   6.885  1.1148  1.3153  0.5918
 2875SOL    HW220085   3.598   3.508   7.012  2.8977 -0.8058  0.0162
 2876SOL     OW20086   2.794   0.442   2.810  0.0965  0.1817 -0.0486
 2876SOL    HW120087   2.706   0.417   2.838  0.3931 -0.0645  0.6591
 2876SOL    HW220088   2.806   0.508   2.878  1.2001  0.0009 -0.0812
 2877SOL     OW20089   4.496   1.270  10.027 -0.5930 -0.0644  0.3438
 2877SOL    HW120090   4.572   1.300  10.076 -1.7556  0.0291  2.0862
 2877SOL    HW220091   4.478   1.181  10.055 -2.8187  0.5820  1.0049
 2878SOL     OW20092   4.044   1.073   0.278  0.0801 -0.4803  0.5934
 2878SOL    HW120093   4.092   0.996   0.308 -0.8444 -1.4831 -0.5494
 2878SOL    HW220094   3.954   1.042   0.286 -1.3771  3.3481 -0.8331
 2879SOL     OW20095   4.668   0.576   2.256  0.6187  0.0409  0.0987
 2879SOL    HW120096   0.020   0.590   2.310  1.2681  0.7319 -1.0101
 2879SOL    HW220097   4.698   0.605   2.170 -1.5242  0.8977 -0.3571
 2880SOL     OW20098   1.116   1.359   9.310 -0.3327 -0.1051  0.4955
 2880SOL    HW120099   1.200   1.358   9.264 -0.3677 -3.6756  0.5104
 2880SOL    HW220100   1.098   1.452   9.299 -2.0944 -0.4347  0.6161
 2881SOL     OW20101   2.730   2.490   3.436  0.4461  0.2920  0.3340
 2881SOL    HW120102   2.775   2.422   3.486 -0.0526 -0.7603 -0.6184
 2881SOL    HW220103   2.803   2.547   3.413 -0.4193  1.7773  1.3227
 2882SOL     OW20104   0.182   0.420  11.269 -0.6722 -0.3210  0.3827
 2882SOL    HW120105   0.148   0.459  11.189  2.1753 -1.0486 -1.1781
 2882SOL    HW220106   0.134   0.337  11.272 -2.1844  0.5221 -0.7329
 2883SOL     OW20107   3.098   0.291  16.537  0.1423 -0.3615  0.0203
 2883SOL    HW120108   3.191   0.311  16.525 -0.2609  1.1810 -0.4754
 2883SOL    HW220109   3.106   0.267  16.629  1.1702 -2.6236 -0.6519
 2884SOL     OW20110   2.042   0.672   2.752  0.0265  0.6813  0.4429
 2884SOL    HW120111   2.121   0.636   2.711  0.0946  0.0795  1.0956
 2884SOL    HW220112   2.009   0.588   2.783 -0.7839  2.2970  3.9601
 2885SOL     OW20113   3.056   2.702   7.028 -0.3218  0.2952 -0.1418
 2885SOL    HW120114   2.969   2.722   6.995  0.4722 -1.9259 -3.5366
 2885SOL    HW220115   3.035   2.613   7.057 -0.9517  0.3852 -0.3235
 2886SOL     OW20116   0.874   0.402   4.493 -0.2462 -0.2316  0.4684
 2886SOL    HW120117   0.816   0.326   4.486 -0.9769  0.5798 -1.9589
 2886SOL    HW220118   0.880   0.411   4.588 -0.1329  0.2704  0.4098
 2887SOL     OW20119   3.112   0.737   2.933  0.1850  0.2880 -0.5172
 2887SOL    HW120120   3.064   0.731   2.850 -1.4290  5.4995  0.0300
 2887SOL    HW220121   3.138   0.829   2.926 -1.2751  0.7150 -0.5101
 2888SOL     OW20122   2.266   2.376   8.078  0.1836 -0.6193 -0.1646
 2888SOL    HW120123   2.204   2.446   8.057  1.2154 -0.3772 -2.4162
 2888SOL    HW220124   2.234   2.349   8.164  2.5230 -2.4668  0.1432
 2889SOL     OW20125   2.023   2.530   6.848 -0.2408  0.0309  0.0705
 2889SOL    HW120126   1.971   2.458   6.884 -0.0591  0.1604  0.5886
 2889SOL    HW220127   1.960   2.577   6.792  0.4780  0.9744  0.0515
 2890SOL     OW20128   2.465   4.579   7.532 -0.5023  0.4318 -0.1900
 2890SOL    HW120129   2.471   4.601   7.625 -1.4583  1.2293 -0.3135
 2890SOL    HW220130   2.370   4.564   7.531 -0.2665 -1.2739  2.0646
 2891SOL     OW20131   0.400   4.561   5.070 -0.2327  0.4108 -0.1291
 2891SOL    HW120132   0.362   4.602   5.148  0.7521  2.0588 -0.5187
 2891SOL    HW220133   0.461   4.629   5.043  0.0927  0.3430  0.4415
 2892SOL     OW20134   3.045   0.016   2.514 -0.1236 -1.0556 -0.0450
 2892SOL    HW120135   3.106   4.691   2.459  1.2864  0.9560 -0.3532
 2892SOL    HW220136   2.976   0.030   2.449 -0.3068 -1.3337  0.0884
 2893SOL     OW20137   0.215   4.383   7.478  0.4863  0.4716  0.1265
 2893SOL    HW120138   0.237   4.438   7.553 -0.8021  1.3852 -0.1501
 2893SOL    HW220139   0.131   4.426   7.460 -0.8567 -1.4619  1.7428
 2894SOL     OW20140   2.725   2.084   1.822 -0.1653 -0.3114  0.0603
 2894SOL    HW120141   2.798   2.051   1.875  1.0349  2.6926  0.2586
 2894SOL    HW220142   2.735   2.034   1.741  0.3970 -0.0448 -0.0359
 2895SOL     OW20143   0.148   3.305   5.763  0.1472  0.7595 -0.5229
 2895SOL    HW120144   0.077   3.341   5.710  0.0594 -0.1303 -1.0061
 2895SOL    HW220145   0.163   3.379   5.822  0.1235 -0.2294  0.7161
 2896SOL     OW20146   0.674   0.424   3.388  0.1815  0.1214  0.1959
 2896SOL    HW120147   0.672   0.486   3.461 -1.6369 -0.7110  0.8666
 2896SOL    HW220148   0.658   0.342   3.435 -0.8890  0.4006  0.3187
 2897SOL     OW20149   2.919   3.070  16.863 -0.4893 -0.0602 -0.1660
 2897SOL    HW120150   2.884   3.091  16.950 -0.0462 -1.7172  0.4099
 2897SOL    HW220151   2.956   3.157  16.848  0.9383 -0.3574  1.5747
 2898SOL     OW20152   0.012   1.495   1.645 -0.1932 -0.2669 -0.2497
 2898SOL    HW120153   0.081   1.553   1.679 -2.0446  1.7619  0.0169
 2898SOL    HW220154   4.692   1.484   1.729 -0.7547 -1.4303 -0.7099
 2899SOL     OW20155   0.349   0.495  10.019 -0.4812 -0.0564 -0.1724
 2899SOL    HW120156   0.394   0.579  10.017  0.4165 -0.5426 -0.4661
 2899SOL    HW220157   0.325   0.477   9.929 -2.8273 -0.6872  0.5793
 2900SOL     OW20158   2.995   3.706   2.359 -0.4464  0.1096 -0.2087
 2900SOL    HW120159   2.901   3.709   2.343 -1.0128  2.5775  3.4738
 2900SOL    HW220160   3.041   3.717   2.276  1.1775 -0.9542  0.5311
 2901SOL     OW20161   2.379   0.681   6.489  0.0333 -0.3761  0.0607
 2901SOL    HW120162   2.434   0.607   6.462 -1.5694 -0.9720 -1.5802
 2901SOL    HW220163   2.386   0.743   6.416 -1.9883 -0.2511 -0.0231
 2902SOL     OW20164   1.120   4.512   5.550  0.1766  0.5830  0.2267
 2902SOL    HW120165   1.193   4.568   5.576  1.0689 -0.8783  0.8894
 2902SOL    HW220166   1.107   4.540   5.459 -0.5311  0.4337  0.2786
 2903SOL     OW20167   1.052   4.605   4.616 -0.4329 -0.3681 -0.2095
 2903SOL    HW120168   1.053   4.697   4.589  0.8944 -0.6737 -1.2068
 2903SOL    HW220169   1.018   4.561   4.539 -1.6261  0.9258 -0.4289
 2904SOL     OW20170   0.206   1.172  12.562 -0.0749  0.1327 -0.0865
 2904SOL    HW120171   0.228   1.263  12.545 -0.7373  0.4397  0.7171
 2904SOL    HW220172   0.129   1.181  12.617  0.0214  3.4186 -0.5229
 2905SOL     OW20173   1.303   1.617   5.734  0.0830  0.1063  0.6857
 2905SOL    HW120174   1.348   1.699   5.752  0.6327  0.5875 -2.9590
 2905SOL    HW220175   1.215   1.646   5.714 -0.0422 -0.9965 -0.3323
 2906SOL     OW20176   0.607   1.416   4.277 -0.3876  0.0234 -0.3799
 2906SOL    HW120177   0.606   1.369   4.193  2.4886  1.6018 -1.2758
 2906SOL    HW220178   0.665   1.491   4.264  0.6332 -0.5476  0.7602
 2907SOL     OW20179   2.266   3.294   8.036  0.2106  0.1845 -0.0155
 2907SOL    HW120180   2.262   3.359   7.966  0.1895  0.4901  0.2724
 2907SOL    HW220181   2.319   3.232   7.986 -1.0267  0.3176 -1.5022
 2908SOL     OW20182   1.543   3.949   7.239 -0.2150 -0.4842  0.6142
 2908SOL    HW120183   1.606   3.947   7.311 -3.3297 -1.1832  3.3336
 2908SOL    HW220184   1.531   4.043   7.246 -2.5217 -0.7389  0.1570
 2909SOL     OW20185   0.279   3.388   4.999 -0.2259 -0.7054  0.2875
 2909SOL    HW120186   0.228   3.455   5.044 -2.8826 -0.3556 -3.2304
 2909SOL    HW220187   0.209   3.325   4.979 -1.0896 -0.5072  2.5951
 2910SOL     OW20188   2.469   4.010   5.530 -0.2808  0.1408 -0.3510
 2910SOL    HW120189   2.538   3.987   5.593 -0.2988 -0.5450 -0.5833
 2910SOL    HW220190   2.480   3.946   5.460  1.4489 -0.8258  0.8082
 2911SOL     OW20191   3.571   4.055   5.282  0.4961  0.5201  0.4782
 2911SOL    HW120192   3.581   4.145   5.310 -1.3605  1.0412 -0.5116
 2911SOL    HW220193   3.636   4.015   5.340 -1.3832 -0.8090  1.6682
 2912SOL     OW20194   2.112   2.978  11.417 -0.3337 -0.2401  0.2843
 2912SOL    HW120195   2.169   3.044  11.378  0.4737 -0.4125  1.1700
 2912SOL    HW220196   2.041   3.027  11.457  1.7480  1.9283  1.2928
 2913SOL     OW20197   4.718   0.231  16.936  0.3190 -0.3013 -0.0705
 2913SOL    HW120198   4.682   0.297  16.994 -0.9040 -1.4624  0.4893
 2913SOL    HW220199   4.707   0.146  16.979  0.3480 -0.6217 -0.6990
 2914SOL     OW20200   4.612   1.205  10.982  0.3696 -0.1353 -0.6997
 2914SOL    HW120201   4.680   1.230  11.045 -2.1871 -0.8523  2.3350
 2914SOL    HW220202   4.593   1.288  10.939 -0.4129  1.0473  1.9324
 2915SOL     OW20203   1.025   4.251   3.156 -0.2357  0.6988  0.1782
 2915SOL    HW120204   1.028   4.155   3.157 -2.0875  0.6489  1.7601
 2915SOL    HW220205   1.107   4.266   3.205 -0.1390 -3.8657  1.5149
 2916SOL     OW20206   0.671   2.396   9.368  0.4686 -0.2822  0.8465
 2916SOL    HW120207   0.651   2.363   9.280 -1.5150  1.4889  0.6357
 2916SOL    HW220208   0.725   2.474   9.355 -0.6941  0.1532 -1.2584
 2917SOL     OW20209   1.798   3.921   3.733  0.4007 -0.1838  0.1842
 2917SOL    HW120210   1.707   3.914   3.762  1.0731 -1.5572  2.0016
 2917SOL    HW220211   1.813   3.827   3.723 -0.4117 -0.2994  0.0589
 2918SOL     OW20212   0.653   4.504   6.539 -0.0437 -0.0259  0.0121
 2918SOL    HW120213   0.668   4.462   6.455  0.2604  0.4817 -0.1874
 2918SOL    HW220214   0.696   4.437   6.592  0.1763 -1.6109 -2.1646
 2919SOL     OW20215   4.187   2.045  11.645 -0.8700 -0.2685 -0.0634
 2919SOL    HW120216   4.218   2.118  11.698  0.3963 -0.1397 -0.9814
 2919SOL    HW220217   4.092   2.056  11.655 -1.0614 -1.5658 -0.4389
 2920SOL     OW20218   3.809   0.596   4.012 -0.2295 -0.2694 -0.0125
 2920SOL    HW120219   3.771   0.526   4.065  1.4821 -0.6074  0.7689
 2920SOL    HW220220   3.752   0.672   4.022 -1.4896 -1.0734 -1.1028
 2921SOL     OW20221   3.188   4.606  11.653 -0.0531 -0.2523 -0.6406
 2921SOL    HW120222   3.257   4.670  11.633  0.1646  0.0513  1.0440
 2921SOL    HW220223   3.128   4.647  11.715 -2.1464 -1.3472 -1.9423
 2922SOL     OW20224   3.060   3.041   6.785  0.2994 -0.3212 -0.1024
 2922SOL    HW120225   3.077   2.947   6.788  1.2868 -0.1860 -1.2308
 2922SOL    HW220226   3.023   3.064   6.700 -0.5642  0.3142  0.4479
 2923SOL     OW20227   3.613   1.694   0.305 -0.0642 -0.0859  0.2925
 2923SOL    HW120228   3.573   1.619   0.350  1.0774 -1.1049 -0.3889
 2923SOL    HW220229   3.628   1.650   0.222  0.5730 -0.8880  0.8309
 2924SOL     OW20230   0.827   2.739   7.049 -0.2456  0.4245 -0.0498
 2924SOL    HW120231   0.757   2.714   6.989  0.5417  0.9425 -1.2015
 2924SOL    HW220232   0.784   2.777   7.125  0.0590  1.4402 -0.3728
 2925SOL     OW20233   4.627   4.529   8.315 -0.0010  0.2945  0.3363
 2925SOL    HW120234   4.624   4.434   8.302 -0.0958  0.4781 -1.0032
 2925SOL    HW220235   4.549   4.553   8.265  0.1282 -0.6471 -0.3284
 2926SOL     OW20236   2.619   4.706   7.359  0.9061  0.9451 -0.6363
 2926SOL    HW120237   2.604   4.649   7.284 -0.3477  2.7447 -1.7596
 2926SOL    HW220238   2.575   4.662   7.432  1.9717 -0.4430 -0.8284
 2927SOL     OW20239   3.559   3.882   2.171  0.5002  0.6002  0.6841
 2927SOL    HW120240   3.464   3.868   2.175  0.8979 -3.1212 -2.0298
 2927SOL    HW220241   3.588   3.836   2.092 -0.1317  0.9070  0.2719
 2928SOL     OW20242   2.165   2.180   3.877 -0.0841 -0.0562 -0.0218
 2928SOL    HW120243   2.107   2.246   3.841 -0.7458  0.8800  2.8173
 2928SOL    HW220244   2.179   2.125   3.799  0.6353 -2.3667  1.7099
 2929SOL     OW20245   0.690   3.235   6.250 -0.0545 -0.1868  0.4326
 2929SOL    HW120246   0.654   3.162   6.200  0.6981 -0.1379 -0.1794
 2929SOL    HW220247   0.667   3.316   6.206 -0.0840  0.5718  1.8239
 2930SOL     OW20248   3.145   1.331   3.376 -0.4265  0.1420  0.3131
 2930SOL    HW120249   3.141   1.316   3.281  0.3139  2.4664 -0.0753
 2930SOL    HW220250   3.118   1.423   3.371 -2.0863 -0.3752 -0.3032
 2931SOL     OW20251   1.310   1.072   6.004  0.3314 -0.5831  0.1108
 2931SOL    HW120252   1.284   1.136   6.070  0.8852  0.4209 -0.6385
 2931SOL    HW220253   1.274   1.113   5.926  1.1939 -1.0391 -0.5208
 2932SOL     OW20254   3.059   2.606   2.146  0.0641 -0.5480  0.2823
 2932SOL    HW120255   3.039   2.659   2.224 -0.4963 -0.0476 -0.2006
 2932SOL    HW220256   3.020   2.656   2.074 -0.2962 -1.2823 -0.0364
 2933SOL     OW20257   1.562   1.230  13.860 -1.0069 -0.1025 -0.4095
 2933SOL    HW120258   1.571   1.199  13.770  4.4287  0.9910 -0.2385
 2933SOL    HW220259   1.593   1.153  13.907 -1.0645  0.9726  1.3993
 2934SOL     OW20260   0.195   2.238   7.844 -0.1393  0.1157 -0.0854
 2934SOL    HW120261   0.246   2.229   7.925  0.2114 -2.3296 -0.5703
 2934SOL    HW220262   0.200   2.151   7.804  3.0944 -0.2053  0.9421
 2935SOL     OW20263   2.253   3.718   3.217  0.0946  0.6159  0.4732
 2935SOL    HW120264   2.320   3.742   3.281 -0.3888  0.8724  0.8742
 2935SOL    HW220265   2.208   3.638   3.245  0.5765  0.1530 -0.0604
 2936SOL     OW20266   1.339   2.044   3.478 -0.0295  0.1500 -0.3299
 2936SOL    HW120267   1.382   1.988   3.543  0.3448  1.2062  0.3334
 2936SOL    HW220268   1.350   1.996   3.396  1.8678  0.1510 -0.0833
 2937SOL     OW20269   3.683   0.460  11.113 -0.5379  0.8914  0.1056
 2937SOL    HW120270   3.588   0.445  11.112 -0.5399  0.7528  1.4683
 2937SOL    HW220271   3.717   0.372  11.129 -0.8274  0.9306  1.0005
 2938SOL     OW20272   4.182   2.072  12.257 -0.5162 -0.3055 -0.1870
 2938SOL    HW120273   4.276   2.066  12.243 -0.5250 -1.5176  0.2806
 2938SOL    HW220274   4.160   1.987  12.295  1.3466 -0.2103  1.0991
 2939SOL     OW20275   3.903   0.833  10.880  0.2312  0.0535 -0.3011
 2939SOL    HW120276   3.932   0.765  10.940 -1.2537 -1.0145 -0.7982
 2939SOL    HW220277   3.876   0.782  10.804 -1.4955  0.1848  0.2193
 2940SOL     OW20278   3.561   1.641   0.664  0.1984  0.3938  0.2866
 2940SOL    HW120279   3.648   1.680   0.671  0.3627  0.0510  0.1479
 2940SOL    HW220280   3.580   1.548   0.655 -0.5040  0.2579  0.1859
 2941SOL     OW20281   0.501   1.035   2.960  0.4433 -0.0121  0.3575
 2941SOL    HW120282   0.573   0.972   2.950  0.5006  0.1134 -0.0070
 2941SOL    HW220283   0.440   0.980   3.008  2.7721 -1.6082  1.5113
 2942SOL     OW20284   4.435   4.030   4.271  0.2951 -0.0433  0.1863
 2942SOL    HW120285   4.499   4.065   4.209 -0.5967  2.0498  0.4436
 2942SOL    HW220286   4.470   3.940   4.272  2.2646  0.7139 -0.9004
 2943SOL     OW20287   1.155   3.793   7.006  0.2052  0.0914  0.3855
 2943SOL    HW120288   1.062   3.770   7.001 -0.3846  2.7801 -1.1515
 2943SOL    HW220289   1.150   3.870   7.062  0.8642  1.6713 -1.6988
 2944SOL     OW20290   4.454   0.052   0.811 -0.3237  0.4132  0.0303
 2944SOL    HW120291   4.386   4.710   0.812  0.3728 -0.2855  1.2576
 2944SOL    HW220292   4.525   4.722   0.845 -1.4863 -1.7504 -1.0908
 2945SOL     OW20293   1.839   2.398   6.171  0.2985  0.8495 -0.1255
 2945SOL    HW120294   1.930   2.419   6.153  0.2917 -0.6904 -1.9521
 2945SOL    HW220295   1.853   2.324   6.230 -0.7113  0.0909 -0.8381
 2946SOL     OW20296   0.328   0.095   3.177  0.0969 -0.2324  0.1315
 2946SOL    HW120297   0.266   0.055   3.238 -0.6646 -1.5059 -1.4660
 2946SOL    HW220298   0.309   0.189   3.180  0.2679 -0.1762 -0.7491
 2947SOL     OW20299   4.451   0.045  11.673  0.0503 -0.4870  0.0645
 2947SOL    HW120300   4.377   4.712  11.658  0.6203 -0.9569 -0.9296
 2947SOL    HW220301   4.448   0.051  11.768  0.5741 -0.4243  0.0763
 2948SOL     OW20302   1.856   2.618  14.035 -0.2254  0.4431  0.2365
 2948SOL    HW120303   1.834   2.606  13.943  1.7851 -1.5209 -0.0004
 2948SOL    HW220304   1.903   2.534  14.042  0.7579  1.2352  3.3356
 2949SOL     OW20305   1.309   2.692  12.826 -0.2337 -0.3456 -0.3094
 2949SOL    HW120306   1.250   2.623  12.795  0.6899 -0.8564 -0.9390
 2949SOL    HW220307   1.370   2.644  12.882 -1.6655 -1.0714  0.6285
 2950SOL     OW20308   4.312   3.650   4.687  0.7014 -0.0322 -0.0254
 2950SOL    HW120309   4.271   3.607   4.612 -0.1061  2.5199 -1.0189
 2950SOL    HW220310   4.239   3.704   4.716 -0.9708 -1.6158 -1.2731
 2951SOL     OW20311   4.319   3.322  17.701 -0.7142 -0.0977  1.0911
 2951SOL    HW120312   4.373   3.399   0.013  0.0747 -0.8107  1.8885
 2951SOL    HW220313   4.288   3.355  17.616 -1.4750 -1.5469  0.8029
 2952SOL     OW20314   1.322   0.885  17.176 -0.0221 -0.0054 -0.3358
 2952SOL    HW120315   1.310   0.790  17.171  2.1046 -0.2812  0.1301
 2952SOL    HW220316   1.390   0.897  17.110  1.9098 -2.3639  1.2254
 2953SOL     OW20317   1.366   4.022   4.293 -0.1576 -0.1844 -0.6495
 2953SOL    HW120318   1.412   3.940   4.311 -0.4953 -0.3018 -0.3156
 2953SOL    HW220319   1.439   4.084   4.302 -0.9034  0.6371 -0.2501
 2954SOL     OW20320   3.803   0.276   0.140 -0.1241 -0.2173 -0.0513
 2954SOL    HW120321   3.845   0.191   0.125  0.6842  0.3744 -1.1172
 2954SOL    HW220322   3.864   0.313   0.204 -0.4405  0.5806 -0.2096
 2955SOL     OW20323   1.476   2.029  13.206 -0.7915  0.6070 -0.5931
 2955SOL    HW120324   1.465   2.030  13.111  0.5506 -2.8573 -0.7731
 2955SOL    HW220325   1.397   2.066  13.246  0.0024 -1.3066  2.7830
 2956SOL     OW20326   4.044   4.623   9.321  0.1162  0.0974 -0.3481
 2956SOL    HW120327   4.059   4.704   9.369  0.2725 -0.5196  0.6498
 2956SOL    HW220328   3.949   4.622   9.327  0.0193 -0.2211 -1.7469
 2957SOL     OW20329   1.015   2.432  12.056  0.0837 -0.0101 -0.1261
 2957SOL    HW120330   1.081   2.433  11.987  0.3584 -1.2884  0.1173
 2957SOL    HW220331   1.069   2.387  12.121 -0.0673 -0.9556 -0.6572
 2958SOL     OW20332   3.900   0.106   5.602 -0.2461  0.2222 -0.3621
 2958SOL    HW120333   3.841   0.125   5.675  0.1432 -0.7011  0.1882
 2958SOL    HW220334   3.911   0.012   5.617  0.3811 -0.0403 -2.4766
 2959SOL     OW20335   2.205   2.537  16.157 -0.1860  0.4125  0.1328
 2959SOL    HW120336   2.263   2.480  16.106 -2.1240  0.5035 -2.2200
 2959SOL    HW220337   2.207   2.625  16.119  1.4749  0.3593  0.1074
 2960SOL     OW20338   1.074   2.404  11.597 -0.4136 -0.1412 -0.5138
 2960SOL    HW120339   1.072   2.477  11.536 -0.2308  2.2097  2.3361
 2960SOL    HW220340   1.120   2.444  11.670 -2.7605 -0.9805  1.4011
 2961SOL     OW20341   2.430   3.226  11.271 -0.1828  1.0679  0.1133
 2961SOL    HW120342   2.436   3.132  11.256 -1.6749  0.8048  1.1507
 2961SOL    HW220343   2.506   3.249  11.218 -1.0752  1.2286 -1.0957
 2962SOL     OW20344   3.120   3.659   9.587  0.2550  0.1712  0.4596
 2962SOL    HW120345   3.066   3.589   9.623 -0.9928  1.0122  0.2156
 2962SOL    HW220346   3.117   3.725   9.657  0.3977 -0.4607  1.0655
 2963SOL     OW20347   2.724   4.516   8.257 -0.6414  0.0526 -0.0604
 2963SOL    HW120348   2.691   4.605   8.270 -1.1404 -0.1131 -0.1857
 2963SOL    HW220349   2.809   4.523   8.301  0.3475 -2.0850 -1.6591
 2964SOL     OW20350   0.048   0.595   1.995  0.1500 -0.0201  0.0531
 2964SOL    HW120351   0.111   0.525   1.978 -1.1742 -0.9107 -1.3106
 2964SOL    HW220352   0.014   0.610   1.906 -1.1782  0.8166  0.7064
 2965SOL     OW20353   3.902   1.825   5.182  0.4189  0.0627  0.1907
 2965SOL    HW120354   3.967   1.872   5.235  0.6290 -0.6956  0.6089
 2965SOL    HW220355   3.935   1.735   5.173 -1.6579 -0.6216 -0.4870
 2966SOL     OW20356   0.570   3.431   9.001  0.2572  0.6923  0.0850
 2966SOL    HW120357   0.597   3.339   9.008  0.4301  0.7003 -0.4783
 2966SOL    HW220358   0.476   3.430   9.014  0.1016 -1.3271 -1.0982
 2967SOL     OW20359   1.705   4.080  13.010 -0.5654  0.3276  0.4053
 2967SOL    HW120360   1.739   4.075  13.100 -2.1601  1.9329  1.0854
 2967SOL    HW220361   1.751   4.161  12.990 -0.4982  0.0659 -0.4852
 2968SOL     OW20362   2.384   4.070   3.272 -0.1309  0.5766  0.0462
 2968SOL    HW120363   2.391   3.980   3.302  1.3772  0.6083 -0.1957
 2968SOL    HW220364   2.461   4.066   3.214  1.1651  0.7937  1.7697
 2969SOL     OW20365   2.221   2.365   4.069  0.2387  0.2239  0.3243
 2969SOL    HW120366   2.213   2.288   4.013  1.0662 -0.2287  0.8186
 2969SOL    HW220367   2.314   2.362   4.092  0.5058 -0.5139 -0.8923
 2970SOL     OW20368   3.580   3.478  16.823 -0.4055  0.5503  0.1471
 2970SOL    HW120369   3.509   3.426  16.862  0.0603 -0.8395 -0.8354
 2970SOL    HW220370   3.564   3.448  16.733 -1.1876 -0.9614  0.7894
 2971SOL     OW20371   1.586   0.955   0.972 -0.5048  0.4200  0.1364
 2971SOL    HW120372   1.617   1.042   0.997 -0.6883  0.1395  1.3529
 2971SOL    HW220373   1.635   0.900   1.033  0.8628 -0.6166 -1.9202
 2972SOL     OW20374   2.964   2.396  13.776 -0.5566 -0.5558 -0.2936
 2972SOL    HW120375   2.931   2.312  13.744  0.8175 -0.9796 -0.5983
 2972SOL    HW220376   2.971   2.387  13.871  0.4846  1.6536 -0.1592
 2973SOL     OW20377   1.549   1.735   6.137 -0.3247 -0.3877 -0.4582
 2973SOL    HW120378   1.478   1.726   6.200 -0.4761  3.0502 -0.1354
 2973SOL    HW220379   1.591   1.818   6.160 -0.2309 -0.6223  0.2124
 2974SOL     OW20380   1.885   3.920   4.050 -0.2359  0.2854 -0.0561
 2974SOL    HW120381   1.896   3.919   3.955 -1.3866 -0.4337 -0.1696
 2974SOL    HW220382   1.856   3.831   4.070 -1.7014 -0.0443 -3.8028
 2975SOL     OW20383   4.149   1.905   8.933 -0.1704 -0.1945  0.6954
 2975SOL    HW120384   4.102   1.875   8.855  0.1799  0.0983  0.3730
 2975SOL    HW220385   4.185   1.827   8.976 -0.9943 -2.1227 -2.1236
 2976SOL     OW20386   3.575   4.439   2.668  0.1117  0.5837 -0.2498
 2976SOL    HW120387   3.492   4.391   2.676  0.6328 -0.8580 -3.3949
 2976SOL    HW220388   3.547   4.512   2.613  2.1519  1.7225  0.2268
 2977SOL     OW20389   1.468   1.343   7.228 -0.2252 -0.0021 -0.7404
 2977SOL    HW120390   1.422   1.372   7.307 -0.6518  0.6623 -1.2212
 2977SOL    HW220391   1.527   1.416   7.210 -0.9665  1.6676  3.5662
 2978SOL     OW20392   0.949   2.994   3.764 -0.1663  0.5292 -0.3313
 2978SOL    HW120393   1.006   3.013   3.839 -0.3498 -0.4737  0.0611
 2978SOL    HW220394   0.880   2.947   3.810 -0.5727  0.0625 -1.4139
 2979SOL     OW20395   0.308   3.293   4.547  0.2494  0.1244  0.0495
 2979SOL    HW120396   0.221   3.322   4.572  0.3555  0.0704  0.4892
 2979SOL    HW220397   0.352   3.371   4.514  1.4490  0.0336  1.4049
 2980SOL     OW20398   2.614   1.739  15.791  0.2536 -0.3925 -0.0297
 2980SOL    HW120399   2.545   1.734  15.724  1.3065  2.0550 -1.2791
 2980SOL    HW220400   2.697   1.744  15.744  0.0654 -0.9795 -0.4319
 2981SOL     OW20401   2.335   4.287   6.545  0.7508  0.6543 -0.2054
 2981SOL    HW120402   2.274   4.360   6.553 -2.2248 -1.4538 -3.7757
 2981SOL    HW220403   2.415   4.337   6.563  2.2358 -1.2023 -1.5758
 2982SOL     OW20404   4.007   3.038  16.315 -0.2000  0.6073  0.3106
 2982SOL    HW120405   4.057   2.957  16.321 -0.0030  0.6527 -0.7725
 2982SOL    HW220406   3.923   3.009  16.279  0.0345  0.5382 -0.1739
 2983SOL     OW20407   4.483   1.790   7.933  0.3374 -0.3176  0.2395
 2983SOL    HW120408   4.453   1.851   7.865 -0.9693 -1.1574  0.0623
 2983SOL    HW220409   4.533   1.851   7.988 -0.6656  1.2592 -0.6019
 2984SOL     OW20410   1.362   0.566   9.905 -0.0169  0.0064  0.5180
 2984SOL    HW120411   1.425   0.497   9.888 -1.4245 -1.7010  2.3141
 2984SOL    HW220412   1.393   0.638   9.850  2.2374  0.7636  2.7961
 2985SOL     OW20413   2.522   1.766   2.262 -0.2620  0.1039 -0.3211
 2985SOL    HW120414   2.554   1.826   2.194  1.8814 -1.0507 -0.3424
 2985SOL    HW220415   2.562   1.798   2.343  0.2524 -1.8696  0.2189
 2986SOL     OW20416   3.252   3.442  15.812  0.2948 -0.2648 -0.6010
 2986SOL    HW120417   3.333   3.491  15.798 -1.8195  2.9254 -1.6281
 2986SOL    HW220418   3.188   3.513  15.807  1.2332  0.6288  0.4219
 2987SOL     OW20419   0.013   1.185   8.045 -0.0680 -0.1481 -0.4364
 2987SOL    HW120420   0.009   1.257   8.108  0.6633 -0.2664 -0.2552
 2987SOL    HW220421   0.102   1.177   8.012  0.2079 -0.5121  0.4063
 2988SOL     OW20422   0.051   0.142   9.298  0.0993  0.2805  0.3321
 2988SOL    HW120423   4.707   0.203   9.271 -0.1641 -0.0705  0.2193
 2988SOL    HW220424   0.084   0.192   9.372 -1.0505  3.1634 -1.0900
 2989SOL     OW20425   1.875   1.202   6.533 -0.6725  0.2004  0.8207
 2989SOL    HW120426   1.852   1.166   6.447  1.0574 -0.0244  0.4606
 2989SOL    HW220427   1.841   1.292   6.535 -1.2382 -0.0134  0.9156
 2990SOL     OW20428   4.532   1.790   9.430  0.4314 -0.0539 -0.0523
 2990SOL    HW120429   4.521   1.717   9.492  0.3595 -1.2586 -1.4951
 2990SOL    HW220430   4.614   1.829   9.461 -0.3964 -0.0038  2.0923
 2991SOL     OW20431   2.309   0.840   1.032  0.4612  0.4391  0.2300
 2991SOL    HW120432   2.396   0.855   1.070  0.3738 -0.6883  0.8707
 2991SOL    HW220433   2.323   0.763   0.977  0.5674 -0.3242  1.3232
 2992SOL     OW20434   0.994   3.146   7.162  0.2240  0.2699 -0.3435
 2992SOL    HW120435   1.083   3.181   7.160  1.1379 -2.0261  0.1847
 2992SOL    HW220436   1.000   3.085   7.089  1.7483 -0.3607  0.3196
 2993SOL     OW20437   1.347   2.810   4.434  0.4822 -0.2879  0.2499
 2993SOL    HW120438   1.368   2.784   4.524  1.4089 -0.5748 -0.0485
 2993SOL    HW220439   1.369   2.729   4.389  2.6031  0.8377 -0.7140
 2994SOL     OW20440   1.228   0.420  10.145 -0.4947 -0.3571 -0.0444
 2994SOL    HW120441   1.274   0.341  10.119 -1.7346 -1.5790  1.5185
 2994SOL    HW220442   1.271   0.494  10.102  1.8616 -1.0672  1.0916
 2995SOL     OW20443   1.857   1.999   5.184 -0.3144 -0.5436 -0.2326
 2995SOL    HW120444   1.764   1.998   5.205 -0.4389 -1.1011 -0.8394
 2995SOL    HW220445   1.867   2.085   5.227 -1.3313 -0.1332 -0.8308
 2996SOL     OW20446   0.885   1.158   1.514 -0.0684  0.0604 -0.1400
 2996SOL    HW120447   0.963   1.192   1.558  1.9284 -2.5169 -1.6698
 2996SOL    HW220448   0.857   1.225   1.451  2.1663  0.4050 -0.7813
 2997SOL     OW20449   4.360   3.443   5.754  0.5686  0.1165 -0.4566
 2997SOL    HW120450   4.287   3.449   5.692 -0.8838 -0.8354  1.1564
 2997SOL    HW220451   4.341   3.507   5.822  0.5341  1.3811 -1.6609
 2998SOL     OW20452   0.891   2.700   2.471 -0.3471  0.2332 -0.1706
 2998SOL    HW120453   0.913   2.684   2.563 -0.4676 -1.3157 -0.4114
 2998SOL    HW220454   0.969   2.664   2.428  0.4259  1.5313  0.1679
 2999SOL     OW20455   4.544   3.132  13.858  0.9355  0.5125  0.0108
 2999SOL    HW120456   4.602   3.129  13.934  2.3499 -0.1705 -1.0954
 2999SOL    HW220457   4.590   3.202  13.811  0.7294  0.4924 -0.2212
 3000SOL     OW20458   4.688   0.135   8.234  0.0488 -0.9648  0.0074
 3000SOL    HW120459   4.609   0.144   8.182  1.6295 -0.6071 -2.3441
 3000SOL    HW220460   0.007   0.211   8.197  0.0093  0.0059  1.9895
 3001SOL     OW20461   0.485   4.271   4.186 -0.1645 -0.1748  0.3906
 3001SOL    HW120462   0.539   4.306   4.257 -1.5843 -0.6242  1.6872
 3001SOL    HW220463   0.492   4.334   4.114  1.4002 -0.8816 -0.0800
 3002SOL     OW20464   3.182   1.630   3.839 -0.3135 -0.3826  0.0713
 3002SOL    HW120465   3.156   1.560   3.780  2.4388  0.0293 -1.6511
 3002SOL    HW220466   3.123   1.701   3.814 -1.3660 -1.4349 -0.4372
 3003SOL     OW20467   4.669   0.756   6.413 -0.7783 -0.0310 -0.1284
 3003SOL    HW120468   0.021   0.725   6.460 -0.2748  1.6096  0.0928
 3003SOL    HW220469   4.610   0.710   6.472  0.1301 -0.0281  0.7874
 3004SOL     OW20470   1.221   2.359  13.732 -0.0109  0.2360 -0.2733
 3004SOL    HW120471   1.164   2.423  13.777  0.6296 -0.6828  1.8327
 3004SOL    HW220472   1.167   2.281  13.722  0.5851  0.2000 -3.1045
 3005SOL     OW20473   2.486   1.129  15.358 -0.2135  0.3789  0.2590
 3005SOL    HW120474   2.509   1.203  15.301  1.6860 -1.3345 -1.2171
 3005SOL    HW220475   2.565   1.124  15.412 -0.4307  0.1912  0.5513
 3006SOL     OW20476   3.797   0.047   9.553 -0.1407 -0.5651 -0.3091
 3006SOL    HW120477   3.831   0.126   9.512  1.1871 -0.4857  0.9367
 3006SOL    HW220478   3.786   0.079   9.643  0.8960  0.7848 -0.6584
 3007SOL     OW20479   2.770   0.846   8.481 -0.5977 -0.0806  0.7613
 3007SOL    HW120480   2.680   0.844   8.513 -1.0315  0.4013 -0.4568
 3007SOL    HW220481   2.753   0.837   8.387  1.1193  0.4341  0.4076
 3008SOL     OW20482   3.700   2.284   4.510 -0.1478 -0.6508  0.4020
 3008SOL    HW120483   3.668   2.216   4.450  1.8310 -0.6121 -0.7113
 3008SOL    HW220484   3.765   2.336   4.462 -0.5526  1.1975  1.8548
 3009SOL     OW20485   1.566   2.514   1.828  0.4160  0.1120  0.0263
 3009SOL    HW120486   1.602   2.501   1.740  0.9105  1.1219  0.0810
 3009SOL    HW220487   1.590   2.606   1.839 -0.2790  0.1766  0.9937
 3010SOL     OW20488   0.023   3.924  15.790  0.3670 -0.2231  0.0941
 3010SOL    HW120489   4.715   3.939  15.702  0.7482  0.2135  0.0201
 3010SOL    HW220490   4.683   3.971  15.841 -0.1950  0.3702 -1.1986
 3011SOL     OW20491   0.322   0.009   5.966 -0.4034  0.0387 -0.2715
 3011SOL    HW120492   0.272   0.057   5.900 -1.1691  0.0716  0.3321
 3011SOL    HW220493   0.289   0.050   6.046 -0.8161 -0.5091 -0.1620
 3012SOL     OW20494   1.188   3.714   4.408 -0.4852  0.1947  0.3091
 3012SOL    HW120495   1.261   3.772   4.388  1.5711 -2.8157 -0.8482
 3012SOL    HW220496   1.235   3.637   4.376  0.6811  0.5391  1.1846
 3013SOL     OW20497   0.110   2.878  10.731 -0.2752 -0.3712  0.0337
 3013SOL    HW120498   0.174   2.822  10.773 -2.6209 -2.8686  0.2851
 3013SOL    HW220499   0.034   2.838  10.774 -0.0634 -0.0164  0.7206
 3014SOL     OW20500   2.360   0.215   5.463 -0.5392 -0.2525 -0.1679
 3014SOL    HW120501   2.389   0.235   5.552  0.6092 -1.5432 -0.2528
 3014SOL    HW220502   2.266   0.210   5.476 -1.0113  1.1106 -3.0898
 3015SOL     OW20503   3.755   1.580   3.888 -0.1358 -0.1214 -0.0698
 3015SOL    HW120504   3.659   1.574   3.893 -0.1858 -0.0499 -1.0433
 3015SOL    HW220505   3.784   1.498   3.928 -2.1305 -0.8377 -0.0620
 3016SOL     OW20506   1.775   1.243  11.417 -0.5653 -0.1848  0.1387
 3016SOL    HW120507   1.725   1.235  11.498  0.4289  1.7820  0.9300
 3016SOL    HW220508   1.726   1.185  11.359 -0.7496 -1.0784  1.1829
 3017SOL     OW20509   1.828   3.741   7.141  0.1373 -0.0084  0.0618
 3017SOL    HW120510   1.912   3.697   7.128  0.1278  0.9382 -3.3197
 3017SOL    HW220511   1.840   3.776   7.229 -2.7713  1.5667 -0.1516
 3018SOL     OW20512   2.458   2.520   4.140  0.0527  0.1113  0.0165
 3018SOL    HW120513   2.521   2.589   4.119  1.8730 -1.3514  0.6398
 3018SOL    HW220514   2.398   2.568   4.196  1.0647  0.6731  0.6230
 3019SOL     OW20515   1.831   2.897   0.408 -0.4925  0.1586 -0.4476
 3019SOL    HW120516   1.922   2.909   0.382 -0.9332 -0.0579 -2.1119
 3019SOL    HW220517   1.783   2.932   0.333  2.8793 -1.3435 -3.2797
 3020SOL     OW20518   1.034   3.579   3.447 -0.0144  0.2327  0.0164
 3020SOL    HW120519   1.053   3.493   3.485  0.3958  0.9040  1.3525
 3020SOL    HW220520   0.970   3.575   3.376  1.2165  1.2022 -1.1545
 3021SOL     OW20521   1.928   4.390   6.276 -0.2390 -0.0921  0.0762
 3021SOL    HW120522   1.939   4.343   6.358  1.4734 -0.7190 -0.5241
 3021SOL    HW220523   1.858   4.449   6.305  0.8370  1.2311  0.0205
 3022SOL     OW20524   1.522   2.069   7.099 -0.0738  0.6196  0.2746
 3022SOL    HW120525   1.459   2.088   7.029  0.7203  2.7592  0.1297
 3022SOL    HW220526   1.460   2.035   7.163  0.0024 -0.5226 -0.2602
 3023SOL     OW20527   3.582   2.257   7.157  0.0212 -0.3847 -0.4426
 3023SOL    HW120528   3.578   2.281   7.065  2.2442  3.7659  0.5225
 3023SOL    HW220529   3.504   2.201   7.159 -0.5019  0.3950  0.7982
 3024SOL     OW20530   0.981   0.540   5.305 -0.2351 -0.3393  0.3262
 3024SOL    HW120531   0.962   0.531   5.398 -1.7611 -2.5681 -0.2036
 3024SOL    HW220532   0.891   0.537   5.273  0.2484 -0.1664 -1.0855
 3025SOL     OW20533   3.466   0.234   2.306  0.0360 -0.9210  0.0895
 3025SOL    HW120534   3.476   0.260   2.214  0.9506 -1.2708  0.0855
 3025SOL    HW220535   3.425   0.151   2.281 -1.6385  0.5844 -2.2473
 3026SOL     OW20536   3.749   0.855  12.806  0.5511 -0.3381 -0.4886
 3026SOL    HW120537   3.735   0.764  12.778 -2.0343 -0.0484 -0.1354
 3026SOL    HW220538   3.662   0.884  12.833  1.2383  1.5639 -0.3073
 3027SOL     OW20539   0.735   0.984   3.900 -0.3976  0.1261 -0.2936
 3027SOL    HW120540   0.763   0.952   3.814  1.3421 -2.2894  1.1847
 3027SOL    HW220541   0.818   0.985   3.947 -0.3794  1.5416 -0.3543
 3028SOL     OW20542   0.457   3.783   0.937 -0.3420  0.0222  0.0742
 3028SOL    HW120543   0.383   3.843   0.933  1.4817  2.3953  2.2744
 3028SOL    HW220544   0.426   3.728   1.009 -0.8931  1.1117  0.6668
 3029SOL     OW20545   1.070   4.514   8.973  0.4784  0.0644  0.2580
 3029SOL    HW120546   1.061   4.455   9.047 -3.3408  0.4809  0.1515
 3029SOL    HW220547   1.121   4.456   8.916  0.0124  0.6298 -0.7271
 3030SOL     OW20548   1.372   3.027   7.107  0.4640 -0.1518 -0.3892
 3030SOL    HW120549   1.326   3.109   7.092  0.7272  0.0647 -0.0140
 3030SOL    HW220550   1.454   3.069   7.133 -0.3680  1.2508 -0.0551
 3031SOL     OW20551   1.387   3.548   5.731 -0.4160  0.4200 -0.2032
 3031SOL    HW120552   1.462   3.550   5.671 -0.7946  1.0274 -0.6650
 3031SOL    HW220553   1.389   3.640   5.758  0.6860  0.0982  0.8141
 3032SOL     OW20554   0.777   2.277  14.841 -0.8900 -0.0044 -0.1961
 3032SOL    HW120555   0.869   2.298  14.858 -0.6856  0.0348 -1.3461
 3032SOL    HW220556   0.801   2.186  14.824  2.1487  1.0771 -1.7108
 3033SOL     OW20557   1.583   1.920   4.527  0.1122  0.3083 -0.0998
 3033SOL    HW120558   1.674   1.902   4.550 -0.6513 -1.5959  1.5028
 3033SOL    HW220559   1.602   1.949   4.438 -0.4022  1.7129  0.2445
 3034SOL     OW20560   4.050   1.252  13.037 -0.1121  0.0625  0.3005
 3034SOL    HW120561   4.095   1.181  13.083 -0.4042 -0.1371  0.2802
 3034SOL    HW220562   4.084   1.242  12.948 -0.4131  1.2339  0.0649
 3035SOL     OW20563   4.240   0.487   4.649  0.4407 -0.7990 -0.1845
 3035SOL    HW120564   4.266   0.477   4.558 -1.4106  1.9126 -1.0208
 3035SOL    HW220565   4.226   0.582   4.645  0.3400 -0.8329 -0.5945
 3036SOL     OW20566   0.568   2.333   4.140 -0.4255 -0.2504  0.0371
 3036SOL    HW120567   0.656   2.308   4.168 -0.2264 -0.5584 -0.8722
 3036SOL    HW220568   0.591   2.376   4.058 -0.8921 -2.4615 -1.2432
 3037SOL     OW20569   2.268   3.617   5.422  0.1319  0.3874  0.2313
 3037SOL    HW120570   2.205   3.547   5.401  0.7838 -0.4790  1.1876
 3037SOL    HW220571   2.328   3.619   5.348 -1.5321 -1.1841 -1.1657
 3038SOL     OW20572   0.579   4.500  13.020  0.2319  0.1247 -0.1211
 3038SOL    HW120573   0.607   4.588  12.995 -1.4083  0.8911  0.6944
 3038SOL    HW220574   0.542   4.519  13.107 -0.5771 -3.4202  0.2824
 3039SOL     OW20575   0.899   1.156   9.161 -0.3132 -0.1900  0.3587
 3039SOL    HW120576   0.941   1.139   9.245 -1.3093 -0.2679  0.8473
 3039SOL    HW220577   0.845   1.077   9.156  0.0362 -0.3173 -1.4166
 3040SOL     OW20578   3.065   3.156  16.307  0.2220  0.0582  0.1812
 3040SOL    HW120579   2.980   3.115  16.289  0.1299 -0.4635  1.7785
 3040SOL    HW220580   3.086   3.134  16.398  1.2688 -0.3680 -0.1657
 3041SOL     OW20581   0.915   0.165   4.759 -0.2587  0.4873  0.8865
 3041SOL    HW120582   0.875   0.081   4.782  0.3385 -0.1525 -0.4349
 3041SOL    HW220583   0.886   0.228   4.826 -1.5633  0.4688  0.3314
 3042SOL     OW20584   2.730   1.935   4.999 -0.5861 -0.5815 -0.4547
 3042SOL    HW120585   2.812   1.884   5.001 -0.6171 -0.6560 -1.1914
 3042SOL    HW220586   2.774   2.020   4.989  0.2508 -0.6499  2.6260
 3043SOL     OW20587   0.478   3.360  16.001 -0.5662 -0.0718 -0.0844
 3043SOL    HW120588   0.507   3.269  15.989 -0.9545 -0.6812  3.5080
 3043SOL    HW220589   0.557   3.400  15.965  0.4515 -2.8849 -0.9546
 3044SOL     OW20590   0.323   3.192   2.195 -0.0728  0.5306  0.2919
 3044SOL    HW120591   0.280   3.175   2.279 -1.4180 -0.2181 -0.5380
 3044SOL    HW220592   0.245   3.195   2.140 -0.2511 -1.6652  0.4206
 3045SOL     OW20593   4.192   4.322  11.528 -0.3216  0.4952 -0.3086
 3045SOL    HW120594   4.236   4.253  11.479 -0.5843 -0.1337  0.3263
 3045SOL    HW220595   4.154   4.260  11.591 -1.1171 -1.6340 -2.8930
 3046SOL     OW20596   3.214   3.007   7.882 -0.6260 -1.1706  0.5111
 3046SOL    HW120597   3.133   2.972   7.844 -1.0131  0.0872  0.1546
 3046SOL    HW220598   3.234   2.946   7.952 -0.9594 -0.7408  0.9859
 3047SOL     OW20599   3.821   2.514   9.417 -0.4452  0.0312  0.0589
 3047SOL    HW120600   3.874   2.572   9.470  1.8609 -0.1949 -2.0176
 3047SOL    HW220601   3.801   2.570   9.342  2.4541 -0.0908 -0.7740
 3048SOL     OW20602   0.493   0.167   4.767  0.2110 -0.1111  0.0832
 3048SOL    HW120603   0.490   0.262   4.757 -0.4600 -0.0330  1.0807
 3048SOL    HW220604   0.409   0.153   4.810  0.1847 -0.0953  0.0379
 3049SOL     OW20605   2.232   1.619  11.199 -0.4215  0.2479  0.6068
 3049SOL    HW120606   2.147   1.632  11.240 -0.3727 -1.5425  1.2795
 3049SOL    HW220607   2.284   1.580  11.269  0.4016 -0.2542 -0.2703
 3050SOL     OW20608   1.249   3.296   6.281 -0.3285  0.3011 -0.9664
 3050SOL    HW120609   1.230   3.388   6.298  1.2978  0.7157 -1.3387
 3050SOL    HW220610   1.163   3.254   6.278 -0.9702  1.3980  1.8694
 3051SOL     OW20611   0.121   0.011  15.203 -0.1518  0.1611  0.2567
 3051SOL    HW120612   0.194   4.706  15.149  0.5908  1.7155  0.3519
 3051SOL    HW220613   0.065   0.041  15.132 -0.0838 -0.8528 -0.2225
 3052SOL     OW20614   1.526   1.410   5.292  0.5866  0.7176  0.1674
 3052SOL    HW120615   1.490   1.434   5.377 -0.5243 -1.6947  0.3887
 3052SOL    HW220616   1.607   1.365   5.318 -0.5106 -0.0453  2.3206
 3053SOL     OW20617   1.751   2.814  15.436  0.2136 -0.1990 -0.3278
 3053SOL    HW120618   1.786   2.897  15.405  0.6844 -0.1210  0.4131
 3053SOL    HW220619   1.759   2.754  15.362 -1.5678  0.7688 -1.3013
 3054SOL     OW20620   0.840   1.696   2.982  0.0226 -0.1609  0.3460
 3054SOL    HW120621   0.772   1.746   3.026 -2.0737 -3.3547  0.7583
 3054SOL    HW220622   0.788   1.630   2.935 -0.8839 -0.0895  1.2489
 3055SOL     OW20623   3.356   3.151   8.425 -0.5206  0.2886  0.1263
 3055SOL    HW120624   3.299   3.195   8.489 -1.0210  0.8210 -0.6950
 3055SOL    HW220625   3.389   3.076   8.476  2.4957  0.7943 -1.0718
 3056SOL     OW20626   0.547   2.841   8.854  0.0973 -0.2167 -0.0521
 3056SOL    HW120627   0.632   2.798   8.842 -0.7087 -1.6670 -0.4932
 3056SOL    HW220628   0.546   2.848   8.949  3.2962 -1.5350  0.0888
 3057SOL     OW20629   2.938   1.028  17.555  0.2075  0.4585  0.0559
 3057SOL    HW120630   2.933   1.008  17.649 -0.8005 -0.6713 -0.2255
 3057SOL    HW220631   2.871   1.096  17.547 -0.3776 -0.1901 -0.6059
 3058SOL     OW20632   2.626   4.139   5.100 -0.3852  0.1944 -0.1104
 3058SOL    HW120633   2.669   4.209   5.050 -2.0988  1.4927  0.2676
 3058SOL    HW220634   2.675   4.059   5.081 -1.8732 -0.5820 -0.6240
 3059SOL     OW20635   2.771   4.063  16.040 -0.3410  0.0901 -0.0907
 3059SOL    HW120636   2.856   4.070  16.084  0.0886  1.8917 -1.1946
 3059SOL    HW220637   2.715   4.052  16.117  1.0010  0.1851  0.9166
 3060SOL     OW20638   4.186   4.096  17.321 -0.1493 -0.2322 -0.1529
 3060SOL    HW120639   4.137   4.066  17.397  0.8148 -2.3375 -0.3515
 3060SOL    HW220640   4.124   4.166  17.301 -0.5664 -0.9009 -1.2185
 3061SOL     OW20641   0.284   2.218   5.817 -0.1758 -0.2052 -0.3227
 3061SOL    HW120642   0.321   2.188   5.734 -1.5512  0.6040 -1.2088
 3061SOL    HW220643   0.358   2.217   5.878  1.4390 -3.4697 -2.3416
 3062SOL     OW20644   2.524   2.267   7.150  0.3364  0.0545  0.4492
 3062SOL    HW120645   2.596   2.255   7.211 -0.4500 -2.5409  0.8578
 3062SOL    HW220646   2.531   2.360   7.128 -1.0796 -0.3351 -1.7226
 3063SOL     OW20647   3.150   0.487   3.110 -0.0300  0.0299 -0.2012
 3063SOL    HW120648   3.133   0.579   3.089 -2.0088 -0.3296 -0.2019
 3063SOL    HW220649   3.141   0.456   3.020  0.6833  0.2400 -0.3504
 3064SOL     OW20650   2.954   4.100  15.415 -0.4845 -0.6156 -0.8245
 3064SOL    HW120651   3.023   4.131  15.356 -0.4594  0.4900 -0.2055
 3064SOL    HW220652   2.904   4.037  15.362 -1.2677 -0.9299  0.2794
 3065SOL     OW20653   1.945   1.318   1.401 -0.0959 -0.1189 -0.0312
 3065SOL    HW120654   1.890   1.323   1.479  0.8811 -1.9069  0.7591
 3065SOL    HW220655   1.876   1.319   1.335  0.1354 -1.7795 -0.3008
 3066SOL     OW20656   2.941   2.088   7.173  0.6517  0.1366  0.4542
 3066SOL    HW120657   2.977   2.138   7.099  0.6504  0.3913  0.6253
 3066SOL    HW220658   2.863   2.050   7.134  0.3462  3.8435 -2.5865
 3067SOL     OW20659   3.736   0.316   3.640 -0.2627 -0.2999  0.4902
 3067SOL    HW120660   3.712   0.408   3.625 -1.3963 -0.9395 -1.5076
 3067SOL    HW220661   3.710   0.283   3.554 -1.2201  2.4042 -0.2619
 3068SOL     OW20662   0.965   3.211   9.083  0.2096  0.0607  0.3855
 3068SOL    HW120663   0.985   3.180   8.995 -0.5966 -0.1928  0.2886
 3068SOL    HW220664   1.022   3.150   9.128  0.4142  0.1676  0.2704
 3069SOL     OW20665   4.417   3.023   5.867 -0.1097  0.0377 -1.0424
 3069SOL    HW120666   4.479   3.088   5.834  2.1569 -0.6113  1.9478
 3069SOL    HW220667   4.475   2.954   5.897  0.8996  1.5070  0.4188
 3070SOL     OW20668   3.417   0.291   8.074 -0.3231 -1.1883 -0.2762
 3070SOL    HW120669   3.410   0.195   8.073 -1.7617 -1.0861  0.0331
 3070SOL    HW220670   3.332   0.310   8.034  0.3717  0.1389 -1.1183
 3071SOL     OW20671   0.715   2.245   4.821 -0.6181  0.1855  1.1216
 3071SOL    HW120672   0.730   2.270   4.729 -1.4062 -0.3311  0.8519
 3071SOL    HW220673   0.643   2.304   4.844 -1.1183 -0.6338  1.6346
 3072SOL     OW20674   4.421   2.031   4.733 -0.1369 -0.6624  0.1654
 3072SOL    HW120675   4.454   2.118   4.756 -0.9380 -0.5588  0.8972
 3072SOL    HW220676   4.330   2.040   4.761 -0.2754 -1.0267 -0.1640
 3073SOL     OW20677   1.559   2.730   6.863 -0.0526 -0.3982 -0.5029
 3073SOL    HW120678   1.524   2.718   6.951  0.9726  0.4908  0.0194
 3073SOL    HW220679   1.585   2.822   6.869 -0.1027 -0.5496  2.1765
 3074SOL     OW20680   1.444   4.458   5.276  0.1415  0.0001 -0.2666
 3074SOL    HW120681   1.506   4.388   5.259 -1.7826 -1.8916  0.5322
 3074SOL    HW220682   1.462   4.516   5.201  2.4639  0.5007  0.6919
 3075SOL     OW20683   3.548   4.117   0.590 -0.2369 -0.6151  0.1498
 3075SOL    HW120684   3.502   4.102   0.507  2.4151  1.6558 -1.7205
 3075SOL    HW220685   3.492   4.186   0.623  0.2409 -0.7694  1.2759
 3076SOL     OW20686   4.321   2.877   1.337  0.3509 -0.0274  0.5653
 3076SOL    HW120687   4.406   2.900   1.373  0.4289 -2.5518  1.9953
 3076SOL    HW220688   4.316   2.782   1.349 -3.5092  0.3299  1.5846
 3077SOL     OW20689   3.460   0.463   4.353  0.1442  0.3186  0.1906
 3077SOL    HW120690   3.530   0.513   4.395  0.2747  0.1711  0.1462
 3077SOL    HW220691   3.407   0.531   4.310 -1.6682 -1.3525 -0.1919
 3078SOL     OW20692   0.312   0.737   2.772 -0.2420 -0.0685 -0.3345
 3078SOL    HW120693   0.295   0.656   2.724  1.3672 -0.9131  0.5196
 3078SOL    HW220694   0.309   0.701   2.860  1.1072 -1.6949 -0.9618
 3079SOL     OW20695   1.041   1.285  11.660  0.1312 -0.1995  0.3205
 3079SOL    HW120696   0.977   1.247  11.719 -1.0650  0.4593 -0.5558
 3079SOL    HW220697   1.065   1.204  11.615 -0.9334  0.0120 -0.6374
 3080SOL     OW20698   0.171   3.525   5.956  0.1214 -0.5654 -0.6500
 3080SOL    HW120699   0.097   3.577   5.923  0.2217  0.8222  1.3170
 3080SOL    HW220700   0.203   3.589   6.019 -2.6328 -0.2820  0.4467
 3081SOL     OW20701   0.630   3.353   2.344  0.2157  0.1081  0.0049
 3081SOL    HW120702   0.722   3.344   2.371  0.1801  0.4930  0.2385
 3081SOL    HW220703   0.578   3.307   2.410  1.4793 -1.2407  0.0847
 3082SOL     OW20704   0.661   1.415   5.718 -0.3873  0.9079 -0.4862
 3082SOL    HW120705   0.620   1.471   5.652 -0.0803  3.3155  1.4102
 3082SOL    HW220706   0.595   1.410   5.788 -1.2695 -1.3769 -1.4689
 3083SOL     OW20707   2.913   2.464  13.409  0.5012  0.1809  1.1819
 3083SOL    HW120708   2.818   2.477  13.412  0.3948  0.0946 -1.6045
 3083SOL    HW220709   2.935   2.461  13.316  1.6085  0.2229  1.4417
 3084SOL     OW20710   3.769   0.469   6.629  0.5581 -0.2535 -0.2356
 3084SOL    HW120711   3.791   0.557   6.661 -1.8119 -0.6268  2.4819
 3084SOL    HW220712   3.857   0.434   6.618  1.2337  1.4034 -0.0895
 3085SOL     OW20713   4.060   3.594   4.972  0.2002  0.0503  0.5064
 3085SOL    HW120714   3.991   3.527   4.974  0.5729 -0.2696  2.3569
 3085SOL    HW220715   4.127   3.555   5.028  0.1686  1.2322  1.3431
 3086SOL     OW20716   2.829   3.059   2.346 -0.1032 -0.2887 -0.0853
 3086SOL    HW120717   2.851   2.980   2.396  0.5494 -0.4057 -0.5635
 3086SOL    HW220718   2.860   3.048   2.257  0.0279 -1.4328  0.1069
 3087SOL     OW20719   2.919   4.466  10.201 -0.1786 -0.4779 -0.4224
 3087SOL    HW120720   2.876   4.498  10.280  0.5266 -0.3226 -0.1086
 3087SOL    HW220721   3.012   4.487  10.206 -0.5656  1.2739 -0.3224
 3088SOL     OW20722   2.726   0.808  10.591  0.2215 -0.2635 -0.1788
 3088SOL    HW120723   2.778   0.869  10.643  1.4840  0.1292 -1.8826
 3088SOL    HW220724   2.650   0.861  10.568 -0.8868 -1.5945  0.3864
 3089SOL     OW20725   1.848   2.108   8.467 -0.5434  0.4398 -0.5470
 3089SOL    HW120726   1.842   2.103   8.371  2.8020 -0.9628 -0.7044
 3089SOL    HW220727   1.758   2.101   8.498 -0.7223  1.8014 -0.7957
 3090SOL     OW20728   2.658   3.356   8.189 -0.5331 -0.0707  0.0128
 3090SOL    HW120729   2.636   3.351   8.096  0.0645 -0.3336 -0.1129
 3090SOL    HW220730   2.743   3.400   8.181 -1.3483  2.0708  2.7680
 3091SOL     OW20731   4.076   4.632   1.856  0.4599  0.0232  0.1910
 3091SOL    HW120732   4.000   4.678   1.821  1.1643  0.2905 -0.9583
 3091SOL    HW220733   4.148   4.658   1.798  1.0111  0.4510  1.0626
 3092SOL     OW20734   0.773   2.629   5.201 -0.0913 -0.1094 -0.1321
 3092SOL    HW120735   0.795   2.552   5.149 -0.5721 -1.1896  1.2926
 3092SOL    HW220736   0.808   2.598   5.284 -1.6140  1.5726  1.1367
 3093SOL     OW20737   3.085   1.195   2.310  0.4018  0.7183 -0.0759
 3093SOL    HW120738   3.138   1.260   2.357  0.1784  0.6582  0.2589
 3093SOL    HW220739   3.105   1.115   2.358 -1.5357  0.0119 -0.4738
 3094SOL     OW20740   0.077   2.975   2.785  0.1634 -0.1243  0.8143
 3094SOL    HW120741   0.070   2.903   2.723 -0.3302  0.4883  0.1532
 3094SOL    HW220742   4.723   2.962   2.837 -0.6450 -1.6246 -0.8351
 3095SOL     OW20743   1.064   0.265  14.014  0.1388  0.2640  0.2145
 3095SOL    HW120744   1.002   0.223  14.073 -2.8638  1.3719 -2.1631
 3095SOL    HW220745   1.040   0.358  14.022 -0.4806  0.2638 -1.8233
 3096SOL     OW20746   0.390   2.474   2.497  0.0882  0.1492  0.0190
 3096SOL    HW120747   0.377   2.500   2.405  0.4050  1.0897  0.2426
 3096SOL    HW220748   0.447   2.397   2.487  0.4719  0.5400 -0.8545
 3097SOL     OW20749   4.476   3.944   8.264  0.0714  0.0415 -0.2579
 3097SOL    HW120750   4.527   3.985   8.195 -1.1568 -0.8845 -1.7035
 3097SOL    HW220751   4.470   4.012   8.331 -1.0487  0.4330 -0.7676
 3098SOL     OW20752   4.677   2.037  11.878  0.4486 -0.3926  0.5924
 3098SOL    HW120753   0.034   1.994  11.900  0.9876 -0.2565 -1.1470
 3098SOL    HW220754   4.689   2.129  11.902 -1.9647 -0.3827  1.7530
 3099SOL     OW20755   3.466   0.593  11.300  0.6809  0.4907 -0.3644
 3099SOL    HW120756   3.425   0.552  11.377  1.9793 -0.9645 -0.4526
 3099SOL    HW220757   3.532   0.528  11.278 -0.4250 -1.0183  0.7427
 3100SOL     OW20758   2.967   1.293   1.963  0.4308  0.0369 -0.5610
 3100SOL    HW120759   2.945   1.202   1.944  1.5450 -0.6180  1.2517
 3100SOL    HW220760   3.035   1.283   2.030  0.6609 -1.4631 -1.0391
 3101SOL     OW20761   2.097   0.510  17.369 -0.1180  0.1765  0.4506
 3101SOL    HW120762   2.150   0.579  17.408  0.9141 -0.3009 -0.1184
 3101SOL    HW220763   2.089   0.447  17.441 -0.5861 -0.0322  0.2207
 3102SOL     OW20764   0.739   1.293   3.423  0.5068 -0.2185  0.4907
 3102SOL    HW120765   0.819   1.315   3.471  0.4700 -1.3386  1.0565
 3102SOL    HW220766   0.765   1.207   3.389 -0.1475 -0.4819  0.6663
 3103SOL     OW20767   1.288   3.937   5.265 -0.0009  0.7092 -0.9305
 3103SOL    HW120768   1.216   3.950   5.203  0.6422  1.7311 -1.4640
 3103SOL    HW220769   1.248   3.868   5.319 -0.2306  1.3664 -0.2574
 3104SOL     OW20770   3.438   1.849   0.464 -0.0992 -0.3595  0.2856
 3104SOL    HW120771   3.513   1.844   0.523 -0.2982  0.4893  0.6065
 3104SOL    HW220772   3.470   1.815   0.380 -0.5535 -0.7585  0.2761
 3105SOL     OW20773   1.520   1.947   0.434  0.4010 -0.2824 -0.5752
 3105SOL    HW120774   1.583   1.879   0.412  0.2269 -0.1779 -1.4153
 3105SOL    HW220775   1.544   2.015   0.371 -1.9597  1.1514  0.0693
 3106SOL     OW20776   1.169   3.549  14.647 -0.2199 -0.1030 -0.3584
 3106SOL    HW120777   1.201   3.475  14.697 -0.0571 -1.2683 -2.1810
 3106SOL    HW220778   1.075   3.532  14.638 -0.8632  2.1929  2.0287
 3107SOL     OW20779   4.108   0.968   7.276  0.2975 -0.2727 -0.8991
 3107SOL    HW120780   4.129   0.953   7.368  0.3787 -1.4463 -1.1081
 3107SOL    HW220781   4.124   1.062   7.265 -3.0096  0.1048 -2.5019
 3108SOL     OW20782   1.240   1.776   8.201 -0.4291 -0.7313 -0.3523
 3108SOL    HW120783   1.157   1.773   8.152 -0.8857 -1.2979  0.4609
 3108SOL    HW220784   1.295   1.719   8.148  0.1830  1.9704 -2.6089
 3109SOL     OW20785   1.135   3.230   2.159  0.0990  0.2955 -0.3413
 3109SOL    HW120786   1.137   3.135   2.166 -2.5804  0.3298  0.8877
 3109SOL    HW220787   1.042   3.254   2.162  0.2325  0.5912  1.3404
 3110SOL     OW20788   1.959   1.412  17.229  0.2996  0.2425  0.5041
 3110SOL    HW120789   1.954   1.476  17.157 -0.2573 -1.2443 -0.7893
 3110SOL    HW220790   1.878   1.363  17.216  0.1423  0.4257  0.7974
 3111SOL     OW20791   2.918   3.877   3.638  0.2099  0.6593  0.6057
 3111SOL    HW120792   3.013   3.879   3.640  0.1957  2.0777 -0.0589
 3111SOL    HW220793   2.898   3.804   3.696 -0.0260 -0.4326 -0.8636
 3112SOL     OW20794   3.015   1.570   9.661  0.0027  0.2366 -0.6978
 3112SOL    HW120795   2.936   1.516   9.673  0.3009 -0.0794 -0.1851
 3112SOL    HW220796   2.970   1.629   9.599 -0.0328 -0.0515 -0.9466
 3113SOL     OW20797   2.851   2.972   2.097  0.1842  0.4092 -0.3740
 3113SOL    HW120798   2.776   3.017   2.058  0.3379  0.2150 -0.8868
 3113SOL    HW220799   2.811   2.888   2.119  0.3052  0.6080  0.5919
 3114SOL     OW20800   3.463   4.567   7.383  0.3757 -0.4910  0.5333
 3114SOL    HW120801   3.451   4.473   7.382 -0.8024 -0.2914 -3.2047
 3114SOL    HW220802   3.421   4.599   7.303 -0.7226 -2.1071  0.4748
 3115SOL     OW20803   1.656   2.457  17.622  0.2604 -0.3059 -0.2511
 3115SOL    HW120804   1.575   2.509  17.629  0.0004 -0.6590 -0.6596
 3115SOL    HW220805   1.624   2.377  17.580  0.2760 -1.3714  1.7742
 3116SOL     OW20806   1.385   1.208   4.585 -0.2102 -0.5473  0.4883
 3116SOL    HW120807   1.300   1.165   4.591 -0.1933 -0.6581 -0.1124
 3116SOL    HW220808   1.439   1.154   4.643 -1.0394  0.1204  1.8880
 3117SOL     OW20809   4.644   0.969   3.711  0.5532 -0.6673  0.2638
 3117SOL    HW120810   4.556   1.008   3.706  0.9378  0.1579  0.0171
 3117SOL    HW220811   4.653   0.972   3.806  1.3357 -0.7052  0.1868
 3118SOL     OW20812   3.727   3.136   6.948  0.5150  0.0358  0.0399
 3118SOL    HW120813   3.638   3.102   6.934  0.8149 -0.9767  0.6363
 3118SOL    HW220814   3.741   3.128   7.042 -3.2877 -0.6883  0.5828
 3119SOL     OW20815   4.701   1.562   7.901 -0.0302 -0.2072 -0.4609
 3119SOL    HW120816   4.617   1.609   7.900 -0.7348 -1.4723  1.1902
 3119SOL    HW220817   0.039   1.627   7.873  3.0632 -2.8986  0.4190
 3120SOL     OW20818   2.160   4.488  14.676 -0.0283  0.3995 -0.1892
 3120SOL    HW120819   2.145   4.526  14.590  0.9253  0.9842 -0.1047
 3120SOL    HW220820   2.076   4.446  14.694 -1.1950  3.4622  1.4159
 3121SOL     OW20821   2.984   2.909   3.038  0.1419 -0.3362 -0.1886
 3121SOL    HW120822   2.918   2.944   2.979  0.3490 -0.5149 -0.5254
 3121SOL    HW220823   3.004   2.822   3.003  2.6835 -0.5597  1.7537
 3122SOL     OW20824   1.501   0.396   6.167  0.1452  0.1375  0.2731
 3122SOL    HW120825   1.511   0.389   6.262  0.4750  1.1075  0.3062
 3122SOL    HW220826   1.445   0.322   6.143 -2.6114  1.3532  2.9643
 3123SOL     OW20827   3.079   0.612   1.215  0.5276  0.0757 -0.4769
 3123SOL    HW120828   3.069   0.519   1.197 -1.9418  0.2500  0.0535
 3123SOL    HW220829   3.007   0.623   1.277 -0.2244 -4.8696 -0.4653
 3124SOL     OW20830   0.214   0.229   4.819  0.3764  0.0335  0.1872
 3124SOL    HW120831   0.234   0.314   4.857 -2.6479  1.4874 -1.5271
 3124SOL    HW220832   0.154   0.256   4.750  0.7423 -1.6694 -0.8064
 3125SOL     OW20833   0.778   3.476   8.510  0.5069  0.1884 -0.3479
 3125SOL    HW120834   0.717   3.520   8.568 -1.5951 -1.8940 -0.9732
 3125SOL    HW220835   0.845   3.437   8.567 -1.3363  2.4206  3.3295
 3126SOL     OW20836   1.882   2.497   5.916 -0.2055 -0.4929 -0.3864
 3126SOL    HW120837   1.849   2.432   5.855  2.6842 -0.7102 -1.7405
 3126SOL    HW220838   1.965   2.467   5.952  0.0532 -0.5848 -1.0525
 3127SOL     OW20839   0.367   2.019  10.603 -0.5408 -0.1816  0.1688
 3127SOL    HW120840   0.378   2.005  10.697  0.4575 -2.4297 -0.2894
 3127SOL    HW220841   0.293   1.959  10.588  0.3814 -1.7419  1.9071
 3128SOL     OW20842   0.286   2.480  13.158 -0.5773  0.4978 -0.4309
 3128SOL    HW120843   0.249   2.423  13.226 -2.2846  0.7724 -1.1349
 3128SOL    HW220844   0.207   2.502  13.109 -0.5827 -0.5542 -0.8972
 3129SOL     OW20845   1.245   1.154  15.468  0.1366 -0.2196  0.0649
 3129SOL    HW120846   1.247   1.177  15.560 -1.1012  0.2800 -0.0350
 3129SOL    HW220847   1.331   1.183  15.436  1.2396 -3.3717  0.1132
 3130SOL     OW20848   4.439   2.150   7.923 -0.7016  0.8645 -0.1425
 3130SOL    HW120849   4.417   2.090   7.852 -2.6260  1.1811  0.1996
 3130SOL    HW220850   4.486   2.218   7.874 -0.1661 -0.5813 -1.6098
 3131SOL     OW20851   3.666   0.579   5.202  0.6569  0.0896 -0.2520
 3131SOL    HW120852   3.623   0.562   5.285  3.4153 -1.6621  0.8008
 3131SOL    HW220853   3.744   0.525   5.205  1.8809  1.8080 -1.2550
 3132SOL     OW20854   2.494   2.604  10.783  0.1801  0.1737 -0.5035
 3132SOL    HW120855   2.444   2.681  10.755  2.5061  2.3651  1.4147
 3132SOL    HW220856   2.451   2.587  10.867 -2.9166 -0.4223 -2.2196
 3133SOL     OW20857   0.941   1.746   7.172 -0.4596 -0.1613  0.2051
 3133SOL    HW120858   0.929   1.659   7.211 -2.4677 -0.1027 -0.2950
 3133SOL    HW220859   0.874   1.798   7.217 -0.4714  0.0143 -0.0210
 3134SOL     OW20860   2.233   2.383   5.731 -0.7145  0.0601 -0.3504
 3134SOL    HW120861   2.183   2.362   5.810 -1.8401  0.7081 -0.8920
 3134SOL    HW220862   2.251   2.295   5.700 -0.8081  0.3505 -1.2448
 3135SOL     OW20863   2.587   1.378   3.805 -0.6734 -0.4559 -0.0463
 3135SOL    HW120864   2.555   1.342   3.722 -0.5196  1.5572 -0.9772
 3135SOL    HW220865   2.502   1.399   3.841 -1.0534 -2.8077  0.4334
 3136SOL     OW20866   4.069   1.866   2.986 -0.0340  0.0358  0.3616
 3136SOL    HW120867   4.091   1.776   3.009 -1.1920 -0.1890  0.5726
 3136SOL    HW220868   4.128   1.914   3.044  0.2736  1.1457 -0.8703
 3137SOL     OW20869   2.204   1.153   5.415 -0.3315 -0.1197 -0.4579
 3137SOL    HW120870   2.252   1.236   5.423  0.7689 -1.0536  2.9021
 3137SOL    HW220871   2.229   1.117   5.501 -0.4542 -0.7652 -0.6976
 3138SOL     OW20872   1.864   1.421   4.169 -0.3787  0.2804 -0.1274
 3138SOL    HW120873   1.940   1.398   4.223 -1.4370  1.2730  1.7843
 3138SOL    HW220874   1.917   1.454   4.097  0.7171  0.3076  0.6970
 3139SOL     OW20875   1.369   2.179   7.397  0.3205  0.3616 -0.2566
 3139SOL    HW120876   1.393   2.127   7.474  1.0001 -0.1615 -0.8196
 3139SOL    HW220877   1.277   2.198   7.418 -0.4737 -1.1674 -2.3824
 3140SOL     OW20878   4.580   4.592  12.424  0.1471  0.4504 -0.4505
 3140SOL    HW120879   4.674   4.591  12.442  0.4909 -0.4018 -2.3654
 3140SOL    HW220880   4.556   4.684  12.413 -1.5918 -0.0911 -1.1596
 3141SOL     OW20881   0.881   1.367   7.774 -0.3008  0.1981 -0.1326
 3141SOL    HW120882   0.830   1.350   7.695 -3.7203 -1.3401  2.4202
 3141SOL    HW220883   0.855   1.295   7.831 -1.8419 -0.1571 -1.2844
 3142SOL     OW20884   0.949   3.165   5.964  0.3001 -0.5376 -0.5239
 3142SOL    HW120885   1.034   3.193   5.928  1.0411 -1.8020  0.2749
 3142SOL    HW220886   0.944   3.073   5.940 -4.0471 -0.3311 -0.2576
 3143SOL     OW20887   3.199   3.939  10.532 -0.1234  0.1382 -0.1234
 3143SOL    HW120888   3.143   3.987  10.593  1.7461  0.8115  1.0595
 3143SOL    HW220889   3.170   3.968  10.446 -0.4068  1.3065  0.3621
 3144SOL     OW20890   3.209   3.485   3.074  0.3022 -0.2865 -0.4781
 3144SOL    HW120891   3.256   3.437   3.141 -2.4188 -0.3093  1.3916
 3144SOL    HW220892   3.272   3.551   3.045  0.7949 -0.1627  0.9009
 3145SOL     OW20893   2.049   0.919   4.501  0.6890 -0.1338  0.2835
 3145SOL    HW120894   2.083   0.927   4.590  1.7285  1.9336 -0.3241
 3145SOL    HW220895   2.116   0.977   4.466  0.8702  0.3833  1.5028
 3146SOL     OW20896   3.924   1.829   0.101  0.7500  0.4297 -0.5736
 3146SOL    HW120897   3.920   1.799   0.192  0.5748  1.8211 -0.1284
 3146SOL    HW220898   4.009   1.872   0.108  0.5680  0.5259  1.1383
 3147SOL     OW20899   1.716   4.292   2.982  0.6015  0.1690 -0.4018
 3147SOL    HW120900   1.803   4.312   3.018 -0.1549  0.4593  1.2627
 3147SOL    HW220901   1.672   4.274   3.065 -1.2985  2.5215 -0.9072
 3148SOL     OW20902   2.715   4.026   4.516 -0.2221  0.7691  0.0867
 3148SOL    HW120903   2.651   4.071   4.460 -0.5608 -0.6658 -0.6594
 3148SOL    HW220904   2.765   4.096   4.559  0.0512 -0.9916  2.5907
 3149SOL     OW20905   2.500   3.416   7.677  0.4470 -0.4928 -0.2823
 3149SOL    HW120906   2.559   3.421   7.602 -0.5545  1.8078 -0.9118
 3149SOL    HW220907   2.415   3.407   7.633 -0.3725  0.3510  1.1295
 3150SOL     OW20908   2.690   3.648   2.705  0.1146  0.6304  0.4055
 3150SOL    HW120909   2.652   3.661   2.618 -0.4323 -0.3047  0.4975
 3150SOL    HW220910   2.747   3.574   2.682  2.0620  1.6739  1.8808
 3151SOL     OW20911   4.239   3.829   7.388 -0.4552 -0.2546  0.5672
 3151SOL    HW120912   4.238   3.749   7.336 -2.2753  0.5451 -0.6180
 3151SOL    HW220913   4.312   3.874   7.345 -0.9803 -0.9600 -1.0824
 3152SOL     OW20914   1.663   1.746   8.888  0.0654  0.1841 -0.1283
 3152SOL    HW120915   1.741   1.799   8.870  0.2116 -0.4970 -1.5201
 3152SOL    HW220916   1.705   1.692   8.954 -0.4449 -0.3797 -0.2606
 3153SOL     OW20917   2.403   2.955   5.246 -0.1165  0.2754 -0.2996
 3153SOL    HW120918   2.362   2.876   5.211 -0.4892  0.4519 -0.2569
 3153SOL    HW220919   2.426   2.988   5.159  0.0947  1.0141  0.0355
 3154SOL     OW20920   1.702   1.245   2.170 -0.6641 -0.5915 -0.5027
 3154SOL    HW120921   1.791   1.239   2.205  0.1730 -0.4006 -2.5623
 3154SOL    HW220922   1.685   1.338   2.178  0.8143 -0.4289  0.6944
 3155SOL     OW20923   0.630   3.506  11.295  0.4415  0.0985  0.5736
 3155SOL    HW120924   0.647   3.556  11.215  0.0169 -0.6556  0.0049
 3155SOL    HW220925   0.674   3.551  11.367  1.7992  0.3630 -0.4165
 3156SOL     OW20926   1.898   0.474   4.818 -0.7803  0.1849 -0.3666
 3156SOL    HW120927   1.982   0.442   4.785 -1.0898 -0.6790 -0.3149
 3156SOL    HW220928   1.903   0.569   4.816  1.2596  0.0086 -3.5558
 3157SOL     OW20929   1.892   1.420   2.345  0.0667  0.0990 -0.4734
 3157SOL    HW120930   1.914   1.486   2.280 -4.2104  2.7974  0.8416
 3157SOL    HW220931   1.979   1.394   2.376  0.5128  1.6371 -0.4329
 3158SOL     OW20932   3.158   4.583   2.956  0.0963 -0.4150 -0.1910
 3158SOL    HW120933   3.136   4.557   2.866  0.5723 -1.2014 -0.0748
 3158SOL    HW220934   3.252   4.568   2.948  0.1347 -0.1348 -0.2513
 3159SOL     OW20935   4.632   1.600  14.598  0.2770  0.2848  0.6896
 3159SOL    HW120936   4.637   1.610  14.503  1.3572  1.0011  0.8235
 3159SOL    HW220937   4.640   1.691  14.624 -0.3534  0.5518 -0.0483
 3160SOL     OW20938   2.826   1.786   6.437 -0.5708  0.0908  0.6571
 3160SOL    HW120939   2.821   1.868   6.485 -2.7632 -0.8471  2.0615
 3160SOL    HW220940   2.772   1.815   6.364  0.7849 -1.4014 -0.9292
 3161SOL     OW20941   2.831   1.407   7.153  0.1162 -0.0769  0.4979
 3161SOL    HW120942   2.816   1.385   7.061 -2.1023 -1.8591  1.2731
 3161SOL    HW220943   2.834   1.317   7.186  1.5379  0.1049  0.8740
 3162SOL     OW20944   1.614   1.902   8.132 -0.5746  0.0662  1.3274
 3162SOL    HW120945   1.600   1.870   8.221  2.3887 -0.8201  1.4888
 3162SOL    HW220946   1.692   1.957   8.142 -0.2580 -0.2923  0.8328
 3163SOL     OW20947   3.261   3.138   6.974 -0.3485 -0.3739 -0.2440
 3163SOL    HW120948   3.170   3.125   6.947 -0.4758  0.3024 -0.1597
 3163SOL    HW220949   3.269   3.089   7.055 -0.3670  0.3152  0.1766
 3164SOL     OW20950   2.540   2.512   2.794 -0.0704 -0.5658  0.1189
 3164SOL    HW120951   2.460   2.469   2.763 -1.0903  0.6811  0.9959
 3164SOL    HW220952   2.535   2.488   2.887 -0.7969  2.7208  0.9307
 3165SOL     OW20953   0.666   4.292   8.076 -0.0501  0.2982  0.6821
 3165SOL    HW120954   0.706   4.379   8.074  0.7939 -0.1312 -1.3937
 3165SOL    HW220955   0.735   4.240   8.117  0.3462  0.4885  0.2517
 3166SOL     OW20956   1.796   2.523   6.464  0.1465 -0.1724 -0.1410
 3166SOL    HW120957   1.771   2.438   6.429 -1.0897  0.3041 -0.4108
 3166SOL    HW220958   1.874   2.484   6.505  0.5171  0.3148 -0.3786
 3167SOL     OW20959   3.932   3.353   3.671 -0.1866 -0.2066 -0.0445
 3167SOL    HW120960   3.933   3.348   3.767 -1.3781  1.1851  0.0386
 3167SOL    HW220961   3.939   3.448   3.656  1.0662 -0.1393  0.9318
 3168SOL     OW20962   1.943   2.375   8.458  0.1189 -0.1521  0.4863
 3168SOL    HW120963   1.863   2.427   8.446  0.5897  0.9465  1.9985
 3168SOL    HW220964   1.915   2.300   8.510 -0.7364  0.6615  1.2055
 3169SOL     OW20965   2.982   3.227   8.351  0.4836  0.0689 -0.5427
 3169SOL    HW120966   2.907   3.169   8.343  0.8783 -0.5507  0.3380
 3169SOL    HW220967   3.037   3.203   8.277  1.1577 -1.1481  0.3674
 3170SOL     OW20968   0.334   3.531   6.895 -0.4411 -0.1867  0.4588
 3170SOL    HW120969   0.244   3.561   6.881  1.0714  3.1910 -2.0521
 3170SOL    HW220970   0.350   3.491   6.810 -3.0075 -0.5413  0.1500
 3171SOL     OW20971   1.534   0.282   6.972  0.2079  0.5108 -0.3517
 3171SOL    HW120972   1.488   0.335   6.907 -1.4746 -0.2382  0.2196
 3171SOL    HW220973   1.554   0.353   7.034  0.0922  0.7595 -0.5991
 3172SOL     OW20974   2.369   2.620  12.229  0.4847  1.0803  0.1618
 3172SOL    HW120975   2.406   2.535  12.205  3.2181  1.4108  3.1518
 3172SOL    HW220976   2.343   2.597  12.319  1.7587 -0.7934  0.0590
 3173SOL     OW20977   3.305   2.911   5.245  0.7086 -0.0725  0.4618
 3173SOL    HW120978   3.275   2.820   5.254 -5.0420  1.9066  1.4352
 3173SOL    HW220979   3.233   2.946   5.192  0.3241 -0.1177  0.9590
 3174SOL     OW20980   4.401   4.635   6.049 -0.0444 -0.3401  0.5108
 3174SOL    HW120981   4.457   4.692   5.996  1.0079 -1.1238  0.7713
 3174SOL    HW220982   4.383   4.562   5.990  0.6673 -0.0260 -0.0902
 3175SOL     OW20983   0.923   3.633   5.921  0.8899  0.0464 -0.2059
 3175SOL    HW120984   0.900   3.577   5.996 -0.7445 -0.9703 -1.4619
 3175SOL    HW220985   0.974   3.564   5.878 -4.4761 -3.9584 -0.1962
 3176SOL     OW20986   2.336   2.066  15.532  0.5118  0.3020  0.1567
 3176SOL    HW120987   2.251   2.098  15.561 -0.4049 -0.3983 -1.7092
 3176SOL    HW220988   2.399   2.111  15.587  0.6869  1.2459 -0.8201
 3177SOL     OW20989   2.685   0.739   3.356  0.3020  0.2220 -0.0115
 3177SOL    HW120990   2.690   0.817   3.412 -0.2995  0.5556 -0.4276
 3177SOL    HW220991   2.741   0.673   3.396 -1.1774 -1.2988 -0.4684
 3178SOL     OW20992   2.820   2.921   1.287 -0.2229 -0.0774 -0.6683
 3178SOL    HW120993   2.812   2.839   1.334  2.4583 -1.1130 -2.0368
 3178SOL    HW220994   2.849   2.890   1.201  1.8900  0.1493 -0.0389
 3179SOL     OW20995   1.259   2.921   6.521 -0.3951 -0.4374 -0.3270
 3179SOL    HW120996   1.187   2.984   6.514  1.0928  1.2709 -0.4447
 3179SOL    HW220997   1.250   2.912   6.616 -0.2396 -0.4845 -0.3166
 3180SOL     OW20998   1.060   3.052   4.946 -0.0789  0.0780  0.4537
 3180SOL    HW120999   1.096   3.140   4.936  0.3524 -0.1476 -0.0015
 3180SOL    HW221000   1.096   3.014   4.866  1.4826  0.2469  1.0873
 3181SOL     OW21001   1.726   0.405   8.002 -0.2066 -0.2306 -0.0266
 3181SOL    HW121002   1.752   0.422   7.911 -4.3144 -0.1158 -1.1799
 3181SOL    HW221003   1.719   0.310   8.014 -0.5800 -0.1070  0.7154
 3182SOL     OW21004   4.329   0.325   7.585 -0.7669  0.5413  0.0397
 3182SOL    HW121005   4.376   0.403   7.615  1.0837  0.4257 -2.6307
 3182SOL    HW221006   4.325   0.276   7.667  2.4776  0.5906  0.2133
 3183SOL     OW21007   1.591   4.145  17.303  0.7490 -0.0730  0.0506
 3183SOL    HW121008   1.554   4.062  17.330 -0.4387  1.1798  2.2870
 3183SOL    HW221009   1.514   4.195  17.328  0.6502  0.1334 -0.6554
 3184SOL     OW21010   1.944   1.172   3.827  0.1250 -0.2300  0.2286
 3184SOL    HW121011   2.012   1.189   3.892 -0.6947 -2.1250  1.5711
 3184SOL    HW221012   1.879   1.227   3.869  0.1692  0.4208 -0.5518
 3185SOL     OW21013   0.204   2.316  11.052  0.3173 -0.4959  0.4613
 3185SOL    HW121014   0.220   2.234  11.098  1.7774 -0.4822 -0.0062
 3185SOL    HW221015   0.215   2.299  10.959 -0.0536  1.6343  0.0288
 3186SOL     OW21016   0.179   3.371  12.917 -0.1201  0.7287 -0.1347
 3186SOL    HW121017   0.256   3.416  12.882  0.3995 -0.3807 -0.4249
 3186SOL    HW221018   0.177   3.285  12.877  2.9633  0.7684 -0.3564
 3187SOL     OW21019   3.722   3.700   2.904 -0.1845 -0.3063  0.4348
 3187SOL    HW121020   3.760   3.630   2.850 -1.0331 -1.5150  1.3914
 3187SOL    HW221021   3.736   3.667   2.992 -0.5166  0.1422  0.6569
 3188SOL     OW21022   1.336   2.275   4.415  0.1125  0.2973  0.2577
 3188SOL    HW121023   1.291   2.192   4.435  0.8571 -0.1922 -0.1147
 3188SOL    HW221024   1.427   2.254   4.435  0.7150  0.7409 -2.0843
 3189SOL     OW21025   0.766   2.106  16.762 -0.0567  0.8147 -0.2640
 3189SOL    HW121026   0.721   2.039  16.813  2.1416  0.5053  1.2906
 3189SOL    HW221027   0.855   2.100  16.796  0.5647  2.3392 -1.5919
 3190SOL     OW21028   2.426   0.266  11.322  0.3094 -0.0563  0.5646
 3190SOL    HW121029   2.395   0.211  11.250 -0.1657 -1.8490  2.1348
 3190SOL    HW221030   2.345   0.295  11.364  0.7250  2.1683 -0.1533
 3191SOL     OW21031   1.006   4.305  15.554 -1.2152 -0.1780  0.7255
 3191SOL    HW121032   1.038   4.289  15.643 -1.4146 -1.7020  0.5231
 3191SOL    HW221033   0.991   4.218  15.519  0.7300 -0.5249  0.7728
 3192SOL     OW21034   0.968   0.419  15.982 -0.1918 -0.4355 -0.7291
 3192SOL    HW121035   0.915   0.496  15.999  1.0624  0.2156  0.2209
 3192SOL    HW221036   0.955   0.412  15.887 -0.4599  0.2554 -0.7399
 3193SOL     OW21037   2.786   2.715   7.549 -0.1794  0.5467  0.4935
 3193SOL    HW121038   2.716   2.670   7.502 -0.0351 -1.7808  2.5443
 3193SOL    HW221039   2.852   2.648   7.533 -0.9510  0.1394 -0.9818
 3194SOL     OW21040   4.438   3.651   2.091 -0.5425  0.2726  0.4951
 3194SOL    HW121041   4.454   3.686   2.179 -1.7915 -1.4794  1.4074
 3194SOL    HW221042   4.427   3.562   2.122 -0.0086 -0.2723 -0.8845
 3195SOL     OW21043   3.743   0.128   4.960  0.1617 -0.2537 -0.2675
 3195SOL    HW121044   3.819   0.091   4.915 -0.4280  0.9325 -2.2449
 3195SOL    HW221045   3.775   0.121   5.050 -0.1259 -1.2362 -0.2327
 3196SOL     OW21046   2.930   1.566  16.789  0.2635  0.3352  0.5630
 3196SOL    HW121047   2.959   1.608  16.708 -0.8832 -0.9814 -0.5368
 3196SOL    HW221048   2.947   1.642  16.844  1.1218 -0.0166  0.7880
 3197SOL     OW21049   3.097   2.643   6.471  0.4650  0.3858 -0.1334
 3197SOL    HW121050   3.086   2.628   6.565  0.6083  1.6463  0.0966
 3197SOL    HW221051   3.175   2.593   6.447  1.6332  1.5552  1.1911
 3198SOL     OW21052   2.239   3.454   4.864 -0.0425 -0.2449 -0.3822
 3198SOL    HW121053   2.321   3.405   4.868  1.1963  1.8647  0.4312
 3198SOL    HW221054   2.271   3.531   4.816 -1.3489  1.5955  1.7041
 3199SOL     OW21055   4.329   4.104   2.822  0.0804  0.5724  0.4583
 3199SOL    HW121056   4.234   4.091   2.820  0.4219 -1.7183 -0.8976
 3199SOL    HW221057   4.339   4.167   2.751 -0.1304  1.1113  0.9122
 3200SOL     OW21058   4.374   0.570   7.377  0.1221  0.1247  0.1772
 3200SOL    HW121059   4.436   0.498   7.392  0.1802  0.2174  0.3808
 3200SOL    HW221060   4.413   0.650   7.410 -1.1387  1.1728 -0.8737
 3201SOL     OW21061   1.771   4.444   8.897 -0.0300  0.3904  0.3592
 3201SOL    HW121062   1.762   4.365   8.843  2.5222 -0.1528  0.7186
 3201SOL    HW221063   1.856   4.473   8.867 -0.1663  0.6744  0.2536
 3202SOL     OW21064   3.952   2.440   4.125  0.1324 -0.2095 -0.2976
 3202SOL    HW121065   3.925   2.530   4.106 -1.0232 -0.3776  0.5154
 3202SOL    HW221066   3.865   2.411   4.154  1.5115 -0.4051  3.5972
 3203SOL     OW21067   1.614   2.371   2.666 -0.3717 -0.1881  0.4255
 3203SOL    HW121068   1.637   2.416   2.747  2.8289  3.1322 -2.3067
 3203SOL    HW221069   1.656   2.423   2.597  1.1849 -1.0002  0.7448
 3204SOL     OW21070   1.295   2.755   8.416  0.0682  0.1338  0.0767
 3204SOL    HW121071   1.202   2.737   8.401  0.6612 -1.4987 -1.5780
 3204SOL    HW221072   1.299   2.845   8.383 -0.2067 -0.4719 -1.6167
 3205SOL     OW21073   1.652   2.203  13.426  0.4166 -0.4863 -0.3154
 3205SOL    HW121074   1.708   2.252  13.366  0.2047 -1.3134 -1.1775
 3205SOL    HW221075   1.608   2.150  13.360 -0.0356 -0.4863 -0.0148
 3206SOL     OW21076   0.876   1.949   2.064  0.4694  0.5533  0.3390
 3206SOL    HW121077   0.818   1.989   2.128 -0.6731  0.4679 -0.6394
 3206SOL    HW221078   0.876   2.010   1.990  3.9387  2.0395  1.5734
 3207SOL     OW21079   3.843   2.975   9.301 -0.3000  0.3063 -0.1928
 3207SOL    HW121080   3.913   2.982   9.365 -1.1490  0.7512  0.6894
 3207SOL    HW221081   3.828   3.064   9.270 -1.0088  0.5378  0.8136
 3208SOL     OW21082   1.957   4.064   6.473 -0.5023  0.3438 -0.6862
 3208SOL    HW121083   1.976   4.007   6.399 -1.6291  0.2771 -0.9255
 3208SOL    HW221084   1.898   4.020   6.534  1.2783  1.9431  2.1851
 3209SOL     OW21085   0.879   4.422   5.275 -0.1847 -0.3493  0.2708
 3209SOL    HW121086   0.828   4.364   5.333  1.4284  0.0884  2.1102
 3209SOL    HW221087   0.812   4.435   5.207  1.5043  1.6037 -0.9992
 3210SOL     OW21088   0.266   1.708   7.482  0.2769  0.4989  0.2022
 3210SOL    HW121089   0.293   1.763   7.408  0.5491  1.3020  0.9041
 3210SOL    HW221090   0.325   1.737   7.552  3.6129 -0.5374 -2.1597
 3211SOL     OW21091   0.111   0.557   3.515  0.5291 -0.0175 -0.2320
 3211SOL    HW121092   0.062   0.599   3.584  1.9703  1.9250 -0.3891
 3211SOL    HW221093   0.109   0.465   3.541 -1.4117  0.6891  2.1300
 3212SOL     OW21094   3.517   4.192   3.808 -0.2986 -0.0008  0.3059
 3212SOL    HW121095   3.535   4.213   3.900  0.5554  0.4253  0.0435
 3212SOL    HW221096   3.578   4.259   3.777  1.7338 -1.3800  1.2898
 3213SOL     OW21097   0.265   1.421   4.696 -0.4859  0.2635 -0.2724
 3213SOL    HW121098   0.208   1.475   4.642  0.7345  1.1601 -0.6601
 3213SOL    HW221099   0.206   1.393   4.767  1.3991  1.4021  1.7624
 3214SOL     OW21100   0.794   1.972  16.494  0.7975 -0.1175  0.1860
 3214SOL    HW121101   0.760   2.051  16.538 -2.2456 -0.9467 -0.6896
 3214SOL    HW221102   0.888   1.978  16.511  0.4626 -2.6305  2.9230
 3215SOL     OW21103   0.162   3.012  15.120  0.1702  0.0430  0.1673
 3215SOL    HW121104   0.148   3.077  15.051 -3.1559 -2.5650 -1.5834
 3215SOL    HW221105   0.143   2.929  15.075 -1.0945  0.5554 -0.2536
 3216SOL     OW21106   1.526   4.645   2.103  0.4354  0.3324  0.1102
 3216SOL    HW121107   1.563   4.701   2.035  1.6826 -1.0387 -0.3316
 3216SOL    HW221108   1.597   4.582   2.113 -0.3644 -0.4549  0.8941
 3217SOL     OW21109   3.827   1.559   7.281 -0.0412  0.7546 -1.2756
 3217SOL    HW121110   3.913   1.592   7.254  0.0380  0.8559 -0.8985
 3217SOL    HW221111   3.823   1.477   7.233  0.7494  0.9433 -1.6676
 3218SOL     OW21112   4.516   0.612   5.544  0.3377  0.3275 -0.0739
 3218SOL    HW121113   4.481   0.663   5.617 -1.4543  0.3017 -0.9076
 3218SOL    HW221114   4.607   0.591   5.567  0.1407  1.5872  1.8879
 3219SOL     OW21115   0.681   0.862   9.525  0.1058  0.4824  0.0569
 3219SOL    HW121116   0.710   0.944   9.485  0.1886  1.6360  2.4995
 3219SOL    HW221117   0.682   0.884   9.618 -0.9417 -2.0910  0.6853
 3220SOL     OW21118   0.168   3.224   3.896 -0.0497 -0.3368  0.4299
 3220SOL    HW121119   0.254   3.183   3.907  0.1549 -0.4495 -1.6270
 3220SOL    HW221120   0.187   3.316   3.879 -1.1120  0.1234  1.7243
 3221SOL     OW21121   4.610   3.328  13.691 -0.0783 -0.3649  0.3398
 3221SOL    HW121122   4.660   3.335  13.610 -1.2683 -1.7216 -0.5073
 3221SOL    HW221123   4.523   3.362  13.669 -1.3165 -2.2371  2.3844
 3222SOL     OW21124   2.561   1.502   4.758  0.6689  0.7009  0.0057
 3222SOL    HW121125   2.617   1.432   4.791 -2.6722 -1.0894  1.9048
 3222SOL    HW221126   2.572   1.557   4.835  0.6704  1.3995 -0.4965
 3223SOL     OW21127   1.337   1.849  11.950 -0.2498  0.0824 -0.2969
 3223SOL    HW121128   1.299   1.803  11.875 -0.9291 -1.0945  0.7776
 3223SOL    HW221129   1.421   1.872  11.912  0.4337  0.4900  1.4682
 3224SOL     OW21130   1.486   4.065   6.327 -1.1329 -0.2927 -0.1587
 3224SOL    HW121131   1.552   4.052   6.396 -3.7371 -2.3914  1.9461
 3224SOL    HW221132   1.556   4.076   6.263 -1.0304 -0.7676 -0.1298
 3225SOL     OW21133   3.166   2.735  13.439 -0.2285 -0.3432 -0.9303
 3225SOL    HW121134   3.131   2.675  13.505  0.1504  0.0006 -0.4032
 3225SOL    HW221135   3.190   2.804  13.502 -1.0479 -0.4567 -0.4994
 3226SOL     OW21136   0.410   4.645  12.293  0.1366  0.1779 -0.0368
 3226SOL    HW121137   0.384   4.559  12.327  0.1613  1.0495  2.1519
 3226SOL    HW221138   0.487   4.611  12.249  0.6789  2.1778 -0.6021
 3227SOL     OW21139   4.028   4.538   8.312  0.2069  0.3406 -0.0840
 3227SOL    HW121140   3.985   4.564   8.230  1.6251  1.0678 -0.6236
 3227SOL    HW221141   4.097   4.480   8.279 -0.1148 -1.2860  2.1192
 3228SOL     OW21142   4.008   4.133   5.114  0.3248 -0.6435 -0.1363
 3228SOL    HW121143   4.023   4.214   5.064 -1.7230 -0.7721 -0.9614
 3228SOL    HW221144   3.952   4.157   5.188 -1.1109 -0.3699 -1.3018
 3229SOL     OW21145   2.520   2.575   6.160 -0.4408  0.1578  0.8899
 3229SOL    HW121146   2.510   2.667   6.187  2.0190  0.5421  0.5337
 3229SOL    HW221147   2.468   2.573   6.080 -0.8810  0.1832  1.1777
 3230SOL     OW21148   4.131   4.720   6.532  0.2758 -0.0817 -0.4907
 3230SOL    HW121149   4.210   4.685   6.492  0.1292 -0.8944 -0.0747
 3230SOL    HW221150   4.084   0.047   6.467  2.9667  1.7494 -0.9097
 3231SOL     OW21151   1.451   1.587   8.494  0.0482  0.2015 -0.3292
 3231SOL    HW121152   1.495   1.531   8.429 -0.1853  0.7707 -0.9831
 3231SOL    HW221153   1.485   1.571   8.582 -1.1846 -1.9440 -0.2326
 3232SOL     OW21154   0.208   0.128   5.137 -0.2089 -0.0906 -0.0889
 3232SOL    HW121155   0.225   0.185   5.062  3.0692 -1.6715 -0.5382
 3232SOL    HW221156   0.141   0.068   5.105 -1.0806 -0.8736  3.2128
 3233SOL     OW21157   1.468   2.973   8.559  0.5160 -0.1843 -0.3069
 3233SOL    HW121158   1.433   2.995   8.645  0.6705 -0.0776 -0.2712
 3233SOL    HW221159   1.560   2.993   8.575  0.2849 -0.4009  1.2608
 3234SOL     OW21160   0.544   3.235   8.610  0.4137 -0.2093  0.0643
 3234SOL    HW121161   0.502   3.199   8.689  2.9379  0.2048  1.6078
 3234SOL    HW221162   0.533   3.329   8.623  0.3090 -0.2145  0.0181
 3235SOL     OW21163   4.581   2.406   3.684 -0.0971 -0.1998  0.1902
 3235SOL    HW121164   4.574   2.490   3.729 -2.6111  0.7208 -1.9053
 3235SOL    HW221165   4.660   2.370   3.724 -0.9112 -1.6066  0.5237
 3236SOL     OW21166   3.397   1.667   0.960 -0.8528 -0.1563  0.1683
 3236SOL    HW121167   3.338   1.700   0.892  0.2641 -1.0361 -1.2211
 3236SOL    HW221168   3.462   1.616   0.912  2.1014  2.3305  1.5648
 3237SOL     OW21169   0.590   3.921  14.269  0.0380 -0.3335 -0.3107
 3237SOL    HW121170   0.611   3.921  14.362  0.3824  0.0233 -0.3892
 3237SOL    HW221171   0.519   3.985  14.279  1.2824  0.4975  3.1811
 3238SOL     OW21172   4.547   1.574   4.266 -0.2845 -0.3409  0.3992
 3238SOL    HW121173   4.640   1.597   4.271 -0.2304 -0.7879  1.3610
 3238SOL    HW221174   4.526   1.519   4.342 -2.2523 -2.9826 -2.0338
 3239SOL     OW21175   1.124   3.345   3.583 -0.0159  0.4486 -0.0094
 3239SOL    HW121176   1.052   3.282   3.577  0.9130 -0.9748  4.1079
 3239SOL    HW221177   1.178   3.301   3.648 -2.1320 -0.8513  0.8736
 3240SOL     OW21178   1.607   3.659   4.048  0.0919  0.2131  0.5065
 3240SOL    HW121179   1.693   3.620   4.041 -0.1182 -0.2235  0.3647
 3240SOL    HW221180   1.587   3.642   4.140  1.6401 -0.1780  0.7684
 3241SOL     OW21181   3.635   3.900   7.041 -0.7646 -0.0062  0.0961
 3241SOL    HW121182   3.567   3.900   6.975  0.8369 -0.4993 -1.5493
 3241SOL    HW221183   3.692   3.972   7.011 -3.8163  2.0201 -0.8172
 3242SOL     OW21184   1.845   2.426  12.128  0.2868  0.4949  0.2806
 3242SOL    HW121185   1.868   2.432  12.035  2.3410  0.7756  0.8176
 3242SOL    HW221186   1.929   2.445  12.169  0.1419 -0.5991  1.0810
 3243SOL     OW21187   2.793   2.147  13.432  0.0158  0.0335 -0.4149
 3243SOL    HW121188   2.842   2.210  13.380  3.4617 -0.7574  1.8940
 3243SOL    HW221189   2.868   2.127  13.488  0.1667  0.0831 -0.6003
 3244SOL     OW21190   4.282   0.131   7.821  0.0751 -0.4291  0.3153
 3244SOL    HW121191   4.342   0.099   7.889 -0.0654 -1.3089  0.0197
 3244SOL    HW221192   4.201   0.135   7.872 -1.2077 -0.3407 -1.7571
 3245SOL     OW21193   0.853   4.174   1.813  0.1700 -0.0696 -0.2321
 3245SOL    HW121194   0.792   4.248   1.807 -0.0627 -0.3415 -1.1099
 3245SOL    HW221195   0.829   4.119   1.739 -0.2407  0.4458 -0.4814
 3246SOL     OW21196   2.184   0.575   4.201 -0.3818 -0.6881 -0.0317
 3246SOL    HW121197   2.217   0.489   4.174  1.2497 -0.4577  1.1693
 3246SOL    HW221198   2.100   0.566   4.158  1.1536 -0.1617 -3.1340
 3247SOL     OW21199   0.303   1.020   7.153 -0.2438 -0.1500 -0.4490
 3247SOL    HW121200   0.228   1.044   7.207  1.1276  1.3931  0.7235
 3247SOL    HW221201   0.324   0.933   7.188  2.0669  0.3436 -0.6092
 3248SOL     OW21202   1.612   1.072  14.254 -0.1313  0.5466 -0.8570
 3248SOL    HW121203   1.683   1.009  14.268  0.8601  1.9828  0.6561
 3248SOL    HW221204   1.584   1.102  14.341 -0.6810  0.9938 -1.1849
 3249SOL     OW21205   0.157   3.577  16.621 -0.1470 -0.4794  0.2094
 3249SOL    HW121206   0.107   3.564  16.540  0.9598 -1.0247 -0.3893
 3249SOL    HW221207   0.216   3.503  16.610 -0.0732 -0.4269  0.2500
 3250SOL     OW21208   3.226   4.204   8.625 -0.1614 -0.1660 -0.5992
 3250SOL    HW121209   3.300   4.193   8.686  0.0898 -0.5812 -0.9740
 3250SOL    HW221210   3.215   4.114   8.596 -1.1277 -0.0482 -0.5789
 3251SOL     OW21211   1.318   3.454   3.211 -0.2461 -0.5844  0.4437
 3251SOL    HW121212   1.253   3.389   3.236 -1.2337 -0.0783 -0.8476
 3251SOL    HW221213   1.315   3.437   3.117  0.1296  0.2798  0.2687
 3252SOL     OW21214   0.306   3.437  12.056 -0.1373 -0.4473 -0.2008
 3252SOL    HW121215   0.392   3.438  12.097  0.8349  2.7389 -2.2699
 3252SOL    HW221216   0.266   3.392  12.130  0.7705 -1.4630 -0.3252
 3253SOL     OW21217   1.661   0.298  11.494  0.2138  0.0689  0.0906
 3253SOL    HW121218   1.642   0.308  11.401  0.5486 -1.4978 -0.1345
 3253SOL    HW221219   1.579   0.341  11.522  1.2977  0.5337  2.6253
 3254SOL     OW21220   0.864   4.434  15.278 -0.0226  0.0193 -0.1668
 3254SOL    HW121221   0.881   4.417  15.186  0.8755  1.3353 -0.2415
 3254SOL    HW221222   0.908   4.357  15.315  0.7839  1.2494  1.4687
 3255SOL     OW21223   3.418   2.121   9.583  0.2713 -0.0004 -0.0953
 3255SOL    HW121224   3.476   2.082   9.649  1.3343  0.3595 -0.8270
 3255SOL    HW221225   3.400   2.044   9.529  0.2852 -0.1592  0.1261
 3256SOL     OW21226   4.288   2.946   2.741 -0.7096 -0.3795  0.0421
 3256SOL    HW121227   4.286   2.866   2.689  0.8328 -0.5867  0.2965
 3256SOL    HW221228   4.195   2.962   2.729 -0.7153  0.1219  0.7465
 3257SOL     OW21229   2.121   3.804   2.541  0.6208 -0.0871  0.5098
 3257SOL    HW121230   2.159   3.881   2.497 -0.2924 -0.4072 -0.8647
 3257SOL    HW221231   2.205   3.762   2.558  0.3424 -0.0495  1.9754
 3258SOL     OW21232   1.865   0.076   2.337  0.2933  0.0109 -0.0799
 3258SOL    HW121233   1.848   0.169   2.352  0.5016  0.3693 -1.9958
 3258SOL    HW221234   1.910   0.088   2.253 -1.0469  0.6733 -0.7080
 3259SOL     OW21235   2.099   3.963   3.049 -0.0305  0.0362 -0.2125
 3259SOL    HW121236   2.165   3.896   3.066  0.5914 -0.1784 -3.5207
 3259SOL    HW221237   2.016   3.915   3.052 -0.1333  0.3731  2.7168
 3260SOL     OW21238   1.481   3.088   5.922 -0.2220 -0.4395  0.1128
 3260SOL    HW121239   1.548   3.027   5.952  0.6390  0.8741  0.8716
 3260SOL    HW221240   1.473   3.145   5.999 -1.7532 -1.7166  0.8935
 3261SOL     OW21241   4.552   3.095   3.832 -0.2545  0.7161 -0.1179
 3261SOL    HW121242   4.585   3.184   3.843  0.3777  0.3988  0.5064
 3261SOL    HW221243   4.531   3.067   3.921  0.0990  0.3858 -0.1411
 3262SOL     OW21244   2.624   2.164  13.663 -0.5050  0.4055 -0.3512
 3262SOL    HW121245   2.638   2.164  13.568 -1.7240  0.5245 -0.5370
 3262SOL    HW221246   2.673   2.085  13.685  3.2947  2.4783 -1.3349
 3263SOL     OW21247   1.520   4.498   5.781  0.2658  0.4067 -0.0991
 3263SOL    HW121248   1.588   4.432   5.792 -1.8241 -1.9921 -1.5151
 3263SOL    HW221249   1.470   4.446   5.718 -0.5430  0.6545  0.3400
 3264SOL     OW21250   1.261   1.852   0.401 -0.1581 -0.9072 -0.5924
 3264SOL    HW121251   1.301   1.793   0.465  1.6431  0.2286 -0.7080
 3264SOL    HW221252   1.333   1.914   0.408 -0.2987 -0.6067 -1.7209
 3265SOL     OW21253   2.872   2.568   4.918  0.6158  0.0664 -0.0764
 3265SOL    HW121254   2.858   2.501   4.984  2.7759 -0.0110  0.3211
 3265SOL    HW221255   2.829   2.531   4.841  1.4446  3.5081 -2.2137
 3266SOL     OW21256   1.111   2.729   6.701 -0.1974  0.4436  0.4835
 3266SOL    HW121257   1.139   2.669   6.632 -0.4198  1.8313 -0.7984
 3266SOL    HW221258   1.022   2.750   6.673 -0.2708  0.6545  0.8816
 3267SOL     OW21259   1.793   0.301   4.641  0.1176 -0.2956  0.0449
 3267SOL    HW121260   1.811   0.364   4.710  0.0507  1.1377 -1.2449
 3267SOL    HW221261   1.840   0.342   4.569  2.1610  2.0142  2.6918
 3268SOL     OW21262   4.551   3.225   5.732  0.4077 -0.3402 -0.3077
 3268SOL    HW121263   4.498   3.304   5.726  0.8540  0.0039  0.3447
 3268SOL    HW221264   4.639   3.263   5.739 -1.0510  2.5584  2.0170
 3269SOL     OW21265   2.400   4.059  13.573 -0.0098 -0.2030 -0.5762
 3269SOL    HW121266   2.427   4.143  13.609  2.0253 -0.6479 -1.0505
 3269SOL    HW221267   2.353   4.030  13.651  1.3585  3.2892  1.5483
 3270SOL     OW21268   2.316   3.720   4.760 -0.1287  0.1322 -0.1460
 3270SOL    HW121269   2.403   3.691   4.730 -0.9458 -1.7559 -0.6784
 3270SOL    HW221270   2.267   3.706   4.679  1.0652 -2.8262 -0.3823
 3271SOL     OW21271   1.142   1.219   3.865 -0.4521  0.1886 -0.3034
 3271SOL    HW121272   1.052   1.254   3.869 -0.9237 -0.9942 -0.6010
 3271SOL    HW221273   1.123   1.126   3.876  0.4167  0.0365 -0.1460
 3272SOL     OW21274   2.239   2.059   0.144  0.0105 -0.4744 -0.3419
 3272SOL    HW121275   2.329   2.027   0.132  0.2583  0.6049 -1.3619
 3272SOL    HW221276   2.212   2.100   0.062 -1.8366 -1.4595 -0.2278
 3273SOL     OW21277   2.861   4.177   7.764  0.2010  0.3285  0.1655
 3273SOL    HW121278   2.925   4.248   7.760  0.3008  0.1574 -1.2254
 3273SOL    HW221279   2.926   4.107   7.772 -1.2059 -0.9172  0.5477
 3274SOL     OW21280   2.442   3.251   5.368  0.0935 -0.3074  0.0909
 3274SOL    HW121281   2.471   3.168   5.332  0.3905  0.0390 -0.4702
 3274SOL    HW221282   2.441   3.299   5.285  2.0307 -1.2409 -0.4829
 3275SOL     OW21283   4.167   4.417   5.563  0.2826  0.0608  0.1346
 3275SOL    HW121284   4.138   4.470   5.637  0.6747  0.4147  0.0347
 3275SOL    HW221285   4.262   4.431   5.562  0.3180 -0.2782 -1.2182
 3276SOL     OW21286   1.310   1.026   9.149  0.0386  0.2001 -0.5961
 3276SOL    HW121287   1.355   1.111   9.144 -1.0338  0.7133 -1.6290
 3276SOL    HW221288   1.244   1.050   9.215  1.2894  0.6039  0.4940
 3277SOL     OW21289   0.834   1.836   6.931 -0.2771 -0.0498 -0.3122
 3277SOL    HW121290   0.783   1.777   6.876 -1.7741  0.5901  0.3829
 3277SOL    HW221291   0.821   1.797   7.017 -2.0411  0.3381 -0.3860
 3278SOL     OW21292   2.339   4.423   6.904  0.5328  0.2197 -0.5242
 3278SOL    HW121293   2.309   4.443   6.815  2.3171 -1.0233 -1.4020
 3278SOL    HW221294   2.346   4.328   6.918  0.4885  0.0181 -1.8495
 3279SOL     OW21295   3.431   1.077   0.675 -0.0571  0.6308  0.4140
 3279SOL    HW121296   3.497   1.138   0.707 -1.1790  1.7359  0.6081
 3279SOL    HW221297   3.374   1.058   0.750 -2.8442  3.0640 -1.0724
 3280SOL     OW21298   3.015   0.373   4.132  0.4351 -0.1605 -0.8461
 3280SOL    HW121299   2.964   0.301   4.094 -2.0942  1.3930 -0.4105
 3280SOL    HW221300   2.995   0.435   4.062  0.0092 -0.3621 -0.9055
 3281SOL     OW21301   3.636   0.215   6.611 -0.2558  0.1380  0.3058
 3281SOL    HW121302   3.713   0.174   6.650 -1.1960 -2.4256 -0.5302
 3281SOL    HW221303   3.660   0.306   6.592 -1.3884  0.4412  0.2928
 3282SOL     OW21304   3.125   4.439   4.140  0.3011 -0.6094 -0.0344
 3282SOL    HW121305   3.209   4.482   4.154  0.3351 -1.3265  1.9877
 3282SOL    HW221306   3.096   4.419   4.228 -0.2181 -1.0229 -0.3018
 3283SOL     OW21307   0.454   2.578   7.036 -0.2215 -0.5799  0.3818
 3283SOL    HW121308   0.484   2.638   7.104 -0.3837  0.4202 -0.4270
 3283SOL    HW221309   0.509   2.602   6.962 -0.0192 -1.4676  0.2377
 3284SOL     OW21310   0.474   2.365   2.231 -0.1703  0.1606 -0.5758
 3284SOL    HW121311   0.523   2.325   2.302 -0.2265  0.4372 -0.3810
 3284SOL    HW221312   0.478   2.294   2.167  0.0619 -0.3499  0.0079
 3285SOL     OW21313   2.938   1.952   6.682 -0.2670 -0.1683  0.0581
 3285SOL    HW121314   2.967   1.950   6.773 -0.9938 -1.9585  0.2430
 3285SOL    HW221315   3.006   1.901   6.637 -0.4052  1.1708 -1.6757
 3286SOL     OW21316   2.042   4.414   3.809  0.3775 -0.4847  0.0388
 3286SOL    HW121317   2.023   4.321   3.792  0.1353 -0.1754 -1.4504
 3286SOL    HW221318   2.130   4.427   3.773  0.5450  1.8468  1.3485
 3287SOL     OW21319   2.172   2.280   8.754 -0.2178 -0.3358 -0.1103
 3287SOL    HW121320   2.128   2.362   8.773 -0.8220 -0.8140  0.5439
 3287SOL    HW221321   2.125   2.240   8.681 -2.0051 -0.6766  1.2304
 3288SOL     OW21322   0.839   0.288   6.641  0.0978 -0.0373  0.2756
 3288SOL    HW121323   0.862   0.364   6.587 -1.2447  0.1618 -0.0205
 3288SOL    HW221324   0.883   0.219   6.592  2.8803  1.2322  0.9855
 3289SOL     OW21325   0.295   2.596   0.041 -0.5408 -0.0654  0.3880
 3289SOL    HW121326   0.342   2.662  17.694 -0.4278 -0.4249  0.0248
 3289SOL    HW221327   0.223   2.598  17.682 -0.0588  2.0938 -0.1024
 3290SOL     OW21328   0.376   1.068   3.613  0.5055  0.3625  0.6326
 3290SOL    HW121329   0.327   1.054   3.695 -0.6369  0.3835 -0.0371
 3290SOL    HW221330   0.297   1.063   3.559 -0.7397 -0.3815  2.4963
 3291SOL     OW21331   3.258   0.313   5.784 -0.2047 -0.0401 -0.3870
 3291SOL    HW121332   3.233   0.386   5.727  3.5683  2.2950  0.9326
 3291SOL    HW221333   3.232   0.347   5.870  0.2633  0.2654 -0.3688
 3292SOL     OW21334   4.206   2.211   6.417  0.0379  0.3265 -0.0469
 3292SOL    HW121335   4.205   2.132   6.471  1.7371  0.5490  0.3199
 3292SOL    HW221336   4.114   2.236   6.424 -0.5386 -1.1880 -2.1070
 3293SOL     OW21337   2.964   4.529   8.367  0.2476 -0.0596  0.3712
 3293SOL    HW121338   2.995   4.472   8.438  0.0246  0.4204  0.8501
 3293SOL    HW221339   3.009   4.474   8.303 -0.6230  0.4903 -0.7052
 3294SOL     OW21340   2.961   3.635   2.015 -0.0742  0.3666  0.1653
 3294SOL    HW121341   2.888   3.673   2.064 -0.9855 -1.6641  0.3788
 3294SOL    HW221342   2.966   3.689   1.937  2.5344  0.8196  0.6407
 3295SOL     OW21343   3.064   0.056  15.340 -0.4143  0.0943 -0.7883
 3295SOL    HW121344   3.037   0.059  15.248 -1.7226 -1.3374 -0.4555
 3295SOL    HW221345   3.159   0.053  15.339 -0.4390 -0.6776 -1.4859
 3296SOL     OW21346   2.770   4.342   6.114 -0.2487 -0.1570 -0.6589
 3296SOL    HW121347   2.735   4.397   6.044  0.2395 -1.0287 -1.5769
 3296SOL    HW221348   2.714   4.365   6.189  1.1213  1.5346 -0.1468
 3297SOL     OW21349   1.109   0.197   1.349 -0.1585  0.0849 -0.4749
 3297SOL    HW121350   1.060   0.251   1.411  1.0185  1.0110 -0.3405
 3297SOL    HW221351   1.100   0.247   1.268 -2.5865 -1.2929 -1.0586
 3298SOL     OW21352   2.186   4.404   8.424 -0.0735 -0.0618  0.3239
 3298SOL    HW121353   2.183   4.317   8.465 -0.0551 -0.6386 -0.9001
 3298SOL    HW221354   2.111   4.388   8.368 -0.4611 -3.3873  1.7985
 3299SOL     OW21355   1.340   1.768   6.345 -0.2751 -0.5675 -0.9330
 3299SOL    HW121356   1.406   1.779   6.414 -3.3725  0.7619  1.8278
 3299SOL    HW221357   1.307   1.856   6.324  0.7786 -0.0055 -0.2766
 3300SOL     OW21358   0.098   3.316   9.028 -0.5614  0.4471 -0.0648
 3300SOL    HW121359   0.105   3.240   9.085 -1.4480  1.1451  0.9791
 3300SOL    HW221360   0.178   3.319   8.975  0.0333 -2.2945  0.6630
 3301SOL     OW21361   3.775   0.385   4.638  0.2589 -0.2724  0.2684
 3301SOL    HW121362   3.857   0.347   4.668 -0.3476 -0.8863  1.1577
 3301SOL    HW221363   3.808   0.473   4.658 -2.2777 -0.0282  3.4372
 3302SOL     OW21364   4.411   2.622  11.304  0.0760 -0.1470 -0.1867
 3302SOL    HW121365   4.437   2.557  11.369  1.8076  2.5927  1.8791
 3302SOL    HW221366   4.319   2.634  11.327 -0.0097  0.2088 -0.7061
 3303SOL     OW21367   1.087   4.673   5.872 -0.6241  0.3120  0.3378
 3303SOL    HW121368   1.020   4.699   5.808  0.1267  0.4636 -0.3941
 3303SOL    HW221369   1.155   4.705   5.813 -2.8655 -2.1154 -3.6318
 3304SOL     OW21370   1.395   3.088   8.980  0.3187  0.2326  0.3237
 3304SOL    HW121371   1.340   3.152   9.025  0.5157  0.0502  0.8264
 3304SOL    HW221372   1.432   3.142   8.911 -0.8710  0.7091  0.0504
 3305SOL     OW21373   1.040   1.708  15.350 -0.8180  0.1466  0.0794
 3305SOL    HW121374   1.076   1.770  15.286  1.4467 -0.5172  0.7125
 3305SOL    HW221375   1.110   1.644  15.338 -0.2742  0.7076  0.2497
 3306SOL     OW21376   1.045   0.168  17.666 -0.5467 -0.7825 -0.1491
 3306SOL    HW121377   0.973   0.228  17.647 -0.6213 -0.4127  1.2862
 3306SOL    HW221378   1.098   0.230   0.012 -2.1077 -1.0184  1.7976
 3307SOL     OW21379   4.664   3.119   4.709 -0.2418  0.0471 -0.0662
 3307SOL    HW121380   4.592   3.135   4.648 -1.6167  0.1330  1.5820
 3307SOL    HW221381   4.638   3.027   4.713 -1.0914  0.1500 -2.8259
 3308SOL     OW21382   0.503   4.314   3.785 -0.5641  0.0145 -1.0882
 3308SOL    HW121383   0.415   4.332   3.752 -0.3319  1.9013 -0.6535
 3308SOL    HW221384   0.537   4.404   3.782 -0.6810  0.0405 -1.7046
 3309SOL     OW21385   2.807   0.424   2.526  0.4196  0.3410  0.1876
 3309SOL    HW121386   2.818   0.457   2.615  0.5049 -1.0212  0.6687
 3309SOL    HW221387   2.776   0.334   2.538  1.6146 -0.2611 -1.1996
 3310SOL     OW21388   1.389   4.395  15.609 -0.1617 -0.1561  0.0459
 3310SOL    HW121389   1.444   4.385  15.531 -0.3340 -1.8361  0.1482
 3310SOL    HW221390   1.336   4.472  15.590 -1.2900 -1.0407 -0.3756
 3311SOL     OW21391   0.192   3.954  17.003 -0.2114 -0.5989 -0.0921
 3311SOL    HW121392   0.208   3.903  16.923 -0.9789 -0.7017 -0.1837
 3311SOL    HW221393   0.258   3.916  17.062 -3.0400 -0.4836  3.1237
 3312SOL     OW21394   1.262   0.691   6.597  0.2912  0.1530  0.5367
 3312SOL    HW121395   1.316   0.742   6.537 -1.6016  1.2427 -0.2237
 3312SOL    HW221396   1.309   0.697   6.681  0.7775  2.2034  0.0955
 3313SOL     OW21397   4.535   3.941   9.058  0.1644 -0.8392  0.2761
 3313SOL    HW121398   4.469   3.970   9.122 -1.8000 -1.1250 -1.6201
 3313SOL    HW221399   4.594   4.014   9.077 -1.1809  0.2113  0.4867
 3314SOL     OW21400   1.201   1.083   3.041  0.0595 -0.7045 -0.1213
 3314SOL    HW121401   1.121   1.120   3.079 -1.2418 -1.7855 -1.8348
 3314SOL    HW221402   1.197   1.115   2.951  1.7481  1.3916  0.5586
 3315SOL     OW21403   1.358   2.053  12.823 -0.0274 -0.1518  0.1901
 3315SOL    HW121404   1.302   2.049  12.901  0.2166  0.9050  0.4236
 3315SOL    HW221405   1.405   2.134  12.846 -0.7022  0.8712 -2.0265
 3316SOL     OW21406   1.631   1.612   4.097 -0.3159  0.0919 -0.5535
 3316SOL    HW121407   1.667   1.698   4.119  1.5501 -0.6300 -0.8495
 3316SOL    HW221408   1.712   1.562   4.097 -1.3474 -1.5726 -0.3458
 3317SOL     OW21409   2.968   1.175  14.093  0.5356  0.3030  0.1863
 3317SOL    HW121410   2.955   1.093  14.140  0.1276 -0.4263 -1.2220
 3317SOL    HW221411   3.036   1.213  14.150  0.5087  1.3754 -0.4890
 3318SOL     OW21412   3.122   4.092  10.771 -0.3353  0.1756  0.0264
 3318SOL    HW121413   3.147   4.122  10.859 -1.8263  0.8567  0.2074
 3318SOL    HW221414   3.027   4.094  10.780 -0.2124  1.2803  1.0531
 3319SOL     OW21415   2.375   1.815  10.453  0.8402  0.6374 -0.0941
 3319SOL    HW121416   2.465   1.830  10.424 -0.1844  1.0130 -3.0834
 3319SOL    HW221417   2.325   1.877  10.400  1.5775  1.2602 -0.0689
 3320SOL     OW21418   0.745   0.836   8.006  0.2559 -0.3815  0.3779
 3320SOL    HW121419   0.713   0.780   7.935  0.0986  2.0627 -1.4548
 3320SOL    HW221420   0.837   0.809   8.011  0.3774 -0.1222 -0.4746
 3321SOL     OW21421   0.699   0.729   8.756 -0.2239  0.2258 -0.2419
 3321SOL    HW121422   0.682   0.635   8.754  1.2837 -0.0068 -2.1331
 3321SOL    HW221423   0.764   0.748   8.688 -0.4540 -0.8011 -0.7470
 3322SOL     OW21424   1.371   4.215   5.890  0.0434  0.3151 -0.0729
 3322SOL    HW121425   1.375   4.127   5.853 -1.4522  0.7327 -1.2141
 3322SOL    HW221426   1.461   4.245   5.880  0.5857 -1.4907 -0.6773
 3323SOL     OW21427   1.487   0.639   2.966  0.2397  0.3533 -0.3626
 3323SOL    HW121428   1.449   0.722   2.937 -0.9954 -0.1701 -0.2178
 3323SOL    HW221429   1.513   0.670   3.053 -1.6945  1.5447 -0.2067
 3324SOL     OW21430   2.419   1.106   0.754 -0.0635 -0.4323  0.4647
 3324SOL    HW121431   2.451   1.095   0.664  0.9133  1.6257  0.5706
 3324SOL    HW221432   2.500   1.077   0.798 -0.4461 -2.0861  0.0851
 3325SOL     OW21433   0.222   1.816  13.134  0.0447 -0.2175  0.0186
 3325SOL    HW121434   0.230   1.743  13.073  2.5034 -1.7503  2.2045
 3325SOL    HW221435   0.302   1.802  13.184 -0.2998  0.8550  0.8685
 3326SOL     OW21436   2.205   0.396   5.840  0.5416  0.7833  0.4843
 3326SOL    HW121437   2.127   0.402   5.785  0.6406 -2.9393 -0.0130
 3326SOL    HW221438   2.166   0.348   5.913  0.1672  2.9489  1.7332
 3327SOL     OW21439   3.786   3.144   8.405 -0.3472  0.6562  0.1284
 3327SOL    HW121440   3.827   3.098   8.479 -1.7204 -4.5567 -2.3486
 3327SOL    HW221441   3.699   3.104   8.415 -0.8928  2.0028  0.7308
 3328SOL     OW21442   1.678   2.267   0.582 -0.4134  0.0311  0.1978
 3328SOL    HW121443   1.616   2.232   0.646  0.8515 -0.5971  1.0609
 3328SOL    HW221444   1.717   2.184   0.557 -1.3616 -0.5283  0.5645
 3329SOL     OW21445   2.709   1.008   0.404 -1.0167 -0.5123  0.0477
 3329SOL    HW121446   2.707   1.067   0.329  1.2210 -0.5395 -0.0472
 3329SOL    HW221447   2.801   0.981   0.402 -0.7936  0.4108 -1.7848
 3330SOL     OW21448   2.552   2.076  16.135  0.0598 -1.0729  0.3409
 3330SOL    HW121449   2.590   2.128  16.065  2.3205  0.6102  2.8205
 3330SOL    HW221450   2.608   1.999  16.137  1.9347  0.3165  1.1619
 3331SOL     OW21451   0.067   0.025   5.454  0.3159 -0.1569  0.6662
 3331SOL    HW121452   0.032   4.666   5.481 -1.1664  0.5039  0.8864
 3331SOL    HW221453   4.725   0.044   5.389 -0.0243 -1.6388  0.6066
 3332SOL     OW21454   2.845   3.764   6.228 -0.5711  0.4807 -0.2110
 3332SOL    HW121455   2.881   3.687   6.182 -1.7620  0.4517 -1.0916
 3332SOL    HW221456   2.903   3.838   6.212  0.1993 -0.0123  0.2758
 3333SOL     OW21457   0.196   3.940   3.303 -0.6397 -0.7045 -1.1006
 3333SOL    HW121458   0.171   3.848   3.303  1.9339 -1.4186  0.1177
 3333SOL    HW221459   0.255   3.949   3.228  0.1883 -2.3606 -0.6498
 3334SOL     OW21460   3.356   0.723  11.782 -0.1523 -0.2974 -0.0373
 3334SOL    HW121461   3.389   0.667  11.711 -2.5172 -0.9088 -0.6726
 3334SOL    HW221462   3.350   0.812  11.747  1.1026 -0.2298 -0.0583
 3335SOL     OW21463   3.341   4.717  15.337  0.0265 -0.4597  0.2108
 3335SOL    HW121464   3.404   0.059  15.314 -1.7681  1.4203  0.8559
 3335SOL    HW221465   3.395   4.638  15.337 -0.4014 -0.7564  2.0072
 3336SOL     OW21466   3.942   4.214   1.479  0.0338  0.0735  0.4012
 3336SOL    HW121467   3.941   4.251   1.567 -0.1758  1.4673 -0.1771
 3336SOL    HW221468   3.854   4.177   1.472 -0.0169  0.0428  1.2939
 3337SOL     OW21469   4.620   4.136   4.074  0.1076  0.2521  0.3135
 3337SOL    HW121470   4.605   4.226   4.046 -0.9955  0.0805  0.3345
 3337SOL    HW221471   4.610   4.080   3.997 -1.4743 -1.6941  1.9061
 3338SOL     OW21472   1.185   1.085   7.977 -0.1732  0.2315  0.6906
 3338SOL    HW121473   1.175   1.168   7.929 -1.8414  1.1052  2.5429
 3338SOL    HW221474   1.113   1.089   8.041 -0.2019 -0.2489  0.6841
 3339SOL     OW21475   3.222   4.032  14.027  0.3320 -0.4339  0.2855
 3339SOL    HW121476   3.300   4.083  14.002  0.9343 -1.4218  0.1488
 3339SOL    HW221477   3.192   4.007  13.939 -3.0833  3.2905  0.3842
 3340SOL     OW21478   2.813   1.316   6.897 -0.2446 -0.0678  0.0402
 3340SOL    HW121479   2.753   1.250   6.863 -0.6583  0.4127 -0.1582
 3340SOL    HW221480   2.820   1.378   6.825  0.9468  0.6968  0.8042
 3341SOL     OW21481   0.823   1.926   3.719  0.5949 -0.3998 -0.6181
 3341SOL    HW121482   0.828   1.845   3.770 -2.4719 -0.5036 -0.5070
 3341SOL    HW221483   0.812   1.888   3.633 -2.4859 -0.1110 -0.3398
 3342SOL     OW21484   0.564   4.110   5.324  0.0964 -0.3129 -0.4479
 3342SOL    HW121485   0.598   4.074   5.407 -1.1123 -0.3900  0.0193
 3342SOL    HW221486   0.545   4.196   5.362  1.5683 -0.5245  0.8054
 3343SOL     OW21487   3.355   4.716   4.634  0.4581 -0.6932  0.0096
 3343SOL    HW121488   3.363   0.078   4.597  1.5837 -0.9089 -0.2390
 3343SOL    HW221489   3.352   0.008   4.728  3.8394  1.5453 -0.3021
 3344SOL     OW21490   2.319   0.138  16.435  0.5125 -0.2197  0.1688
 3344SOL    HW121491   2.384   0.203  16.461 -0.6028 -0.2247  2.8927
 3344SOL    HW221492   2.375   0.061  16.427  2.7231  1.3079  0.8738
 3345SOL     OW21493   2.259   2.230   2.544  1.3304 -0.4813 -0.2291
 3345SOL    HW121494   2.170   2.217   2.577  1.3025  1.5102  0.4616
 3345SOL    HW221495   2.257   2.244   2.449  0.4203 -1.6041 -0.3751
 3346SOL     OW21496   2.666   2.046   2.300  0.5454  0.1056  0.3770
 3346SOL    HW121497   2.572   2.051   2.287  0.6156  0.5134  0.0491
 3346SOL    HW221498   2.675   2.122   2.357 -0.2289  0.1566  0.4313
 3347SOL     OW21499   2.740   2.883   6.717  0.0739  0.0108  0.0817
 3347SOL    HW121500   2.766   2.866   6.808  2.1649 -1.7481 -0.8444
 3347SOL    HW221501   2.743   2.795   6.680 -1.3051  0.7831 -1.8710
 3348SOL     OW21502   3.779   2.141   5.376 -0.0343 -0.2839  0.0584
 3348SOL    HW121503   3.850   2.077   5.379 -1.2196 -1.7902 -2.8931
 3348SOL    HW221504   3.807   2.202   5.444  0.5685 -0.0882 -0.3691
 3349SOL     OW21505   3.459   0.542   3.839  0.5061  0.2711 -0.2325
 3349SOL    HW121506   3.526   0.520   3.773 -1.8329 -1.5216 -2.0057
 3349SOL    HW221507   3.454   0.465   3.896 -2.2006  1.4966  1.1963
 3350SOL     OW21508   0.438   1.697   2.831 -0.0095 -0.1653 -0.3862
 3350SOL    HW121509   0.423   1.687   2.738  0.1945 -0.0230 -0.4361
 3350SOL    HW221510   0.349   1.696   2.865 -0.3028  0.6238 -1.1582
 3351SOL     OW21511   1.038   2.012   8.584  0.0527 -0.1809  0.3227
 3351SOL    HW121512   1.088   2.011   8.666 -1.6257 -0.7461  1.3492
 3351SOL    HW221513   1.058   1.926   8.546 -1.4752 -0.3324 -0.1687
 3352SOL     OW21514   1.557   3.173   5.465  0.2885  0.5413 -0.0075
 3352SOL    HW121515   1.505   3.216   5.397 -1.7404  1.8575  2.3827
 3352SOL    HW221516   1.631   3.234   5.473 -0.9045  1.6538  2.4171
 3353SOL     OW21517   4.242   3.685   5.850  0.1522 -0.1596  0.8838
 3353SOL    HW121518   4.282   3.764   5.814  1.0532 -0.3000  1.5469
 3353SOL    HW221519   4.218   3.709   5.940  0.0757  1.4699  0.4186
 3354SOL     OW21520   2.385   1.263  11.548  0.1983  0.1051 -0.5088
 3354SOL    HW121521   2.400   1.323  11.476  0.8095  1.4142  0.6967
 3354SOL    HW221522   2.330   1.198  11.505 -0.1614 -0.2287  0.4509
 3355SOL     OW21523   3.448   1.076   2.367 -0.2645 -0.0609 -0.1813
 3355SOL    HW121524   3.489   1.009   2.421 -1.8877 -0.0655  1.0493
 3355SOL    HW221525   3.464   1.030   2.284  0.5109 -0.6517  0.3053
 3356SOL     OW21526   2.142   2.968   4.552 -0.1850 -0.4686 -0.1693
 3356SOL    HW121527   2.203   2.894   4.556 -0.3828 -0.4760  2.8138
 3356SOL    HW221528   2.179   3.011   4.474  2.7864 -1.8073  0.4861
 3357SOL     OW21529   2.456   1.937   1.959  1.2855  0.4239 -0.7019
 3357SOL    HW121530   2.468   1.986   1.878  1.0404 -1.2096 -1.7408
 3357SOL    HW221531   2.421   2.008   2.012 -2.7648 -2.1387  0.1234
 3358SOL     OW21532   2.784   4.510   5.419  0.3392 -0.7813 -0.1583
 3358SOL    HW121533   2.807   4.599   5.390 -0.4564 -0.2727  0.7854
 3358SOL    HW221534   2.710   4.486   5.364  0.2597  2.0599 -1.3189
 3359SOL     OW21535   1.217   3.573   2.504 -0.3360  0.4443  0.1182
 3359SOL    HW121536   1.167   3.506   2.457  0.7881  0.3483 -0.9225
 3359SOL    HW221537   1.179   3.655   2.471 -0.5670  0.3774  0.2123
 3360SOL     OW21538   2.309   0.260   4.379 -0.4922  0.4035  0.2297
 3360SOL    HW121539   2.258   0.231   4.454  0.3128 -2.1515 -0.2252
 3360SOL    HW221540   2.400   0.256   4.410 -0.7577 -0.3382  0.9149
 3361SOL     OW21541   1.157   2.771   2.016 -0.1539 -0.1301 -0.3820
 3361SOL    HW121542   1.227   2.716   2.053  0.2742  0.9073  0.3369
 3361SOL    HW221543   1.102   2.702   1.980  1.8470 -1.0190 -1.7935
 3362SOL     OW21544   3.302   2.816   8.633 -0.3070  0.6204 -0.0138
 3362SOL    HW121545   3.284   2.724   8.649  0.0647  0.2963 -1.4725
 3362SOL    HW221546   3.396   2.809   8.617 -0.3356  1.4824 -0.5452
 3363SOL     OW21547   1.614   2.284  10.301 -1.0253  0.1578  0.3602
 3363SOL    HW121548   1.654   2.231  10.370  0.8818  1.3666  0.1622
 3363SOL    HW221549   1.542   2.323  10.351  0.8508  2.6423  1.1211
 3364SOL     OW21550   1.460   1.715   4.690 -0.5180  0.0694 -0.3604
 3364SOL    HW121551   1.499   1.784   4.637 -0.8400  0.4617 -0.0824
 3364SOL    HW221552   1.476   1.637   4.636 -1.2478 -1.1961  1.2318
 3365SOL     OW21553   2.806   2.136   6.505  0.2780 -0.3878 -0.3971
 3365SOL    HW121554   2.867   2.129   6.432 -2.2867 -2.1736 -2.3735
 3365SOL    HW221555   2.832   2.066   6.564  0.1301  1.3134  1.7013
 3366SOL     OW21556   0.940   3.005   3.077 -0.3581 -0.6506  0.1827
 3366SOL    HW121557   0.888   2.962   3.145 -0.6044  1.3284  1.2442
 3366SOL    HW221558   0.998   2.936   3.044 -0.0633 -0.1898 -0.2530
 3367SOL     OW21559   4.654   2.857   5.612  0.0492 -0.0811  0.4013
 3367SOL    HW121560   4.693   2.881   5.696  1.0070 -0.1157 -0.0313
 3367SOL    HW221561   4.718   2.896   5.552 -2.0679 -0.4358 -2.1199
 3368SOL     OW21562   3.809   0.550  16.906 -0.3392  0.3390 -0.4668
 3368SOL    HW121563   3.734   0.558  16.848  0.1452 -1.8660 -1.3669
 3368SOL    HW221564   3.845   0.467  16.875 -0.5850 -0.5166  1.5601
 3369SOL     OW21565   3.207   3.692   8.980  0.6415 -0.3641 -0.5575
 3369SOL    HW121566   3.280   3.637   9.008 -0.5656 -0.9433  1.4721
 3369SOL    HW221567   3.143   3.670   9.048 -1.1983 -0.7557 -2.4113
 3370SOL     OW21568   3.999   1.232   5.813  0.4368  0.5525 -0.1734
 3370SOL    HW121569   4.020   1.148   5.854 -0.9006  1.0830  1.5889
 3370SOL    HW221570   4.006   1.199   5.723  0.5004 -0.4916  0.2071
 3371SOL     OW21571   1.051   1.957  16.168  0.1488 -0.2750  0.0687
 3371SOL    HW121572   1.114   2.008  16.117  0.0629 -1.2661 -1.0164
 3371SOL    HW221573   1.087   1.957  16.257  1.2728 -0.9700 -0.3987
 3372SOL     OW21574   4.405   0.238   6.125  0.1672 -0.0483  0.1419
 3372SOL    HW121575   4.393   0.309   6.061  1.4426 -0.4129 -0.4978
 3372SOL    HW221576   4.439   0.284   6.202  1.0418 -0.6773  0.1325
 3373SOL     OW21577   2.921   2.652   3.374 -0.0471 -0.5853  0.1038
 3373SOL    HW121578   2.907   2.737   3.331  1.0120 -2.0723 -3.2491
 3373SOL    HW221579   2.967   2.591   3.315 -0.2646 -1.8350  1.2430
 3374SOL     OW21580   2.176   0.482   1.966 -0.3981  0.2335 -0.1153
 3374SOL    HW121581   2.139   0.397   1.993  0.0276  0.3838  0.9410
 3374SOL    HW221582   2.140   0.533   2.038 -0.5365  1.9050 -1.3826
 3375SOL     OW21583   4.493   2.069  13.517 -0.3320  0.0542  0.0584
 3375SOL    HW121584   4.587   2.082  13.524 -0.2833  0.0476 -0.6314
 3375SOL    HW221585   4.501   2.024  13.434  0.0226  0.5065 -0.1514
 3376SOL     OW21586   2.866   3.318   9.920  0.1640 -0.0238  0.7503
 3376SOL    HW121587   2.946   3.300   9.970 -1.1267  1.2459  3.2440
 3376SOL    HW221588   2.907   3.331   9.834  0.9168 -3.6304  0.5314
 3377SOL     OW21589   3.895   2.691   4.139  0.8406 -0.0948 -0.4474
 3377SOL    HW121590   3.855   2.773   4.166  0.2188 -0.1302 -1.2663
 3377SOL    HW221591   3.943   2.672   4.219  0.4187  1.6026  0.1996
 3378SOL     OW21592   0.017   0.650   9.755 -0.7293  0.2274  0.1964
 3378SOL    HW121593   0.088   0.705   9.786 -0.6036 -0.7701  1.6478
 3378SOL    HW221594   0.016   0.589   9.828 -0.2564 -0.3116 -0.2454
 3379SOL     OW21595   0.154   2.061   4.229  0.4539 -0.0796  0.0306
 3379SOL    HW121596   0.226   2.083   4.170  0.0709  1.2446  0.0646
 3379SOL    HW221597   0.090   2.112   4.179 -0.7559  0.4243  2.0905
 3380SOL     OW21598   2.734   4.469  12.797 -0.5994  0.3848  0.5547
 3380SOL    HW121599   2.722   4.476  12.892 -0.1692  0.0279  0.6351
 3380SOL    HW221600   2.643   4.489  12.775 -0.2183  1.2196 -0.2681
 3381SOL     OW21601   3.485   0.808  14.949  0.3437  0.5452  0.3871
 3381SOL    HW121602   3.396   0.842  14.938 -0.1870 -0.8407  0.3574
 3381SOL    HW221603   3.539   0.880  14.982  0.1567  1.0853 -0.4746
 3382SOL     OW21604   2.390   4.102   7.792 -0.1191  0.3229  0.4799
 3382SOL    HW121605   2.353   4.088   7.879 -1.4980 -2.8637 -0.6207
 3382SOL    HW221606   2.478   4.132   7.811  0.1898 -0.3397  0.0872
 3383SOL     OW21607   2.921   3.805   5.909  0.6660  0.0532 -0.4054
 3383SOL    HW121608   3.013   3.827   5.926  1.4081 -1.2525 -2.7789
 3383SOL    HW221609   2.910   3.719   5.949 -0.9161  0.3177 -0.2653
 3384SOL     OW21610   2.733   0.657   7.478  0.8350  0.0667 -0.3767
 3384SOL    HW121611   2.697   0.589   7.421 -2.5602  2.0481 -0.6379
 3384SOL    HW221612   2.730   0.611   7.562  2.8090 -0.1229 -0.4182
 3385SOL     OW21613   1.885   0.762   4.066 -0.1440  0.2319  0.2082
 3385SOL    HW121614   1.920   0.712   4.140  2.9959 -0.8560 -2.0210
 3385SOL    HW221615   1.843   0.691   4.019 -1.2274  1.1865 -0.2421
 3386SOL     OW21616   1.815   1.537   5.322  0.0706  0.7408 -0.5745
 3386SOL    HW121617   1.792   1.475   5.253  0.3898  0.8953 -0.8167
 3386SOL    HW221618   1.853   1.599   5.260 -4.0130  2.6728 -1.1489
 3387SOL     OW21619   4.311   2.987   5.564 -0.2142  0.4681  0.1995
 3387SOL    HW121620   4.283   2.903   5.600 -1.0781  0.5452 -0.2876
 3387SOL    HW221621   4.388   2.990   5.620 -1.6857  0.1767  2.2595
 3388SOL     OW21622   1.171   2.916   2.551 -0.2237 -0.6706 -1.1926
 3388SOL    HW121623   1.130   2.973   2.486 -1.1833 -1.7770 -1.5575
 3388SOL    HW221624   1.262   2.912   2.524 -0.3644 -0.5377 -1.6836
 3389SOL     OW21625   4.125   3.056   1.250 -0.3068  0.3008 -0.1039
 3389SOL    HW121626   4.196   3.001   1.283  0.2832  0.2683 -1.4548
 3389SOL    HW221627   4.175   3.098   1.180 -1.0269 -0.8997 -1.3362
 3390SOL     OW21628   2.841   2.422   6.404  0.5378  0.2226 -0.3554
 3390SOL    HW121629   2.900   2.452   6.334  2.7541 -2.2579  0.4192
 3390SOL    HW221630   2.903   2.397   6.473  2.6105  2.4988 -1.3752
 3391SOL     OW21631   4.278   2.068   3.213 -0.3606 -0.0107 -0.2682
 3391SOL    HW121632   4.263   2.163   3.217 -1.7189 -0.1475 -2.4854
 3391SOL    HW221633   4.211   2.039   3.275  0.2123  1.8076  1.2285
 3392SOL     OW21634   1.356   0.213   3.243  0.2466 -0.1563  0.4498
 3392SOL    HW121635   1.337   0.306   3.241  2.3734  0.2556 -0.4959
 3392SOL    HW221636   1.391   0.211   3.332  2.8900  0.6883 -0.5873
 3393SOL     OW21637   0.448   0.222  12.793  1.0228  0.3103 -0.3053
 3393SOL    HW121638   0.407   0.275  12.862 -1.7154 -0.2082 -1.5255
 3393SOL    HW221639   0.434   0.271  12.713 -0.7365  0.4151  0.0649
 3394SOL     OW21640   4.612   1.224  16.556  0.2397 -0.4117 -0.1188
 3394SOL    HW121641   4.521   1.196  16.545 -0.1469  1.0583 -0.7303
 3394SOL    HW221642   4.649   1.187  16.476  0.3044 -1.6363  0.4756
 3395SOL     OW21643   0.146   2.668  11.411  0.3782  0.4001  0.2823
 3395SOL    HW121644   0.068   2.622  11.439  0.5067  1.6484  2.6893
 3395SOL    HW221645   0.116   2.703  11.327  1.7205 -0.0361 -0.3854
 3396SOL     OW21646   2.859   0.060   2.345 -0.0847  0.7418  0.3657
 3396SOL    HW121647   2.808   0.036   2.268  1.5805 -0.0325 -0.5035
 3396SOL    HW221648   2.812   0.000   2.403 -0.6764 -0.0516 -0.9180
 3397SOL     OW21649   0.157   1.340  14.962 -0.6354  0.7625 -0.0610
 3397SOL    HW121650   0.172   1.247  14.944 -2.1437  0.4087  0.4868
 3397SOL    HW221651   0.152   1.348  15.057 -1.5782  2.0469 -0.2080
 3398SOL     OW21652   4.184   2.378  11.433 -0.3763  0.4350  0.1472
 3398SOL    HW121653   4.192   2.342  11.522  1.5183  1.0620  0.2329
 3398SOL    HW221654   4.265   2.354  11.388 -0.9474  1.3424 -1.3305
 3399SOL     OW21655   3.683   0.613   6.067 -0.8176 -1.1067  0.0449
 3399SOL    HW121656   3.645   0.685   6.117  0.8424 -0.5890  0.5627
 3399SOL    HW221657   3.613   0.607   6.002 -1.8890  0.8302  1.0364
 3400SOL     OW21658   1.031   0.788   7.667 -0.4068  0.1462 -0.7060
 3400SOL    HW121659   0.960   0.852   7.654 -1.0655  0.1957  3.0844
 3400SOL    HW221660   0.975   0.713   7.648 -0.0491 -0.1904 -0.4013
 3401SOL     OW21661   1.441   1.073   2.591 -0.0694 -0.1452 -0.4062
 3401SOL    HW121662   1.483   0.994   2.625  1.7831  0.6108 -0.9033
 3401SOL    HW221663   1.516   1.129   2.567  0.5603  0.0240  1.9484
 3402SOL     OW21664   2.554   2.484   8.066  0.1464 -0.0627  0.1258
 3402SOL    HW121665   2.459   2.477   8.059 -0.0807  0.0524  3.4174
 3402SOL    HW221666   2.564   2.578   8.078  1.2825 -0.3443  1.4091
 3403SOL     OW21667   2.568   3.126   2.902 -0.6240  0.2765  0.3759
 3403SOL    HW121668   2.610   3.210   2.922  0.6099 -0.3244  0.2908
 3403SOL    HW221669   2.566   3.141   2.807  0.2349 -0.7093  0.2029
 3404SOL     OW21670   2.076   0.813   8.114 -0.0423  0.2057 -0.1327
 3404SOL    HW121671   1.995   0.798   8.164 -0.0942  1.9503  0.2906
 3404SOL    HW221672   2.049   0.891   8.066 -0.2027 -0.4543 -1.1246
 3405SOL     OW21673   2.180   2.745   7.843 -0.2891 -0.3709  0.4930
 3405SOL    HW121674   2.148   2.780   7.759 -0.1037  0.7266  0.8797
 3405SOL    HW221675   2.161   2.819   7.901  1.3645 -1.0536  1.8677
 3406SOL     OW21676   1.377   0.373   5.535  0.1651 -0.0265  0.1594
 3406SOL    HW121677   1.373   0.467   5.551 -0.6547  0.0566 -0.5338
 3406SOL    HW221678   1.402   0.348   5.624  0.2924 -2.2170 -0.4704
 3407SOL     OW21679   3.119   2.655   4.055 -0.3591  0.2364 -0.2903
 3407SOL    HW121680   3.068   2.664   4.136  0.3372 -1.5613  0.3409
 3407SOL    HW221681   3.047   2.639   3.994  1.9487  0.6397 -3.0940
 3408SOL     OW21682   2.105   1.470   0.820 -0.4794 -0.7285 -0.5762
 3408SOL    HW121683   2.200   1.483   0.821 -0.4168 -1.4530  3.2860
 3408SOL    HW221684   2.070   1.527   0.889  1.7588 -0.1784  0.0871
 3409SOL     OW21685   2.083   3.992   8.394  0.1091  0.3297 -0.0595
 3409SOL    HW121686   1.992   3.976   8.370  0.2817  1.2814 -1.3547
 3409SOL    HW221687   2.131   3.955   8.320 -1.3341 -3.2364  0.7905
 3410SOL     OW21688   4.217   1.863  13.857 -0.0092 -0.4556  0.0393
 3410SOL    HW121689   4.306   1.868  13.823  0.7918  0.6675  2.2957
 3410SOL    HW221690   4.209   1.957  13.873 -0.9875 -0.3158 -1.1655
 3411SOL     OW21691   3.718   4.384   6.752  0.2722 -0.3896  0.2437
 3411SOL    HW121692   3.770   4.355   6.678 -1.7247 -0.9372 -0.9365
 3411SOL    HW221693   3.691   4.469   6.718  1.7379  0.4761  1.2211
 3412SOL     OW21694   0.432   3.583   4.596  0.2663 -0.4583  0.1408
 3412SOL    HW121695   0.528   3.586   4.591  0.4404 -3.2724  1.9039
 3412SOL    HW221696   0.400   3.603   4.508 -1.4521 -1.1628  0.6020
 3413SOL     OW21697   0.922   3.597  16.413 -0.0108  0.1873 -0.0993
 3413SOL    HW121698   0.935   3.673  16.357  1.4312 -0.0258 -0.0702
 3413SOL    HW221699   0.839   3.615  16.456  1.0937  1.5238  1.5003
 3414SOL     OW21700   4.059   3.250   5.327  0.2949  0.3330 -0.3819
 3414SOL    HW121701   4.094   3.212   5.408  0.9485  0.8198 -0.4343
 3414SOL    HW221702   3.965   3.257   5.345  0.4287 -1.4885  1.0059
 3415SOL     OW21703   4.521   3.030   4.090  0.1718  0.0943 -0.2756
 3415SOL    HW121704   4.583   3.031   4.163 -0.8334 -2.6098  0.6263
 3415SOL    HW221705   4.447   2.983   4.128 -2.2152  1.8850 -2.7597
 3416SOL     OW21706   3.245   3.490   2.374  0.2005 -0.0753  0.1853
 3416SOL    HW121707   3.300   3.458   2.446 -0.2574 -2.2184 -0.4394
 3416SOL    HW221708   3.300   3.552   2.326  0.1975 -0.0005  0.2758
 3417SOL     OW21709   0.595   0.055  12.948  0.0301 -0.1441 -0.2008
 3417SOL    HW121710   0.536   0.111  12.898 -0.6140 -1.0761 -0.4954
 3417SOL    HW221711   0.668   0.116  12.959  0.7285 -0.9679 -0.2725
 3418SOL     OW21712   1.245   2.524   3.042 -0.3899 -0.1359 -0.1319
 3418SOL    HW121713   1.329   2.484   3.019 -1.2852 -2.7035  1.0964
 3418SOL    HW221714   1.242   2.511   3.136  0.7231  1.8510  0.1888
 3419SOL     OW21715   3.322   1.732  15.626  0.5899  0.2023  0.2482
 3419SOL    HW121716   3.397   1.717  15.684 -1.1534  0.5756  2.5817
 3419SOL    HW221717   3.304   1.646  15.589  0.1829  0.6941 -0.6923
 3420SOL     OW21718   0.111   1.839   9.802  0.0794 -0.1252 -0.3330
 3420SOL    HW121719   0.028   1.796   9.782  1.6501 -4.0855  1.7869
 3420SOL    HW221720   0.095   1.874   9.890  0.2849 -1.3777  0.1958
 3421SOL     OW21721   3.533   1.297   5.439  0.2675 -0.1889 -0.4707
 3421SOL    HW121722   3.496   1.208   5.435 -0.6743  0.2837 -2.2049
 3421SOL    HW221723   3.611   1.274   5.387  0.0740  1.2167 -1.3637
 3422SOL     OW21724   0.995   1.358  15.339 -0.2433  0.0892 -1.0417
 3422SOL    HW121725   0.941   1.414  15.283 -0.9169  0.0254 -0.4507
 3422SOL    HW221726   1.066   1.419  15.362 -1.2755  0.8001  0.2528
 3423SOL     OW21727   4.536   3.571  15.622  0.4080 -0.4272 -0.3125
 3423SOL    HW121728   4.488   3.539  15.545 -0.6248 -2.0758  0.9970
 3423SOL    HW221729   4.622   3.577  15.581  0.3460  1.0840 -0.2008
 3424SOL     OW21730   0.858   0.025   5.405  0.1722 -0.2783  0.0292
 3424SOL    HW121731   0.823   0.057   5.322 -0.2890 -0.6686  0.0716
 3424SOL    HW221732   0.925   4.691   5.371 -0.9459 -1.0263 -0.8536
 3425SOL     OW21733   3.945   0.297  17.073 -0.2033 -0.1026  0.3602
 3425SOL    HW121734   3.908   0.348  17.001  0.3179 -0.3777 -0.1115
 3425SOL    HW221735   3.908   0.213  17.046 -0.1842 -0.8340  2.6339
 3426SOL     OW21736   1.263   0.700  10.628  0.4579  0.7030  0.1658
 3426SOL    HW121737   1.252   0.605  10.629 -0.1325  0.7563 -1.0820
 3426SOL    HW221738   1.325   0.718  10.698  2.0771  0.3766 -1.1915
 3427SOL     OW21739   0.184   4.113  13.536 -0.5244  0.6528  0.6217
 3427SOL    HW121740   0.157   4.190  13.486 -3.4176 -0.3339  0.6587
 3427SOL    HW221741   0.098   4.095  13.574 -0.8869 -1.3172 -1.1782
 3428SOL     OW21742   3.918   3.517   4.154  0.9112 -0.1197  0.5803
 3428SOL    HW121743   3.992   3.572   4.128 -0.3608  0.6849 -1.3372
 3428SOL    HW221744   3.974   3.465   4.212 -0.6172  0.8726  2.9334
 3429SOL     OW21745   2.044   2.721   1.717 -0.3354  0.2050 -0.4865
 3429SOL    HW121746   1.992   2.649   1.682 -0.0514  0.1545 -0.8096
 3429SOL    HW221747   1.982   2.794   1.713 -0.0691  0.4258 -0.6087
 3430SOL     OW21748   1.847   2.737   2.605 -0.2488 -0.3166 -0.3676
 3430SOL    HW121749   1.800   2.769   2.682  0.4470  1.1997 -0.5745
 3430SOL    HW221750   1.875   2.820   2.567 -0.3356  0.0974  0.4711
 3431SOL     OW21751   4.338   1.158  12.350 -0.0906  0.3185 -0.1670
 3431SOL    HW121752   4.430   1.157  12.375 -0.0320  1.3731 -0.3375
 3431SOL    HW221753   4.329   1.251  12.330 -0.9010  0.2674 -0.0294
 3432SOL     OW21754   3.345   1.302   2.461  0.1347 -0.3035 -0.5983
 3432SOL    HW121755   3.421   1.321   2.516 -1.4193  1.6555  0.8555
 3432SOL    HW221756   3.379   1.222   2.422 -1.2166 -1.9114  1.5078
 3433SOL     OW21757   3.677   0.043   7.977  0.0653 -0.4275 -0.3947
 3433SOL    HW121758   3.584   0.022   7.982 -0.0525  0.0578 -0.6191
 3433SOL    HW221759   3.684   0.138   7.986 -1.1736 -0.4019  0.2626
 3434SOL     OW21760   0.163   1.348   6.074 -0.7850 -0.2761 -0.3219
 3434SOL    HW121761   0.164   1.441   6.093  1.6166 -0.4340  0.3539
 3434SOL    HW221762   0.158   1.316   6.164  1.2454 -0.7599 -0.3706
 3435SOL     OW21763   4.075   3.172   0.020 -0.1413  0.3084 -0.1343
 3435SOL    HW121764   4.166   3.198   0.032 -0.1318  1.1950 -2.1243
 3435SOL    HW221765   4.029   3.208   0.096 -1.1529  0.9997 -1.0784
 3436SOL     OW21766   0.669   3.209   8.088 -0.2563  0.7695 -0.0560
 3436SOL    HW121767   0.637   3.229   8.175  2.1142  1.4521  0.6491
 3436SOL    HW221768   0.733   3.279   8.077  1.1534 -0.9020 -2.6403
 3437SOL     OW21769   3.131   0.912   1.425  0.6298 -0.2278  0.0696
 3437SOL    HW121770   3.161   0.885   1.512 -1.4073  0.6559  1.0481
 3437SOL    HW221771   3.038   0.892   1.434  0.5589  0.5729  1.1446
 3438SOL     OW21772   0.837   0.717   2.040 -0.0725  0.1313  0.2216
 3438SOL    HW121773   0.768   0.760   2.090 -0.4191  0.3378 -0.4285
 3438SOL    HW221774   0.777   0.684   1.972  0.1025 -0.6741  0.4577
 3439SOL     OW21775   4.702   0.116   3.771 -0.1250  0.8828  0.6659
 3439SOL    HW121776   4.618   0.153   3.794  0.5095  1.3688  2.1750
 3439SOL    HW221777   4.675   0.042   3.716  0.6104 -0.0993  1.6163
 3440SOL     OW21778   3.703   0.602  17.158 -0.3643  0.3339 -0.1128
 3440SOL    HW121779   3.739   0.601  17.070 -3.5771 -1.0448 -1.3954
 3440SOL    HW221780   3.707   0.513  17.192 -3.6903  1.0472  2.1122
 3441SOL     OW21781   0.105   1.671   4.988 -0.2150 -0.3374  0.6712
 3441SOL    HW121782   0.138   1.756   5.017  0.2799  0.0432 -1.0012
 3441SOL    HW221783   0.180   1.615   5.008  2.4270  2.9128  0.0441
 3442SOL     OW21784   4.022   3.889   5.001 -0.2962 -0.1591 -0.9144
 3442SOL    HW121785   3.992   3.961   5.056  2.3366  0.2034  0.0216
 3442SOL    HW221786   3.995   3.810   5.048  1.0711  0.0320  0.1919
 3443SOL     OW21787   1.605   4.154  14.592 -0.1795 -0.3692  0.4327
 3443SOL    HW121788   1.622   4.127  14.682 -0.6308  1.8793  1.1972
 3443SOL    HW221789   1.592   4.246  14.612 -1.3405 -0.0888 -1.6469
 3444SOL     OW21790   1.380   1.335   6.955  0.3528 -0.6683 -0.2254
 3444SOL    HW121791   1.297   1.288   6.947  0.2264 -0.4622 -0.0985
 3444SOL    HW221792   1.399   1.341   7.049 -0.0954 -1.5491 -0.0803
 3445SOL     OW21793   1.479   4.287   8.391  0.3910 -0.4913 -0.1392
 3445SOL    HW121794   1.557   4.342   8.383  0.7312 -1.0837 -0.9712
 3445SOL    HW221795   1.497   4.214   8.331  2.2202  0.9405 -1.3382
 3446SOL     OW21796   3.101   2.306   4.065  0.2462 -0.5587 -0.0273
 3446SOL    HW121797   3.011   2.287   4.040 -0.2896  1.1770  0.5593
 3446SOL    HW221798   3.087   2.331   4.156  0.6654 -0.2385 -0.0503
 3447SOL     OW21799   3.307   1.619   4.502  0.2201 -0.0716 -0.0947
 3447SOL    HW121800   3.256   1.688   4.459 -0.2456  0.6171  1.5837
 3447SOL    HW221801   3.396   1.654   4.499 -0.0180  0.6142  1.1310
 3448SOL     OW21802   4.646   4.281  15.648  0.5885 -0.2096  0.0560
 3448SOL    HW121803   0.004   4.275  15.695  1.3949  2.5330 -1.0499
 3448SOL    HW221804   4.603   4.338  15.712 -1.2606 -0.0406 -1.3559
 3449SOL     OW21805   0.390   4.647   7.600  0.1104 -0.0442 -0.1696
 3449SOL    HW121806   0.444   4.721   7.627  1.1459 -0.9955  0.3674
 3449SOL    HW221807   0.303   4.677   7.624 -0.5501 -1.8024 -0.3862
 3450SOL     OW21808   2.881   2.242   4.534 -0.1715 -0.1979 -0.6653
 3450SOL    HW121809   2.821   2.259   4.606  0.4024  0.8259 -0.4402
 3450SOL    HW221810   2.849   2.167   4.483  0.2960 -0.4487 -0.5859
 3451SOL     OW21811   2.474   1.930  12.078 -0.4971  0.4018 -0.4881
 3451SOL    HW121812   2.406   1.917  12.144  0.1778 -3.1099 -0.5049
 3451SOL    HW221813   2.489   2.022  12.100  0.6829  0.1026 -0.0464
 3452SOL     OW21814   3.991   0.727   6.908 -0.1601 -0.4444 -0.0609
 3452SOL    HW121815   4.060   0.718   6.974  0.0968  3.0552  0.1802
 3452SOL    HW221816   3.921   0.691   6.963 -0.1580 -1.1346 -0.5114
 3453SOL     OW21817   2.736   1.436   7.462 -0.1009  0.7105 -0.1685
 3453SOL    HW121818   2.681   1.359   7.472  0.2953  0.6012  1.1208
 3453SOL    HW221819   2.685   1.498   7.514  1.5755  1.2848  0.8192
 3454SOL     OW21820   4.330   2.585   6.465 -0.3001  0.4163 -0.0751
 3454SOL    HW121821   4.317   2.541   6.548  0.3306  2.5965  1.1719
 3454SOL    HW221822   4.313   2.515   6.402  1.5046  0.3572 -0.4817
 3455SOL     OW21823   0.946   4.294   8.615 -0.6589  0.0268 -0.2108
 3455SOL    HW121824   1.003   4.336   8.551 -0.3284 -0.8539 -0.4914
 3455SOL    HW221825   0.866   4.274   8.565 -1.5845  0.8855  0.9264
 3456SOL     OW21826   3.337   3.921   1.742 -0.3180  0.4672  0.0639
 3456SOL    HW121827   3.361   3.854   1.678 -0.1496 -1.4453  2.1182
 3456SOL    HW221828   3.355   3.863   1.817 -1.5396 -1.5579 -1.2077
 3457SOL     OW21829   3.974   4.719   4.827  0.5306 -0.1807  0.4893
 3457SOL    HW121830   4.058   4.711   4.873  0.5347 -0.1378  0.4895
 3457SOL    HW221831   3.935   4.638   4.858  0.5633 -1.2067 -2.1371
 3458SOL     OW21832   0.255   3.701   6.488 -0.1603 -0.1801 -0.0638
 3458SOL    HW121833   0.302   3.723   6.407 -0.9426 -0.4208 -0.5870
 3458SOL    HW221834   0.321   3.732   6.550  0.6275 -1.0493 -0.4735
 3459SOL     OW21835   2.022   3.999   3.513 -0.0910 -0.3841  0.1495
 3459SOL    HW121836   2.117   4.008   3.516 -0.1817  1.7457 -2.6811
 3459SOL    HW221837   2.007   4.019   3.420 -0.4173 -0.3255  0.2139
 3460SOL     OW21838   2.980   3.740  10.999  0.1524 -0.2084  0.0267
 3460SOL    HW121839   3.011   3.659  11.039 -0.0201  0.0520  0.6955
 3460SOL    HW221840   3.055   3.785  10.961  1.2862 -1.7074  0.5163
 3461SOL     OW21841   3.410   3.795   4.904  0.0808  0.1165  0.0527
 3461SOL    HW121842   3.496   3.825   4.934 -1.0461  1.6500  1.7265
 3461SOL    HW221843   3.417   3.702   4.924 -5.2133 -0.2065  0.3401
 3462SOL     OW21844   1.550   3.503   5.105 -0.4124  0.1932  0.6830
 3462SOL    HW121845   1.556   3.408   5.090 -1.4945  0.2008  0.2378
 3462SOL    HW221846   1.542   3.533   5.014  1.4242  5.1179  2.1888
 3463SOL     OW21847   1.186   4.158   6.684 -0.0136  0.1857 -0.1379
 3463SOL    HW121848   1.099   4.153   6.724  1.2905  3.4111  3.1461
 3463SOL    HW221849   1.183   4.077   6.633 -0.7024  1.7281 -2.5202
 3464SOL     OW21850   2.237   2.980   7.251  0.4076  0.0266 -0.2129
 3464SOL    HW121851   2.189   2.963   7.170 -1.0592  0.9789  0.4598
 3464SOL    HW221852   2.198   2.912   7.305 -0.4781  1.9459  1.5714
 3465SOL     OW21853   0.094   3.647   1.764 -0.1407 -0.0451  0.3083
 3465SOL    HW121854   0.113   3.554   1.754  0.5353  0.2111 -0.7287
 3465SOL    HW221855   0.019   3.651   1.823 -2.0101  1.8684 -2.1866
 3466SOL     OW21856   0.455   3.405   3.805  0.4443  0.2526  0.0192
 3466SOL    HW121857   0.373   3.427   3.850  0.4609 -3.4687  1.8474
 3466SOL    HW221858   0.516   3.391   3.877  1.2941 -0.0658 -0.7643
 3467SOL     OW21859   2.692   1.167   5.997 -0.3401  0.0445 -0.0774
 3467SOL    HW121860   2.727   1.081   5.975  0.6039  0.2426  0.6549
 3467SOL    HW221861   2.744   1.199   6.071  0.7933 -0.1227 -0.8106
 3468SOL     OW21862   0.919   0.063   2.213 -0.4233  0.7880 -0.0528
 3468SOL    HW121863   0.975   0.094   2.143  2.6594  1.7835  2.8648
 3468SOL    HW221864   0.980   0.048   2.285 -0.5695 -0.5676 -0.2119
 3469SOL     OW21865   3.706   4.671   7.310 -0.3054 -0.9699  0.6647
 3469SOL    HW121866   3.734   4.581   7.328  1.3349 -0.4077  0.9800
 3469SOL    HW221867   3.621   4.669   7.353  0.4698  1.2737  2.3466
 3470SOL     OW21868   0.821   2.508   0.549 -0.5759 -0.0226  0.1468
 3470SOL    HW121869   0.746   2.528   0.493 -0.8671  0.0738  0.5698
 3470SOL    HW221870   0.816   2.570   0.622 -2.3796  2.2766 -1.9544
 3471SOL     OW21871   3.956   0.774   9.474  0.3379  0.0356 -0.3516
 3471SOL    HW121872   4.047   0.773   9.505  0.5201  0.2547 -0.8658
 3471SOL    HW221873   3.960   0.741   9.384 -0.0024 -0.2820 -0.2505
 3472SOL     OW21874   0.513   1.934   6.009  0.1717  0.1406  0.0747
 3472SOL    HW121875   0.604   1.911   5.989 -0.6334 -3.5519  0.8045
 3472SOL    HW221876   0.522   2.029   5.996 -1.8752  0.3106 -0.0805
 3473SOL     OW21877   2.579   0.825   2.024  0.1274  0.6011 -0.1484
 3473SOL    HW121878   2.500   0.787   2.063 -0.2218  0.7373 -0.7142
 3473SOL    HW221879   2.635   0.818   2.101  2.2466  2.2620 -1.5500
 3474SOL     OW21880   3.089   1.262   6.656 -0.2648  0.0197 -0.0409
 3474SOL    HW121881   3.181   1.243   6.676 -0.2863  2.3513  2.2355
 3474SOL    HW221882   3.038   1.211   6.719  0.3328 -0.2015  0.2665
 3475SOL     OW21883   4.532   3.210   1.974  0.1222 -0.2130 -0.4632
 3475SOL    HW121884   4.569   3.271   1.910  3.9433 -1.6380  0.4276
 3475SOL    HW221885   4.492   3.278   2.028 -1.2152 -2.5266  1.4813
 3476SOL     OW21886   0.406   3.100   3.948  0.3916  0.8223  0.5108
 3476SOL    HW121887   0.389   3.119   4.040 -0.0997 -0.8494  0.7721
 3476SOL    HW221888   0.485   3.151   3.935  0.3471  1.2867  2.1479
 3477SOL     OW21889   3.895   0.550   8.709 -0.2853 -0.4116  0.3421
 3477SOL    HW121890   3.979   0.530   8.667 -0.1662  2.1896 -0.6851
 3477SOL    HW221891   3.891   0.642   8.681 -0.5497 -0.1737  1.1627
 3478SOL     OW21892   3.387   1.610   9.557  0.8433  0.1802 -0.2679
 3478SOL    HW121893   3.432   1.687   9.593  1.2024 -0.3502  0.4155
 3478SOL    HW221894   3.336   1.584   9.634 -1.5021  0.3871 -1.7343
 3479SOL     OW21895   3.445   1.384   8.787  0.2543 -0.0246  0.6715
 3479SOL    HW121896   3.425   1.407   8.878 -0.5648  1.2542  0.1672
 3479SOL    HW221897   3.389   1.306   8.783  0.7282 -0.4055  1.4444
 3480SOL     OW21898   1.639   4.316   4.535 -0.2214  0.2805 -0.6985
 3480SOL    HW121899   1.677   4.289   4.618 -0.9509  0.8868 -0.1665
 3480SOL    HW221900   1.583   4.387   4.567  0.2725  0.8231 -1.0406
 3481SOL     OW21901   3.837   3.443  13.611 -0.1609 -0.2833  0.2718
 3481SOL    HW121902   3.923   3.414  13.582 -0.2142 -1.0131  0.8433
 3481SOL    HW221903   3.843   3.537  13.593 -0.2277 -0.3350 -0.0137
 3482SOL     OW21904   3.034   2.731   3.618  0.4482  0.0053 -0.3797
 3482SOL    HW121905   3.009   2.654   3.669 -1.6560  3.3090  3.4944
 3482SOL    HW221906   2.990   2.713   3.534 -1.2129  0.6463  0.3484
 3483SOL     OW21907   2.488   3.592  13.861 -0.1118  0.6095 -0.1340
 3483SOL    HW121908   2.399   3.558  13.844  0.5033 -1.1179  0.0682
 3483SOL    HW221909   2.508   3.545  13.942  1.5774  0.2265 -0.7733
 3484SOL     OW21910   4.579   0.642   8.970 -0.1514 -0.3277 -0.2920
 3484SOL    HW121911   4.552   0.555   9.001 -0.1885 -0.3788 -0.4676
 3484SOL    HW221912   4.522   0.698   9.024  0.4868 -0.8323  0.8957
 3485SOL     OW21913   0.130   1.561  11.820  0.2065 -0.7214  0.0349
 3485SOL    HW121914   0.174   1.645  11.806  1.4943 -1.6904 -1.7588
 3485SOL    HW221915   0.060   1.571  11.884 -1.6945  0.2906 -2.1777
 3486SOL     OW21916   1.427   1.642   4.321  0.7260  0.2881 -0.1056
 3486SOL    HW121917   1.494   1.623   4.256  0.7837  1.7781 -0.4732
 3486SOL    HW221918   1.445   1.570   4.382  1.2616 -1.0853 -1.8730
 3487SOL     OW21919   1.390   2.109   6.065 -0.0869  0.3727 -0.1328
 3487SOL    HW121920   1.392   2.071   5.978  1.7791 -0.3367  0.2183
 3487SOL    HW221921   1.477   2.148   6.078 -1.4436  2.4687  2.7586
 3488SOL     OW21922   0.877   3.566  13.039 -0.1979 -0.7066  0.3290
 3488SOL    HW121923   0.850   3.646  12.994  0.5839  0.9489  2.7867
 3488SOL    HW221924   0.790   3.527  13.043  0.4602 -2.1196  0.7456
 3489SOL     OW21925   4.541   2.725  10.623  0.2490  0.1051  0.2688
 3489SOL    HW121926   4.499   2.729  10.708 -1.7054 -4.7291 -0.4803
 3489SOL    HW221927   4.632   2.706  10.646 -0.3871  0.3368  2.9175
 3490SOL     OW21928   3.624   4.500   9.669  0.4533 -0.8319 -0.5428
 3490SOL    HW121929   3.677   4.465   9.741  0.7097 -0.0303 -0.3433
 3490SOL    HW221930   3.568   4.566   9.710 -0.6411  0.1507 -3.5934
 3491SOL     OW21931   4.355   4.636   3.278 -0.2368 -0.4719 -0.1761
 3491SOL    HW121932   4.383   4.604   3.192  3.6961 -0.0275  0.9246
 3491SOL    HW221933   4.358   4.552   3.325  0.6847 -0.5953 -0.4613
 3492SOL     OW21934   1.221   3.829  10.018  0.0395 -0.2327  0.5714
 3492SOL    HW121935   1.263   3.744  10.004  1.7569  0.1622  3.4743
 3492SOL    HW221936   1.298   3.885  10.029 -1.3499  1.6894  0.4587
 3493SOL     OW21937   1.099   2.531   8.896 -0.2065  0.4595 -0.2899
 3493SOL    HW121938   1.065   2.610   8.853 -1.1106  0.0924 -0.2401
 3493SOL    HW221939   1.040   2.458   8.878  0.4704  0.1714 -1.3267
 3494SOL     OW21940   0.100   4.140   3.449 -0.0140 -0.5439 -0.0260
 3494SOL    HW121941   0.124   4.057   3.409  0.0794 -0.7012  0.3599
 3494SOL    HW221942   0.121   4.201   3.378  0.6831  0.2802  0.8997
 3495SOL     OW21943   4.678   3.521  10.916 -0.0530  0.1283  0.5925
 3495SOL    HW121944   4.665   3.518  11.011  1.4539  0.5187  0.8245
 3495SOL    HW221945   4.623   3.597  10.899  2.1887  2.1146  2.0735
 3496SOL     OW21946   3.835   1.521   2.389  0.4453 -0.3022 -0.0985
 3496SOL    HW121947   3.796   1.440   2.421 -0.2370 -0.2203 -0.7216
 3496SOL    HW221948   3.764   1.552   2.333  0.7009  1.8349  0.7792
 3497SOL     OW21949   0.886   1.570   0.478 -0.0693 -0.1838 -0.3434
 3497SOL    HW121950   0.894   1.666   0.475  2.3931 -0.3991 -0.5606
 3497SOL    HW221951   0.828   1.555   0.404 -1.3063  0.8065  0.4057
 3498SOL     OW21952   4.334   1.140  11.881  0.8372  0.0225 -0.1047
 3498SOL    HW121953   4.264   1.159  11.942  1.4934 -0.7290  0.8960
 3498SOL    HW221954   4.300   1.119  11.794  0.3571 -1.5095  0.4419
 3499SOL     OW21955   4.547   4.666   7.523  0.2832 -0.1846  0.6204
 3499SOL    HW121956   4.455   4.655   7.545 -0.5924  1.1957 -2.3407
 3499SOL    HW221957   4.542   0.033   7.502 -2.2541 -0.4729 -0.0944
 3500SOL     OW21958   2.505   3.245   3.548 -0.0015 -0.3279 -0.2845
 3500SOL    HW121959   2.555   3.214   3.473 -2.2054 -2.0883 -1.0493
 3500SOL    HW221960   2.443   3.172   3.545 -0.5957  0.1738 -0.2260
 3501SOL     OW21961   4.267   2.619   4.280 -0.3905 -0.4921  0.1804
 3501SOL    HW121962   4.265   2.627   4.185  2.4422  1.7528  0.3139
 3501SOL    HW221963   4.355   2.653   4.298 -0.7762  0.0301  1.0642
 3502SOL     OW21964   0.692   4.193   6.119 -0.3228 -0.3483 -0.0096
 3502SOL    HW121965   0.766   4.229   6.071  0.2044  1.2271  1.9778
 3502SOL    HW221966   0.627   4.166   6.054 -1.5371 -0.5053  1.2643
 3503SOL     OW21967   1.923   3.182   1.358 -0.0412  0.7730 -0.2418
 3503SOL    HW121968   1.832   3.204   1.377  0.6590  2.2923  1.3037
 3503SOL    HW221969   1.964   3.213   1.438 -3.2220  0.3786  1.5545
 3504SOL     OW21970   2.970   3.746   4.654  0.4069 -0.1070  0.1843
 3504SOL    HW121971   3.013   3.692   4.588 -1.3056  0.4345 -1.3963
 3504SOL    HW221972   3.028   3.822   4.652  0.6802 -0.3029  0.7091
 3505SOL     OW21973   3.456   0.874   3.073  0.3818  0.1460 -0.1920
 3505SOL    HW121974   3.391   0.936   3.106  0.3699  0.2457 -0.4018
 3505SOL    HW221975   3.503   0.924   3.006 -0.1559  2.7235  1.3607
 3506SOL     OW21976   3.838   3.104   6.702  0.0834  0.2410 -0.6567
 3506SOL    HW121977   3.911   3.166   6.689 -0.9417  1.7650  0.9007
 3506SOL    HW221978   3.807   3.132   6.788  2.1075  0.7039 -0.0777
 3507SOL     OW21979   1.553   0.864   2.666  0.6395  0.0862 -0.3193
 3507SOL    HW121980   1.483   0.802   2.687  0.9769 -0.0369  0.4330
 3507SOL    HW221981   1.623   0.845   2.729 -0.7419  1.0721  1.5148
 3508SOL     OW21982   0.627   1.518   8.027  0.0250  0.0333 -0.3005
 3508SOL    HW121983   0.710   1.537   7.984  0.0099 -0.4040 -0.5343
 3508SOL    HW221984   0.639   1.434   8.073 -0.6704 -0.6891 -1.4309
 3509SOL     OW21985   4.207   4.071   9.095  0.1566 -1.1225 -0.3414
 3509SOL    HW121986   4.225   4.152   9.049 -4.1176  0.0793  0.0640
 3509SOL    HW221987   4.233   4.083   9.186 -0.1879 -2.0943 -0.1066
 3510SOL     OW21988   3.672   3.265  16.326 -0.4380  0.1744 -0.4289
 3510SOL    HW121989   3.714   3.185  16.295  1.4640  0.6336  0.9758
 3510SOL    HW221990   3.581   3.236  16.334 -0.5513  1.4822  2.6935
 3511SOL     OW21991   1.189   4.224  15.217  0.7403 -0.0696  0.1048
 3511SOL    HW121992   1.175   4.317  15.202 -1.5882 -0.4908 -0.2290
 3511SOL    HW221993   1.113   4.207  15.273  0.1856 -0.9549 -0.9093
 3512SOL     OW21994   1.301   3.047   8.374  0.0454  0.2211  0.0326
 3512SOL    HW121995   1.307   3.140   8.393 -3.6382  0.5059 -0.2393
 3512SOL    HW221996   1.361   3.005   8.436 -0.1462 -0.4790 -0.2549
 3513SOL     OW21997   4.327   1.708   7.308 -0.3770  0.0755  0.2205
 3513SOL    HW121998   4.379   1.760   7.246 -0.5722 -1.7707 -1.5129
 3513SOL    HW221999   4.256   1.771   7.322 -3.0933 -3.0195  0.3821
 3514SOL     OW22000   2.161   1.785   9.953 -0.1006  0.2144 -0.4539
 3514SOL    HW122001   2.144   1.878   9.965  1.9276  0.4720  0.4774
 3514SOL    HW222002   2.215   1.772  10.031  0.2417  2.2106 -0.3588
 3515SOL     OW22003   1.232   4.661   7.906 -0.2412  0.0681 -0.3105
 3515SOL    HW122004   1.279   4.583   7.936 -0.4273 -0.1898 -0.6902
 3515SOL    HW222005   1.142   4.634   7.922 -0.0625  0.7006  1.7833
 3516SOL     OW22006   0.645   2.966   8.588 -0.2777  0.2891 -0.2125
 3516SOL    HW122007   0.681   2.971   8.676  0.0103  4.3593 -0.5868
 3516SOL    HW222008   0.653   3.060   8.574 -1.9419  0.0503 -2.6903
 3517SOL     OW22009   3.902   3.535   8.567  0.4306  0.6503 -0.2296
 3517SOL    HW122010   3.953   3.598   8.618  0.6330  2.3343 -2.5124
 3517SOL    HW222011   3.955   3.457   8.586  3.1646  2.0306 -2.1302
 3518SOL     OW22012   2.687   4.488   4.170  0.7764  0.2757 -0.0542
 3518SOL    HW122013   2.708   4.580   4.152 -1.2701  1.2644  2.7020
 3518SOL    HW222014   2.734   4.475   4.253 -1.1489 -0.6989  0.8594
 3519SOL     OW22015   1.497   1.768   1.832  0.3354  0.1623  0.3225
 3519SOL    HW122016   1.434   1.696   1.843 -1.9598  2.0196 -0.6931
 3519SOL    HW222017   1.470   1.821   1.907 -0.3043 -2.7707  2.1872
 3520SOL     OW22018   3.207   0.578   3.995  0.2070  0.2093 -0.0713
 3520SOL    HW122019   3.200   0.641   3.923 -2.6533  1.7298  1.5043
 3520SOL    HW222020   3.140   0.622   4.049 -0.9915 -0.5764 -0.9235
 3521SOL     OW22021   4.507   2.449  12.712  0.2448  0.1955 -0.1832
 3521SOL    HW122022   4.572   2.378  12.709  0.0549 -0.0370  1.1408
 3521SOL    HW222023   4.564   2.509  12.760 -1.1925  1.2829  0.1512
 3522SOL     OW22024   4.197   0.159  16.976 -0.5277 -0.2830  0.1391
 3522SOL    HW122025   4.157   0.246  16.969 -0.8191 -0.4896 -0.7174
 3522SOL    HW222026   4.282   0.182  16.939 -1.0450  1.5233  0.0797
 3523SOL     OW22027   3.248   1.507   2.626 -0.2717 -0.2260  0.6631
 3523SOL    HW122028   3.258   1.453   2.548  3.0687 -0.2747  1.1018
 3523SOL    HW222029   3.261   1.594   2.588  0.9262  0.5429  2.8306
 3524SOL     OW22030   1.265   3.258   0.248 -0.4479 -1.3106 -0.4805
 3524SOL    HW122031   1.185   3.283   0.294  0.8174  2.1270 -0.1235
 3524SOL    HW222032   1.338   3.245   0.308 -0.7641 -1.2933 -0.0912
 3525SOL     OW22033   1.856   2.801   5.094 -0.2195  0.0200 -0.3635
 3525SOL    HW122034   1.881   2.877   5.040  1.1768 -0.5456 -0.5225
 3525SOL    HW222035   1.930   2.786   5.154 -0.8842 -1.7625  0.0026
 3526SOL     OW22036   1.516   4.069   4.013  0.0066 -0.4981 -0.4681
 3526SOL    HW122037   1.577   4.143   4.018  3.0923 -2.9959 -1.2108
 3526SOL    HW222038   1.434   4.116   4.029  1.4692  2.0782 -0.4203
 3527SOL     OW22039   1.227   0.673  15.206 -0.1396 -0.2919 -0.1719
 3527SOL    HW122040   1.206   0.758  15.246 -0.9880 -0.4136 -0.3726
 3527SOL    HW222041   1.166   0.615  15.250 -0.2596 -1.4981 -1.9326
 3528SOL     OW22042   4.242   0.720   8.662  0.1327  0.0982  0.8140
 3528SOL    HW122043   4.315   0.777   8.639  1.5815 -1.6142  1.1506
 3528SOL    HW222044   4.243   0.654   8.592  0.2406 -0.0424  0.9474
 3529SOL     OW22045   1.760   0.626   2.587 -0.2292 -0.9190 -0.3265
 3529SOL    HW122046   1.780   0.656   2.675  0.8353 -1.2587 -0.4485
 3529SOL    HW222047   1.701   0.552   2.603  1.7010 -2.3612  0.1447
 3530SOL     OW22048   4.407   4.044   7.357  0.3219  0.1066  0.5342
 3530SOL    HW122049   4.439   4.058   7.268  0.3527 -0.1685  0.5046
 3530SOL    HW222050   4.481   4.068   7.413 -0.1013  0.8201  0.7845
 3531SOL     OW22051   4.287   2.122  13.926 -0.5771 -0.4658 -0.0632
 3531SOL    HW122052   4.324   2.127  14.014 -0.1796 -0.3472 -0.2372
 3531SOL    HW222053   4.335   2.187  13.874  2.0602 -2.1640  0.2064
 3532SOL     OW22054   1.871   4.644   1.522 -0.0260  0.2611  0.4964
 3532SOL    HW122055   1.815   4.591   1.466  0.2563  0.2053  0.2670
 3532SOL    HW222056   1.819   4.724   1.534 -3.6502 -2.2715  1.3565
 3533SOL     OW22057   1.756   0.436   5.769 -0.2309  0.1327 -0.4872
 3533SOL    HW122058   1.723   0.348   5.751 -0.5143 -0.1816  1.5247
 3533SOL    HW222059   1.729   0.449   5.860 -0.3708 -3.2397 -0.0471
 3534SOL     OW22060   2.708   1.090  15.494 -0.2233  0.3774  0.0517
 3534SOL    HW122061   2.762   1.012  15.485 -1.0190 -0.0920 -0.6093
 3534SOL    HW222062   2.712   1.102  15.589  0.1191  1.3705 -0.0888
 3535SOL     OW22063   1.368   0.184   6.034  0.1543  0.1933 -0.1143
 3535SOL    HW122064   1.354   0.167   6.127 -1.8403  0.3240 -0.3847
 3535SOL    HW222065   1.359   0.093   6.004 -1.2431 -0.1864  1.4368
 3536SOL     OW22066   4.356   4.587   1.097 -0.7994 -0.3054 -0.1815
 3536SOL    HW122067   4.290   4.617   1.034 -1.8884 -0.1951  0.9993
 3536SOL    HW222068   4.410   4.664   1.113  1.3612 -1.6966 -0.7616
 3537SOL     OW22069   0.453   0.662  11.357 -0.6788 -0.5872  0.2309
 3537SOL    HW122070   0.441   0.646  11.263 -0.3159  0.1071  0.0618
 3537SOL    HW222071   0.542   0.635  11.377 -1.1607 -2.9956 -0.9375
 3538SOL     OW22072   1.532   0.329  17.390 -0.5002 -0.2657 -0.3442
 3538SOL    HW122073   1.518   0.235  17.398  2.4656 -0.7728 -1.1924
 3538SOL    HW222074   1.462   0.358  17.332  0.2865  1.7956 -0.2781
 3539SOL     OW22075   0.795   1.538   1.540  0.1479 -0.2204  0.5886
 3539SOL    HW122076   0.772   1.612   1.483 -2.8861  1.0429  3.4605
 3539SOL    HW222077   0.787   1.571   1.630 -0.8303  0.2321  0.3443
 3540SOL     OW22078   3.907   2.865   1.635  0.8924  0.3447  0.1639
 3540SOL    HW122079   3.885   2.899   1.549  0.3855 -0.8679 -0.1804
 3540SOL    HW222080   3.903   2.943   1.689 -1.4034  1.4498 -1.6384
 3541SOL     OW22081   0.317   0.297  17.156 -0.1641 -0.0443  0.1396
 3541SOL    HW122082   0.251   0.236  17.190 -0.1454 -0.7563 -1.0768
 3541SOL    HW222083   0.390   0.260  17.205 -1.5415 -0.8175  1.6128
 3542SOL     OW22084   0.650   4.299   2.127 -0.4988  0.1064 -0.5702
 3542SOL    HW122085   0.716   4.330   2.190 -1.0590  1.7642 -0.8034
 3542SOL    HW222086   0.592   4.242   2.178  1.8574 -1.2535  0.6465
 3543SOL     OW22087   2.891   4.221   3.436  0.0465 -0.3239 -0.4719
 3543SOL    HW122088   2.958   4.253   3.496 -0.0928  1.5167 -1.3137
 3543SOL    HW222089   2.817   4.259   3.482  1.4629  0.8894  0.7932
 3544SOL     OW22090   4.387   0.902  15.530 -0.6736 -0.4864 -0.3898
 3544SOL    HW122091   4.347   0.966  15.471  0.1245  0.7241  0.3900
 3544SOL    HW222092   4.357   0.822  15.487  0.5569 -0.7207 -0.8027
 3545SOL     OW22093   3.609   4.311  14.735 -0.2470  0.4208 -0.1772
 3545SOL    HW122094   3.580   4.223  14.759 -1.2790  0.9245  0.4066
 3545SOL    HW222095   3.576   4.362  14.808 -0.9316  0.2325 -0.3531
 3546SOL     OW22096   4.453   2.947   1.882  0.2716  0.0048 -0.0358
 3546SOL    HW122097   4.394   2.975   1.813  0.8695 -1.7694 -1.2692
 3546SOL    HW222098   4.501   3.030   1.891  0.6636 -0.1264 -1.0038
 3547SOL     OW22099   2.452   0.256   5.797 -0.4312 -0.4392  0.3570
 3547SOL    HW122100   2.429   0.205   5.875 -0.5281  0.5030  0.9394
 3547SOL    HW222101   2.422   0.343   5.822  3.1500  0.2034  2.3557
 3548SOL     OW22102   3.038   2.978   5.196  0.7153 -0.0977  0.1321
 3548SOL    HW122103   2.981   3.001   5.270  2.7114  2.1651  0.9538
 3548SOL    HW222104   2.965   2.963   5.136  1.7619 -2.2944 -0.5771
 3549SOL     OW22105   3.200   3.494   2.049  0.2609 -0.5338  0.6634
 3549SOL    HW122106   3.108   3.521   2.059  0.3523  0.1214 -0.3189
 3549SOL    HW222107   3.205   3.465   1.958  3.4685 -0.9110  0.9847
 3550SOL     OW22108   0.313   4.617  11.020  0.3542 -0.2543 -0.3358
 3550SOL    HW122109   0.297   4.677  11.094  0.0702  1.8051 -2.0745
 3550SOL    HW222110   0.229   4.628  10.977 -0.2284  0.3450  0.9631
 3551SOL     OW22111   1.901   2.281   4.769  0.4671 -0.1878  0.0281
 3551SOL    HW122112   1.807   2.286   4.747 -0.1102 -0.0204  2.5864
 3551SOL    HW222113   1.909   2.200   4.820  0.3686 -0.1579  0.0907
 3552SOL     OW22114   2.653   3.411   7.447  0.5081 -0.8278 -0.5479
 3552SOL    HW122115   2.598   3.355   7.392 -0.6813 -0.0364 -0.1336
 3552SOL    HW222116   2.652   3.488   7.391  2.3143 -0.5894 -0.2713
 3553SOL     OW22117   3.514   0.878   4.531  0.2129 -0.4852  0.1283
 3553SOL    HW122118   3.434   0.858   4.483 -0.0083  0.1918  0.2130
 3553SOL    HW222119   3.551   0.931   4.460 -0.6587  0.4824  0.3921
 3554SOL     OW22120   0.349   3.811  17.215 -0.3528 -0.6138 -0.3499
 3554SOL    HW122121   0.343   3.876  17.285 -2.8956 -1.0621 -0.1691
 3554SOL    HW222122   0.317   3.728  17.251  1.0988 -1.5870 -1.2865
 3555SOL     OW22123   0.681   1.317   0.945 -0.0681 -0.0171 -0.1142
 3555SOL    HW122124   0.740   1.243   0.959  1.5628  0.8729 -2.2520
 3555SOL    HW222125   0.695   1.339   0.852 -1.1449  1.4419  0.0764
 3556SOL     OW22126   2.875   1.928   6.031 -0.2338  0.1305  0.3442
 3556SOL    HW122127   2.960   1.918   6.074  0.7450 -1.3947 -1.9786
 3556SOL    HW222128   2.886   1.905   5.939 -0.3769  0.1217  0.3281
 3557SOL     OW22129   3.930   3.496   2.286  0.0139 -0.1525  0.7267
 3557SOL    HW122130   3.996   3.564   2.299 -0.1843  0.2267 -0.2540
 3557SOL    HW222131   3.851   3.549   2.286 -0.2824 -0.6144 -1.3825
 3558SOL     OW22132   2.519   3.233   6.034 -0.1176 -0.0423  0.1090
 3558SOL    HW122133   2.566   3.202   5.957  1.7832  1.6975  0.5818
 3558SOL    HW222134   2.451   3.168   6.051 -1.6426  1.6046  0.2626
 3559SOL     OW22135   4.231   0.998   0.615 -0.2605  0.0519 -0.2304
 3559SOL    HW122136   4.322   0.974   0.632 -0.2008  0.6285  0.2799
 3559SOL    HW222137   4.195   0.960   0.695  2.2009 -2.0184 -0.0897
 3560SOL     OW22138   2.391   1.085   3.946 -0.2009 -0.2690  0.5996
 3560SOL    HW122139   2.334   1.007   3.943  0.7552 -1.0300  2.3817
 3560SOL    HW222140   2.466   1.048   3.900  0.0931  1.2640 -0.1409
 3561SOL     OW22141   2.734   3.370   6.856 -0.1131 -0.1747 -0.0008
 3561SOL    HW122142   2.676   3.296   6.837  0.5632 -0.3911 -1.2646
 3561SOL    HW222143   2.791   3.328   6.920 -0.6804  2.5976  2.3439
 3562SOL     OW22144   4.442   3.806   6.350  0.0344  0.0867 -0.2869
 3562SOL    HW122145   4.483   3.892   6.360 -2.8251  1.5417 -1.1882
 3562SOL    HW222146   4.454   3.780   6.442  4.3069 -1.2200 -1.2263
 3563SOL     OW22147   2.015   1.850   8.565 -0.1045  0.0824 -0.2140
 3563SOL    HW122148   1.954   1.813   8.502  1.1362 -1.9806 -0.2136
 3563SOL    HW222149   1.966   1.841   8.646  1.7617 -0.7592  0.8273
 3564SOL     OW22150   0.665   2.619   6.865  0.3108 -0.0714  0.6172
 3564SOL    HW122151   0.646   2.674   6.789 -1.8341  0.1365  1.2825
 3564SOL    HW222152   0.647   2.530   6.834 -0.4349  0.4397 -0.4336
 3565SOL     OW22153   3.426   1.425   4.192 -0.6109  0.2022  0.5334
 3565SOL    HW122154   3.355   1.489   4.193 -1.2742 -0.5661  1.6927
 3565SOL    HW222155   3.467   1.437   4.106 -1.0619 -0.4920  0.2178
 3566SOL     OW22156   0.207   1.894   6.987  0.2371 -0.2735  0.7630
 3566SOL    HW122157   0.186   1.802   6.968 -1.3142 -0.0406  1.3205
 3566SOL    HW222158   0.153   1.905   7.066  0.2994  0.9898  0.6249
 3567SOL     OW22159   0.739   1.046  17.210  0.7528  0.2081  0.3129
 3567SOL    HW122160   0.819   1.096  17.191  1.0246  0.1707  1.3125
 3567SOL    HW222161   0.682   1.108  17.164 -1.1302  0.0083  2.3630
 3568SOL     OW22162   0.489   2.475  12.770  0.4313  0.1622 -0.0157
 3568SOL    HW122163   0.462   2.476  12.678  1.3059  1.4442 -0.2462
 3568SOL    HW222164   0.576   2.510  12.753 -0.0302  1.7321  0.9055
 3569SOL     OW22165   3.882   2.170   3.128  0.1191 -0.6087  0.0432
 3569SOL    HW122166   3.914   2.227   3.058  1.3830  0.2718  1.3319
 3569SOL    HW222167   3.945   2.173   3.199  1.5455  0.2680 -1.2567
 3570SOL     OW22168   3.086   3.644   4.424 -0.6825  0.1966 -0.2892
 3570SOL    HW122169   3.068   3.721   4.370 -0.9466 -0.2218 -0.7960
 3570SOL    HW222170   3.176   3.626   4.398  0.1204  1.1230  1.8982
 3571SOL     OW22171   0.619   2.648  17.077 -0.0995 -0.3409  0.4882
 3571SOL    HW122172   0.638   2.741  17.062  3.9895 -1.0823  1.1814
 3571SOL    HW222173   0.656   2.620  16.993 -0.4426 -1.0889  0.5872
 3572SOL     OW22174   4.561   2.841   6.048 -0.4214 -0.2727 -0.1318
 3572SOL    HW122175   4.586   2.803   5.964  1.0744  2.1301 -0.7629
 3572SOL    HW222176   4.510   2.778   6.099  0.1004 -0.6135 -0.0416
 3573SOL     OW22177   2.552   4.268   7.206 -0.0074  0.3580  0.8060
 3573SOL    HW122178   2.580   4.326   7.276 -0.9506  0.2883  1.2512
 3573SOL    HW222179   2.628   4.219   7.173 -0.1859  0.7372 -0.1710
 3574SOL     OW22180   3.603   2.546   8.352 -0.1194  0.3920 -0.5466
 3574SOL    HW122181   3.684   2.494   8.361 -1.4076 -1.3962  0.7583
 3574SOL    HW222182   3.638   2.622   8.305  1.4674 -1.3060 -2.1267
 3575SOL     OW22183   0.212   2.884   1.860  0.1983  0.1270 -0.0956
 3575SOL    HW122184   0.151   2.813   1.880  1.5621 -0.8915  0.5157
 3575SOL    HW222185   0.277   2.856   1.796 -1.1242 -1.6202 -0.6698
 3576SOL     OW22186   1.182   3.736   1.435  0.5016  0.8120  0.0219
 3576SOL    HW122187   1.220   3.669   1.380 -0.8127  0.5336 -0.5620
 3576SOL    HW222188   1.205   3.816   1.387 -0.0644  1.3677  0.6743
 3577SOL     OW22189   1.380   1.400   8.045  0.2670  0.1868  0.1990
 3577SOL    HW122190   1.379   1.480   7.991  2.0450 -0.0921 -0.2489
 3577SOL    HW222191   1.289   1.404   8.074 -0.3840 -0.5551 -1.7298
 3578SOL     OW22192   3.563   2.704   7.990  0.6889  0.3080 -0.5062
 3578SOL    HW122193   3.543   2.685   7.898  1.9304  1.5855 -1.0443
 3578SOL    HW222194   3.584   2.615   8.018 -1.6609 -0.3374 -0.8435
 3579SOL     OW22195   0.697   4.225   8.514  0.4107 -0.6499  0.0791
 3579SOL    HW122196   0.605   4.213   8.492 -0.3829  2.2300  1.7838
 3579SOL    HW222197   0.702   4.190   8.603  0.1963  1.5079  0.9495
 3580SOL     OW22198   0.236   1.047  15.923 -0.5683  0.1181 -0.1708
 3580SOL    HW122199   0.266   1.025  15.835  1.6106 -0.6960  0.7810
 3580SOL    HW222200   0.284   1.124  15.954 -0.3902 -0.3678  0.7803
 3581SOL     OW22201   0.334   4.096   2.174  0.3050  0.0839  0.3139
 3581SOL    HW122202   0.287   4.179   2.164  0.6204  0.2243 -0.0028
 3581SOL    HW222203   0.337   4.074   2.081  0.0273  0.2314  0.2680
 3582SOL     OW22204   4.620   1.145   4.878 -0.1561  0.1524 -0.2232
 3582SOL    HW122205   4.566   1.099   4.942 -0.0610  0.8016  0.3284
 3582SOL    HW222206   4.560   1.143   4.803  1.0929  1.7864 -1.2812
 3583SOL     OW22207   4.317   2.698   5.391  0.1344  0.7468  0.1973
 3583SOL    HW122208   4.413   2.699   5.391  0.1416 -1.4527 -1.2612
 3583SOL    HW222209   4.293   2.619   5.343  0.3955 -0.0334  1.3681
 3584SOL     OW22210   0.486   1.586   4.801  0.3220 -0.4719  0.4647
 3584SOL    HW122211   0.516   1.544   4.881  2.0991 -2.2526 -1.1225
 3584SOL    HW222212   0.439   1.510   4.766 -2.6318  0.6379  2.0243
 3585SOL     OW22213   0.324   0.008  14.503  0.2596 -0.1519  0.1509
 3585SOL    HW122214   0.341   0.083  14.560  0.5029 -1.7285  2.1287
 3585SOL    HW222215   0.240   0.046  14.478  0.0298 -1.4873 -1.1220
 3586SOL     OW22216   3.916   4.620  14.359  0.1866 -0.3839  0.7520
 3586SOL    HW122217   3.973   4.664  14.296  0.2059 -0.6935  0.5545
 3586SOL    HW222218   3.868   4.692  14.399 -0.3892 -0.0702 -0.5090
 3587SOL     OW22219   1.772   0.874   6.677 -0.6700  0.3159  0.1347
 3587SOL    HW122220   1.693   0.911   6.637 -0.8706 -0.2913 -0.0334
 3587SOL    HW222221   1.828   0.951   6.666  2.0608 -1.7122  0.0082
 3588SOL     OW22222   3.093   1.034  13.171  0.2033  0.1074 -0.5201
 3588SOL    HW122223   3.117   1.126  13.162  0.4077  0.0074 -1.0111
 3588SOL    HW222224   3.125   1.002  13.086  0.3661  1.2059 -0.8688
 3589SOL     OW22225   3.304   1.755   0.704 -0.5296  0.0216 -0.3032
 3589SOL    HW122226   3.344   1.842   0.698 -0.7157  0.2115  1.2109
 3589SOL    HW222227   3.379   1.697   0.695 -1.7131 -1.4354 -0.8158
 3590SOL     OW22228   0.179   4.082   8.340 -0.2455 -0.0999 -0.1155
 3590SOL    HW122229   0.194   3.991   8.314  3.2111  0.4169  0.1104
 3590SOL    HW222230   0.169   4.086   8.435 -0.1152 -0.1536 -0.0992
 3591SOL     OW22231   1.055   4.212   5.262 -0.0928 -0.3425 -0.3011
 3591SOL    HW122232   1.134   4.226   5.210 -0.5463  1.4499 -0.4883
 3591SOL    HW222233   0.996   4.286   5.248 -1.0560 -1.0524  0.0317
 3592SOL     OW22234   3.087   2.616   8.137 -0.5045 -0.1723 -0.3467
 3592SOL    HW122235   3.174   2.606   8.099 -0.2290 -1.9526  0.7408
 3592SOL    HW222236   3.074   2.538   8.193  0.2097  0.0604  0.1366
 3593SOL     OW22237   3.500   4.595  10.558  0.6542  0.1234 -0.3985
 3593SOL    HW122238   3.498   4.615  10.651 -2.7463 -0.1269 -0.4219
 3593SOL    HW222239   3.511   4.500  10.565 -1.3441 -0.2665 -2.7146
 3594SOL     OW22240   3.553   3.641   3.322 -0.3673  0.7593  0.0663
 3594SOL    HW122241   3.484   3.699   3.357 -1.1859  0.4889 -1.0910
 3594SOL    HW222242   3.625   3.703   3.310  1.0012 -0.8077  0.2875
 3595SOL     OW22243   2.649   0.422   8.087  0.0737 -0.2640  0.2970
 3595SOL    HW122244   2.728   0.373   8.067  1.1028  0.8434  1.6271
 3595SOL    HW222245   2.687   0.510   8.094  0.4058 -0.4604  0.9656
 3596SOL     OW22246   4.300   0.440   3.532  0.1117 -0.0749 -0.0240
 3596SOL    HW122247   4.276   0.367   3.475 -0.1252 -0.4449  0.5548
 3596SOL    HW222248   4.286   0.399   3.617  1.1118 -1.1441 -0.3748
 3597SOL     OW22249   4.527   3.012   2.448 -0.0743 -0.1805 -0.6292
 3597SOL    HW122250   4.473   3.011   2.369 -1.4013 -0.0461  0.2698
 3597SOL    HW222251   4.569   2.926   2.455  0.8474  0.0674 -3.0479
 3598SOL     OW22252   3.554   0.577   2.217  0.3203 -0.5421 -0.2212
 3598SOL    HW122253   3.512   0.543   2.138 -2.0651  1.7632  0.0231
 3598SOL    HW222254   3.484   0.585   2.282  0.4523  1.3435 -0.3018
 3599SOL     OW22255   1.663   0.266   7.521 -0.4947  0.2595  0.5537
 3599SOL    HW122256   1.617   0.336   7.475 -0.8736  0.8640  1.8560
 3599SOL    HW222257   1.694   0.216   7.445  2.5064 -0.5542  2.3020
 3600SOL     OW22258   0.812   2.226  13.856 -0.2027 -1.0900 -0.4630
 3600SOL    HW122259   0.803   2.207  13.950 -1.1409  2.1996  0.0953
 3600SOL    HW222260   0.743   2.167  13.825 -0.5408 -0.8996 -0.0639
 3601SOL     OW22261   0.209   0.387   1.950  0.1973 -0.5186 -0.2289
 3601SOL    HW122262   0.201   0.336   2.031 -0.4025 -1.4139 -0.8525
 3601SOL    HW222263   0.302   0.408   1.940  0.3404 -1.3767 -0.7583
 3602SOL     OW22264   1.481   0.745   8.849 -0.5764  0.1294 -0.2698
 3602SOL    HW122265   1.508   0.669   8.900  1.2853  0.0164 -1.4408
 3602SOL    HW222266   1.533   0.741   8.769  0.0904 -0.0802  0.1722
 3603SOL     OW22267   3.513   3.274   3.988 -0.0256 -0.2011  0.3021
 3603SOL    HW122268   3.590   3.220   4.005 -0.1564  0.3475  2.5177
 3603SOL    HW222269   3.466   3.214   3.929  1.5355 -1.0343 -0.0767
 3604SOL     OW22270   4.263   1.583   5.049  0.1992  0.2010 -0.1065
 3604SOL    HW122271   4.276   1.593   5.144  0.5579 -3.6764  0.2811
 3604SOL    HW222272   4.255   1.674   5.024  0.3167  0.1263 -0.4155
 3605SOL     OW22273   1.701   0.219   3.018  0.2036  0.3095 -0.3990
 3605SOL    HW122274   1.745   0.228   3.102 -0.5269 -0.2885  0.0434
 3605SOL    HW222275   1.775   0.188   2.966 -0.3788  0.0976 -1.1089
 3606SOL     OW22276   2.055   1.922   1.038 -0.3611  0.7947 -0.4791
 3606SOL    HW122277   2.083   1.838   1.002 -0.5324  0.6196 -0.2017
 3606SOL    HW222278   2.000   1.963   0.971  1.3636  0.6127 -1.9951
 3607SOL     OW22279   1.233   2.089   5.474  0.4896 -0.2492 -0.9704
 3607SOL    HW122280   1.291   2.102   5.399 -0.5077 -1.8996 -2.0469
 3607SOL    HW222281   1.183   2.014   5.439  1.7656 -1.4911 -0.1349
 3608SOL     OW22282   3.986   0.765  17.507 -0.1678 -0.0568 -0.4819
 3608SOL    HW122283   3.917   0.757  17.441  0.3221 -2.5831 -0.6820
 3608SOL    HW222284   3.969   0.845  17.557  0.3665 -1.0863  1.3658
 3609SOL     OW22285   1.047   4.077   8.849  0.2702  0.2911  0.1749
 3609SOL    HW122286   1.023   4.156   8.800  1.3459  2.0141  2.4309
 3609SOL    HW222287   1.009   4.099   8.934  1.4232  0.8041  0.5501
 3610SOL     OW22288   2.055   0.230   3.961  0.4372  0.9396  0.2263
 3610SOL    HW122289   2.071   0.280   3.881  1.3123  2.4479  1.3303
 3610SOL    HW222290   1.994   0.160   3.939 -0.4505  2.1492 -1.1655
 3611SOL     OW22291   2.764   4.636   3.272  0.4290  0.3043  0.2374
 3611SOL    HW122292   2.687   4.589   3.240 -1.1868  1.6670  2.1305
 3611SOL    HW222293   2.826   4.609   3.204 -0.5112  1.2096 -0.9652
 3612SOL     OW22294   0.894   0.088  12.838 -0.7355  0.1949  0.4504
 3612SOL    HW122295   0.968   0.140  12.807 -1.1272  0.7890  0.5244
 3612SOL    HW222296   0.848   0.154  12.890 -0.8775  0.8056 -0.4529
 3613SOL     OW22297   1.416   1.505  11.361  0.1571 -0.0408  0.2237
 3613SOL    HW122298   1.436   1.595  11.334 -2.7493  0.4292 -0.3758
 3613SOL    HW222299   1.473   1.498  11.438 -2.0061  0.4141  1.8788
 3614SOL     OW22300   3.250   3.321  16.079 -0.2883  0.3730  0.1156
 3614SOL    HW122301   3.167   3.278  16.101 -1.0383  0.8750 -1.7685
 3614SOL    HW222302   3.226   3.386  16.013 -2.4873  0.7388  1.2673
 3615SOL     OW22303   3.003   4.234  16.499 -0.1396  0.4298  0.4776
 3615SOL    HW122304   3.081   4.193  16.462 -2.1059 -1.9480 -1.0319
 3615SOL    HW222305   3.023   4.327  16.492  0.5232  0.4262  2.2558
 3616SOL     OW22306   1.283   4.405   2.293  0.1574  0.0227  0.2538
 3616SOL    HW122307   1.369   4.391   2.334  0.2784 -0.3927 -0.1439
 3616SOL    HW222308   1.224   4.411   2.368 -0.9495  2.2483 -0.8217
 3617SOL     OW22309   0.997   1.148  16.093  0.0401  0.2778  0.1855
 3617SOL    HW122310   1.093   1.143  16.086 -0.0055  0.5954 -0.6507
 3617SOL    HW222311   0.980   1.242  16.099  0.7098  0.3679  0.7176
 3618SOL     OW22312   1.882   0.442   4.417 -0.0208  0.5449 -0.2986
 3618SOL    HW122313   1.887   0.538   4.413 -0.4272  0.4766 -2.4244
 3618SOL    HW222314   1.907   0.412   4.330 -0.5584 -1.9943  0.4262
 3619SOL     OW22315   1.769   3.414  16.963  0.1157 -0.2701 -0.3912
 3619SOL    HW122316   1.775   3.352  16.890  1.4886 -0.9017  0.2362
 3619SOL    HW222317   1.865   3.413  16.972 -0.0073 -1.2178  0.9436
 3620SOL     OW22318   1.425   0.356   9.221  0.6155 -0.0002  0.1632
 3620SOL    HW122319   1.368   0.297   9.270  0.0029  0.0486 -0.4913
 3620SOL    HW222320   1.513   0.360   9.257  0.7537 -2.1549  0.0639
 3621SOL     OW22321   0.856   2.983   4.703  0.8855  0.3180 -0.5807
 3621SOL    HW122322   0.863   2.887   4.697  0.4735  0.3842 -2.0719
 3621SOL    HW222323   0.768   3.008   4.676  1.2286  1.1041 -0.9644
 3622SOL     OW22324   0.651   3.614   7.764 -0.1781 -0.2619 -0.0915
 3622SOL    HW122325   0.593   3.605   7.839 -1.0954 -1.6390 -0.9643
 3622SOL    HW222326   0.583   3.609   7.697  0.5098 -2.1757 -0.6631
 3623SOL     OW22327   2.248   1.083   4.427 -0.2501 -0.1653 -0.2934
 3623SOL    HW122328   2.324   1.073   4.369 -1.7569 -2.8725 -1.7642
 3623SOL    HW222329   2.248   1.177   4.447  0.8887  0.4472 -3.1483
 3624SOL     OW22330   2.532   1.717  17.655 -0.4303 -0.1408 -0.0159
 3624SOL    HW122331   2.524   1.670  17.572  0.8239  2.6950 -1.7432
 3624SOL    HW222332   2.506   1.638  17.704  0.6268  0.3880  1.4154
 3625SOL     OW22333   1.683   0.564  17.434 -0.0186 -0.1336  0.1153
 3625SOL    HW122334   1.635   0.482  17.437  0.2008 -0.3077 -0.9397
 3625SOL    HW222335   1.751   0.535  17.495  0.8578  1.0259 -0.3166
 3626SOL     OW22336   1.026   0.836   8.260 -0.3867 -0.2785 -0.3169
 3626SOL    HW122337   1.043   0.847   8.166  0.6836 -1.4391 -0.2574
 3626SOL    HW222338   1.115   0.840   8.295 -0.0455 -1.2722 -1.0942
 3627SOL     OW22339   3.903   0.362   1.518 -0.1734  0.3604 -0.0229
 3627SOL    HW122340   3.955   0.284   1.537  0.2931 -0.2153 -3.7087
 3627SOL    HW222341   3.895   0.355   1.423 -1.9025  0.2112  0.1324
 3628SOL     OW22342   4.357   3.508   4.283 -0.1800 -0.1255  0.2125
 3628SOL    HW122343   4.297   3.457   4.227  0.7172 -1.5362  0.5444
 3628SOL    HW222344   4.413   3.437   4.313 -0.0763 -0.1148  0.0428
 3629SOL     OW22345   0.305   4.447   6.611 -0.0801  0.6833  0.0832
 3629SOL    HW122346   0.365   4.518   6.636  1.6853 -1.3454  1.6481
 3629SOL    HW222347   0.221   4.482   6.640 -0.4051  2.6856 -3.3159
 3630SOL     OW22348   3.800   2.907   3.866  0.1450 -0.2841  0.1337
 3630SOL    HW122349   3.818   2.881   3.776 -0.8991  2.0060 -0.7572
 3630SOL    HW222350   3.778   2.825   3.910  0.9122  0.3230  1.6720
 3631SOL     OW22351   2.868   4.557   6.550 -0.1836  0.1718  0.1538
 3631SOL    HW122352   2.858   4.595   6.637 -1.8013 -1.3332  0.6371
 3631SOL    HW222353   2.891   4.465   6.565  0.1754 -0.2387 -2.8982
 3632SOL     OW22354   2.769   4.044   0.466  0.7001  0.1956 -0.2198
 3632SOL    HW122355   2.754   4.137   0.450 -0.5143  0.3651  1.9206
 3632SOL    HW222356   2.768   4.034   0.561 -1.4368 -0.9002 -0.3628
 3633SOL     OW22357   1.330   1.633   7.917  0.1480 -0.4211  0.3742
 3633SOL    HW122358   1.250   1.650   7.866  1.5996  0.2828 -1.6671
 3633SOL    HW222359   1.394   1.679   7.863  0.0366 -1.4388 -0.6265
 3634SOL     OW22360   4.460   0.725   7.016 -0.5252 -0.1528  0.2899
 3634SOL    HW122361   4.466   0.782   6.939 -1.0663  0.0055  0.3668
 3634SOL    HW222362   4.473   0.642   6.970  0.3871 -0.1398  0.5109
 3635SOL     OW22363   3.165   3.229   8.612  0.0189  0.1159 -0.5736
 3635SOL    HW122364   3.100   3.171   8.572  1.4567 -0.5546 -1.9186
 3635SOL    HW222365   3.100   3.298   8.627  1.9169  1.4783  1.2384
 3636SOL     OW22366   0.778   4.085   6.998 -0.0447 -0.4618 -0.1665
 3636SOL    HW122367   0.840   4.084   7.071  1.4431 -0.4968 -1.4399
 3636SOL    HW222368   0.723   4.162   7.010  1.4932  0.5914  0.1022
 3637SOL     OW22369   0.301   3.232  12.253 -0.3979 -0.2595  0.0892
 3637SOL    HW122370   0.293   3.193  12.340 -0.2940  1.3061  0.7999
 3637SOL    HW222371   0.261   3.167  12.195  1.3454 -1.0584 -0.2052
 3638SOL     OW22372   1.924   0.410   2.812  0.6712 -0.3428 -0.3140
 3638SOL    HW122373   1.937   0.336   2.753 -0.1461  0.6028 -1.6906
 3638SOL    HW222374   1.831   0.423   2.798  0.1980 -1.6022  1.6424
 3639SOL     OW22375   3.897   2.715   8.983  0.0518 -0.6299  0.1804
 3639SOL    HW122376   3.972   2.663   8.954  0.5260 -0.6280  1.4157
 3639SOL    HW222377   3.927   2.805   8.971 -0.1920 -0.1462  3.1113
 3640SOL     OW22378   2.877   3.251   4.021 -0.6250  0.2963  0.0108
 3640SOL    HW122379   2.904   3.305   4.095  1.3709 -1.4646  0.5586
 3640SOL    HW222380   2.897   3.163   4.053 -1.2929  0.5121  1.0510
 3641SOL     OW22381   1.469   2.414   0.443 -0.2718  0.4133 -0.7356
 3641SOL    HW122382   1.529   2.360   0.495 -0.5057  0.5665 -0.3073
 3641SOL    HW222383   1.530   2.474   0.402  1.2035  0.1277  1.0374
 3642SOL     OW22384   0.344   1.367  15.473  0.2803 -0.4086 -0.3818
 3642SOL    HW122385   0.311   1.419  15.546  2.1878  1.6393 -0.9769
 3642SOL    HW222386   0.439   1.376  15.485  0.0411  1.6760 -0.0919
 3643SOL     OW22387   0.208   2.076   1.615  0.0704  0.6091 -0.2108
 3643SOL    HW122388   0.140   2.015   1.641  0.4799  0.4734  0.5417
 3643SOL    HW222389   0.166   2.162   1.619 -1.2330 -0.1217  1.2500
 3644SOL     OW22390   1.617   2.727   4.344 -0.0655 -0.2470  0.1842
 3644SOL    HW122391   1.654   2.784   4.276 -2.5722  1.0235 -0.1275
 3644SOL    HW222392   1.700   2.697   4.379  0.1812 -0.2057 -0.3686
 3645SOL     OW22393   1.376   1.329   7.584  0.2558 -0.2338  0.1749
 3645SOL    HW122394   1.312   1.340   7.655  1.6995  1.8575  1.1741
 3645SOL    HW222395   1.333   1.383   7.518 -1.2189 -4.2346 -2.0968
 3646SOL     OW22396   3.351   4.535  14.613 -0.1409 -0.2032 -0.0762
 3646SOL    HW122397   3.447   4.535  14.610 -0.1333 -0.7599  0.2259
 3646SOL    HW222398   3.346   4.476  14.689  1.1999 -0.5190 -0.2283
 3647SOL     OW22399   3.656   2.322   9.186  0.0268  0.7256 -0.0879
 3647SOL    HW122400   3.606   2.399   9.214  0.8421  1.5204 -0.8425
 3647SOL    HW222401   3.598   2.247   9.200  0.0384  0.6186 -0.6267
 3648SOL     OW22402   2.465   2.183   2.725 -0.2175  0.0024  0.2481
 3648SOL    HW122403   2.408   2.210   2.653 -0.0065  0.4624  0.2575
 3648SOL    HW222404   2.405   2.137   2.785 -0.2129 -1.0596 -0.5546
 3649SOL     OW22405   2.317   4.178  11.784  0.3784  0.2569  0.1036
 3649SOL    HW122406   2.361   4.104  11.826 -0.6637 -0.2912  0.2297
 3649SOL    HW222407   2.227   4.150  11.771  1.2352 -2.3089 -0.2607
 3650SOL     OW22408   3.372   0.845   4.980 -0.2823  0.4558  0.0733
 3650SOL    HW122409   3.400   0.760   4.947 -1.6370 -0.1078  0.3819
 3650SOL    HW222410   3.278   0.848   4.961 -0.0891 -0.8425 -1.1139
 3651SOL     OW22411   3.937   1.437  10.929 -0.1207  0.1687 -0.1123
 3651SOL    HW122412   3.879   1.447  11.004  0.7822 -1.1951  0.7581
 3651SOL    HW222413   3.873   1.409  10.863  1.6132  0.7874 -2.0745
 3652SOL     OW22414   0.122   0.140  17.286 -0.4365 -0.0877  0.5697
 3652SOL    HW122415   0.042   0.089  17.276  0.3098 -1.2840  0.5609
 3652SOL    HW222416   0.177   0.077  17.333  2.1065  1.4812 -0.3113
 3653SOL     OW22417   2.178   0.693   1.547  0.4567  0.3520 -0.0802
 3653SOL    HW122418   2.255   0.675   1.602  0.6094  2.6177  0.4379
 3653SOL    HW222419   2.178   0.616   1.490  0.6454  0.2380  0.0747
 3654SOL     OW22420   2.195   3.861   8.174  0.6308 -0.2090 -0.6018
 3654SOL    HW122421   2.133   3.832   8.107  0.2871  0.1362 -0.4317
 3654SOL    HW222422   2.245   3.779   8.178 -0.9663 -1.2651 -2.1900
 3655SOL     OW22423   0.061   3.683   2.763  0.3203 -0.3856  0.0908
 3655SOL    HW122424   0.106   3.652   2.842  1.1619  0.0623 -0.2173
 3655SOL    HW222425   0.084   3.617   2.697 -1.4750  0.7783 -1.6907
 3656SOL     OW22426   2.873   3.115  15.908  0.1989  0.4902  0.2858
 3656SOL    HW122427   2.839   3.201  15.884  1.7363  1.0566  0.1310
 3656SOL    HW222428   2.963   3.130  15.881 -0.1898  0.8340 -0.8038
 3657SOL     OW22429   0.149   1.956   7.741 -0.0330  0.2728  0.6438
 3657SOL    HW122430   0.214   1.971   7.672 -1.0552 -0.9104 -0.5557
 3657SOL    HW222431   0.084   2.022   7.717  0.0937 -0.1728 -0.9493
 3658SOL     OW22432   2.969   3.583   6.072  0.0121  0.1277  0.1080
 3658SOL    HW122433   2.957   3.488   6.078  1.6482 -0.1375 -0.8845
 3658SOL    HW222434   3.063   3.593   6.085 -0.1673  1.6115  0.2000
 3659SOL     OW22435   4.248   3.913  17.128 -0.1940  0.3971 -0.1252
 3659SOL    HW122436   4.282   3.841  17.180 -0.9590  1.3585  1.7135
 3659SOL    HW222437   4.242   3.966  17.208 -1.4871 -2.3996  1.6290
 3660SOL     OW22438   4.465   1.241   1.413  0.2607 -0.5317  0.5526
 3660SOL    HW122439   4.529   1.312   1.420 -0.3175 -0.0391  0.8381
 3660SOL    HW222440   4.431   1.264   1.326  0.7066 -1.0217  0.2467
 3661SOL     OW22441   1.412   0.193   8.371 -0.1051  0.5259 -0.0194
 3661SOL    HW122442   1.358   0.130   8.323 -1.0502  1.8168 -0.6481
 3661SOL    HW222443   1.384   0.280   8.343  1.6042  0.6886 -1.2500
 3662SOL     OW22444   4.363   3.029   8.552  0.3608 -0.0814 -0.0274
 3662SOL    HW122445   4.415   2.961   8.508  3.3853  0.0112  3.4085
 3662SOL    HW222446   4.424   3.051   8.623  0.3811  0.5134 -0.2270
 3663SOL     OW22447   1.493   0.190   5.083  0.6091  0.0518  0.1590
 3663SOL    HW122448   1.405   0.175   5.048  0.1143  0.5866  1.1844
 3663SOL    HW222449   1.492   0.279   5.119 -1.1152  0.3972 -0.7046
 3664SOL     OW22450   1.762   0.244   2.027 -0.5056 -0.5312 -0.0853
 3664SOL    HW122451   1.782   0.225   2.119 -0.8961  0.1870  0.1446
 3664SOL    HW222452   1.753   0.339   2.024 -0.6851 -0.5297  0.5352
 3665SOL     OW22453   0.470   2.009  10.351 -0.0203  0.2828  0.9395
 3665SOL    HW122454   0.564   1.994  10.357  0.3804  3.0308  1.2703
 3665SOL    HW222455   0.434   1.999  10.439 -0.6491 -2.3267  0.3937
 3666SOL     OW22456   4.427   0.987  14.833 -0.0232 -0.9470 -0.0495
 3666SOL    HW122457   4.400   0.911  14.781 -3.7975  0.7068 -0.4740
 3666SOL    HW222458   4.347   1.039  14.833  1.9014  1.9816  2.1175
 3667SOL     OW22459   1.741   2.311   3.118 -0.3951 -0.1894  0.9217
 3667SOL    HW122460   1.822   2.304   3.067  0.0396  1.2362  1.4064
 3667SOL    HW222461   1.741   2.231   3.170 -2.5677 -1.8733 -1.6217
 3668SOL     OW22462   2.832   4.163   9.623 -0.0405  0.5195 -0.3114
 3668SOL    HW122463   2.840   4.071   9.646 -0.1750  1.0241  1.8175
 3668SOL    HW222464   2.859   4.160   9.531 -2.0228  1.8834 -0.9296
 3669SOL     OW22465   1.191   0.905   5.744 -0.0617  0.1063 -0.0877
 3669SOL    HW122466   1.142   0.986   5.752 -0.0752  0.3640 -2.5367
 3669SOL    HW222467   1.229   0.910   5.656  2.2374  1.0947  0.9728
 3670SOL     OW22468   3.127   3.341   1.527 -0.3238 -0.4640  0.6036
 3670SOL    HW122469   3.137   3.399   1.451  1.6201 -1.1616  0.3401
 3670SOL    HW222470   3.094   3.263   1.481 -0.3135  0.8002 -1.5373
 3671SOL     OW22471   0.707   1.085   6.896 -0.0179  0.1278  0.0964
 3671SOL    HW122472   0.764   1.011   6.877  0.1695  0.8679 -2.2847
 3671SOL    HW222473   0.640   1.045   6.952  0.2447 -0.1941  0.1793
 3672SOL     OW22474   1.996   4.549   4.660  0.0107  0.1714 -0.1119
 3672SOL    HW122475   1.929   4.590   4.605  0.8399 -0.0249 -1.2773
 3672SOL    HW222476   2.017   4.619   4.722 -2.8193  1.2785 -0.3918
 3673SOL     OW22477   2.829   3.280   1.707  0.3335  0.6741 -0.2299
 3673SOL    HW122478   2.846   3.193   1.670  1.5091  0.1087  1.6356
 3673SOL    HW222479   2.909   3.323   1.677  0.3832 -0.3085 -1.4717
 3674SOL     OW22480   3.021   1.208   5.520 -0.2559  0.3112  0.3366
 3674SOL    HW122481   3.003   1.115   5.501 -1.2245  1.1369 -2.9232
 3674SOL    HW222482   2.940   1.232   5.564 -0.6427 -2.4407  1.1340
 3675SOL     OW22483   1.994   4.325  15.093 -0.2407 -0.7484  0.7327
 3675SOL    HW122484   2.004   4.338  15.188  0.6982  0.2392  0.5024
 3675SOL    HW222485   1.920   4.383  15.073  0.7165  0.1312 -0.2593
 3676SOL     OW22486   0.118   0.687  11.858  0.0472  1.0634 -0.1146
 3676SOL    HW122487   0.065   0.736  11.920 -0.0850  2.6173 -1.4643
 3676SOL    HW222488   0.199   0.679  11.909 -0.5100  1.2737  0.7959
 3677SOL     OW22489   3.095   2.781  16.536 -0.5024  0.0463  0.1367
 3677SOL    HW122490   3.105   2.720  16.463 -1.2008  0.3104 -0.1758
 3677SOL    HW222491   3.185   2.785  16.569 -0.7159 -0.1976  0.7537
 3678SOL     OW22492   3.323   1.513   7.375 -0.4176 -0.0746  0.0466
 3678SOL    HW122493   3.400   1.489   7.324 -1.1577 -0.8967 -0.6716
 3678SOL    HW222494   3.253   1.499   7.311 -1.2034 -0.8971  1.0806
 3679SOL     OW22495   1.435   3.114  16.347 -0.0915  0.1102  0.1282
 3679SOL    HW122496   1.390   3.085  16.426 -1.4906 -0.7949 -1.0055
 3679SOL    HW222497   1.474   3.035  16.309 -1.4053  1.2278 -3.5017
 3680SOL     OW22498   1.173   1.044   9.653 -0.3869  0.2645 -0.0731
 3680SOL    HW122499   1.097   1.101   9.664  0.8604  1.4210  2.3928
 3680SOL    HW222500   1.228   1.082   9.720 -1.3854  1.3830  0.0983
 3681SOL     OW22501   1.679   0.568   9.695  0.5162  0.1210  0.4765
 3681SOL    HW122502   1.633   0.601   9.618  0.9239 -2.1118 -0.7194
 3681SOL    HW222503   1.760   0.546   9.650  0.1046 -1.3228  0.4433
 3682SOL     OW22504   4.006   0.794   2.861 -0.1216 -0.7690 -0.6008
 3682SOL    HW122505   3.945   0.816   2.931 -0.0965  1.6286 -1.3592
 3682SOL    HW222506   4.007   0.698   2.868 -0.5593 -0.9739 -3.3363
 3683SOL     OW22507   3.961   0.726   4.238 -0.2090 -0.2025  0.0517
 3683SOL    HW122508   3.929   0.654   4.184 -0.7011  0.7635 -0.9470
 3683SOL    HW222509   4.020   0.674   4.292 -1.9135 -0.6054  1.5259
 3684SOL     OW22510   2.325   3.444   2.324 -0.1063  1.3261  0.3959
 3684SOL    HW122511   2.337   3.413   2.235  0.2156 -1.5273  1.4334
 3684SOL    HW222512   2.318   3.540   2.322  0.4451  1.3571  0.0561
 3685SOL     OW22513   3.371   1.742   2.343 -0.2953 -0.1968 -0.3487
 3685SOL    HW122514   3.323   1.664   2.313 -0.3257  0.0556 -0.9658
 3685SOL    HW222515   3.358   1.798   2.266 -1.6952  1.3958  1.0297
 3686SOL     OW22516   1.784   1.828   4.202  0.6624  0.0134 -0.2653
 3686SOL    HW122517   1.860   1.881   4.178 -1.5776  3.3468 -0.0240
 3686SOL    HW222518   1.819   1.779   4.276 -1.8322 -1.4009 -0.0284
 3687SOL     OW22519   0.293   1.842   3.718 -0.3731  0.0250  0.0815
 3687SOL    HW122520   0.249   1.784   3.657  0.5600 -1.5967  0.9218
 3687SOL    HW222521   0.250   1.925   3.700  0.0419  0.4121  0.8579
 3688SOL     OW22522   2.729   1.944  14.064  0.4471  0.3912  0.2469
 3688SOL    HW122523   2.681   1.922  14.144 -0.5455  0.5916 -0.2870
 3688SOL    HW222524   2.659   1.914  14.005 -0.4305 -1.1892  2.1095
 3689SOL     OW22525   2.828   1.967  15.735  0.0881 -0.2285 -0.6488
 3689SOL    HW122526   2.806   1.981  15.643 -1.0033  0.2260 -0.3197
 3689SOL    HW222527   2.917   1.934  15.740  0.1744  0.5837  3.2411
 3690SOL     OW22528   2.437   3.238  12.261  0.0537 -0.2822  0.5245
 3690SOL    HW122529   2.415   3.183  12.187 -0.1606 -2.0638  1.9144
 3690SOL    HW222530   2.470   3.179  12.330  0.0620  0.8811  1.5271
 3691SOL     OW22531   1.923   3.411  15.334  0.1821  0.1562 -0.1789
 3691SOL    HW122532   1.835   3.432  15.367  0.2843 -0.8266  0.7210
 3691SOL    HW222533   1.974   3.484  15.371  1.1606 -0.0828 -1.0751
 3692SOL     OW22534   0.567   0.511  14.405  1.0740  0.3040  0.0282
 3692SOL    HW122535   0.472   0.507  14.392  1.0273  0.6283  0.2659
 3692SOL    HW222536   0.596   0.542  14.320  0.1429  1.7372  0.2396
 3693SOL     OW22537   1.751   1.758   5.511 -0.5122  0.0278  0.0098
 3693SOL    HW122538   1.701   1.728   5.587  0.6777  0.0086  0.7766
 3693SOL    HW222539   1.740   1.688   5.446  2.0452 -0.6299  0.3215
 3694SOL     OW22540   0.107   2.883  17.147 -0.0838  0.1485 -0.5388
 3694SOL    HW122541   0.153   2.858  17.227 -1.3169 -4.6056 -1.2658
 3694SOL    HW222542   0.180   2.876  17.085  0.3051 -1.5824  0.1004
 3695SOL     OW22543   0.167   3.141   6.478  0.1803  0.1620 -0.1427
 3695SOL    HW122544   0.154   3.228   6.441  0.5687  0.7229  1.0585
 3695SOL    HW222545   0.261   3.132   6.462  0.2399 -1.0625  0.9065
 3696SOL     OW22546   2.895   2.598   7.936  0.2459  0.3396  0.1700
 3696SOL    HW122547   2.954   2.621   8.007  1.3333 -0.7093 -0.4089
 3696SOL    HW222548   2.906   2.505   7.922 -0.1318  0.2301  0.5727
 3697SOL     OW22549   3.552   1.422   0.355 -0.2089  0.2471  0.3281
 3697SOL    HW122550   3.514   1.353   0.409  0.0801  1.0807  1.5805
 3697SOL    HW222551   3.562   1.375   0.272 -1.0648  0.8494 -0.1136
 3698SOL     OW22552   1.083   1.156   2.204 -0.3275  0.4374  0.1661
 3698SOL    HW122553   1.136   1.156   2.124  1.7758  0.4695  1.5713
 3698SOL    HW222554   1.143   1.146   2.277  0.2568  0.4216 -0.3216
 3699SOL     OW22555   4.190   3.598   8.878 -0.1127  0.2971  0.0212
 3699SOL    HW122556   4.266   3.613   8.822  1.0627  0.7827  1.7493
 3699SOL    HW222557   4.121   3.601   8.812  0.9915  0.0222 -1.1418
 3700SOL     OW22558   3.384   2.437  11.046  0.1364  0.4068  0.1491
 3700SOL    HW122559   3.344   2.396  10.970  2.7384  0.8344 -1.4656
 3700SOL    HW222560   3.373   2.379  11.122 -2.1364  0.5448 -0.0774
 3701SOL     OW22561   0.292   1.622   0.628 -0.1651 -0.3420 -0.2731
 3701SOL    HW122562   0.373   1.572   0.626  0.8056  1.2331 -0.4374
 3701SOL    HW222563   0.303   1.664   0.713  0.3254 -0.0575 -0.4752
 3702SOL     OW22564   0.837   2.494  13.367  0.4341 -0.0267 -0.0223
 3702SOL    HW122565   0.749   2.497  13.404  0.1240 -1.9760 -0.6004
 3702SOL    HW222566   0.843   2.526  13.277 -0.9649  0.7269  0.1498
 3703SOL     OW22567   3.083   1.207   0.956  0.1101 -0.5414  0.0065
 3703SOL    HW122568   3.175   1.180   0.958 -0.1297 -1.3040  0.7189
 3703SOL    HW222569   3.047   1.159   1.031 -1.1805  0.4445  0.0153
 3704SOL     OW22570   1.056   3.563   4.798  0.4877  0.3779  0.7414
 3704SOL    HW122571   1.095   3.644   4.830  3.4117 -0.7342  0.0065
 3704SOL    HW222572   0.984   3.565   4.861 -1.6516  0.9590 -1.7586
 3705SOL     OW22573   4.155   0.354   5.265  0.1198  0.4856  0.2853
 3705SOL    HW122574   4.230   0.411   5.283  1.5347 -1.2174 -0.2032
 3705SOL    HW222575   4.169   0.284   5.329  1.4588  0.9815  0.5479
 3706SOL     OW22576   4.611   1.613   6.586 -0.1726  0.2644 -0.0497
 3706SOL    HW122577   4.547   1.548   6.614  0.9707 -0.6065  0.5774
 3706SOL    HW222578   4.684   1.585   6.642  0.6274  1.7345 -0.3485
 3707SOL     OW22579   3.230   0.752  14.647 -0.3669  0.2511 -0.1028
 3707SOL    HW122580   3.288   0.823  14.621 -1.7570  0.8173 -1.6497
 3707SOL    HW222581   3.217   0.782  14.737 -0.3265 -0.4342  0.1374
 3708SOL     OW22582   2.530   3.327   2.567 -0.1368 -0.2252 -0.2883
 3708SOL    HW122583   2.564   3.366   2.487  1.8466 -1.3949 -0.0258
 3708SOL    HW222584   2.603   3.275   2.601 -0.3640 -1.2186 -1.2977
 3709SOL     OW22585   1.657   1.504   0.513 -0.1535  0.1675  0.0972
 3709SOL    HW122586   1.668   1.465   0.426  0.1156 -2.2469  1.1958
 3709SOL    HW222587   1.738   1.478   0.557  0.6728 -0.3727 -1.7106
 3710SOL     OW22588   4.618   0.735   4.673 -0.2920 -0.3810 -0.1666
 3710SOL    HW122589   4.590   0.820   4.640  1.5059 -0.3049 -1.4854
 3710SOL    HW222590   4.585   0.742   4.762 -0.4752  0.7555 -0.3281
 3711SOL     OW22591   2.168   4.373   5.707  0.8125  0.2805 -0.3856
 3711SOL    HW122592   2.092   4.429   5.724  0.6566  0.4401 -1.5993
 3711SOL    HW222593   2.230   4.437   5.673  0.8537  0.8178  0.6876
 3712SOL     OW22594   1.448   1.330  11.589  0.1414 -0.0192 -0.3334
 3712SOL    HW122595   1.402   1.330  11.505  1.2732 -2.6218 -0.9407
 3712SOL    HW222596   1.506   1.255  11.586  1.6464  1.1995 -1.8236
 3713SOL     OW22597   1.874   1.006   1.927 -0.2236 -0.4177 -0.1055
 3713SOL    HW122598   1.950   1.062   1.911 -1.4246  1.4703  0.7806
 3713SOL    HW222599   1.914   0.921   1.907  0.7415  0.3411 -1.4485
 3714SOL     OW22600   1.625   0.886   5.093  0.4750  0.1086 -0.1880
 3714SOL    HW122601   1.643   0.890   5.187  1.7584  0.4564 -0.4520
 3714SOL    HW222602   1.529   0.889   5.092  0.4723  1.1783  3.3707
 3715SOL     OW22603   1.080   4.402   5.882  0.2408 -0.1733 -0.0841
 3715SOL    HW122604   1.172   4.381   5.898 -0.4436 -1.4416  2.2606
 3715SOL    HW222605   1.075   4.497   5.871  0.9910 -0.1849 -0.4886
 3716SOL     OW22606   2.958   2.962  12.050  0.3736 -0.0652 -0.0595
 3716SOL    HW122607   2.967   2.944  11.957  0.0528 -1.1911  0.1235
 3716SOL    HW222608   3.034   3.017  12.068  1.7275 -2.2567  1.0522
 3717SOL     OW22609   4.680   3.750   8.286  0.1377  0.3411 -0.1395
 3717SOL    HW122610   4.719   3.745   8.374  1.2968 -0.0923 -0.6667
 3717SOL    HW222611   4.610   3.814   8.292  0.4970  0.7509 -0.2810
 3718SOL     OW22612   0.037   2.452   3.094  0.1179  0.4090 -0.1351
 3718SOL    HW122613   0.089   2.395   3.038 -0.1883  0.1221 -0.1273
 3718SOL    HW222614   0.040   2.535   3.046  1.6364  0.7641  0.5880
 3719SOL     OW22615   3.760   2.989  17.336  0.0833 -0.0059  0.0225
 3719SOL    HW122616   3.826   3.002  17.405  1.1150  2.1312 -1.3710
 3719SOL    HW222617   3.779   3.056  17.270 -0.7175  0.2832  0.0913
 3720SOL     OW22618   0.571   0.766   2.617 -0.4879  0.1359 -0.2796
 3720SOL    HW122619   0.571   0.856   2.586  1.4505  0.1852 -0.1519
 3720SOL    HW222620   0.487   0.765   2.664 -0.9263 -1.0661 -1.0857
 3721SOL     OW22621   1.544   4.723   6.634  0.0855  0.3631  0.3021
 3721SOL    HW122622   1.499   0.003   6.549  1.3384  0.8440 -0.3172
 3721SOL    HW222623   1.464   4.695   6.679  0.0594  1.0989  0.7129
 3722SOL     OW22624   1.617   4.400   7.169  0.0364 -0.1098  0.5023
 3722SOL    HW122625   1.548   4.460   7.198 -0.5401  0.0889 -1.3202
 3722SOL    HW222626   1.684   4.454   7.127 -0.7635 -1.5107 -2.5667
 3723SOL     OW22627   0.425   3.580   7.902  0.0989 -0.3109  0.1082
 3723SOL    HW122628   0.435   3.671   7.930  2.8076 -0.0581 -1.5692
 3723SOL    HW222629   0.352   3.591   7.840  0.9752 -0.3404 -0.9352
 3724SOL     OW22630   2.857   0.939   4.371 -0.4246 -0.1877 -0.0076
 3724SOL    HW122631   2.794   1.007   4.349 -1.3178 -0.8714  0.4015
 3724SOL    HW222632   2.893   0.984   4.447 -1.1390  2.0585 -1.0208
 3725SOL     OW22633   4.451   3.580   2.563 -0.0449 -0.6425  0.3417
 3725SOL    HW122634   4.357   3.597   2.570  0.1676  0.7623 -0.2397
 3725SOL    HW222635   4.473   3.629   2.643 -0.1804  1.8815 -1.1705
 3726SOL     OW22636   2.050   0.983   9.989 -0.5734 -0.6222  0.4414
 3726SOL    HW122637   2.121   0.923   9.965 -0.2252 -0.3585  0.8066
 3726SOL    HW222638   2.029   0.949  10.076 -0.3559  0.7540  1.0293
 3727SOL     OW22639   3.361   0.860   3.974 -0.2162 -0.2572 -0.3169
 3727SOL    HW122640   3.346   0.955   3.970 -1.5004 -0.4424  0.3363
 3727SOL    HW222641   3.312   0.830   3.898 -0.9743  0.4148 -0.0860
 3728SOL     OW22642   0.377   1.279   8.252  0.2741  0.6178 -0.0621
 3728SOL    HW122643   0.340   1.256   8.167  1.7867 -0.5933 -0.3926
 3728SOL    HW222644   0.457   1.324   8.225 -1.4166  2.1784 -2.5113
 3729SOL     OW22645   1.698   1.678   6.920  0.5382  0.3434 -0.8934
 3729SOL    HW122646   1.715   1.768   6.948 -0.2282 -0.1068  1.0108
 3729SOL    HW222647   1.753   1.665   6.843  2.2831  0.0016  0.3966
 3730SOL     OW22648   0.976   1.381   9.014  0.7858 -0.3962  0.7468
 3730SOL    HW122649   0.882   1.398   9.022  0.7974  0.1943 -0.4527
 3730SOL    HW222650   0.980   1.306   9.073 -0.3356 -0.4874  0.7219
 3731SOL     OW22651   1.150   3.455   8.811  0.2191 -0.2305  0.2824
 3731SOL    HW122652   1.190   3.454   8.898  0.7361  1.8858  0.0570
 3731SOL    HW222653   1.103   3.538   8.818 -0.9928 -0.8992  0.0734
 3732SOL     OW22654   3.721   4.532   2.930  0.5653 -0.1129  0.7143
 3732SOL    HW122655   3.723   4.484   2.847  2.7472  1.0087  0.1137
 3732SOL    HW222656   3.810   4.567   2.931 -0.2303  1.8122  2.1203
 3733SOL     OW22657   1.178   2.447   5.905 -0.2813  0.7976  0.2037
 3733SOL    HW122658   1.212   2.473   5.991  0.5897  1.6927 -0.4039
 3733SOL    HW222659   1.096   2.409   5.935 -1.0212  2.6196  0.5083
 3734SOL     OW22660   1.338   1.425   2.117  0.7028  0.1159 -0.0701
 3734SOL    HW122661   1.383   1.376   2.049  0.4122  0.2671 -0.3691
 3734SOL    HW222662   1.277   1.471   2.060 -1.4094 -1.1063  1.2122
 3735SOL     OW22663   1.869   4.626   1.859 -0.3546  0.3431 -0.0880
 3735SOL    HW122664   1.864   4.556   1.794 -0.1444  0.6652 -0.4508
 3735SOL    HW222665   1.961   4.651   1.863 -0.3963  0.3091  0.9914
 3736SOL     OW22666   2.404   3.675   5.187  0.3788 -1.0702  0.3756
 3736SOL    HW122667   2.332   3.680   5.125 -0.3980  0.9692  1.4537
 3736SOL    HW222668   2.427   3.766   5.204  0.0392 -0.8899 -0.1432
 3737SOL     OW22669   3.367   4.116  13.493  0.5502  0.3231  0.1399
 3737SOL    HW122670   3.455   4.100  13.525  0.1156  0.3383  1.3202
 3737SOL    HW222671   3.358   4.208  13.518  0.4832  0.8568 -1.8405
 3738SOL     OW22672   3.762   3.127   4.659  0.3909 -0.2575  0.1355
 3738SOL    HW122673   3.809   3.142   4.741 -0.5960 -0.0085  0.6595
 3738SOL    HW222674   3.793   3.190   4.594 -2.1187  1.1422  0.3004
 3739SOL     OW22675   3.673   3.437  13.834 -0.2200  0.0095  0.5064
 3739SOL    HW122676   3.736   3.413  13.766 -2.1846 -1.9216 -0.6314
 3739SOL    HW222677   3.680   3.367  13.899  1.4455 -1.1884 -0.9635
 3740SOL     OW22678   2.124   3.747   3.821 -0.4577 -0.0634 -0.8026
 3740SOL    HW122679   2.092   3.749   3.911 -0.4313 -0.2752 -0.7881
 3740SOL    HW222680   2.141   3.841   3.808  1.6252 -0.5709 -1.7354
 3741SOL     OW22681   3.059   2.105  13.290  0.5559  0.6496 -0.2176
 3741SOL    HW122682   3.053   2.059  13.373  2.7473 -1.0279 -0.9904
 3741SOL    HW222683   3.153   2.121  13.293  0.4959  1.0436 -0.4653
 3742SOL     OW22684   3.099   3.910   6.257 -0.3039  0.0584  0.2141
 3742SOL    HW122685   3.129   3.956   6.335  1.3191 -0.7904  0.0788
 3742SOL    HW222686   3.137   3.823   6.269 -1.2244 -0.3351  0.2743
 3743SOL     OW22687   0.974   2.740   4.142 -1.0852 -0.0361 -0.2588
 3743SOL    HW122688   1.041   2.720   4.077 -0.8654 -0.3644  0.0663
 3743SOL    HW222689   1.018   2.802   4.201 -2.2352 -0.4597  1.0343
 3744SOL     OW22690   4.518   0.412  15.287 -0.7953 -0.2864 -0.0436
 3744SOL    HW122691   4.600   0.384  15.247 -0.8956 -0.8496  0.1417
 3744SOL    HW222692   4.460   0.341  15.257 -1.8419  0.8320 -0.6632
 3745SOL     OW22693   4.563   0.565   4.426 -0.7891 -0.2840  0.5198
 3745SOL    HW122694   4.654   0.551   4.401 -1.3834 -0.4659 -1.5798
 3745SOL    HW222695   4.574   0.605   4.512 -0.8504  2.1574 -0.6316
 3746SOL     OW22696   3.680   3.453   6.712  0.1498 -0.1049 -0.1059
 3746SOL    HW122697   3.651   3.379   6.659  0.6234 -0.1084 -0.3648
 3746SOL    HW222698   3.699   3.509   6.637 -0.5304  1.0340  0.5794
 3747SOL     OW22699   2.014   4.298   1.428  0.1525 -0.7170  0.2414
 3747SOL    HW122700   2.049   4.246   1.356  0.0067 -1.6523  0.8438
 3747SOL    HW222701   1.928   4.313   1.387  1.6530 -0.3383 -2.7831
 3748SOL     OW22702   3.738   3.129   4.026 -0.0552 -0.2710 -0.1478
 3748SOL    HW122703   3.755   3.087   4.110  1.3456 -0.9376 -0.7734
 3748SOL    HW222704   3.741   3.057   3.963  0.7177 -0.0420 -0.3649
 3749SOL     OW22705   2.387   1.078   9.328 -0.2261  0.2513  0.1369
 3749SOL    HW122706   2.459   1.059   9.267 -1.3850  2.2091 -1.8248
 3749SOL    HW222707   2.373   0.989   9.362 -3.0346  0.0055 -1.7508
 3750SOL     OW22708   2.544   0.829   1.675  0.1427 -0.4253  0.0279
 3750SOL    HW122709   2.580   0.742   1.695 -0.6051 -1.1598 -1.7650
 3750SOL    HW222710   2.558   0.841   1.581  0.0236 -1.0193 -0.0679
 3751SOL     OW22711   2.484   2.349  14.222 -0.0060 -0.5214  0.2233
 3751SOL    HW122712   2.549   2.386  14.163  1.3848 -2.2185  0.6957
 3751SOL    HW222713   2.404   2.371  14.174  0.5593 -0.1869 -0.5623
 3752SOL     OW22714   1.784   2.809   5.649 -0.3664 -0.4293 -0.3890
 3752SOL    HW122715   1.844   2.833   5.578 -1.3252  0.0479 -1.0279
 3752SOL    HW222716   1.713   2.872   5.636 -0.7058 -0.9047 -0.8116
 3753SOL     OW22717   2.219   3.491  16.846 -0.4847  1.1059 -0.0956
 3753SOL    HW122718   2.128   3.511  16.865 -0.1738  1.4914  0.9845
 3753SOL    HW222719   2.236   3.553  16.775 -0.0271  0.6630 -0.3799
 3754SOL     OW22720   2.828   4.435   9.513 -0.2536 -0.1925 -0.7262
 3754SOL    HW122721   2.867   4.358   9.556  0.8950  2.1302  2.3607
 3754SOL    HW222722   2.885   4.451   9.438 -0.3756  1.2272 -0.5115
 3755SOL     OW22723   0.855   1.578  15.180  0.1239  0.4618  0.0167
 3755SOL    HW122724   0.866   1.620  15.266 -0.7675  0.6394  0.0377
 3755SOL    HW222725   0.889   1.645  15.121  0.6942  1.2033  1.1823
 3756SOL     OW22726   1.282   1.153   1.030 -0.3523 -0.0736 -0.3086
 3756SOL    HW122727   1.324   1.217   1.088 -2.0448  0.0859  0.7380
 3756SOL    HW222728   1.201   1.197   1.004  0.0707  0.3578 -0.9000
 3757SOL     OW22729   3.268   1.571   5.045 -0.7375 -0.1501 -0.3870
 3757SOL    HW122730   3.306   1.638   4.987  0.2489 -1.1265 -0.8604
 3757SOL    HW222731   3.318   1.491   5.029  2.3318  0.9667  3.3616
 3758SOL     OW22732   3.410   1.249  14.869 -0.2615  0.1221 -0.1463
 3758SOL    HW122733   3.472   1.263  14.940 -1.9000 -0.7036  1.4599
 3758SOL    HW222734   3.448   1.171  14.828 -0.3697 -1.4204  2.6559
 3759SOL     OW22735   2.916   1.203  13.825 -0.7346 -0.0667 -0.4605
 3759SOL    HW122736   2.933   1.176  13.915  2.6553  2.0801 -0.4538
 3759SOL    HW222737   2.999   1.174  13.787 -0.4082  2.6348 -1.8065
 3760SOL     OW22738   0.212   3.290   1.800  0.6106 -0.3720  0.1477
 3760SOL    HW122739   0.198   3.239   1.879 -0.0109  1.7375  1.4044
 3760SOL    HW222740   0.121   3.286   1.770  0.4577 -1.2461  0.7343
 3761SOL     OW22741   2.697   2.873   9.159 -0.0034  0.0476 -0.3133
 3761SOL    HW122742   2.642   2.848   9.084  1.6046  0.1442 -1.5086
 3761SOL    HW222743   2.632   2.921   9.211 -0.0439  0.1715 -0.4764
 3762SOL     OW22744   4.624   2.466   8.646 -0.3963 -0.4227  0.4161
 3762SOL    HW122745   4.597   2.384   8.604 -0.3297  0.8960 -2.1935
 3762SOL    HW222746   4.667   2.433   8.725 -1.5231  0.3098  1.3179
 3763SOL     OW22747   0.078   2.285   9.220 -0.5670  0.5170 -0.2101
 3763SOL    HW122748   0.052   2.351   9.285  0.4458  1.0905 -0.3742
 3763SOL    HW222749   0.010   2.289   9.154 -0.8685  2.0426  0.1715
 3764SOL     OW22750   4.628   0.407   8.572  0.1280  0.3624 -0.1953
 3764SOL    HW122751   4.714   0.366   8.571 -0.8712 -1.7517 -0.8363
 3764SOL    HW222752   4.653   0.495   8.600 -0.5329  0.3930  0.3039
 3765SOL     OW22753   1.749   1.215   5.988 -0.3482 -0.4937  0.4712
 3765SOL    HW122754   1.671   1.253   6.029  1.9469  1.9471  2.6084
 3765SOL    HW222755   1.782   1.160   6.059  0.8713 -0.7137 -0.2853
 3766SOL     OW22756   1.718   0.207   5.417  0.3933  0.4599 -0.3258
 3766SOL    HW122757   1.772   0.196   5.338  0.7789 -0.7070  0.1053
 3766SOL    HW222758   1.719   0.117   5.447  0.1089  0.6966  0.3984
 3767SOL     OW22759   3.696   0.320   2.397  0.0216  0.4452 -0.6768
 3767SOL    HW122760   3.746   0.240   2.384  1.1768  1.2964 -1.5718
 3767SOL    HW222761   3.607   0.288   2.383 -0.3023 -0.2954  2.9537
 3768SOL     OW22762   1.454   1.253   1.962  0.0771  0.5601  0.2215
 3768SOL    HW122763   1.422   1.165   1.945  3.8205 -0.3147 -2.1373
 3768SOL    HW222764   1.519   1.234   2.030 -1.3254  0.0202  1.4216
 3769SOL     OW22765   0.815   2.307   2.217 -0.1485 -0.4762  0.2465
 3769SOL    HW122766   0.811   2.401   2.204 -0.7299 -0.5666 -0.2047
 3769SOL    HW222767   0.908   2.286   2.222 -0.5085 -1.6992  2.0216
 3770SOL     OW22768   3.547   2.489   3.039 -0.0683  0.0695  0.1471
 3770SOL    HW122769   3.537   2.428   3.112 -1.1474 -0.8084 -0.7265
 3770SOL    HW222770   3.477   2.456   2.983 -1.1518  0.6468  1.1840
 3771SOL     OW22771   0.300   3.511  13.859 -0.6169  0.1114  0.3808
 3771SOL    HW122772   0.291   3.436  13.800 -1.4545 -0.2763  0.9800
 3771SOL    HW222773   0.219   3.509  13.911 -1.1315  1.4687 -0.3761
 3772SOL     OW22774   2.166   2.953   2.359  0.2252 -0.2172 -0.2212
 3772SOL    HW122775   2.123   2.979   2.278 -0.1145 -0.1519 -0.0211
 3772SOL    HW222776   2.197   3.037   2.392 -1.2171 -0.0336  0.6932
 3773SOL     OW22777   1.321   1.063  14.096 -0.4844  0.0179  0.6854
 3773SOL    HW122778   1.250   1.091  14.038  0.4963 -1.3090 -1.1517
 3773SOL    HW222779   1.286   1.086  14.182 -1.3123  0.6578  0.1744
 3774SOL     OW22780   0.770   1.809   3.458  0.0567 -0.1485 -0.7145
 3774SOL    HW122781   0.682   1.781   3.480  0.5172 -0.5925  0.5865
 3774SOL    HW222782   0.798   1.749   3.389 -0.3043  0.3007 -1.2534
 3775SOL     OW22783   0.742   4.699   3.188 -0.3780 -0.6557 -0.0342
 3775SOL    HW122784   0.770   4.617   3.148 -1.7236 -1.4504  0.6343
 3775SOL    HW222785   0.788   4.701   3.272  1.2028  1.2327 -0.9673
 3776SOL     OW22786   0.142   0.870   9.835 -0.2087  0.7546 -0.2986
 3776SOL    HW122787   0.088   0.911   9.767 -0.9850  1.1174  0.5383
 3776SOL    HW222788   0.192   0.943   9.869  1.4549  0.8052 -2.8461
 3777SOL     OW22789   3.765   0.894   4.216  0.2857 -0.1118  0.6506
 3777SOL    HW122790   3.830   0.824   4.229  0.3614  0.2456  2.1443
 3777SOL    HW222791   3.719   0.866   4.137  1.9897 -3.1795  0.7215
 3778SOL     OW22792   1.748   1.226   8.260 -0.2123  0.2283 -0.3448
 3778SOL    HW122793   1.791   1.244   8.343 -0.7815  0.4735 -0.1070
 3778SOL    HW222794   1.692   1.303   8.248 -0.5389  0.1245  0.5297
 3779SOL     OW22795   2.037   0.567  16.842 -0.2325 -0.0283 -0.3009
 3779SOL    HW122796   2.060   0.572  16.935 -0.3482  2.0546 -0.3755
 3779SOL    HW222797   1.961   0.623  16.830 -0.2706 -0.3997 -1.7260
 3780SOL     OW22798   0.804   1.446   6.554  0.4670 -0.1675  0.1824
 3780SOL    HW122799   0.861   1.502   6.502 -0.1259  2.1282  2.0629
 3780SOL    HW222800   0.730   1.432   6.494  0.2761 -2.9682  1.0643
 3781SOL     OW22801   3.607   4.608   6.629 -0.1135  0.0167 -0.1391
 3781SOL    HW122802   3.649   4.668   6.567 -0.0343 -1.1149 -1.2018
 3781SOL    HW222803   3.518   4.603   6.595  0.5847 -1.3567 -1.7841
 3782SOL     OW22804   2.754   0.265   4.129 -0.0472 -0.2879  0.4517
 3782SOL    HW122805   2.707   0.344   4.154 -1.1218 -0.3692 -1.2753
 3782SOL    HW222806   2.735   0.207   4.202  0.3541 -2.5008 -1.1875
 3783SOL     OW22807   2.650   2.456   4.498  0.3890 -0.1937 -0.1259
 3783SOL    HW122808   2.594   2.380   4.479  1.5757 -1.0560 -0.2087
 3783SOL    HW222809   2.685   2.478   4.412 -0.5833  2.2612  0.1190
 3784SOL     OW22810   3.659   1.057  17.163 -0.1759  0.1466 -0.4345
 3784SOL    HW122811   3.615   0.980  17.127 -1.0959  0.3282  0.2827
 3784SOL    HW222812   3.748   1.031  17.141 -0.2363  0.4075 -0.9832
 3785SOL     OW22813   4.554   2.729   6.582 -0.4261  0.3735  0.1109
 3785SOL    HW122814   4.618   2.739   6.511 -2.5934  2.2174 -1.6167
 3785SOL    HW222815   4.514   2.642   6.578 -1.3917  0.8122  0.1315
 3786SOL     OW22816   1.376   3.746   0.622 -0.0600  0.2200 -0.5403
 3786SOL    HW122817   1.424   3.667   0.646  1.1026  1.4295  1.1473
 3786SOL    HW222818   1.442   3.802   0.582  0.7450 -2.2703 -2.6862
 3787SOL     OW22819   4.365   3.114   9.689 -0.0537  0.2159  0.3238
 3787SOL    HW122820   4.321   3.198   9.700 -0.2495  0.0555  0.7765
 3787SOL    HW222821   4.348   3.062   9.767  1.0783  1.1626  1.1968
 3788SOL     OW22822   1.354   3.590   2.961 -0.3504 -0.6870  0.3710
 3788SOL    HW122823   1.375   3.585   2.868  0.8346  1.8648  0.4959
 3788SOL    HW222824   1.329   3.683   2.967  0.7121 -0.3570 -0.3155
 3789SOL     OW22825   3.490   1.643  17.573 -0.6764 -0.9342 -0.5925
 3789SOL    HW122826   3.545   1.720  17.586 -0.4237 -1.1374 -0.4465
 3789SOL    HW222827   3.515   1.585  17.645 -0.3777 -3.0741 -2.4370
 3790SOL     OW22828   0.718   4.621  10.652  0.0639 -0.2938 -0.3965
 3790SOL    HW122829   0.643   4.601  10.708  1.8003 -0.9225  1.7297
 3790SOL    HW222830   0.773   4.679  10.704 -0.7768  2.1142 -2.1825
 3791SOL     OW22831   2.445   4.605   7.097 -0.1243  0.4395  0.7286
 3791SOL    HW122832   2.358   4.624   7.132 -0.9073 -0.7335 -0.5568
 3791SOL    HW222833   2.421   4.525   7.050 -0.4327  1.4817 -0.8727
 3792SOL     OW22834   3.101   3.507  13.401  0.7889 -0.4391 -0.4811
 3792SOL    HW122835   3.034   3.546  13.345  1.4909 -0.2898 -1.2183
 3792SOL    HW222836   3.051   3.477  13.477  0.7098 -1.6594 -1.0115
 3793SOL     OW22837   4.185   0.844   0.369  0.3323 -0.0572  0.2355
 3793SOL    HW122838   4.196   0.857   0.463  0.4114  0.8916  0.0888
 3793SOL    HW222839   4.228   0.759   0.356  0.4901  0.0830 -0.1518
 3794SOL     OW22840   3.610   3.611   4.525  0.0114  0.4606  0.3787
 3794SOL    HW122841   3.673   3.583   4.592 -0.9581  1.3155  1.6269
 3794SOL    HW222842   3.665   3.633   4.449  1.0593 -1.0033  0.6921
 3795SOL     OW22843   1.081   1.664  16.970  0.1176 -0.7420 -0.3585
 3795SOL    HW122844   1.050   1.635  17.056 -1.3269  1.4584 -0.1267
 3795SOL    HW222845   1.003   1.665  16.914 -2.0566  0.1035  2.6687
 3796SOL     OW22846   4.531   2.293   9.844  0.3207  0.3492 -0.7602
 3796SOL    HW122847   4.569   2.225   9.899  1.2708  1.4711 -0.0458
 3796SOL    HW222848   4.595   2.310   9.775  1.9276 -0.4809  0.5228
 3797SOL     OW22849   3.615   4.161   7.686 -0.4380  0.0114  0.2118
 3797SOL    HW122850   3.583   4.163   7.776 -1.2645 -1.5733 -0.0467
 3797SOL    HW222851   3.665   4.243   7.686  1.0664 -0.8892 -3.2409
 3798SOL     OW22852   3.900   0.732   8.360  0.8130  0.4125  0.1503
 3798SOL    HW122853   3.980   0.783   8.346  1.0969  0.1354  0.7252
 3798SOL    HW222854   3.838   0.805   8.367  1.6577  1.1832 -0.5424
 3799SOL     OW22855   3.550   1.258   4.551  0.4201  0.1150  0.4007
 3799SOL    HW122856   3.459   1.236   4.530  0.5279  2.1227 -2.1393
 3799SOL    HW222857   3.597   1.226   4.474 -2.1686  1.8883 -1.9533
 3800SOL     OW22858   3.998   0.111   1.596  0.0262  0.4466 -0.4882
 3800SOL    HW122859   3.985   0.054   1.520  1.2452  0.2945 -0.5792
 3800SOL    HW222860   4.056   0.056   1.648  0.3642  0.0052 -1.3379
 3801SOL     OW22861   3.126   1.889  15.739  0.6306 -0.1348  0.1479
 3801SOL    HW122862   3.171   1.917  15.819  3.1258  1.1815 -1.6889
 3801SOL    HW222863   3.182   1.817  15.710  0.4105 -1.0356  1.9473
 3802SOL     OW22864   0.065   1.167  16.315 -0.9673  0.3446 -0.4488
 3802SOL    HW122865   0.129   1.234  16.288 -0.3119 -1.0018 -2.2318
 3802SOL    HW222866   0.022   1.145  16.233 -1.7363  0.6325 -0.1196
 3803SOL     OW22867   2.429   0.831   9.397  0.1424  0.7243 -0.1903
 3803SOL    HW122868   2.437   0.736   9.383 -2.5167  0.6401 -1.2391
 3803SOL    HW222869   2.486   0.840   9.473 -1.3049  1.1442  0.8586
 3804SOL     OW22870   4.561   2.843  17.076 -0.0803 -0.7700  0.3721
 3804SOL    HW122871   4.527   2.897  17.004 -0.0974  0.4707  1.3098
 3804SOL    HW222872   4.653   2.826  17.058  0.5170  1.3992  1.4823
 3805SOL     OW22873   1.521   0.304  13.607 -0.5558  0.1885 -0.0811
 3805SOL    HW122874   1.554   0.215  13.612  0.0633  0.5013  1.4270
 3805SOL    HW222875   1.531   0.335  13.697 -1.5470  1.0422 -0.2615
 3806SOL     OW22876   3.719   1.984   4.410 -0.0516  0.3270  0.3153
 3806SOL    HW122877   3.684   1.918   4.350 -2.0704  0.0420  1.8202
 3806SOL    HW222878   3.793   2.004   4.352 -0.5300  1.6804  0.1695
 3807SOL     OW22879   1.892   2.092  12.030  0.5420  0.3821 -0.0641
 3807SOL    HW122880   1.933   2.026  11.975 -1.0024 -0.1577 -0.5668
 3807SOL    HW222881   1.941   2.093  12.112 -0.4322 -0.3786  0.5343
 3808SOL     OW22882   0.538   3.824   2.161 -0.0749 -0.4647 -0.3211
 3808SOL    HW122883   0.456   3.805   2.116  0.9389  1.0885 -2.8433
 3808SOL    HW222884   0.545   3.755   2.227 -0.3201 -1.3023 -1.1621
 3809SOL     OW22885   1.239   2.244   4.138 -0.7331  0.2099  0.3468
 3809SOL    HW122886   1.162   2.198   4.169  0.8581 -2.5542  0.1712
 3809SOL    HW222887   1.281   2.263   4.222 -0.6588 -1.3497  0.6517
 3810SOL     OW22888   3.886   1.799  16.831  0.5810 -0.6914  0.3327
 3810SOL    HW122889   3.958   1.736  16.833 -0.0862 -1.3764  2.4080
 3810SOL    HW222890   3.894   1.827  16.922 -1.1835 -0.4227  0.3975
 3811SOL     OW22891   4.309   1.024   3.476  0.0116  0.1536  0.5704
 3811SOL    HW122892   4.379   1.088   3.490  0.1591  0.1449 -0.1689
 3811SOL    HW222893   4.272   1.058   3.395 -0.5250 -2.9716 -0.5002
 3812SOL     OW22894   2.613   1.499  15.977  0.2742  0.6957  0.6849
 3812SOL    HW122895   2.653   1.514  15.891 -0.1819  1.3923  0.5924
 3812SOL    HW222896   2.585   1.588  15.998  0.2243  0.4889  1.4896
 3813SOL     OW22897   4.358   2.464  10.565  0.4662  0.3878 -0.2037
 3813SOL    HW122898   4.336   2.469  10.472  2.4431  2.3896 -0.5712
 3813SOL    HW222899   4.399   2.549  10.585  0.3458  0.2080  0.8173
 3814SOL     OW22900   0.233   2.234  15.776 -0.2085 -0.6020  0.8213
 3814SOL    HW122901   0.283   2.314  15.790 -0.0026 -0.4951 -0.5620
 3814SOL    HW222902   0.145   2.271  15.767  0.2000 -0.0962 -1.1499
 3815SOL     OW22903   2.458   2.645   9.163  0.4024 -0.5414 -0.3991
 3815SOL    HW122904   2.387   2.584   9.185  0.6136 -1.1546 -1.4265
 3815SOL    HW222905   2.530   2.584   9.176  0.1865 -0.6626  0.2709
 3816SOL     OW22906   0.232   3.894   5.524 -0.3149  0.0888 -0.7645
 3816SOL    HW122907   0.231   3.892   5.620 -0.1734 -1.6271 -0.7826
 3816SOL    HW222908   0.186   3.976   5.510 -0.3585 -0.0185 -1.2470
 3817SOL     OW22909   3.475   1.136   7.832  0.2528  0.4984  0.2118
 3817SOL    HW122910   3.523   1.101   7.757 -0.1856 -0.9766  0.6314
 3817SOL    HW222911   3.513   1.085   7.903  1.4991  1.0275 -0.0655
 3818SOL     OW22912   1.755   1.118   6.282 -0.1349 -0.0601  0.0967
 3818SOL    HW122913   1.812   1.045   6.259 -0.2865 -0.6037  1.4113
 3818SOL    HW222914   1.685   1.057   6.305 -0.8752  0.9509  0.5517
 3819SOL     OW22915   3.054   2.863  10.058  0.0351  0.2995  0.3235
 3819SOL    HW122916   3.137   2.880  10.013  0.6336 -1.5182  0.7349
 3819SOL    HW222917   3.046   2.772  10.027  0.6221  0.9872 -1.8750
 3820SOL     OW22918   2.492   2.559   6.461  0.1804 -0.9902  0.4252
 3820SOL    HW122919   2.520   2.485   6.407 -1.2151  0.3358 -2.1060
 3820SOL    HW222920   2.544   2.631   6.425 -1.4930 -0.1114 -0.1974
 3821SOL     OW22921   0.545   3.848  15.359 -0.2310  0.2568 -0.1199
 3821SOL    HW122922   0.485   3.903  15.410  1.9822 -1.1452  4.0259
 3821SOL    HW222923   0.604   3.917  15.327  0.4153 -1.2787 -2.2045
 3822SOL     OW22924   1.670   1.619  17.286 -0.2043 -0.2895  0.3173
 3822SOL    HW122925   1.700   1.700  17.327  0.2900  0.5431 -1.6874
 3822SOL    HW222926   1.697   1.640  17.196  0.9894 -1.7672  0.3552
 3823SOL     OW22927   4.128   3.157  16.070  0.0946 -0.3995 -0.5097
 3823SOL    HW122928   4.095   3.119  16.151 -0.4979 -0.6701 -0.8777
 3823SOL    HW222929   4.071   3.233  16.055  1.0826  0.6973  1.3400
 3824SOL     OW22930   3.121   2.603  13.663  0.4206  0.4087 -0.2758
 3824SOL    HW122931   3.152   2.624  13.752  2.2318  0.2841 -0.8896
 3824SOL    HW222932   3.055   2.537  13.683  1.6957 -0.6934  0.3285
 3825SOL     OW22933   4.418   0.889   6.476 -0.8151 -0.1392  0.6156
 3825SOL    HW122934   4.490   0.834   6.444 -0.4437  0.5373  0.2863
 3825SOL    HW222935   4.430   0.894   6.570  3.0743  0.0541  0.1031
 3826SOL     OW22936   1.382   0.196  10.080 -0.3072 -0.1970 -0.6691
 3826SOL    HW122937   1.344   0.124  10.029 -3.0826  0.7997 -0.0374
 3826SOL    HW222938   1.378   0.159  10.168  0.2344  0.6875 -0.2634
 3827SOL     OW22939   1.760   2.884   2.823  0.0495  0.5610  0.4238
 3827SOL    HW122940   1.784   2.946   2.754 -3.7092  0.8125 -0.6392
 3827SOL    HW222941   1.757   2.947   2.895 -0.1145  1.7069 -0.5853
 3828SOL     OW22942   0.316   3.866   8.949  0.5017  0.0761 -0.1570
 3828SOL    HW122943   0.334   3.961   8.951  1.2978 -0.1179  1.9283
 3828SOL    HW222944   0.329   3.856   8.855 -1.0666 -3.3237  0.0249
 3829SOL     OW22945   0.233   3.538   2.925  0.3898  0.1093 -0.0942
 3829SOL    HW122946   0.189   3.453   2.915  0.0809  0.0916  1.3314
 3829SOL    HW222947   0.283   3.516   3.004  1.2389  0.0521 -0.6555
 3830SOL     OW22948   4.712   1.170  12.708 -0.3380  0.5677  0.1923
 3830SOL    HW122949   0.001   1.255  12.749  0.0264  1.1860 -1.1881
 3830SOL    HW222950   4.696   1.118  12.787 -2.7721 -0.1959 -0.8011
 3831SOL     OW22951   1.036   1.444   2.711  0.0069  0.3303 -0.0741
 3831SOL    HW122952   1.013   1.359   2.674 -0.2554  0.5337 -0.3793
 3831SOL    HW222953   1.129   1.456   2.693 -0.5150 -1.1021 -3.6628
 3832SOL     OW22954   3.666   3.014   5.103  0.1247  0.0186 -0.0363
 3832SOL    HW122955   3.600   3.063   5.054  0.8703 -0.0817 -1.1495
 3832SOL    HW222956   3.743   3.052   5.060  0.4670 -0.6428 -0.0145
 3833SOL     OW22957   1.868   1.444   5.805  0.3443 -0.3513  1.1999
 3833SOL    HW122958   1.930   1.404   5.744 -0.6219  0.1415 -0.0921
 3833SOL    HW222959   1.848   1.377   5.871  2.9792 -0.6946  1.6629
 3834SOL     OW22960   1.001   0.215   3.552  0.3005 -0.2613  0.5066
 3834SOL    HW122961   1.018   0.234   3.460  0.8096 -0.2181  0.6120
 3834SOL    HW222962   0.944   0.287   3.581  0.4965  1.3886 -3.1752
 3835SOL     OW22963   3.933   1.348  15.217 -0.3620 -0.2893  0.0131
 3835SOL    HW122964   3.885   1.306  15.288 -0.1309 -1.9173 -0.7948
 3835SOL    HW222965   3.860   1.395  15.176  0.0426 -1.6242 -2.2383
 3836SOL     OW22966   1.177   1.397   4.862  0.2431  0.2034 -0.8081
 3836SOL    HW122967   1.127   1.325   4.901  0.1777  0.5751 -0.2119
 3836SOL    HW222968   1.267   1.371   4.881  0.7325  0.5454 -2.6787
 3837SOL     OW22969   1.074   3.733   7.944  0.2101  0.4652 -0.0525
 3837SOL    HW122970   0.994   3.766   7.985  0.0878 -0.8164  0.7448
 3837SOL    HW222971   1.132   3.770   8.012 -1.6282  0.8800  1.2943
 3838SOL     OW22972   2.722   1.166   5.375  0.2829  0.3945 -0.0281
 3838SOL    HW122973   2.751   1.168   5.467  0.0589 -0.5483  0.0546
 3838SOL    HW222974   2.721   1.072   5.361 -2.1369  0.0708  2.3996
 3839SOL     OW22975   4.295   1.425  12.273 -0.1680  0.2114 -0.5801
 3839SOL    HW122976   4.348   1.485  12.220 -0.2500  1.9534  1.2766
 3839SOL    HW222977   4.208   1.465  12.277 -1.4112 -2.7666  2.2589
 3840SOL     OW22978   0.254   3.012   9.400  0.0175  0.2716  0.2364
 3840SOL    HW122979   0.193   3.022   9.473  0.9165 -0.3821  1.0673
 3840SOL    HW222980   0.291   2.932   9.436  0.1500 -0.2164 -1.0026
 3841SOL     OW22981   0.117   3.158  14.914 -0.0413  0.2037 -0.2762
 3841SOL    HW122982   0.067   3.118  14.843  0.6633  1.0053 -1.2240
 3841SOL    HW222983   0.207   3.153  14.883  0.2421  1.6896  0.3218
 3842SOL     OW22984   4.045   0.976   3.495  0.0308  0.1271  0.0913
 3842SOL    HW122985   4.036   0.881   3.506 -1.0695 -0.0207 -2.0939
 3842SOL    HW222986   4.141   0.973   3.497 -0.0184  0.2225  2.6099
 3843SOL     OW22987   3.365   2.607   5.619 -0.2313 -0.7813  0.5549
 3843SOL    HW122988   3.273   2.630   5.606  0.2488 -0.0177 -1.5519
 3843SOL    HW222989   3.410   2.689   5.640 -1.4584 -0.0957  0.4840
 3844SOL     OW22990   1.207   0.411  10.708 -0.1337  0.3786 -0.0764
 3844SOL    HW122991   1.133   0.469  10.726  1.1836  1.7415  1.0674
 3844SOL    HW222992   1.191   0.326  10.748  1.7390 -0.7925 -1.8761
 3845SOL     OW22993   2.920   2.054   1.232  0.2303 -0.2659 -1.6775
 3845SOL    HW122994   2.894   1.962   1.235 -0.9257  0.0866 -0.2034
 3845SOL    HW222995   2.845   2.090   1.281  0.7224 -1.9352  0.3242
 3846SOL     OW22996   1.227   2.477  11.821 -0.0120 -0.3263 -0.0550
 3846SOL    HW122997   1.291   2.513  11.882 -0.9282  0.5583  0.3981
 3846SOL    HW222998   1.244   2.384  11.810  1.5880  0.0857 -1.0790
 3847SOL     OW22999   1.429   2.263   3.334 -0.0828 -0.0158  0.0223
 3847SOL    HW123000   1.432   2.257   3.238 -0.3710  2.9732 -0.1795
 3847SOL    HW223001   1.392   2.179   3.362 -0.4992  0.0582 -0.3077
 3848SOL     OW23002   3.088   3.123  10.444 -0.2059  0.3821 -0.2470
 3848SOL    HW123003   3.058   3.136  10.354 -0.0203  0.4907 -0.2930
 3848SOL    HW223004   3.101   3.028  10.449  0.4451  0.5114  0.6741
 3849SOL     OW23005   0.945   1.879   7.731  0.4293  0.1769  0.3234
 3849SOL    HW123006   1.025   1.922   7.702 -0.1044  0.8421 -0.1427
 3849SOL    HW223007   0.935   1.915   7.819  1.1052 -0.1663  0.5416
 3850SOL     OW23008   2.215   4.446   3.327  0.6332 -0.1382 -0.4574
 3850SOL    HW123009   2.128   4.454   3.367 -0.5720 -0.3702 -3.0438
 3850SOL    HW223010   2.186   4.367   3.281 -1.9758  0.2454  0.5477
 3851SOL     OW23011   1.906   0.172   7.766 -0.2397 -0.3654  0.0610
 3851SOL    HW123012   1.910   0.164   7.861  0.2208  0.8793  0.1523
 3851SOL    HW223013   1.812   0.160   7.750 -0.4186  0.4192  0.5115
 3852SOL     OW23014   2.087   4.659   1.655 -0.0139 -0.0498 -0.2646
 3852SOL    HW123015   2.004   4.640   1.612 -0.9359  1.9787  0.5915
 3852SOL    HW223016   2.080   0.027   1.637 -1.8393 -0.2338 -0.5319
 3853SOL     OW23017   4.396   2.814   9.106  0.3004  0.0912 -0.4630
 3853SOL    HW123018   4.478   2.860   9.091  0.3691 -0.0938 -0.6680
 3853SOL    HW223019   4.423   2.725   9.082  1.1406  0.3240 -0.3555
 3854SOL     OW23020   3.129   4.551   2.701 -0.0087 -0.1021 -0.3941
 3854SOL    HW123021   3.212   4.539   2.656  0.5212  0.4569  0.4306
 3854SOL    HW223022   3.089   4.606   2.632 -0.1721 -0.5053 -0.6214
 3855SOL     OW23023   3.534   2.898   4.546 -0.0660 -0.3011  0.5885
 3855SOL    HW123024   3.605   2.958   4.571 -0.3161  0.4890 -0.5624
 3855SOL    HW223025   3.465   2.965   4.546 -0.1862 -0.4311  1.1564
 3856SOL     OW23026   2.917   0.418   3.273  0.2078  0.1103 -0.3612
 3856SOL    HW123027   2.909   0.424   3.177 -0.3118 -1.4265 -0.4190
 3856SOL    HW223028   2.871   0.335   3.287  0.4026 -0.1755 -1.3816
 3857SOL     OW23029   1.155   0.058  16.867  0.7775  0.2959  0.2605
 3857SOL    HW123030   1.218   0.110  16.818 -0.1006  0.0026 -1.1946
 3857SOL    HW223031   1.203   0.053  16.950 -0.7016 -0.1852  1.0919
 3858SOL     OW23032   3.532   0.938  12.947  0.5049  0.2568 -0.1777
 3858SOL    HW123033   3.528   1.033  12.961  0.7237 -0.0723  2.1279
 3858SOL    HW223034   3.467   0.910  13.011  1.4390 -0.5389  0.4193
 3859SOL     OW23035   4.442   0.114   3.416  0.6309 -0.2283  0.3055
 3859SOL    HW123036   4.420   0.043   3.356  1.5534 -0.7560  0.6052
 3859SOL    HW223037   4.417   0.085   3.504  0.7609  0.3739  0.5475
 3860SOL     OW23038   2.153   2.248   3.192 -0.0252  0.6791 -0.6647
 3860SOL    HW123039   2.144   2.338   3.224  0.2209  0.7771 -0.8748
 3860SOL    HW223040   2.239   2.254   3.151  0.4382 -1.7033 -0.0262
 3861SOL     OW23041   4.280   2.791  14.371  0.0227  0.0892  0.2958
 3861SOL    HW123042   4.323   2.710  14.400 -2.3797 -1.5054 -0.5447
 3861SOL    HW223043   4.188   2.768  14.359  0.2801 -1.2433  0.8484
 3862SOL     OW23044   3.638   3.383   4.328  0.2387 -0.9852 -0.2361
 3862SOL    HW123045   3.549   3.349   4.317  0.2547 -0.9303 -0.5449
 3862SOL    HW223046   3.638   3.474   4.298  2.0694 -1.1202 -0.6590
 3863SOL     OW23047   3.107   4.692  13.273  0.0221 -0.8700 -0.0067
 3863SOL    HW123048   3.139   0.048  13.310  1.9886 -1.1597 -1.0681
 3863SOL    HW223049   3.033   4.659  13.325 -0.5205  0.0381 -0.2085
 3864SOL     OW23050   0.382   3.921   5.270 -0.3740 -0.4179  0.5937
 3864SOL    HW123051   0.440   3.993   5.293 -0.0661 -0.7189  0.7580
 3864SOL    HW223052   0.347   3.911   5.358  1.4755 -0.9273  1.2658
 3865SOL     OW23053   2.621   4.283   2.152  0.2108  0.0165 -0.0186
 3865SOL    HW123054   2.564   4.270   2.076  1.2285  0.3551 -0.8467
 3865SOL    HW223055   2.582   4.367   2.179 -0.3921 -0.2395 -0.0799
 3866SOL     OW23056   2.103   3.094   0.350 -0.7028  0.4132  0.6655
 3866SOL    HW123057   2.194   3.111   0.374 -0.5554  0.5401  0.0043
 3866SOL    HW223058   2.061   3.105   0.436 -3.3920  0.9355 -0.7176
 3867SOL     OW23059   3.050   0.200   7.757 -0.1897  0.8626 -0.2132
 3867SOL    HW123060   3.029   0.137   7.827  2.7612 -0.4608 -0.5220
 3867SOL    HW223061   3.058   0.143   7.681  2.4129 -0.9063  1.3985
 3868SOL     OW23062   2.388   1.160   2.769 -0.4877 -0.5118  0.6258
 3868SOL    HW123063   2.311   1.115   2.803 -1.6517 -0.6858 -2.2178
 3868SOL    HW223064   2.424   1.194   2.851 -1.7772 -1.0767  1.4284
 3869SOL     OW23065   4.178   0.157   0.924  0.0674  0.7564  0.6791
 3869SOL    HW123066   4.213   0.076   0.888 -3.2440 -0.7970  0.9560
 3869SOL    HW223067   4.257   0.210   0.933  1.1829 -0.5726 -1.1572
 3870SOL     OW23068   0.822   2.233   7.580 -0.2504  0.0183 -0.5550
 3870SOL    HW123069   0.806   2.315   7.533 -0.8144  0.5585  0.5690
 3870SOL    HW223070   0.906   2.208   7.541  0.0112  0.0469 -0.0119
 3871SOL     OW23071   3.901   3.944   6.213 -0.2882 -0.1965  0.0257
 3871SOL    HW123072   3.971   3.994   6.170  0.5478 -0.6166  0.8993
 3871SOL    HW223073   3.952   3.933   6.293  0.0126  0.1244 -0.1185
 3872SOL     OW23074   1.582   4.500  17.409  0.7971 -0.0059  0.1171
 3872SOL    HW123075   1.491   4.481  17.432  0.5878  0.3680 -0.4012
 3872SOL    HW223076   1.583   4.479  17.316 -0.9855  1.5264 -0.2515
 3873SOL     OW23077   3.524   4.182  13.907 -0.5654 -0.2873  0.5948
 3873SOL    HW123078   3.446   4.237  13.915 -1.4953 -1.5993  0.5427
 3873SOL    HW223079   3.567   4.210  13.988 -2.4585  1.5546  0.9700
 3874SOL     OW23080   3.759   1.680   3.047 -0.0976 -0.3201  0.3490
 3874SOL    HW123081   3.848   1.662   3.079  0.2813  2.0758  0.6346
 3874SOL    HW223082   3.745   1.768   3.082  2.0702  0.9077 -1.7924
 3875SOL     OW23083   1.658   2.761   7.668 -0.5740  0.4592  0.0183
 3875SOL    HW123084   1.579   2.712   7.645  1.1836 -0.7217 -3.5418
 3875SOL    HW223085   1.716   2.695   7.705 -1.6119 -0.7416 -0.5003
 3876SOL     OW23086   2.340   1.267   5.179 -0.1450 -0.3086 -0.1630
 3876SOL    HW123087   2.321   1.211   5.254  0.0638  0.5247  0.5100
 3876SOL    HW223088   2.342   1.356   5.216  0.5472 -0.2508 -0.3350
 3877SOL     OW23089   1.598   1.882   3.402  0.4025  0.0564 -0.4572
 3877SOL    HW123090   1.641   1.956   3.358 -0.0219  1.7380  1.9844
 3877SOL    HW223091   1.571   1.835   3.323 -1.3125 -1.1725  0.8754
 3878SOL     OW23092   0.375   4.029   7.775 -0.3473 -0.3021  0.2927
 3878SOL    HW123093   0.293   4.070   7.747 -1.3943 -1.4725  1.6198
 3878SOL    HW223094   0.443   4.089   7.746 -2.2570  0.4653 -2.6240
 3879SOL     OW23095   2.840   1.924   9.195 -0.4894 -0.2166 -0.4246
 3879SOL    HW123096   2.888   1.993   9.149  0.2250 -1.2160 -1.1787
 3879SOL    HW223097   2.905   1.854   9.201  1.0037  1.0991 -0.9241
 3880SOL     OW23098   0.412   1.091   9.601 -0.1006 -0.1084 -0.0224
 3880SOL    HW123099   0.416   1.156   9.672  2.2654 -1.4946  1.1198
 3880SOL    HW223100   0.325   1.051   9.612 -0.1907 -0.8605 -3.6119
 3881SOL     OW23101   4.532   2.312  17.604  0.1114  0.2335 -0.0450
 3881SOL    HW123102   4.453   2.285  17.650  0.4715 -0.6849  0.0393
 3881SOL    HW223103   4.593   2.251  17.646 -0.7354 -0.3922  0.2664
 3882SOL     OW23104   2.108   4.094   4.922 -0.1294  0.2097  0.2453
 3882SOL    HW123105   2.147   4.089   4.835  0.7827  0.4473  0.6383
 3882SOL    HW223106   2.185   4.136   4.962  0.5372 -0.7184 -0.0713
 3883SOL     OW23107   4.612   3.550  11.201  0.4009  0.2515  0.4826
 3883SOL    HW123108   4.685   3.542  11.262 -0.8782 -1.9045  1.7265
 3883SOL    HW223109   4.607   3.644  11.184 -0.1975  0.1267 -0.0312
 3884SOL     OW23110   0.184   3.403   6.297  0.1241  0.5221  0.8769
 3884SOL    HW123111   0.139   3.398   6.212 -0.0289  2.7556  0.8288
 3884SOL    HW223112   0.273   3.396   6.263 -1.2807 -1.9561 -2.2940
 3885SOL     OW23113   1.519   2.813   3.136 -0.1300  0.0572  0.1257
 3885SOL    HW123114   1.438   2.816   3.188  0.4445 -0.4186  1.0371
 3885SOL    HW223115   1.569   2.742   3.177 -2.1132 -3.1302 -3.0178
 3886SOL     OW23116   0.959   3.331   8.642 -0.3039  0.0548  0.7088
 3886SOL    HW123117   1.005   3.384   8.708  0.9564  0.0057 -0.1404
 3886SOL    HW223118   0.984   3.243   8.670  1.2598  0.8531  1.8011
 3887SOL     OW23119   0.902   0.418   2.160 -0.4892 -0.5110  0.4201
 3887SOL    HW123120   0.948   0.353   2.108 -1.2591 -0.8186  0.1165
 3887SOL    HW223121   0.930   0.506   2.134  1.5236 -0.7034  1.9485
 3888SOL     OW23122   3.089   2.915   8.472  0.0992 -0.0384 -0.3407
 3888SOL    HW123123   3.054   2.832   8.504 -1.1580  1.0634  1.1710
 3888SOL    HW223124   3.161   2.914   8.535  0.2547  0.7803 -0.5043
 3889SOL     OW23125   0.392   0.593   3.894 -0.2468 -0.5517  0.0347
 3889SOL    HW123126   0.378   0.671   3.947 -3.2330 -1.0243 -0.0895
 3889SOL    HW223127   0.469   0.631   3.850 -0.3388  2.0162  2.0487
 3890SOL     OW23128   0.232   1.787  11.638 -0.3669  0.3388 -0.0603
 3890SOL    HW123129   0.224   1.881  11.647  0.6165  0.3886  0.3684
 3890SOL    HW223130   0.325   1.787  11.661  0.4191  0.9716 -3.3599
 3891SOL     OW23131   0.244   1.705   1.578  0.0599  0.1272 -0.4510
 3891SOL    HW123132   0.190   1.773   1.618  0.2507  1.2688 -2.1222
 3891SOL    HW223133   0.311   1.711   1.646  0.7324  0.9639 -1.1821
 3892SOL     OW23134   3.985   2.308   5.030 -0.3559  0.3163 -0.0587
 3892SOL    HW123135   3.942   2.361   5.096 -1.0559 -0.2080 -0.0902
 3892SOL    HW223136   4.061   2.264   5.068  0.2458 -0.1244 -1.7744
 3893SOL     OW23137   4.465   2.124   2.313 -0.1476 -0.2137 -0.4556
 3893SOL    HW123138   4.493   2.135   2.222  0.6488 -2.9662 -0.5526
 3893SOL    HW223139   4.517   2.047   2.337  0.5353  0.3539 -0.1304
 3894SOL     OW23140   0.749   1.316  10.365 -0.0200 -0.0462  0.2587
 3894SOL    HW123141   0.808   1.256  10.411 -0.0010  0.3899  0.8042
 3894SOL    HW223142   0.731   1.388  10.426 -1.0954  0.2647 -0.4432
 3895SOL     OW23143   3.819   3.246   2.377 -0.5367 -0.1337  0.1396
 3895SOL    HW123144   3.805   3.230   2.470 -0.0807  1.0251  0.4116
 3895SOL    HW223145   3.867   3.329   2.371 -1.6721  0.5696  0.9492
 3896SOL     OW23146   2.862   1.437   3.904  0.0713 -0.0209 -0.4300
 3896SOL    HW123147   2.894   1.470   3.820  0.3367  0.0839 -0.2867
 3896SOL    HW223148   2.770   1.462   3.904  0.3735  1.0694  0.2541
 3897SOL     OW23149   3.319   1.899  12.277  0.2550  0.0470  0.3375
 3897SOL    HW123150   3.285   1.882  12.189 -0.7188  0.2356  0.6747
 3897SOL    HW223151   3.299   1.992  12.288 -0.6230 -0.0634 -0.3720
 3898SOL     OW23152   3.393   4.060   3.606  0.6494  0.3217 -0.2482
 3898SOL    HW123153   3.442   4.106   3.674  2.3141 -0.2184 -1.0956
 3898SOL    HW223154   3.456   4.037   3.539 -0.0104 -0.5262 -0.5731
 3899SOL     OW23155   1.314   3.667  13.032  0.0864  0.0226  0.3130
 3899SOL    HW123156   1.335   3.657  13.125 -0.0923  0.0681  0.3595
 3899SOL    HW223157   1.302   3.762  13.027 -2.3360 -0.3441 -1.1000
 3900SOL     OW23158   0.056   4.187   6.247  0.3070  0.0274  0.0548
 3900SOL    HW123159   4.723   4.262   6.245  0.9808  0.5902  1.5125
 3900SOL    HW223160   0.128   4.228   6.199  1.3069 -3.0530 -1.1022
 3901SOL     OW23161   1.571   0.979  13.993  0.6299  0.5143  0.3081
 3901SOL    HW123162   1.619   0.984  14.075  1.7616  1.4898 -0.4141
 3901SOL    HW223163   1.487   1.014  14.024  0.3414 -1.1608  1.4424
 3902SOL     OW23164   4.670   0.939   6.205  0.0480  0.3074  0.1586
 3902SOL    HW123165   4.599   0.908   6.149  0.4924  1.2506 -0.9122
 3902SOL    HW223166   4.683   0.866   6.266  2.5884 -0.1295 -0.9212
 3903SOL     OW23167   2.812   1.779   8.211  0.2689  0.5355 -0.5657
 3903SOL    HW123168   2.889   1.724   8.225 -0.5151 -0.4205 -0.0473
 3903SOL    HW223169   2.820   1.793   8.117  0.4215 -1.2987 -0.8186
 3904SOL     OW23170   1.720   0.213   3.613  0.1660  0.2193 -0.5348
 3904SOL    HW123171   1.809   0.185   3.594  0.2166  1.6378 -2.4100
 3904SOL    HW223172   1.706   0.152   3.685  0.3114  4.0317  2.7315
 3905SOL     OW23173   2.574   2.095  15.781  0.0174 -0.4429 -0.7519
 3905SOL    HW123174   2.656   2.046  15.786 -0.4876 -1.3443 -1.3342
 3905SOL    HW223175   2.600   2.158  15.714  0.6036  0.6214  0.4686
 3906SOL     OW23176   0.707   2.363   3.874 -0.1291  0.3827 -0.6633
 3906SOL    HW123177   0.709   2.371   3.779 -1.5745 -1.7568 -0.8752
 3906SOL    HW223178   0.680   2.272   3.883  1.7815  0.0334  1.5283
 3907SOL     OW23179   3.653   4.071   6.201 -0.1612 -0.0360  0.3413
 3907SOL    HW123180   3.605   4.001   6.247  0.1590 -1.3205 -1.2692
 3907SOL    HW223181   3.739   4.029   6.201 -0.5912 -0.9357  0.2228
 3908SOL     OW23182   0.227   2.699   9.189  0.1014  0.1812 -0.1090
 3908SOL    HW123183   0.207   2.752   9.266  2.1789  0.3399  0.3142
 3908SOL    HW223184   0.314   2.724   9.159  1.2353 -1.3752  1.9350
 3909SOL     OW23185   0.509   3.790   5.579 -0.0422 -0.0864 -0.2482
 3909SOL    HW123186   0.491   3.699   5.603 -1.8491  0.3518  0.0641
 3909SOL    HW223187   0.441   3.846   5.616 -0.6919 -0.4878 -0.8270
 3910SOL     OW23188   1.179   0.115   3.881  0.0989 -0.1268 -0.2169
 3910SOL    HW123189   1.084   0.115   3.895 -0.2322  0.9604 -2.5651
 3910SOL    HW223190   1.209   0.191   3.931 -3.3954  1.0278  0.0898
 3911SOL     OW23191   0.835   3.068   4.124 -0.5027 -0.8158 -0.2688
 3911SOL    HW123192   0.757   3.059   4.179  1.1142 -1.9615  1.7946
 3911SOL    HW223193   0.895   3.125   4.172 -0.8237  1.0091 -2.0222
 3912SOL     OW23194   1.443   3.187   8.713  0.3993  0.2916 -0.2558
 3912SOL    HW123195   1.523   3.196   8.661 -0.8835 -1.9331 -2.6365
 3912SOL    HW223196   1.393   3.254   8.666  2.4500  2.2325  0.3505
 3913SOL     OW23197   2.793   2.005   4.399  0.3981  0.1905 -0.4358
 3913SOL    HW123198   2.848   1.927   4.388  1.0935  0.6521 -0.2081
 3913SOL    HW223199   2.718   1.962   4.439  2.6247 -2.6810  0.6770
 3914SOL     OW23200   4.328   1.949   0.573  0.1079 -0.3145  0.0930
 3914SOL    HW123201   4.352   1.857   0.574 -0.3883 -0.4666 -1.4984
 3914SOL    HW223202   4.386   1.970   0.500  1.2293 -1.1310  0.7631
 3915SOL     OW23203   1.654   0.460   2.820 -0.0945  0.5327  0.0018
 3915SOL    HW123204   1.603   0.531   2.859 -0.0752  1.2345 -1.2436
 3915SOL    HW223205   1.670   0.405   2.896  2.2536  2.0660  0.6460
 3916SOL     OW23206   0.919   2.356   5.967  0.1357  0.3357  0.0119
 3916SOL    HW123207   0.865   2.381   6.043  0.3321 -1.3010  0.7059
 3916SOL    HW223208   0.945   2.269   5.998 -0.5920  0.3850  0.7767
 3917SOL     OW23209   0.151   3.164   7.139 -0.3440 -0.2340 -0.0637
 3917SOL    HW123210   0.132   3.244   7.091 -3.0436  0.8294  2.7559
 3917SOL    HW223211   0.245   3.166   7.123 -0.3295  0.3296  0.0975
 3918SOL     OW23212   2.067   2.772   9.987 -0.6848 -0.3255  0.0148
 3918SOL    HW123213   2.160   2.764  10.009 -0.9664  0.2558  1.3934
 3918SOL    HW223214   2.032   2.829  10.054 -0.8239  0.8697 -1.0795
 3919SOL     OW23215   4.009   2.210  12.393 -0.0548 -0.2402 -0.2136
 3919SOL    HW123216   4.081   2.221  12.454  1.6805  1.6556 -2.5942
 3919SOL    HW223217   4.070   2.169  12.332 -0.6455 -1.0538 -0.2584
 3920SOL     OW23218   0.062   1.239  11.446  0.7069  0.2535 -0.0424
 3920SOL    HW123219   0.132   1.294  11.412 -0.3647  0.4544 -1.9573
 3920SOL    HW223220   0.024   1.288  11.520 -0.6850 -0.4633 -0.2683
 3921SOL     OW23221   3.011   0.797   9.721 -0.1107 -0.6530  0.4401
 3921SOL    HW123222   3.024   0.777   9.814 -1.9381  0.1445  0.8745
 3921SOL    HW223223   2.921   0.828   9.717  0.3004  0.8773  2.9248
 3922SOL     OW23224   1.689   2.861   4.648  0.3369 -0.0114  0.2436
 3922SOL    HW123225   1.776   2.850   4.611  0.4165 -0.2746  0.5039
 3922SOL    HW223226   1.678   2.778   4.696 -0.0068 -0.0794  0.0496
 3923SOL     OW23227   2.678   3.030  16.611 -0.2258  0.2659  0.1841
 3923SOL    HW123228   2.767   3.001  16.593 -0.5547 -0.6518  0.0148
 3923SOL    HW223229   2.691   3.118  16.576  0.4558  1.5049  3.5455
 3924SOL     OW23230   1.486   1.525   5.567  0.0121 -0.1580 -0.1271
 3924SOL    HW123231   1.408   1.521   5.623 -0.5439 -1.7003 -1.0218
 3924SOL    HW223232   1.553   1.562   5.625 -1.2647 -1.4644  2.1767
 3925SOL     OW23233   0.502   3.637   7.265 -0.0399 -0.3886  0.0383
 3925SOL    HW123234   0.584   3.672   7.229  0.3870 -1.3857  0.0526
 3925SOL    HW223235   0.520   3.543   7.270  1.6072 -0.2006 -2.3243
 3926SOL     OW23236   3.767   4.308   8.915  0.3111 -0.6741  0.2098
 3926SOL    HW123237   3.747   4.396   8.883  0.3551 -1.1647 -1.1563
 3926SOL    HW223238   3.820   4.335   8.990 -1.6801 -0.5643  1.5726
 3927SOL     OW23239   3.877   4.126   9.337 -0.0667 -0.0805 -0.3807
 3927SOL    HW123240   3.814   4.160   9.274  0.1361 -0.4405 -0.7763
 3927SOL    HW223241   3.896   4.208   9.384  0.5053 -0.3679 -0.0991
 3928SOL     OW23242   1.952   2.336   4.059 -0.4235 -0.4247 -0.0246
 3928SOL    HW123243   1.900   2.302   4.131 -0.0173 -0.5370  0.2172
 3928SOL    HW223244   2.036   2.357   4.100 -0.6211  2.2514 -1.0419
 3929SOL     OW23245   3.094   2.028   2.334 -0.2497  0.1870 -0.6323
 3929SOL    HW123246   3.075   1.936   2.353 -2.1301  0.6899 -0.1021
 3929SOL    HW223247   3.024   2.086   2.364 -1.4952 -0.2790 -2.6260
 3930SOL     OW23248   3.858   1.112  10.929 -0.3964  0.5713  0.2474
 3930SOL    HW123249   3.874   1.018  10.920 -0.5778  0.5589  0.0643
 3930SOL    HW223250   3.922   1.137  10.996  0.3653  0.4948 -0.4502
 3931SOL     OW23251   2.242   1.087   7.600  0.6650  0.0189 -0.2894
 3931SOL    HW123252   2.174   1.024   7.575 -0.2639  0.1574  1.8998
 3931SOL    HW223253   2.281   1.041   7.675 -2.3545 -1.0709  0.6248
 3932SOL     OW23254   3.262   2.002   3.856  0.3375 -0.0737  0.0465
 3932SOL    HW123255   3.352   1.973   3.842  0.6066  0.5248  0.5154
 3932SOL    HW223256   3.260   2.036   3.946 -1.3853 -2.4792  0.9081
 3933SOL     OW23257   3.022   0.834   7.119 -0.3850 -0.6733 -0.1162
 3933SOL    HW123258   2.961   0.857   7.049 -0.3085  2.2030  0.7606
 3933SOL    HW223259   2.964   0.775   7.166 -0.0548 -0.6731  0.2913
 3934SOL     OW23260   2.103   2.391   6.027 -0.3108 -0.2877  0.4718
 3934SOL    HW123261   2.143   2.392   6.114  1.2161  0.9415 -0.2425
 3934SOL    HW223262   2.083   2.297   6.029 -0.9630 -0.0945  2.4718
 3935SOL     OW23263   0.345   2.938   7.074  0.1417  0.0094  0.2561
 3935SOL    HW123264   0.412   3.006   7.082 -1.3133  1.1574  2.6812
 3935SOL    HW223265   0.293   2.968   6.999 -0.1407  0.6493  0.7012
 3936SOL     OW23266   1.403   4.165  15.795 -0.4093  0.3811 -0.5163
 3936SOL    HW123267   1.394   4.246  15.744  0.3547  0.8977  0.1674
 3936SOL    HW223268   1.466   4.196  15.861 -3.6699  1.7248  1.9564
 3937SOL     OW23269   3.495   2.611   9.154 -0.3787 -0.1261 -0.1245
 3937SOL    HW123270   3.454   2.676   9.211 -0.6732 -1.7121  1.4827
 3937SOL    HW223271   3.584   2.645   9.143 -0.2010 -0.5770 -0.0774
 3938SOL     OW23272   4.131   1.988   0.113  0.6142 -0.1455 -0.0260
 3938SOL    HW123273   4.201   1.960   0.055 -1.0003  2.3630 -3.1810
 3938SOL    HW223274   4.178   2.045   0.174 -2.0873  1.0731  0.9155
 3939SOL     OW23275   3.904   2.923  14.584 -0.0434 -0.0738  0.3821
 3939SOL    HW123276   3.971   2.874  14.536 -1.1640 -1.5534  0.3650
 3939SOL    HW223277   3.876   2.856  14.646 -0.2184 -0.8992 -0.5898
 3940SOL     OW23278   2.127   3.093   6.632  0.6184  0.0331  0.0223
 3940SOL    HW123279   2.077   3.014   6.611 -1.3992  0.9851  1.3277
 3940SOL    HW223280   2.059   3.160   6.633  0.3186 -0.2489 -1.6586
 3941SOL     OW23281   0.867   1.356  12.019  0.0862  0.7053  0.3313
 3941SOL    HW123282   0.885   1.271  12.057  0.3721 -0.5729 -2.6659
 3941SOL    HW223283   0.954   1.396  12.014 -0.1177  1.0179 -0.6673
 3942SOL     OW23284   3.654   0.040  15.679 -0.1130  0.2420 -0.0852
 3942SOL    HW123285   3.746   0.065  15.673  0.2569 -0.3674  2.8622
 3942SOL    HW223286   3.632   0.097  15.753 -0.1174 -0.4060  0.4106
 3943SOL     OW23287   3.563   0.451   2.622  0.5083 -0.1774 -0.4618
 3943SOL    HW123288   3.595   0.496   2.700 -0.2551 -1.2485  0.4730
 3943SOL    HW223289   3.633   0.467   2.559 -0.7355  1.6371 -1.3987
 3944SOL     OW23290   2.841   1.278   3.005 -0.2650  0.2324 -0.4251
 3944SOL    HW123291   2.812   1.187   3.001  0.6129 -0.0495 -0.4440
 3944SOL    HW223292   2.773   1.323   2.955  0.9081  3.7248  1.1388
 3945SOL     OW23293   0.772   2.788  17.594  0.0841 -0.1140  0.0147
 3945SOL    HW123294   0.683   2.808  17.625 -0.0666 -1.2435  0.3265
 3945SOL    HW223295   0.827   2.826  17.662 -0.0303 -2.1811  1.2631
 3946SOL     OW23296   3.904   1.060   8.947 -0.5992  0.0180 -0.1334
 3946SOL    HW123297   3.819   1.101   8.961 -0.6422 -0.7655  1.9278
 3946SOL    HW223298   3.956   1.138   8.925 -1.4578  0.2459 -1.3403
 3947SOL     OW23299   2.850   2.372   3.948  0.2335  0.0091  0.6221
 3947SOL    HW123300   2.781   2.338   4.005  0.6072 -0.3846  0.8444
 3947SOL    HW223301   2.828   2.337   3.862  1.0833 -0.0230  0.4212
 3948SOL     OW23302   4.090   0.141   2.966 -0.0079  0.1727 -0.2204
 3948SOL    HW123303   4.173   0.185   2.984 -0.1699 -0.6296  2.4847
 3948SOL    HW223304   4.055   0.186   2.889  1.1555 -1.8251 -1.9212
 3949SOL     OW23305   2.841   1.813   9.831  0.0955  0.2230  0.3993
 3949SOL    HW123306   2.883   1.819   9.745  2.3446  1.1236  1.5544
 3949SOL    HW223307   2.835   1.719   9.848  1.0288  0.1337  0.2151
 3950SOL     OW23308   4.246   2.067   8.071 -0.3824 -0.0314  0.1742
 3950SOL    HW123309   4.316   2.114   8.027  0.5140 -1.8452 -0.3544
 3950SOL    HW223310   4.194   2.022   8.004 -2.5634  2.3321  0.2948
 3951SOL     OW23311   1.268   2.224  16.846  0.1490 -0.7414 -0.5211
 3951SOL    HW123312   1.332   2.259  16.908  1.3062 -3.6970 -0.0142
 3951SOL    HW223313   1.310   2.140  16.826 -0.8492 -1.0934 -1.1287
 3952SOL     OW23314   4.226   1.706   8.518 -0.3456  0.5108  0.3399
 3952SOL    HW123315   4.175   1.754   8.583 -0.9549  2.4317 -1.5473
 3952SOL    HW223316   4.248   1.779   8.460 -2.5505  2.2683  1.7155
 3953SOL     OW23317   2.457   4.671  13.548  0.0657  0.2255  0.1998
 3953SOL    HW123318   2.508   4.690  13.627  0.9672  0.2919 -0.4077
 3953SOL    HW223319   2.379   4.720  13.574 -0.5088 -1.8881  2.4241
 3954SOL     OW23320   3.597   0.731   9.390  0.4864  0.1681 -0.2027
 3954SOL    HW123321   3.648   0.690   9.319  2.2544 -0.5277  1.4785
 3954SOL    HW223322   3.512   0.690   9.376  0.5519 -0.0716  0.0929
 3955SOL     OW23323   4.706   0.404   8.139  0.0318  0.0689  0.4380
 3955SOL    HW123324   4.723   0.458   8.063 -3.1952  0.5084  0.0090
 3955SOL    HW223325   4.623   0.445   8.164 -0.8998 -1.2888 -0.3927
 3956SOL     OW23326   0.172   1.006   9.436  0.7732 -0.4534 -0.7121
 3956SOL    HW123327   0.136   1.073   9.378 -0.7053  1.7544  2.7584
 3956SOL    HW223328   0.119   1.025   9.514  0.6022  1.5014 -1.3096
 3957SOL     OW23329   0.620   2.332   1.951 -0.4164 -0.5826  0.5444
 3957SOL    HW123330   0.551   2.277   1.989 -1.2899  0.5365  0.5811
 3957SOL    HW223331   0.688   2.267   1.970  1.6331  2.0010  1.9788
 3958SOL     OW23332   3.375   4.305   0.659  0.2632 -0.6146 -0.4604
 3958SOL    HW123333   3.296   4.266   0.622  1.2071 -1.1554 -1.9361
 3958SOL    HW223334   3.354   4.295   0.752  2.3332 -0.2272  0.0590
 3959SOL     OW23335   1.441   3.288   2.561 -0.6336  0.1375  0.0324
 3959SOL    HW123336   1.495   3.321   2.632 -1.4614 -0.1760  0.8029
 3959SOL    HW223337   1.388   3.231   2.617 -0.2966  0.0151  0.2250
 3960SOL     OW23338   1.998   2.911   3.340  0.2515 -0.0637 -0.4756
 3960SOL    HW123339   1.984   3.006   3.342 -1.7013 -0.4138  2.5265
 3960SOL    HW223340   2.037   2.915   3.253 -0.2175  0.0984 -0.6816
 3961SOL     OW23341   0.554   3.022   6.130 -0.0347  0.2408  0.1333
 3961SOL    HW123342   0.476   3.045   6.080  0.2551 -0.0141 -0.4356
 3961SOL    HW223343   0.586   2.952   6.073 -0.7886  0.4482 -0.5324
 3962SOL     OW23344   1.910   1.381  16.767 -0.1489 -0.3374  0.6612
 3962SOL    HW123345   1.942   1.457  16.816 -0.4168 -0.1637  0.5650
 3962SOL    HW223346   1.927   1.405  16.676 -1.2255  0.3753  0.6497
 3963SOL     OW23347   4.017   3.295   0.244 -0.1090 -0.2995 -0.1357
 3963SOL    HW123348   3.972   3.366   0.291  0.3486 -0.0598 -0.0662
 3963SOL    HW223349   4.002   3.224   0.307  0.4349  0.5208  0.9187
 3964SOL     OW23350   4.372   4.221   0.660  0.1376  0.2795  0.2369
 3964SOL    HW123351   4.315   4.215   0.737  0.8012 -1.7558  0.5678
 3964SOL    HW223352   4.390   4.315   0.671 -0.0649  0.0748  2.3086
 3965SOL     OW23353   3.364   2.184  10.361 -0.2700  0.4276 -0.3633
 3965SOL    HW123354   3.388   2.275  10.341  1.1422 -0.2718 -1.8366
 3965SOL    HW223355   3.444   2.149  10.400 -0.0197  3.1613  1.6395
 3966SOL     OW23356   3.194   3.041  17.613 -0.1854 -0.1332 -0.6777
 3966SOL    HW123357   3.151   3.063  17.695  1.4154  0.4227  0.0233
 3966SOL    HW223358   3.272   2.999  17.650  0.2421 -1.0849 -2.6470
 3967SOL     OW23359   3.650   1.711   7.652  0.3054  0.5090 -0.1013
 3967SOL    HW123360   3.563   1.729   7.688 -0.2217 -1.5696 -0.3269
 3967SOL    HW223361   3.637   1.710   7.557 -0.1945 -1.4031 -0.0057
 3968SOL     OW23362   2.325   4.402   3.715  0.7861  0.0780  0.0153
 3968SOL    HW123363   2.351   4.338   3.649  0.4110 -0.8274  0.7291
 3968SOL    HW223364   2.381   4.479   3.710 -1.7712  1.8608 -0.9999
 3969SOL     OW23365   0.899   3.248   4.780 -0.0950  0.1090  0.2987
 3969SOL    HW123366   0.918   3.155   4.775  0.1835  0.1645  0.3124
 3969SOL    HW223367   0.958   3.271   4.852 -0.7546  0.6405  0.6754
 3970SOL     OW23368   1.038   3.580  11.073 -0.6465 -0.4234  0.3634
 3970SOL    HW123369   1.025   3.580  11.168  0.2669  4.1364  0.5108
 3970SOL    HW223370   0.968   3.520  11.049  0.1375 -0.8914 -0.7529
 3971SOL     OW23371   2.020   4.298  11.061  0.8037  0.1744 -0.6210
 3971SOL    HW123372   2.049   4.388  11.047 -1.0025  0.7563 -0.5489
 3971SOL    HW223373   2.030   4.262  10.973  2.2577 -1.9777  0.4015
 3972SOL     OW23374   3.324   3.218  10.511 -0.2713 -0.4334 -0.2081
 3972SOL    HW123375   3.378   3.154  10.557  0.7126 -1.5431 -2.8785
 3972SOL    HW223376   3.242   3.169  10.504  1.1920 -3.2602  2.5439
 3973SOL     OW23377   0.518   3.931   4.343 -0.0957 -0.0948 -0.0335
 3973SOL    HW123378   0.589   3.941   4.280 -1.1522  0.2634 -1.1535
 3973SOL    HW223379   0.563   3.920   4.427  2.5487  2.0227 -1.1763
 3974SOL     OW23380   1.198   0.895   0.278 -0.1726 -0.7287 -0.1478
 3974SOL    HW123381   1.172   0.904   0.369 -1.3505 -0.7974 -0.4784
 3974SOL    HW223382   1.228   0.985   0.262  1.0239 -0.9688  0.7099
 3975SOL     OW23383   3.352   4.414   6.207 -0.3785  0.2040  0.5412
 3975SOL    HW123384   3.267   4.377   6.182  0.1566 -0.4896 -0.2307
 3975SOL    HW223385   3.360   4.366   6.290  1.7791 -1.0352 -0.3773
 3976SOL     OW23386   1.896   3.579   7.623  0.3230 -0.0856 -0.4529
 3976SOL    HW123387   1.894   3.515   7.695  0.1543  0.8697  0.3918
 3976SOL    HW223388   1.909   3.524   7.546  0.5286 -2.1541  1.0448
 3977SOL     OW23389   0.560   1.264   8.484 -0.2251  0.6483 -0.3941
 3977SOL    HW123390   0.518   1.226   8.408 -0.3312  3.2624 -1.6376
 3977SOL    HW223391   0.486   1.290   8.538  0.6515  1.5613  0.3810
 3978SOL     OW23392   3.358   0.593   9.396 -0.1154  0.5109 -0.6887
 3978SOL    HW123393   3.403   0.548   9.468 -1.1853  2.4151  1.1725
 3978SOL    HW223394   3.282   0.619   9.447  0.4316 -1.7290  1.2655
 3979SOL     OW23395   2.489   4.662   3.051  0.0600  0.3228 -0.5266
 3979SOL    HW123396   2.460   4.621   3.132  0.1839  0.8125 -0.2391
 3979SOL    HW223397   2.566   4.611   3.024 -1.2313 -2.3901  0.8989
 3980SOL     OW23398   0.506   4.477  12.745 -0.7953  0.2205 -0.0925
 3980SOL    HW123399   0.523   4.481  12.839  0.3579  0.3832 -0.3132
 3980SOL    HW223400   0.563   4.403  12.725 -4.5679 -2.0546 -2.6400
 3981SOL     OW23401   0.164   2.439   7.065 -0.3129 -0.2199  0.0734
 3981SOL    HW123402   0.140   2.502   7.134 -2.5072 -4.1752  2.9441
 3981SOL    HW223403   0.250   2.476   7.048 -0.4798 -0.7516 -1.8783
 3982SOL     OW23404   0.376   0.127   2.880  0.1624  0.6283 -0.1914
 3982SOL    HW123405   0.293   0.151   2.837  0.5332  0.7460 -0.8357
 3982SOL    HW223406   0.342   0.074   2.952 -0.1538  1.5429  0.3376
 3983SOL     OW23407   3.259   1.529   0.367  0.1970  0.4095 -0.3172
 3983SOL    HW123408   3.274   1.614   0.324  1.5343  1.3184  1.9295
 3983SOL    HW223409   3.322   1.510   0.437 -1.8853  0.0342  1.4372
 3984SOL     OW23410   4.395   0.595   7.681 -0.0536 -0.1012 -0.0453
 3984SOL    HW123411   4.403   0.605   7.776  0.7939 -1.5177  0.0351
 3984SOL    HW223412   4.475   0.640   7.653  0.6845 -1.3087  0.0914
 3985SOL     OW23413   3.807   2.374  16.770  0.0072  0.0433  0.0552
 3985SOL    HW123414   3.746   2.363  16.843 -2.4227  0.5087 -1.8788
 3985SOL    HW223415   3.874   2.313  16.800 -0.4989 -1.0023 -0.9107
 3986SOL     OW23416   1.757   1.401   6.209  0.4285 -0.1657 -0.1310
 3986SOL    HW123417   1.787   1.319   6.247 -0.8069 -1.4542 -1.9869
 3986SOL    HW223418   1.688   1.365   6.154  0.6843 -2.3199  0.9715
 3987SOL     OW23419   0.902   2.883   5.842 -0.3257 -0.0218 -0.0267
 3987SOL    HW123420   0.969   2.818   5.821  1.3188  1.8400 -0.4884
 3987SOL    HW223421   0.887   2.926   5.758  0.1220  0.6046  0.2175
 3988SOL     OW23422   2.140   3.251   3.763 -0.2574 -0.0437 -0.0179
 3988SOL    HW123423   2.164   3.305   3.687 -1.2235 -0.1264 -0.3839
 3988SOL    HW223424   2.199   3.281   3.831 -0.8770  0.2714  0.3796
 3989SOL     OW23425   3.171   1.137  14.805  0.5981  0.7657  0.2029
 3989SOL    HW123426   3.246   1.189  14.836  0.5555  1.5244 -0.9656
 3989SOL    HW223427   3.186   1.135  14.711  2.4748  1.5115  0.4832
 3990SOL     OW23428   1.451   0.401   8.833  0.8797 -0.1266 -0.1693
 3990SOL    HW123429   1.460   0.369   8.744 -0.1718 -0.5792 -0.1048
 3990SOL    HW223430   1.359   0.426   8.833  0.2035 -2.6375 -0.7851
 3991SOL     OW23431   1.999   1.832   7.519 -0.8216  0.1572 -0.6225
 3991SOL    HW123432   2.036   1.874   7.598 -2.3938 -2.2394  1.3815
 3991SOL    HW223433   2.082   1.806   7.479  0.3291  1.8537  0.6536
 3992SOL     OW23434   3.226   1.708   3.521  0.2979  0.5472  0.4769
 3992SOL    HW123435   3.204   1.667   3.437  1.2238  0.8627  0.0789
 3992SOL    HW223436   3.153   1.770   3.525 -0.8153 -0.7364  0.2265
 3993SOL     OW23437   2.891   0.486   3.894 -0.4184  0.2204 -0.1110
 3993SOL    HW123438   2.831   0.441   3.835 -2.5969  1.6561  1.0361
 3993SOL    HW223439   2.975   0.468   3.851 -0.9264 -2.1954 -0.1141
 3994SOL     OW23440   0.895   3.221  13.312  0.4357 -0.1922 -0.1550
 3994SOL    HW123441   0.963   3.247  13.249  1.0499 -0.8847  0.2205
 3994SOL    HW223442   0.931   3.252  13.396  1.2715  0.3079 -0.6920
 3995SOL     OW23443   3.497   1.733   8.592  0.6310  0.2345  0.4737
 3995SOL    HW123444   3.555   1.660   8.614 -0.1745 -0.7163 -0.5647
 3995SOL    HW223445   3.555   1.805   8.617  0.0942 -0.2334  3.1052
 3996SOL     OW23446   1.957   2.971  10.164  0.3222  0.3228  0.0706
 3996SOL    HW123447   1.913   3.051  10.191 -0.7900 -0.7208  1.3455
 3996SOL    HW223448   1.978   2.932  10.249  0.1102  2.8929  1.2872
 3997SOL     OW23449   3.441   3.152   9.458 -0.3016  0.5073  0.6336
 3997SOL    HW123450   3.487   3.081   9.415 -0.0034 -0.4109  2.4686
 3997SOL    HW223451   3.506   3.222   9.452 -1.7870  1.6640 -1.9158
 3998SOL     OW23452   3.455   2.589   2.631 -0.4177 -0.5681 -0.8807
 3998SOL    HW123453   3.506   2.648   2.686 -1.2814 -0.3154 -0.3525
 3998SOL    HW223454   3.523   2.532   2.595  0.7957 -0.3582  1.1081
 3999SOL     OW23455   2.616   0.586  15.355 -0.2623 -0.2908  0.2523
 3999SOL    HW123456   2.542   0.559  15.409  1.0543  0.0166  2.1777
 3999SOL    HW223457   2.630   0.679  15.375  0.7628 -0.5936  0.8978
 4000SOL     OW23458   2.671   2.855  15.358 -0.2838 -0.3246  0.1235
 4000SOL    HW123459   2.578   2.857  15.382 -0.4025  0.1773 -0.3851
 4000SOL    HW223460   2.677   2.759  15.354  0.9732 -0.1682 -1.7705
 4001SOL     OW23461   1.881   3.111  10.590  0.1967 -0.1180  0.3489
 4001SOL    HW123462   1.848   3.113  10.680 -0.1071  3.6067  0.1737
 4001SOL    HW223463   1.914   3.021  10.589 -1.0392 -0.5812  1.2348
 4002SOL     OW23464   0.965   2.248   8.447 -0.0990  0.2476 -0.0490
 4002SOL    HW123465   0.985   2.158   8.471 -0.2393  0.0031 -0.8636
 4002SOL    HW223466   0.909   2.226   8.374  2.3501 -1.6175 -1.3541
 4003SOL     OW23467   3.548   1.747   4.594  0.0491  0.3022  0.1976
 4003SOL    HW123468   3.634   1.769   4.561 -0.1555  4.2474  2.2876
 4003SOL    HW223469   3.571   1.664   4.638 -0.4921 -0.2933 -0.6458
 4004SOL     OW23470   2.726   4.329  10.517  0.1901  0.1161 -0.5454
 4004SOL    HW123471   2.655   4.334  10.452 -0.4860 -0.7952  0.1330
 4004SOL    HW223472   2.793   4.380  10.472  1.2752 -0.7210  0.1395
 4005SOL     OW23473   1.273   0.485   3.217  0.0309  0.3551  0.0938
 4005SOL    HW123474   1.186   0.502   3.181  0.6301  1.4919 -0.8239
 4005SOL    HW223475   1.279   0.563   3.273 -0.1777  0.6250 -0.2584
 4006SOL     OW23476   3.447   3.292   7.196 -0.0311 -0.1486  0.0504
 4006SOL    HW123477   3.452   3.339   7.112 -3.2364  0.4402  0.1838
 4006SOL    HW223478   3.391   3.351   7.247 -0.1667  1.0363 -1.4707
 4007SOL     OW23479   1.419   0.364   9.683  0.3159  0.0686 -0.1523
 4007SOL    HW123480   1.424   0.422   9.607  1.0658 -2.1091 -1.7607
 4007SOL    HW223481   1.450   0.279   9.652  1.8032 -0.1369  1.9311
 4008SOL     OW23482   2.672   0.569   6.230 -0.0383 -0.3519 -0.2666
 4008SOL    HW123483   2.717   0.646   6.266  1.4199 -1.3353  0.0341
 4008SOL    HW223484   2.699   0.579   6.139 -0.6774 -0.8511 -0.5045
 4009SOL     OW23485   3.103   0.871   4.891 -0.5213 -0.7726  0.3016
 4009SOL    HW123486   3.110   0.787   4.845  3.4324  0.1204 -0.7745
 4009SOL    HW223487   3.118   0.934   4.821  2.8061 -1.5957  0.2717
 4010SOL     OW23488   3.745   0.072   7.037 -0.0848  0.2510  0.4527
 4010SOL    HW123489   3.712   0.010   7.102 -0.7937  1.2313  1.0369
 4010SOL    HW223490   3.825   0.106   7.078  0.0230 -0.0780  0.5127
 4011SOL     OW23491   1.176   0.517   6.902 -0.6650 -0.1431 -0.1484
 4011SOL    HW123492   1.264   0.506   6.865 -0.5171 -0.2087  0.2214
 4011SOL    HW223493   1.133   0.437   6.871 -1.5481 -0.3989  1.7940
 4012SOL     OW23494   4.095   3.307   2.578 -0.1972 -0.5658  0.1531
 4012SOL    HW123495   4.108   3.317   2.673 -1.1695  0.2880  0.1961
 4012SOL    HW223496   4.075   3.214   2.563  2.4195 -1.4219  1.8924
 4013SOL     OW23497   1.047   2.314  14.541 -0.1742  0.6709 -0.2868
 4013SOL    HW123498   1.117   2.379  14.541  0.7582 -0.3429 -3.6371
 4013SOL    HW223499   1.037   2.300  14.447 -2.0166  1.8561 -0.2619
 4014SOL     OW23500   3.411   2.545  13.549 -0.2894  0.3644  0.4477
 4014SOL    HW123501   3.329   2.550  13.597 -0.7383  0.2838 -0.3054
 4014SOL    HW223502   3.382   2.562  13.459  0.2223  0.9543  0.3879
 4015SOL     OW23503   1.050   2.853   7.039 -0.5278 -0.1060  0.8757
 4015SOL    HW123504   1.102   2.781   7.002 -0.9640 -0.7541  1.5049
 4015SOL    HW223505   0.968   2.805   7.051 -0.7645  0.2640  0.7231
 4016SOL     OW23506   2.969   0.540   2.105  0.2388 -0.3755  0.2577
 4016SOL    HW123507   2.932   0.480   2.171 -0.1041  1.0165  1.3327
 4016SOL    HW223508   3.063   0.535   2.123 -0.0133  0.3698  1.7239
 4017SOL     OW23509   0.856   2.666   2.930 -0.2020 -0.0515  0.2572
 4017SOL    HW123510   0.846   2.710   2.846 -0.3876 -0.3021  0.1507
 4017SOL    HW223511   0.936   2.710   2.960  0.0499 -1.6832  1.9735
 4018SOL     OW23512   3.651   2.324   5.937 -0.3154 -0.6044 -0.0858
 4018SOL    HW123513   3.658   2.395   5.874  0.0754  1.1617  1.9363
 4018SOL    HW223514   3.590   2.262   5.897 -1.8807  1.0850 -0.3108
 4019SOL     OW23515   2.336   0.259   6.807 -0.3381 -0.0700 -0.9020
 4019SOL    HW123516   2.416   0.222   6.843 -0.7006  1.6201  1.6849
 4019SOL    HW223517   2.293   0.262   6.893  0.4285 -0.4574 -0.5082
 4020SOL     OW23518   1.668   1.178   7.597  0.3259 -0.2352  0.2748
 4020SOL    HW123519   1.601   1.122   7.558  0.2635 -0.9102  1.3834
 4020SOL    HW223520   1.624   1.197   7.680 -2.7046 -2.7031 -0.7579
 4021SOL     OW23521   1.095   2.290  14.276 -0.0129 -0.2662  0.9212
 4021SOL    HW123522   1.153   2.214  14.268  0.1880 -0.0852  0.6458
 4021SOL    HW223523   1.048   2.277  14.193  0.4752 -0.4958  0.6819
 4022SOL     OW23524   3.920   1.872   4.925 -0.0577 -0.0144 -0.0318
 4022SOL    HW123525   3.892   1.963   4.926 -1.2160 -0.4046  1.8100
 4022SOL    HW223526   3.897   1.840   5.012  1.1869  3.1310  1.4798
 4023SOL     OW23527   4.088   1.254   1.843 -0.0583 -0.3874  0.5482
 4023SOL    HW123528   3.996   1.278   1.856 -0.1048 -0.3380  0.1113
 4023SOL    HW223529   4.113   1.333   1.795  1.0652 -1.7956 -1.1489
 4024SOL     OW23530   1.723   0.742  12.221  0.4022 -0.2901  0.3384
 4024SOL    HW123531   1.735   0.809  12.288 -1.9313 -0.8563  1.2923
 4024SOL    HW223532   1.638   0.771  12.189 -0.4468  0.9992  3.7689
 4025SOL     OW23533   3.995   4.378   4.989 -0.3817 -0.4593  0.3013
 4025SOL    HW123534   3.919   4.395   4.934  0.2268 -1.0521 -0.7413
 4025SOL    HW223535   4.057   4.384   4.916 -1.8021 -1.0425 -0.9578
 4026SOL     OW23536   1.666   0.446  10.126  0.0065 -0.2105 -0.4671
 4026SOL    HW123537   1.624   0.520  10.170  1.9979  0.6797 -0.0855
 4026SOL    HW223538   1.706   0.498  10.056  2.4082  0.1943  1.2228
 4027SOL     OW23539   0.166   1.128   0.959 -0.1045  0.4688 -0.3687
 4027SOL    HW123540   0.254   1.165   0.961 -0.0814  0.2653  1.8192
 4027SOL    HW223541   0.127   1.161   1.040 -0.5784 -2.5551  0.6409
 4028SOL     OW23542   1.991   4.179  14.526 -0.3015 -1.0257  0.0639
 4028SOL    HW123543   1.920   4.140  14.475 -2.3330 -0.7770  2.7141
 4028SOL    HW223544   2.046   4.219  14.458  1.6976 -2.6238  0.7135
 4029SOL     OW23545   2.639   0.488   7.296 -0.1219  0.0924  0.4862
 4029SOL    HW123546   2.597   0.403   7.288 -2.2997  1.4025 -1.6772
 4029SOL    HW223547   2.575   0.531   7.240 -0.0036  1.2876  1.2561
 4030SOL     OW23548   4.037   3.709  16.672  0.1024  0.4859  0.0906
 4030SOL    HW123549   4.130   3.725  16.687  0.6258 -3.2016  0.6936
 4030SOL    HW223550   4.027   3.623  16.713  0.6817 -1.2324 -3.3992
 4031SOL     OW23551   4.150   3.321   4.243 -0.0838 -0.4720 -0.9123
 4031SOL    HW123552   4.129   3.249   4.302  1.5971  0.8776  1.2966
 4031SOL    HW223553   4.165   3.269   4.164 -1.0257  0.9106 -2.0247
 4032SOL     OW23554   2.659   3.680   5.453  0.3427  0.2706 -0.3030
 4032SOL    HW123555   2.633   3.761   5.498 -2.0403 -1.7755  1.9715
 4032SOL    HW223556   2.592   3.667   5.386  2.1235  0.1515 -2.0972
 4033SOL     OW23557   3.238   2.245   4.537  0.1622 -0.5953 -0.0959
 4033SOL    HW123558   3.175   2.280   4.599 -0.4053  1.7258 -1.9839
 4033SOL    HW223559   3.315   2.298   4.556 -1.7025  2.0173  0.2048
 4034SOL     OW23560   0.826   3.631   5.224  0.0512  0.2970 -0.2119
 4034SOL    HW123561   0.789   3.559   5.173  3.4325 -2.3996  1.0791
 4034SOL    HW223562   0.917   3.609   5.205  0.7136  2.1671  0.8296
 4035SOL     OW23563   4.714   0.707   3.689  0.2016  0.2068 -0.1924
 4035SOL    HW123564   4.677   0.795   3.699 -1.1479 -0.1321 -2.1073
 4035SOL    HW223565   4.661   0.664   3.756 -0.8682  2.5549  0.4671
 4036SOL     OW23566   3.734   3.447   9.118  0.1073  0.1010  0.0275
 4036SOL    HW123567   3.759   3.473   9.207 -2.0196  1.7921  0.1438
 4036SOL    HW223568   3.670   3.380   9.144  0.4737 -0.1130  0.3863
 4037SOL     OW23569   0.025   3.365   3.014 -0.0819 -0.1300  0.3542
 4037SOL    HW123570   0.082   3.289   3.014 -0.4226 -0.3897 -0.5540
 4037SOL    HW223571   4.674   3.346   2.959  0.0345  0.1306  0.1042
 4038SOL     OW23572   1.541   0.995  15.705  0.2336 -0.0506  0.2271
 4038SOL    HW123573   1.477   0.948  15.652 -0.0258 -2.4228  2.6709
 4038SOL    HW223574   1.498   1.077  15.733 -0.4361 -0.1000 -0.6503
 4039SOL     OW23575   2.358   2.254  15.828 -0.1001 -0.0351 -0.3168
 4039SOL    HW123576   2.303   2.239  15.752 -0.5968  0.2864 -0.0177
 4039SOL    HW223577   2.416   2.177  15.828  0.0709  0.0987 -2.3617
 4040SOL     OW23578   0.792   1.575   3.280 -0.7256  0.1773 -0.4463
 4040SOL    HW123579   0.788   1.487   3.317  2.2318 -0.0411 -0.6908
 4040SOL    HW223580   0.790   1.559   3.185  1.5576  0.9865 -0.6202
 4041SOL     OW23581   3.672   1.546   8.669  0.1255 -0.4784  0.1122
 4041SOL    HW123582   3.606   1.484   8.701 -0.0576  0.6995  2.0298
 4041SOL    HW223583   3.744   1.493   8.636  1.1269  0.6553  0.4909
 4042SOL     OW23584   3.837   1.995   8.242 -0.0163 -0.4432  0.5032
 4042SOL    HW123585   3.860   1.983   8.150 -0.6208  2.6611 -0.0252
 4042SOL    HW223586   3.758   1.942   8.248 -2.0512  2.7509  1.7444
 4043SOL     OW23587   0.118   2.550   2.460  0.2126 -0.6768 -0.0620
 4043SOL    HW123588   0.152   2.481   2.517 -0.1843 -2.9370 -2.5830
 4043SOL    HW223589   0.086   2.491   2.392  0.8879 -0.6285 -0.4182
 4044SOL     OW23590   1.672   2.678   1.555  0.3813 -0.0536  0.4568
 4044SOL    HW123591   1.597   2.711   1.505  0.0796  1.5256  1.9462
 4044SOL    HW223592   1.701   2.750   1.611  1.7361 -1.9348  2.1859
 4045SOL     OW23593   4.229   1.451  17.325 -0.0432 -0.1074  0.3418
 4045SOL    HW123594   4.243   1.409  17.240 -1.1981  0.6916 -0.2408
 4045SOL    HW223595   4.151   1.401  17.351 -0.9259  0.2334 -1.6613
 4046SOL     OW23596   3.210   1.423  16.264  0.0265  0.3067 -0.3525
 4046SOL    HW123597   3.189   1.449  16.175  1.3779 -0.5538 -0.9227
 4046SOL    HW223598   3.134   1.375  16.296  0.6874  0.0426  0.8522
 4047SOL     OW23599   1.427   0.988   9.443  0.3132 -1.0044 -0.2653
 4047SOL    HW123600   1.485   0.953   9.375  1.8838 -1.0756  1.1077
 4047SOL    HW223601   1.340   0.999   9.406 -1.0433 -2.0969  2.6033
 4048SOL     OW23602   0.226   2.902   4.850 -0.3521  0.1496  0.1632
 4048SOL    HW123603   0.301   2.956   4.875 -1.1899  1.8053 -0.8767
 4048SOL    HW223604   0.148   2.946   4.885  0.5602  1.2514  0.8289
 4049SOL     OW23605   4.650   1.145   2.376  0.5159  0.4873  0.0025
 4049SOL    HW123606   4.613   1.124   2.291  0.5056  0.3090  0.0528
 4049SOL    HW223607   0.015   1.166   2.352  1.7978 -1.6356  2.9032
 4050SOL     OW23608   4.662   1.332  14.745  0.7621 -0.3579  0.1014
 4050SOL    HW123609   0.009   1.353  14.803  0.3509  0.8825  0.1738
 4050SOL    HW223610   4.667   1.410  14.689  1.6072 -1.1352 -0.8757
 4051SOL     OW23611   1.710   2.011  13.625  0.7014  0.5234  0.1795
 4051SOL    HW123612   1.679   2.083  13.570 -0.1193 -0.0738 -0.1371
 4051SOL    HW223613   1.730   1.954  13.551 -0.0769  0.8903 -0.3139
 4052SOL     OW23614   1.369   2.057   5.735  0.5343  0.0658 -0.1102
 4052SOL    HW123615   1.422   2.135   5.716 -0.1735  0.8803  1.2552
 4052SOL    HW223616   1.310   2.056   5.660 -0.6125 -2.6676  0.8491
 4053SOL     OW23617   0.684   2.604  16.818  0.2149  0.1158 -0.3167
 4053SOL    HW123618   0.726   2.522  16.794 -0.7703  0.7158 -4.0071
 4053SOL    HW223619   0.695   2.652  16.736 -1.2996  0.1130 -0.5287
 4054SOL     OW23620   2.332   3.636  16.270  0.4162  0.1557 -0.3710
 4054SOL    HW123621   2.352   3.572  16.338  4.3331  1.3280 -0.4349
 4054SOL    HW223622   2.257   3.599  16.224  2.9322 -2.9623 -1.9513
 4055SOL     OW23623   4.286   3.981   3.089  0.2755  0.0289  0.1693
 4055SOL    HW123624   4.291   3.974   2.993 -0.3852  0.6385  0.0958
 4055SOL    HW223625   4.199   3.948   3.109  0.3331  0.3154  0.8884
 4056SOL     OW23626   3.342   0.962  11.029  0.0130 -0.4507  0.3610
 4056SOL    HW123627   3.404   0.931  10.964  1.3190  1.6096  0.6163
 4056SOL    HW223628   3.274   0.895  11.020  1.8147 -2.1499 -0.4055
 4057SOL     OW23629   3.363   4.168   7.901  0.2177  0.1459  0.0682
 4057SOL    HW123630   3.442   4.114   7.902 -0.6228 -1.1074 -1.0143
 4057SOL    HW223631   3.342   4.156   7.994  1.2293  1.0790  0.4204
 4058SOL     OW23632   4.624   1.157   6.709  0.1687  0.6423  0.6924
 4058SOL    HW123633   4.618   1.214   6.785  0.6354  1.5264  0.0711
 4058SOL    HW223634   4.624   1.069   6.748  0.6013  0.0446 -0.6530
 4059SOL     OW23635   3.601   1.931   2.220 -0.3504  0.0111  0.4091
 4059SOL    HW123636   3.533   1.995   2.199 -0.0915  1.0254  2.6767
 4059SOL    HW223637   3.683   1.975   2.196 -0.3564  0.2800  0.8825
 4060SOL     OW23638   2.447   2.876  16.586 -0.3516 -0.4309 -0.3779
 4060SOL    HW123639   2.485   2.791  16.608  3.6379  1.1164 -1.3067
 4060SOL    HW223640   2.525   2.931  16.593 -1.5490  1.3149 -0.9628
 4061SOL     OW23641   4.332   0.205   4.825 -0.1796  0.2336  0.0943
 4061SOL    HW123642   4.292   0.259   4.893  0.6493  0.7851  0.1436
 4061SOL    HW223643   4.305   0.120   4.861  0.2700  0.2011  0.3637
 4062SOL     OW23644   1.476   3.917  10.057  0.1649  0.0134  0.5988
 4062SOL    HW123645   1.527   3.943   9.980 -0.2160 -0.7865  0.0857
 4062SOL    HW223646   1.545   3.862  10.095  2.0667  2.5372  0.8674
 4063SOL     OW23647   1.090   2.752   9.522  0.2424  0.1624 -0.0057
 4063SOL    HW123648   1.073   2.822   9.585  2.8716  0.2995  0.5685
 4063SOL    HW223649   1.113   2.809   9.448  0.5652  0.3295  0.2235
 4064SOL     OW23650   0.454   0.991   0.686  0.6236 -0.3177 -0.4796
 4064SOL    HW123651   0.508   0.997   0.765 -0.4783  1.1079  0.1780
 4064SOL    HW223652   0.412   0.906   0.691 -1.0388  0.5534  0.4609
 4065SOL     OW23653   4.012   0.398   1.021 -0.6490  1.2932 -0.1991
 4065SOL    HW123654   3.985   0.377   1.111 -0.1529  0.0124 -0.3482
 4065SOL    HW223655   4.072   0.326   1.001 -0.1376  2.2904 -2.2873
 4066SOL     OW23656   1.158   0.258   3.004  0.0603 -0.0730  0.4927
 4066SOL    HW123657   1.111   0.190   3.052 -0.9620  0.5784  0.4275
 4066SOL    HW223658   1.232   0.261   3.065 -0.3028 -0.7042  0.9641
 4067SOL     OW23659   4.472   1.938  13.746  0.8195 -0.2241 -0.0458
 4067SOL    HW123660   4.541   1.877  13.720 -0.0433 -1.3421  0.2544
 4067SOL    HW223661   4.480   2.007  13.681  1.3088 -0.6944 -0.4812
 4068SOL     OW23662   4.242   0.694  15.728  0.2173 -0.0002 -0.1075
 4068SOL    HW123663   4.278   0.668  15.813  2.8679  0.1381 -1.1914
 4068SOL    HW223664   4.261   0.788  15.727 -2.4065  0.5386  0.4618
 4069SOL     OW23665   0.277   0.905   1.228  0.1316  0.2373 -0.0652
 4069SOL    HW123666   0.291   0.842   1.158  3.9921  2.9907 -1.8550
 4069SOL    HW223667   0.298   0.989   1.186 -1.3568  0.5613 -0.1374
 4070SOL     OW23668   1.088   4.336   2.898  0.1651  0.0238 -0.2872
 4070SOL    HW123669   1.062   4.314   2.988 -0.4173 -0.9345 -0.6877
 4070SOL    HW223670   1.159   4.399   2.910  2.3138 -2.5283  0.2376
 4071SOL     OW23671   1.034   4.537   4.359 -0.0476  0.3434  0.2933
 4071SOL    HW123672   1.085   4.614   4.334 -1.2019  1.0148 -0.0119
 4071SOL    HW223673   1.073   4.476   4.296 -0.4818  0.3763 -0.0089
 4072SOL     OW23674   2.746   4.199   5.342  0.2589  0.2930 -0.1143
 4072SOL    HW123675   2.750   4.294   5.339  0.1331  0.2713 -0.9313
 4072SOL    HW223676   2.692   4.192   5.264  1.1323  1.1574 -0.7963
 4073SOL     OW23677   4.432   1.608   6.088 -0.5811 -0.0332  0.6915
 4073SOL    HW123678   4.493   1.582   6.157 -0.6464  0.6923  1.0219
 4073SOL    HW223679   4.416   1.520   6.053  0.6410 -0.7187  1.8969
 4074SOL     OW23680   1.847   3.342   6.263 -0.7692 -0.4404  0.0524
 4074SOL    HW123681   1.847   3.346   6.359 -0.4119 -0.8704  0.0657
 4074SOL    HW223682   1.938   3.366   6.250  0.2088 -3.9220  0.5865
 4075SOL     OW23683   3.580   1.288  15.113  0.3278 -0.1753 -0.3943
 4075SOL    HW123684   3.501   1.322  15.155 -0.2764 -2.5829  0.4562
 4075SOL    HW223685   3.631   1.367  15.130 -1.7684  1.2502 -0.6945
 4076SOL     OW23686   4.186   1.666   7.612  0.3904 -0.6531  0.3574
 4076SOL    HW123687   4.097   1.682   7.645  0.1520 -2.2352  0.4922
 4076SOL    HW223688   4.179   1.729   7.540  0.7219 -0.8711  0.1348
 4077SOL     OW23689   2.034   2.514   8.736  0.0351  0.1593 -0.4801
 4077SOL    HW123690   1.947   2.554   8.729 -0.7216 -1.3831  0.1158
 4077SOL    HW223691   2.075   2.553   8.659 -1.8866  2.7827 -0.2007
 4078SOL     OW23692   2.075   2.024  10.085  0.1072 -0.0076  0.2458
 4078SOL    HW123693   2.096   2.117  10.078 -2.2153  0.5012 -0.0389
 4078SOL    HW223694   2.035   2.025  10.172 -1.1494 -0.6592 -0.3174
 4079SOL     OW23695   3.254   0.699   7.861 -0.1114 -0.2807  0.1049
 4079SOL    HW123696   3.283   0.769   7.919 -0.8977  1.0803 -1.1686
 4079SOL    HW223697   3.302   0.628   7.904  0.2194  0.9193  1.7412
 4080SOL     OW23698   0.698   1.765   7.364  0.3157 -0.6345 -0.0026
 4080SOL    HW123699   0.677   1.848   7.407 -0.8929 -1.0280  0.1503
 4080SOL    HW223700   0.638   1.713   7.417 -0.2292  0.7000  0.6925
 4081SOL     OW23701   2.396   4.521   2.498 -0.0861 -0.2953 -0.4227
 4081SOL    HW123702   2.370   4.494   2.586 -2.5891 -1.6089 -1.5660
 4081SOL    HW223703   2.385   4.615   2.513  0.2018 -0.2885 -0.2611
 4082SOL     OW23704   0.283   1.915   2.662  0.0065  0.3380  0.7462
 4082SOL    HW123705   0.226   1.935   2.588  0.7385  0.8461  0.3249
 4082SOL    HW223706   0.253   1.825   2.678  0.7568 -0.0180  0.1926
 4083SOL     OW23707   1.270   4.699   1.234 -0.2756 -0.5172 -0.0758
 4083SOL    HW123708   1.254   0.055   1.280 -2.3131 -0.9335 -0.0556
 4083SOL    HW223709   1.344   4.724   1.178 -1.2436  1.1038 -0.6170
 4084SOL     OW23710   3.461   3.524  13.682  0.2566 -0.6915  0.0637
 4084SOL    HW123711   3.408   3.545  13.759 -0.3652  0.5655 -0.7152
 4084SOL    HW223712   3.542   3.493  13.723  0.4561  0.8109  0.7969
 4085SOL     OW23713   4.204   4.321   8.246  0.0331 -0.4535  0.6253
 4085SOL    HW123714   4.255   4.291   8.322 -0.4791 -1.3953  0.5971
 4085SOL    HW223715   4.158   4.239   8.228 -0.6316 -0.2603  1.4338
 4086SOL     OW23716   3.246   3.161   2.492 -0.3526 -0.2545  0.5166
 4086SOL    HW123717   3.234   3.067   2.502 -1.0070 -0.2787 -0.4914
 4086SOL    HW223718   3.230   3.168   2.398  0.1936  0.1837  0.4558
 4087SOL     OW23719   1.211   2.598   2.339  0.1411 -0.6228  0.2049
 4087SOL    HW123720   1.287   2.623   2.391 -1.8307  0.1085  2.7073
 4087SOL    HW223721   1.261   2.586   2.258  1.4759  0.3449  0.8929
 4088SOL     OW23722   3.911   0.119   6.747  0.4971 -1.3302  0.3004
 4088SOL    HW123723   3.962   0.048   6.785  0.0164 -2.8304 -1.8458
 4088SOL    HW223724   3.907   0.178   6.822 -0.5255  0.0865 -0.8569
 4089SOL     OW23725   3.783   0.023   9.025 -0.4140 -0.9138  0.2675
 4089SOL    HW123726   3.856   0.059   9.075  0.5746 -1.8919 -0.4611
 4089SOL    HW223727   3.727   4.719   9.097  0.7764 -0.1706  1.4988
 4090SOL     OW23728   2.816   2.875   8.198  0.5886 -0.1582  0.3517
 4090SOL    HW123729   2.798   2.956   8.245 -0.7760  1.3693 -2.8111
 4090SOL    HW223730   2.912   2.876   8.199  0.5764  0.7974  1.1723
 4091SOL     OW23731   2.105   0.709   5.625 -0.0226 -0.0254  0.0965
 4091SOL    HW123732   2.076   0.665   5.545 -0.0121  1.2450 -0.6126
 4091SOL    HW223733   2.044   0.670   5.688 -1.1665  1.2223 -0.2337
 4092SOL     OW23734   2.009   0.610   7.401 -0.0757  0.5676 -0.5634
 4092SOL    HW123735   1.986   0.592   7.310  0.7152  0.2020 -0.6935
 4092SOL    HW223736   2.022   0.519   7.428  0.6042  0.3929 -1.4678
 4093SOL     OW23737   4.620   3.496  13.427 -0.2848 -0.2921  0.0116
 4093SOL    HW123738   4.652   3.570  13.478  2.2776 -1.2165 -0.2563
 4093SOL    HW223739   4.692   3.436  13.451  0.7888  0.8220 -0.4434
 4094SOL     OW23740   1.617   4.331  17.671 -0.1387 -0.2752  0.5909
 4094SOL    HW123741   1.590   4.261  17.612 -0.1420 -1.2190  1.7281
 4094SOL    HW223742   1.547   4.323   0.030  0.1598  1.6281  1.1865
 4095SOL     OW23743   3.061   3.402   6.353 -0.1978 -0.3952 -0.6463
 4095SOL    HW123744   3.002   3.414   6.427 -0.1293  0.7416 -0.7737
 4095SOL    HW223745   3.124   3.335   6.380 -0.5042 -0.7322 -0.7748
 4096SOL     OW23746   1.999   2.034   3.319  0.3957  0.2543 -0.3848
 4096SOL    HW123747   2.055   2.097   3.275  0.0703  0.4713 -0.4892
 4096SOL    HW223748   1.999   1.960   3.259  1.6986 -1.8777  2.2415
 4097SOL     OW23749   4.338   4.077  14.876 -0.1941 -0.2512  0.7168
 4097SOL    HW123750   4.284   3.998  14.881 -0.2781 -0.4353 -2.8563
 4097SOL    HW223751   4.295   4.114  14.799  0.2514  1.5736  1.3435
 4098SOL     OW23752   3.609   4.353  13.006  0.3568 -0.4947 -0.8716
 4098SOL    HW123753   3.686   4.355  12.948 -0.9742 -0.2947 -2.6245
 4098SOL    HW223754   3.601   4.448  13.000  0.9732 -0.3801  0.1730
 4099SOL     OW23755   4.309   1.834  10.959  0.1831 -0.1753  0.2003
 4099SOL    HW123756   4.402   1.833  10.937  0.1224 -0.2688 -0.0496
 4099SOL    HW223757   4.310   1.899  11.029  2.9280 -0.2965  0.2600
 4100SOL     OW23758   3.893   2.249   7.143 -0.6032  0.0759  0.2053
 4100SOL    HW123759   3.902   2.336   7.105  0.9976 -0.7224 -1.2564
 4100SOL    HW223760   3.809   2.229   7.101 -0.6389  0.4611  0.0930
 4101SOL     OW23761   3.044   1.215   0.686  0.1769  0.0175 -0.1102
 4101SOL    HW123762   3.052   1.209   0.781  2.1320 -0.1558 -0.3032
 4101SOL    HW223763   2.949   1.213   0.669  0.4183  0.9571 -1.5938
 4102SOL     OW23764   3.825   0.458   9.807 -0.1811  0.3040 -0.2639
 4102SOL    HW123765   3.849   0.514   9.880 -2.1375  0.3058  0.3781
 4102SOL    HW223766   3.792   0.526   9.747 -0.7472 -1.1704 -1.6367
 4103SOL     OW23767   3.614   2.893   9.964 -0.7119  0.5706  0.1539
 4103SOL    HW123768   3.550   2.826   9.939  1.9839 -1.9256 -0.0375
 4103SOL    HW223769   3.678   2.836  10.007 -2.0793  0.5763  2.2284
 4104SOL     OW23770   4.640   4.057   8.058 -0.2316 -0.1368 -0.3005
 4104SOL    HW123771   4.707   3.990   8.070  0.0605  0.2917  0.4601
 4104SOL    HW223772   4.646   4.075   7.964 -0.6113 -0.3448 -0.3641
 4105SOL     OW23773   4.296   2.528   7.760 -0.1682  0.0390 -0.3705
 4105SOL    HW123774   4.220   2.484   7.799  0.5004 -1.0042 -0.2394
 4105SOL    HW223775   4.247   2.595   7.713  1.2240  1.2875 -0.0318
 4106SOL     OW23776   1.978   0.174   8.725  0.1887 -0.3162 -0.3671
 4106SOL    HW123777   1.997   0.196   8.816 -1.3209  1.4330 -0.4719
 4106SOL    HW223778   1.922   0.241   8.686  0.0357  0.4053  1.0684
 4107SOL     OW23779   0.453   1.031   2.288  0.2362  0.6341  0.2430
 4107SOL    HW123780   0.398   1.093   2.335 -0.6874  0.7459 -0.9665
 4107SOL    HW223781   0.388   0.982   2.237  1.7844  1.0150 -2.1088
 4108SOL     OW23782   1.121   3.814   5.910 -0.2553  0.3556 -0.2118
 4108SOL    HW123783   1.082   3.739   5.957  2.4918 -1.8837 -1.5323
 4108SOL    HW223784   1.042   3.866   5.897 -0.7546  0.1695  2.0399
 4109SOL     OW23785   4.570   4.539   8.661 -0.2540 -0.4886  0.1515
 4109SOL    HW123786   4.534   4.551   8.573 -1.1769  0.1774  0.6259
 4109SOL    HW223787   4.497   4.493   8.701  0.5896  0.0222  2.2607
 4110SOL     OW23788   3.961   1.767   4.058  0.1595 -0.2473  0.4613
 4110SOL    HW123789   4.055   1.784   4.057 -0.0027  0.7773  2.1521
 4110SOL    HW223790   3.955   1.672   4.064 -0.7665 -0.2670 -0.8608
 4111SOL     OW23791   1.195   2.430  12.861  0.3726 -0.1856  0.3239
 4111SOL    HW123792   1.190   2.365  12.932  0.5802 -1.8756 -1.2111
 4111SOL    HW223793   1.221   2.379  12.785 -1.2128  0.2341 -0.5070
 4112SOL     OW23794   0.861   1.571   5.023 -0.1609  0.2053  0.4236
 4112SOL    HW123795   0.940   1.623   5.005 -0.5993  0.8686  0.4087
 4112SOL    HW223796   0.854   1.521   4.942  2.1326  2.0497 -0.8972
 4113SOL     OW23797   4.490   4.138   7.105 -0.6227 -0.1985 -0.4601
 4113SOL    HW123798   4.406   4.181   7.122  0.8954  3.0295 -1.2196
 4113SOL    HW223799   4.550   4.204   7.071  1.0161 -1.8604 -0.8277
 4114SOL     OW23800   2.443   0.247   7.238  0.0761  0.4174 -0.1756
 4114SOL    HW123801   2.494   0.169   7.260 -0.1401  0.3505  0.0929
 4114SOL    HW223802   2.352   0.218   7.251 -0.2491  0.8040 -1.6277
 4115SOL     OW23803   2.894   4.170   2.934  0.4595  0.4679 -0.7375
 4115SOL    HW123804   2.986   4.151   2.954  0.6841 -0.5216 -2.7651
 4115SOL    HW223805   2.903   4.254   2.889 -2.5134  1.9850  1.4497
 4116SOL     OW23806   3.611   2.987   2.444  0.1888  0.7492 -0.7055
 4116SOL    HW123807   3.582   2.973   2.534  2.0671  0.5808 -0.1276
 4116SOL    HW223808   3.581   2.906   2.403 -0.9149 -0.1554  1.9258
 4117SOL     OW23809   3.238   1.669   3.211  0.1803  0.1343 -0.2242
 4117SOL    HW123810   3.245   1.741   3.149  0.1818  1.6729  1.5600
 4117SOL    HW223811   3.268   1.589   3.167  0.4068  1.0306 -1.7074
 4118SOL     OW23812   2.783   1.323  16.103 -0.2682  0.1837 -0.1715
 4118SOL    HW123813   2.732   1.396  16.069 -1.7634  0.1947  2.1018
 4118SOL    HW223814   2.821   1.352  16.185 -1.6186 -0.2795  0.6111
 4119SOL     OW23815   2.521   1.826  13.920  0.5894 -0.5828 -0.3161
 4119SOL    HW123816   2.431   1.836  13.889  0.6789  0.1617 -0.3539
 4119SOL    HW223817   2.508   1.756  13.983  1.4871  0.6039  1.2086
 4120SOL     OW23818   3.337   3.690   8.207  0.2376  0.1200  0.1023
 4120SOL    HW123819   3.318   3.661   8.118 -0.1448  1.2098 -0.1703
 4120SOL    HW223820   3.323   3.614   8.263 -0.8857 -0.4672 -0.9658
 4121SOL     OW23821   0.809   1.914   4.911 -0.2989  0.1991 -0.5827
 4121SOL    HW123822   0.873   1.983   4.927 -1.4307  1.4109 -1.3601
 4121SOL    HW223823   0.792   1.914   4.817 -1.1946 -1.1857 -0.4226
 4122SOL     OW23824   3.829   1.134   3.572  0.2253 -0.4041  0.0980
 4122SOL    HW123825   3.911   1.090   3.549 -0.3798 -0.9930 -0.9375
 4122SOL    HW223826   3.764   1.105   3.508 -1.5987  1.2558  1.2011
 4123SOL     OW23827   4.478   2.008   0.359  0.2535  0.1780 -0.1962
 4123SOL    HW123828   4.410   2.058   0.314  1.6996  0.9049 -1.5516
 4123SOL    HW223829   4.519   1.955   0.291  2.3234  0.6907  0.6515
 4124SOL     OW23830   1.106   4.500   6.781  0.1538  0.8943  0.1848
 4124SOL    HW123831   1.170   4.491   6.852 -1.9998 -1.5763  1.8357
 4124SOL    HW223832   1.143   4.565   6.722  2.2403 -0.9387 -0.5109
 4125SOL     OW23833   2.321   4.238   1.689  0.0036 -0.2242 -0.5524
 4125SOL    HW123834   2.256   4.172   1.665 -1.5121  0.9990  0.2778
 4125SOL    HW223835   2.288   4.309   1.635 -2.4083 -0.7764  0.2266
 4126SOL     OW23836   1.616   1.016   8.459 -0.0108  0.2425  0.2352
 4126SOL    HW123837   1.704   1.049   8.447 -0.1211 -0.9355 -3.9754
 4126SOL    HW223838   1.563   1.082   8.414  1.2059 -1.3619 -3.5321
 4127SOL     OW23839   1.079   1.151  10.149 -0.0851  0.5098  0.2213
 4127SOL    HW123840   1.032   1.100  10.215  1.2672  2.9263  3.0314
 4127SOL    HW223841   1.167   1.122  10.172 -0.6883 -3.2630 -2.1991
 4128SOL     OW23842   3.005   4.363   3.912  0.6303 -0.4538  0.4448
 4128SOL    HW123843   2.952   4.297   3.958 -2.5861  1.0383 -1.1626
 4128SOL    HW223844   3.047   4.405   3.988  0.7388 -3.1146  1.8637
 4129SOL     OW23845   1.870   0.744   7.675 -0.0632  0.5383 -0.1904
 4129SOL    HW123846   1.887   0.654   7.647 -1.0423  0.3943 -0.3486
 4129SOL    HW223847   1.859   0.733   7.770 -1.8998  0.8843 -0.3663
 4130SOL     OW23848   2.864   1.622  14.302  0.2651  0.6312 -0.2075
 4130SOL    HW123849   2.898   1.684  14.238  0.1059 -0.3477 -1.2467
 4130SOL    HW223850   2.907   1.543  14.270 -1.0713 -0.0284 -0.3653
 4131SOL     OW23851   3.275   1.314   7.017 -0.3236  0.3911 -0.0048
 4131SOL    HW123852   3.205   1.284   7.075 -1.1680  1.2589 -0.5625
 4131SOL    HW223853   3.344   1.249   7.025 -3.6357 -3.0879  0.7151
 4132SOL     OW23854   0.356   1.105   4.314 -0.0392 -0.1604 -0.8811
 4132SOL    HW123855   0.349   1.150   4.230  1.3450  1.5522 -0.0908
 4132SOL    HW223856   0.302   1.030   4.294  0.6310 -0.5022 -1.3906
 4133SOL     OW23857   4.630   2.854  14.247 -0.3995 -0.0490  0.3059
 4133SOL    HW123858   4.706   2.845  14.305 -0.6411  1.7600  0.9095
 4133SOL    HW223859   4.635   2.777  14.191  1.9960 -0.6973  1.4091
 4134SOL     OW23860   1.847   0.731   4.372 -0.4996 -0.5064 -0.4141
 4134SOL    HW123861   1.782   0.797   4.399 -0.0562 -0.4237  0.4685
 4134SOL    HW223862   1.929   0.767   4.405 -0.1492  0.5989 -2.5157
 4135SOL     OW23863   2.518   4.488   6.602 -0.0070 -0.6199  0.6138
 4135SOL    HW123864   2.556   4.499   6.515 -2.8616  2.8933 -0.1915
 4135SOL    HW223865   2.576   4.549   6.648  1.8525 -0.3093 -2.1684
 4136SOL     OW23866   2.488   4.076  15.954  0.4964  0.0312  0.3321
 4136SOL    HW123867   2.469   3.986  15.930 -1.8816  0.0618  2.0461
 4136SOL    HW223868   2.567   4.104  15.908 -0.1121  3.7864  1.5602
 4137SOL     OW23869   1.025   2.176   7.364 -0.1524 -0.0108 -0.3001
 4137SOL    HW123870   1.063   2.262   7.346 -0.5797 -0.0468 -1.3211
 4137SOL    HW223871   1.032   2.156   7.271 -1.1676 -0.1236 -0.3462
 4138SOL     OW23872   4.366   0.007   1.941  0.0077  0.0837  0.4957
 4138SOL    HW123873   4.321   0.075   1.992 -0.9411 -0.6834  0.6814
 4138SOL    HW223874   4.313   4.719   1.863  0.1664  0.0050  0.4028
 4139SOL     OW23875   1.643   3.439   3.012 -0.8302 -0.0201  0.4075
 4139SOL    HW123876   1.624   3.358   2.964  1.4813 -0.4688  0.2297
 4139SOL    HW223877   1.615   3.401   3.096  0.8621  0.8016  1.3462
 4140SOL     OW23878   3.170   3.270  12.173  0.2688  0.2598 -0.5469
 4140SOL    HW123879   3.224   3.229  12.241 -1.4725 -0.0625  0.6341
 4140SOL    HW223880   3.121   3.334  12.224  1.1606  2.3795 -2.3659
 4141SOL     OW23881   1.451   1.976  12.571  0.3467  0.5227  0.5716
 4141SOL    HW123882   1.423   1.885  12.571  0.4654  0.4865  2.1373
 4141SOL    HW223883   1.399   2.003  12.647  0.3322  2.7172 -0.2089
 4142SOL     OW23884   2.494   2.891   5.743 -0.4032  0.2115 -0.1323
 4142SOL    HW123885   2.534   2.805   5.729  1.4044  0.8255  1.1818
 4142SOL    HW223886   2.411   2.882   5.697 -0.2576  1.8494 -0.7052
 4143SOL     OW23887   0.547   0.456   2.641  0.5581 -0.2625  0.0773
 4143SOL    HW123888   0.537   0.456   2.737  0.2760  1.5333  0.0446
 4143SOL    HW223889   0.565   0.548   2.620  0.0676  0.2277  1.7312
 4144SOL     OW23890   3.487   4.122   5.705  0.3962 -0.2512  0.2003
 4144SOL    HW123891   3.409   4.127   5.650 -0.5931 -1.6110  1.4584
 4144SOL    HW223892   3.519   4.041   5.665  0.9743 -2.0051  4.0995
 4145SOL     OW23893   3.540   3.225   2.274 -0.8121 -0.1753 -0.4583
 4145SOL    HW123894   3.536   3.154   2.339  1.6405 -0.2369 -0.3664
 4145SOL    HW223895   3.621   3.267   2.302 -1.3643  1.0209 -0.6441
 4146SOL     OW23896   4.549   0.081   4.581 -0.0588 -0.1650 -0.2837
 4146SOL    HW123897   4.591   0.165   4.599 -1.1747  0.2503  0.3901
 4146SOL    HW223898   4.568   0.076   4.487 -1.1491 -0.1442 -0.4977
 4147SOL     OW23899   1.024   3.465   7.498 -0.0027 -0.0974 -0.6625
 4147SOL    HW123900   1.029   3.480   7.592 -2.3068 -0.0939 -0.5371
 4147SOL    HW223901   1.080   3.537   7.467 -0.0431  0.1595 -0.1323
 4148SOL     OW23902   3.625   1.768  16.987  0.6469  0.2321 -0.8584
 4148SOL    HW123903   3.594   1.707  16.920  0.5445  0.4460 -1.0062
 4148SOL    HW223904   3.693   1.718  17.032 -1.1651  1.3170  3.1518
 4149SOL     OW23905   1.948   2.733   4.776  0.7920 -0.0310 -0.2600
 4149SOL    HW123906   2.001   2.669   4.822  0.4942 -0.4752 -0.5257
 4149SOL    HW223907   1.902   2.684   4.708 -0.6830 -0.0080  0.7199
 4150SOL     OW23908   4.316   0.509   9.962  0.3978 -0.2533  0.0410
 4150SOL    HW123909   4.258   0.455   9.908  0.8909 -3.3994  2.6125
 4150SOL    HW223910   4.382   0.442   9.981  1.8811  0.9101 -0.9820
 4151SOL     OW23911   2.514   2.433   9.492 -0.3798 -0.0332  0.3990
 4151SOL    HW123912   2.498   2.527   9.508 -0.6607 -0.0256  0.0890
 4151SOL    HW223913   2.562   2.441   9.410 -0.7611 -1.4282  0.0414
 4152SOL     OW23914   2.367   3.103   7.850  0.1493  0.2162 -0.0043
 4152SOL    HW123915   2.311   3.118   7.774 -0.2567  1.4955  0.5546
 4152SOL    HW223916   2.452   3.090   7.807  0.3021 -0.2497  0.4353
 4153SOL     OW23917   1.286   0.932   2.203  0.0376 -0.4166  0.5459
 4153SOL    HW123918   1.376   0.961   2.188 -0.0557  0.0265  0.8221
 4153SOL    HW223919   1.273   0.985   2.281  0.2451 -1.5873  1.3727
 4154SOL     OW23920   0.026   1.681   4.739  0.3658 -0.1957  0.4317
 4154SOL    HW123921   0.053   1.667   4.829 -1.3416  0.7681  1.1011
 4154SOL    HW223922   4.660   1.708   4.749  0.4859  0.3253  0.1625
 4155SOL     OW23923   2.098   1.597  11.894  0.2565 -0.4381  0.4653
 4155SOL    HW123924   2.136   1.577  11.809  1.9620 -2.0435  1.6051
 4155SOL    HW223925   2.067   1.511  11.922 -0.6637 -0.0963  0.5040
 4156SOL     OW23926   1.962   1.853   2.659 -0.3050 -0.3247  0.3111
 4156SOL    HW123927   2.014   1.924   2.698 -1.0595  1.0577 -1.2171
 4156SOL    HW223928   1.984   1.780   2.717  0.3271 -1.1464 -0.9567
 4157SOL     OW23929   4.118   2.730   1.749 -0.2594 -0.2737  0.9032
 4157SOL    HW123930   4.149   2.799   1.690 -0.2027 -0.8614  0.2512
 4157SOL    HW223931   4.027   2.732   1.720  0.0343 -0.7825 -0.0308
 4158SOL     OW23932   2.081   1.126   5.015 -0.3863 -0.0374  0.1742
 4158SOL    HW123933   2.062   1.059   4.949  1.4528 -1.2802  0.8940
 4158SOL    HW223934   2.037   1.089   5.091  1.0069 -0.0871  0.9596
 4159SOL     OW23935   0.878   1.984   0.277 -0.3872  0.0045 -0.1926
 4159SOL    HW123936   0.961   2.030   0.264  0.3208 -1.0094  0.7241
 4159SOL    HW223937   0.820   2.061   0.274 -0.0395  0.3290  1.5731
 4160SOL     OW23938   4.683   3.610   9.205 -0.1266 -0.0924 -0.2586
 4160SOL    HW123939   0.011   3.656   9.269  1.7780 -3.0157  0.2148
 4160SOL    HW223940   4.682   3.525   9.249  1.0464  0.7157  1.3361
 4161SOL     OW23941   1.428   0.676   2.075  0.6595 -0.4406 -0.3061
 4161SOL    HW123942   1.495   0.691   2.141  0.0417  1.5584 -0.1447
 4161SOL    HW223943   1.363   0.740   2.103  1.7515 -0.3438  2.0185
 4162SOL     OW23944   0.479   3.049  12.636  0.4448  0.0221 -0.0001
 4162SOL    HW123945   0.499   2.959  12.662 -1.9391 -0.1554  1.2404
 4162SOL    HW223946   0.479   3.033  12.541 -0.5755 -4.6092  0.7543
 4163SOL     OW23947   0.485   2.413   0.511 -0.2500 -0.1528 -0.2637
 4163SOL    HW123948   0.492   2.503   0.480  2.1263  0.0830  0.9377
 4163SOL    HW223949   0.500   2.415   0.606 -4.2973  0.7891  0.3555
 4164SOL     OW23950   4.414   0.635   5.834  0.1206  0.0333  0.1831
 4164SOL    HW123951   4.365   0.554   5.819  0.0102 -0.3338  2.4957
 4164SOL    HW223952   4.508   0.615   5.830 -0.2916 -1.6806 -0.8879
 4165SOL     OW23953   2.222   3.440   3.580 -0.1344 -0.1436  0.3832
 4165SOL    HW123954   2.225   3.383   3.503  2.1467 -1.2158  1.2855
 4165SOL    HW223955   2.147   3.492   3.550 -0.8196  0.2787  2.8471
 4166SOL     OW23956   3.143   3.942  12.374 -0.3514 -0.2781  0.0886
 4166SOL    HW123957   3.167   4.030  12.344 -2.0486  0.4534  0.8921
 4166SOL    HW223958   3.214   3.925  12.437 -0.4175  0.0588  0.2552
 4167SOL     OW23959   0.020   4.121   4.332  0.3889 -0.1328  0.0224
 4167SOL    HW123960   0.001   4.133   4.239  1.1410 -1.4437 -0.3034
 4167SOL    HW223961   0.111   4.091   4.327  1.2310  2.6014 -0.8750
 4168SOL     OW23962   3.460   1.327  16.372 -0.2036  0.3051 -0.6349
 4168SOL    HW123963   3.382   1.380  16.360  0.1799  0.9727 -0.2224
 4168SOL    HW223964   3.444   1.287  16.458 -1.8924  0.0919 -1.0561
 4169SOL     OW23965   3.410   2.105   6.164 -0.9749  0.6960  0.0796
 4169SOL    HW123966   3.367   2.099   6.249 -0.6395 -0.1181  0.1973
 4169SOL    HW223967   3.449   2.193   6.165 -1.1373  0.7817 -1.1114
 4170SOL     OW23968   3.146   4.063   8.080 -0.2589  0.3704 -0.6413
 4170SOL    HW123969   3.052   4.078   8.084 -0.3014  0.3770 -1.7982
 4170SOL    HW223970   3.168   4.019   8.162  0.8463 -1.3646 -1.8834
 4171SOL     OW23971   1.795   3.277   5.532  0.1038 -0.2447 -0.1906
 4171SOL    HW123972   1.844   3.213   5.584 -0.7701  0.5151  1.5420
 4171SOL    HW223973   1.862   3.345   5.536  0.5625 -0.5872 -1.9611
 4172SOL     OW23974   4.347   0.621   2.717  0.0949  0.4914 -0.4131
 4172SOL    HW123975   4.331   0.714   2.735 -0.7458  0.2823 -0.0884
 4172SOL    HW223976   4.394   0.614   2.635  0.6744 -1.4898  0.0829
 4173SOL     OW23977   4.490   1.807   2.039 -0.2360  0.1298 -0.4301
 4173SOL    HW123978   4.494   1.902   2.055 -1.7623  0.1386 -0.1229
 4173SOL    HW223979   4.557   1.809   1.970 -1.0809  1.9231 -1.2035
 4174SOL     OW23980   1.016   2.514   5.328  0.0492  0.5231  1.0408
 4174SOL    HW123981   1.111   2.503   5.333 -0.2944 -2.7259  0.8569
 4174SOL    HW223982   0.990   2.571   5.399  1.1422 -0.3480  2.1422
 4175SOL     OW23983   3.163   2.506  15.891 -0.8559  0.7425 -0.2700
 4175SOL    HW123984   3.178   2.554  15.810  1.3212  1.8591  0.7826
 4175SOL    HW223985   3.235   2.539  15.946 -3.1111 -0.0273  3.1555
 4176SOL     OW23986   1.409   0.686   1.305  0.4240 -0.1242  0.3486
 4176SOL    HW123987   1.502   0.672   1.291  0.6079 -0.3402  1.7182
 4176SOL    HW223988   1.387   0.595   1.290 -2.7383  1.0643 -2.1060
 4177SOL     OW23989   1.182   0.553  16.150 -0.9120 -0.0458 -0.1546
 4177SOL    HW123990   1.108   0.510  16.107 -0.4823 -1.2319  0.2912
 4177SOL    HW223991   1.231   0.484  16.193  1.8225 -0.1896 -3.5399
 4178SOL     OW23992   1.200   0.644   0.838 -0.2639  0.5522  0.2803
 4178SOL    HW123993   1.271   0.691   0.793 -1.2770  1.2033 -0.6514
 4178SOL    HW223994   1.180   0.706   0.909 -0.0976  0.1568  0.6698
 4179SOL     OW23995   3.750   4.395   5.583  0.1931 -0.7003 -0.3109
 4179SOL    HW123996   3.795   4.313   5.605  0.9857  0.0547  0.9322
 4179SOL    HW223997   3.827   4.444   5.554 -0.7666  0.5963 -0.6261
 4180SOL     OW23998   2.177   3.886   6.823 -0.6095 -0.5245  0.0751
 4180SOL    HW123999   2.186   3.948   6.750 -2.8452 -0.6069 -0.2576
 4180SOL    HW224000   2.209   3.943   6.893  1.6238  1.2972 -2.3705
 4181SOL     OW24001   4.722   3.751   7.847 -0.5819  0.3552  0.0199
 4181SOL    HW124002   0.045   3.777   7.769 -0.3172 -0.3795 -0.0599
 4181SOL    HW224003   0.039   3.796   7.920  0.3734  1.6791 -1.3785
 4182SOL     OW24004   0.603   1.186   9.939  0.0095  0.1121 -0.4603
 4182SOL    HW124005   0.665   1.235   9.993  0.3556 -0.8277  0.0031
 4182SOL    HW224006   0.549   1.251   9.894  0.7985  0.4478 -0.9094
 4183SOL     OW24007   4.030   3.942   4.535 -0.1819 -0.2315 -0.0436
 4183SOL    HW124008   4.025   3.866   4.592 -3.6971  0.5371  0.6519
 4183SOL    HW224009   3.958   3.928   4.474  0.6479 -0.3705 -1.0051
 4184SOL     OW24010   1.925   1.396  10.980 -0.1227  0.1605 -0.4179
 4184SOL    HW124011   1.859   1.445  11.028  0.9372 -0.6019  1.8430
 4184SOL    HW224012   1.985   1.461  10.945 -0.0278  0.7778  0.8772
 4185SOL     OW24013   3.101   4.102   6.047 -0.2849  0.3098  0.3477
 4185SOL    HW124014   3.098   4.036   6.116 -1.2630  0.7059  0.6813
 4185SOL    HW224015   3.133   4.048   5.974 -0.6980  0.8969 -0.2697
 4186SOL     OW24016   2.283   3.645   7.648 -0.4236  0.0159 -0.3724
 4186SOL    HW124017   2.286   3.598   7.565 -0.9945 -0.0044 -0.3865
 4186SOL    HW224018   2.305   3.736   7.629  1.6930 -0.7879 -1.7434
 4187SOL     OW24019   3.423   3.699   6.517  0.2040  0.1481 -0.5178
 4187SOL    HW124020   3.489   3.733   6.577  0.6492 -0.6040 -0.5770
 4187SOL    HW224021   3.358   3.652   6.570  2.0460 -0.9909  0.7491
 4188SOL     OW24022   3.824   0.200   6.179  0.3142 -0.2176 -0.3059
 4188SOL    HW124023   3.739   0.234   6.206  0.6389  1.4890 -1.4440
 4188SOL    HW224024   3.853   0.251   6.103 -1.0269  0.1092 -0.5990
 4189SOL     OW24025   2.277   4.175   6.811  0.2770 -0.1665  0.0617
 4189SOL    HW124026   2.350   4.134   6.856  1.6394  0.2206 -1.7851
 4189SOL    HW224027   2.289   4.160   6.717  3.0212 -0.1201  0.4181
 4190SOL     OW24028   0.457   3.732   1.696  0.0821  0.1597  0.3134
 4190SOL    HW124029   0.471   3.640   1.719  1.6193  0.4285  0.4626
 4190SOL    HW224030   0.404   3.774   1.764 -0.3376 -1.5753  1.0551
 4191SOL     OW24031   1.598   1.971   4.875  0.7198  0.3063 -0.5794
 4191SOL    HW124032   1.610   1.987   4.969  0.8274 -0.1195 -0.5186
 4191SOL    HW224033   1.670   2.025   4.844  0.6332 -0.5284 -2.2541
 4192SOL     OW24034   0.707   3.962   4.143  0.7461 -0.1175  0.7063
 4192SOL    HW124035   0.641   4.001   4.085 -1.2997 -1.0366  2.4616
 4192SOL    HW224036   0.783   3.966   4.085  0.7845 -3.7732  0.5009
 4193SOL     OW24037   1.735   3.799   9.370  0.4648  0.3524  0.2151
 4193SOL    HW124038   1.785   3.739   9.426 -0.4343 -0.8318 -0.2654
 4193SOL    HW224039   1.807   3.850   9.334  0.3283 -0.2078 -0.8457
 4194SOL     OW24040   1.853   4.216   4.955 -0.6515 -0.6551 -0.4352
 4194SOL    HW124041   1.884   4.269   5.028 -1.3142 -0.3582 -0.3765
 4194SOL    HW224042   1.927   4.162   4.926 -0.3652 -0.9784  0.9167
 4195SOL     OW24043   4.328   3.238   1.210  0.1650 -0.4907  0.0911
 4195SOL    HW124044   4.329   3.332   1.225  3.6699 -0.6665  0.8680
 4195SOL    HW224045   4.396   3.225   1.144  1.0867  2.0515  0.5407
 4196SOL     OW24046   2.254   0.640   6.714  0.6075  0.0272  0.2768
 4196SOL    HW124047   2.279   0.677   6.629 -0.3938  1.7036  0.7259
 4196SOL    HW224048   2.337   0.595   6.732 -0.3285 -0.5356  3.0196
 4197SOL     OW24049   1.189   0.215   5.233 -0.5772 -0.2732  0.0535
 4197SOL    HW124050   1.138   0.166   5.168 -0.6086 -1.0088  0.6286
 4197SOL    HW224051   1.178   0.304   5.201 -0.5177 -0.5639 -0.7829
 4198SOL     OW24052   2.459   2.121  13.950  0.2856 -0.3839 -0.2454
 4198SOL    HW124053   2.520   2.112  13.877  1.1599  1.9353  0.2177
 4198SOL    HW224054   2.401   2.045  13.948 -0.0234 -0.1051 -1.5124
 4199SOL     OW24055   4.178   0.316   3.739  0.1910 -0.0824  0.3873
 4199SOL    HW124056   4.087   0.306   3.712  0.0098 -1.2860  1.4531
 4199SOL    HW224057   4.178   0.279   3.827 -0.3858 -1.0135 -0.0120
 4200SOL     OW24058   3.081   3.180  17.145  0.3952  0.0095  0.3675
 4200SOL    HW124059   3.092   3.153  17.236 -1.5716  1.1438  0.9308
 4200SOL    HW224060   3.142   3.118  17.105  1.0477  1.3911 -0.7850
 4201SOL     OW24061   4.411   2.938   6.377  0.1741  0.1680  0.0357
 4201SOL    HW124062   4.430   2.849   6.349 -1.5984 -0.0849 -0.3416
 4201SOL    HW224063   4.483   2.989   6.339 -0.1372  0.8882  0.4165
 4202SOL     OW24064   0.058   1.000  11.606 -0.5837 -0.3457 -0.0300
 4202SOL    HW124065   4.691   0.980  11.615 -0.3728 -1.7502 -0.9744
 4202SOL    HW224066   0.051   1.085  11.563 -1.7822 -0.1401  0.5839
 4203SOL     OW24067   2.521   1.814   1.534 -0.1317  0.2764  0.1596
 4203SOL    HW124068   2.469   1.782   1.460  2.3244 -2.1464 -0.5367
 4203SOL    HW224069   2.609   1.797   1.500 -0.7309 -1.2266 -0.6496
 4204SOL     OW24070   4.663   4.371   3.461  0.0267  0.2037 -0.4229
 4204SOL    HW124071   4.618   4.375   3.377 -1.0205 -0.9699  0.0742
 4204SOL    HW224072   4.721   4.296   3.450 -0.7860 -0.5669  0.4751
 4205SOL     OW24073   0.264   4.159   2.719 -0.4207  0.5712  0.5740
 4205SOL    HW124074   0.225   4.215   2.652 -0.1053 -0.5758 -0.5705
 4205SOL    HW224075   0.346   4.203   2.739  1.1671 -0.9927 -2.4942
 4206SOL     OW24076   0.207   1.707   5.262  0.3131  0.0907 -0.0659
 4206SOL    HW124077   0.130   1.764   5.258  0.5417  0.3615 -0.5905
 4206SOL    HW224078   0.160   1.625   5.271  1.5074 -0.6316 -0.4083
 4207SOL     OW24079   3.774   3.572   5.579  0.6969 -0.2591 -0.5682
 4207SOL    HW124080   3.867   3.586   5.592  1.0124 -1.4692 -1.4747
 4207SOL    HW224081   3.760   3.481   5.605  1.1903 -0.1520  0.0795
 4208SOL     OW24082   2.920   4.217   6.346 -0.2311 -0.8933 -0.1013
 4208SOL    HW124083   2.941   4.271   6.422  0.5922  0.0102 -0.9659
 4208SOL    HW224084   2.984   4.245   6.280 -0.7192  0.4474  0.0044
 4209SOL     OW24085   3.673   4.381   7.896 -0.1917 -0.8218 -0.6061
 4209SOL    HW124086   3.700   4.468   7.864 -2.5505  0.4583  0.8496
 4209SOL    HW224087   3.749   4.352   7.946 -0.8880  1.3821  1.8057
 4210SOL     OW24088   2.100   2.961  14.631 -0.4349  0.1421  0.0153
 4210SOL    HW124089   2.168   2.963  14.564 -1.0852  1.0377 -0.6104
 4210SOL    HW224090   2.161   2.955  14.705  1.0810  2.0947 -1.0635
 4211SOL     OW24091   2.505   0.069   0.009 -0.2870 -0.3221 -0.1098
 4211SOL    HW124092   2.433   0.060  17.651 -0.6970  1.6951  0.0678
 4211SOL    HW224093   2.571   0.010  17.676  1.2898  1.0737  0.4399
 4212SOL     OW24094   4.668   0.477   4.975 -0.3165 -0.4962  0.5973
 4212SOL    HW124095   4.634   0.556   4.932 -0.3566 -1.5297 -1.2569
 4212SOL    HW224096   0.016   0.523   5.015 -0.6504  0.4798  0.1198
 4213SOL     OW24097   2.820   1.107   7.637  0.1104  0.3617 -0.6377
 4213SOL    HW124098   2.860   1.056   7.708  0.4669  1.8403  0.2033
 4213SOL    HW224099   2.899   1.137   7.592 -0.0071  0.0072 -1.0774
 4214SOL     OW24100   2.646   4.570  17.358 -0.5442 -0.3375  0.2228
 4214SOL    HW124101   2.603   4.645  17.317 -2.3761 -0.3985  1.9973
 4214SOL    HW224102   2.636   4.508  17.287 -1.2456 -0.6182  0.5661
 4215SOL     OW24103   1.744   0.214   3.931 -0.2628  0.1724  0.1579
 4215SOL    HW124104   1.744   0.132   3.881  0.3138  0.6030 -0.5470
 4215SOL    HW224105   1.792   0.279   3.879 -1.2252  0.5494 -0.2582
 4216SOL     OW24106   1.534   3.394  16.322  0.1862 -0.0549  0.0819
 4216SOL    HW124107   1.590   3.412  16.397  0.9501  0.1159 -0.5237
 4216SOL    HW224108   1.518   3.302  16.340  1.5561  0.1851  2.4940
 4217SOL     OW24109   1.617   1.374   4.300 -0.2446 -0.0283  0.0367
 4217SOL    HW124110   1.647   1.420   4.379 -1.7997  0.2012  0.4849
 4217SOL    HW224111   1.690   1.370   4.239 -1.4555  0.0003 -1.3876
 4218SOL     OW24112   3.918   0.818  16.906  0.5647  0.3884  0.0017
 4218SOL    HW124113   3.854   0.748  16.899  0.4893  0.2569  1.9212
 4218SOL    HW224114   3.883   0.876  16.974 -0.7535 -2.0442  1.4176
 4219SOL     OW24115   0.479   3.806   4.812  0.4041  0.9278 -0.1203
 4219SOL    HW124116   0.521   3.799   4.727 -1.0040 -0.6810 -0.6784
 4219SOL    HW224117   0.479   3.713   4.839 -1.0319  0.8836 -0.2719
 4220SOL     OW24118   4.179   0.997  12.217 -0.6081  0.1390 -0.4194
 4220SOL    HW124119   4.228   1.061  12.269 -1.2223  0.5834 -0.3888
 4220SOL    HW224120   4.134   1.058  12.159 -1.2871 -0.5682 -0.6398
 4221SOL     OW24121   0.928   0.495  14.537  0.3508 -0.0998 -0.6138
 4221SOL    HW124122   0.889   0.411  14.513 -0.6315  0.7818 -2.1180
 4221SOL    HW224123   0.961   0.468  14.623  0.4082  1.4023 -0.1542
 4222SOL     OW24124   0.528   2.527  13.684  0.0389 -0.0255  0.1622
 4222SOL    HW124125   0.500   2.614  13.711 -1.6998 -0.4670 -0.1759
 4222SOL    HW224126   0.555   2.542  13.593  0.4652  1.0764  0.4790
 4223SOL     OW24127   0.234   2.530   7.453 -0.4645  0.1108 -0.1817
 4223SOL    HW124128   0.318   2.491   7.430 -0.4737  0.1695 -0.3109
 4223SOL    HW224129   0.255   2.623   7.452 -1.9224  0.4072 -2.3796
 4224SOL     OW24130   0.675   2.085   7.345  0.2566  0.5092  0.1484
 4224SOL    HW124131   0.684   2.103   7.439  1.0851  1.2399 -0.0749
 4224SOL    HW224132   0.761   2.115   7.317  0.0710  0.3386 -0.6045
 4225SOL     OW24133   2.484   3.821   3.311  0.1844 -0.1178 -0.8065
 4225SOL    HW124134   2.554   3.833   3.376 -0.8639  2.1121 -0.0718
 4225SOL    HW224135   2.529   3.779   3.238  2.4395  1.9010 -0.5964
 4226SOL     OW24136   3.527   4.648   5.862 -0.0062 -0.0519 -0.3374
 4226SOL    HW124137   3.538   4.581   5.795  1.4018 -1.9261  1.7825
 4226SOL    HW224138   3.446   4.680   5.822  0.4391 -1.2607 -2.2308
 4227SOL     OW24139   1.801   4.551   7.517  0.5740  0.1431 -0.4232
 4227SOL    HW124140   1.839   4.630   7.478  1.7533  1.2769  2.9804
 4227SOL    HW224141   1.852   4.482   7.476  1.1608  0.8139 -0.8334
 4228SOL     OW24142   2.598   1.894   4.546 -0.5586  0.5651  0.7297
 4228SOL    HW124143   2.580   1.939   4.629  1.7540  1.0870  0.9549
 4228SOL    HW224144   2.513   1.873   4.508 -0.4290  1.4598 -0.0845
 4229SOL     OW24145   2.046   1.864  11.912  0.0913  0.0888  0.2449
 4229SOL    HW124146   2.082   1.775  11.910  2.0169  0.8466  1.3207
 4229SOL    HW224147   2.085   1.901  11.833 -0.4794 -0.1278 -0.1437
 4230SOL     OW24148   0.207   0.341   6.691 -0.5179  0.5829  0.5878
 4230SOL    HW124149   0.267   0.328   6.764 -1.8187 -0.9070  1.3776
 4230SOL    HW224150   0.251   0.316   6.609 -0.4340 -2.0055  1.4116
 4231SOL     OW24151   0.102   1.286   7.629 -1.0599  0.0687  0.7354
 4231SOL    HW124152   0.153   1.367   7.631  0.8673 -1.0752 -1.7832
 4231SOL    HW224153   0.024   1.322   7.586 -0.5943  0.7084  0.4258
 4232SOL     OW24154   1.545   2.735   8.108 -0.4377 -0.1891  0.6086
 4232SOL    HW124155   1.604   2.785   8.164  1.2347 -1.6376  0.1286
 4232SOL    HW224156   1.498   2.808   8.067  0.3953  1.1560  2.0473
 4233SOL     OW24157   0.376   4.211   6.467 -0.2097  0.1704  0.1187
 4233SOL    HW124158   0.352   4.300   6.492 -1.9785  0.3000 -1.9941
 4233SOL    HW224159   0.406   4.232   6.379 -1.4408  1.7203  0.0754
 4234SOL     OW24160   0.082   2.077   5.897  0.1795  0.5510 -0.2822
 4234SOL    HW124161   0.160   2.115   5.857  0.6241 -0.4757 -0.3894
 4234SOL    HW224162   0.051   2.021   5.825 -2.1434  1.1398  0.2508
 4235SOL     OW24163   4.485   0.185   6.807 -0.1160  0.1023 -0.4157
 4235SOL    HW124164   4.528   0.167   6.891 -0.5407  0.3374 -0.1439
 4235SOL    HW224165   4.394   0.168   6.832  0.4418  0.3859  1.8061
 4236SOL     OW24166   0.921   1.734   8.532  0.2222 -0.0524 -0.0895
 4236SOL    HW124167   0.827   1.744   8.521  0.5033  1.1111 -1.4795
 4236SOL    HW224168   0.945   1.735   8.439 -1.0391 -0.5023 -0.4171
 4237SOL     OW24169   2.379   0.369   3.638 -0.2714 -0.2700  0.1654
 4237SOL    HW124170   2.391   0.416   3.721 -0.3395 -0.3171  0.2013
 4237SOL    HW224171   2.364   0.439   3.575  0.2737 -1.0678 -0.8388
 4238SOL     OW24172   3.529   0.608   4.963 -0.1721 -0.1124 -0.2036
 4238SOL    HW124173   3.533   0.520   4.927  1.3267 -0.1111 -0.0082
 4238SOL    HW224174   3.581   0.600   5.043  0.8310 -1.3716 -1.0007
 4239SOL     OW24175   3.111   1.868   9.286 -0.2850  0.2793 -0.4759
 4239SOL    HW124176   3.083   1.944   9.337  0.7097  0.8832 -0.8198
 4239SOL    HW224177   3.203   1.876   9.313 -0.8158  1.8267  0.8819
 4240SOL     OW24178   0.471   1.681   5.290 -0.5104  0.1564 -0.4337
 4240SOL    HW124179   0.510   1.768   5.280 -0.9506  0.4048 -0.0027
 4240SOL    HW224180   0.379   1.700   5.269 -1.2941  0.0073  2.8498
 4241SOL     OW24181   4.545   0.877  10.414  0.1038 -0.4147  0.1831
 4241SOL    HW124182   4.567   0.828  10.494  0.7005  0.9595  0.8616
 4241SOL    HW224183   4.457   0.842  10.398  0.5991 -1.4491 -0.2675
 4242SOL     OW24184   0.769   4.255   5.468  0.1581  0.2909  0.0113
 4242SOL    HW124185   0.800   4.311   5.539 -2.0802 -0.1250  1.3026
 4242SOL    HW224186   0.804   4.168   5.488  1.0613  0.8245  0.7521
 4243SOL     OW24187   1.184   2.486   4.795 -0.6219  0.0237  0.4945
 4243SOL    HW124188   1.151   2.476   4.706  2.1664 -1.1879 -0.3808
 4243SOL    HW224189   1.275   2.502   4.770 -0.4363  1.0588  1.8103
 4244SOL     OW24190   3.055   4.295  14.124 -0.2962  0.6772  1.1783
 4244SOL    HW124191   3.015   4.252  14.049  1.1201  0.7255  0.4037
 4244SOL    HW224192   2.979   4.340  14.160 -1.7556 -1.7861  1.2390
 4245SOL     OW24193   3.366   2.305   4.012 -0.2062 -0.1739  0.0352
 4245SOL    HW124194   3.273   2.309   4.032 -0.4918  0.5432 -1.4950
 4245SOL    HW224195   3.394   2.362   4.083 -3.4233  1.7369 -0.2326
 4246SOL     OW24196   4.342   4.224   0.395  0.6926 -0.3638  0.2654
 4246SOL    HW124197   4.355   4.220   0.490 -0.1611  0.3600  0.4155
 4246SOL    HW224198   4.252   4.191   0.394  1.0671 -1.3671 -0.4801
 4247SOL     OW24199   3.279   2.473   2.040 -0.2508  0.5421 -0.2049
 4247SOL    HW124200   3.214   2.473   1.969  0.2203 -1.5196 -0.6295
 4247SOL    HW224201   3.232   2.530   2.101 -1.1304 -0.9832  0.5282
 4248SOL     OW24202   0.182   0.713   2.365 -0.0178 -0.0448 -0.5872
 4248SOL    HW124203   0.185   0.761   2.282  0.2681 -0.8539 -1.0440
 4248SOL    HW224204   0.187   0.788   2.425  1.5893 -1.1400  0.6418
 4249SOL     OW24205   3.709   2.058  15.115  0.0406 -0.6875 -0.3624
 4249SOL    HW124206   3.760   2.139  15.128 -1.5892 -0.1207  2.5598
 4249SOL    HW224207   3.642   2.075  15.181  1.0168  0.3906  0.3552
 4250SOL     OW24208   3.571   0.922   6.403 -0.4072  0.1595 -0.5100
 4250SOL    HW124209   3.556   0.962   6.489 -1.0119  0.2562 -0.6585
 4250SOL    HW224210   3.583   0.998   6.346 -0.3202  0.6350  0.1376
 4251SOL     OW24211   3.017   3.238  12.914  0.1958 -0.0143  0.6479
 4251SOL    HW124212   2.992   3.218  13.004 -1.9221  1.6668  0.4297
 4251SOL    HW224213   2.941   3.197  12.872 -0.3366 -0.1265  1.7395
 4252SOL     OW24214   4.473   1.068   3.926 -0.3633  0.1796 -0.2059
 4252SOL    HW124215   4.443   1.151   3.963  0.9405 -0.1062  1.4807
 4252SOL    HW224216   4.392   1.026   3.896 -0.6537  0.6726 -0.1137
 4253SOL     OW24217   4.127   2.487   2.252 -0.4461 -0.1788  0.3870
 4253SOL    HW124218   4.147   2.572   2.289  1.0826 -0.4636  0.2004
 4253SOL    HW224219   4.216   2.467   2.223  0.2874  3.2032  0.3542
 4254SOL     OW24220   1.697   2.338  14.229  0.3863  0.0944  0.3814
 4254SOL    HW124221   1.696   2.356  14.135 -0.9435  0.2930  0.4311
 4254SOL    HW224222   1.787   2.357  14.254  0.9426 -0.1848 -1.4424
 4255SOL     OW24223   1.387   1.765  13.397 -0.5288 -0.1757 -0.1591
 4255SOL    HW124224   1.316   1.732  13.343  0.7321 -0.8849 -1.3984
 4255SOL    HW224225   1.447   1.691  13.387 -1.2358 -0.5678 -1.3949
 4256SOL     OW24226   3.390   0.602   6.451 -0.0515  0.4296  0.2519
 4256SOL    HW124227   3.363   0.576   6.539 -2.5214 -2.0004 -1.2570
 4256SOL    HW224228   3.480   0.570   6.441 -1.5835 -3.3624 -1.0965
 4257SOL     OW24229   1.360   4.272  17.401 -0.0324 -0.0326  0.1845
 4257SOL    HW124230   1.271   4.267  17.365  0.0548  0.2196 -0.0700
 4257SOL    HW224231   1.341   4.320  17.482 -0.5808 -2.6728  1.6272
 4258SOL     OW24232   3.236   4.149   6.623  0.6901  0.3510 -0.3733
 4258SOL    HW124233   3.223   4.150   6.718  0.5354  0.5357 -0.3957
 4258SOL    HW224234   3.237   4.054   6.612  0.1818  0.1626  1.2876
 4259SOL     OW24235   1.263   4.541   4.750  0.3109  0.2890 -0.0914
 4259SOL    HW124236   1.184   4.570   4.705  1.6425  1.9898 -1.3395
 4259SOL    HW224237   1.241   4.537   4.843 -1.4708 -0.0559 -0.5376
 4260SOL     OW24238   3.066   3.040   1.939 -0.1886 -0.0684  0.1145
 4260SOL    HW124239   3.111   2.958   1.921 -2.0018 -0.5507 -2.2258
 4260SOL    HW224240   3.009   3.007   2.009  2.4032 -0.8142  1.8704
 4261SOL     OW24241   2.258   3.789  10.036  0.1219  0.0788  0.7643
 4261SOL    HW124242   2.233   3.881  10.038 -0.4002  0.0186 -2.9839
 4261SOL    HW224243   2.266   3.767  10.128 -1.3576  0.0311  0.8891
 4262SOL     OW24244   3.349   2.521   6.469 -0.1057  0.5010  0.2874
 4262SOL    HW124245   3.348   2.588   6.400 -2.1375 -0.6783 -0.8519
 4262SOL    HW224246   3.377   2.446   6.416 -0.3490  0.7710 -0.2242
 4263SOL     OW24247   4.319   3.582   5.493  0.1489  0.4964 -0.6719
 4263SOL    HW124248   4.396   3.531   5.517 -0.0402  0.7868  0.5391
 4263SOL    HW224249   4.287   3.548   5.410 -2.5605 -1.9515  1.3854
 4264SOL     OW24250   4.333   4.394   9.786  0.0666  0.1446  0.0805
 4264SOL    HW124251   4.325   4.423   9.877  0.2310  2.2331 -0.5579
 4264SOL    HW224252   4.422   4.422   9.765  0.8552 -2.4423  0.0810
 4265SOL     OW24253   2.802   3.450   2.578  0.3291 -0.2839  0.2739
 4265SOL    HW124254   2.822   3.359   2.555  1.4330 -0.1463  0.6776
 4265SOL    HW224255   2.874   3.494   2.532  0.9146  0.0714  1.5564
 4266SOL     OW24256   2.651   0.727   3.677 -0.2039 -0.2279  0.4572
 4266SOL    HW124257   2.722   0.664   3.669 -1.5637 -1.5762 -0.9176
 4266SOL    HW224258   2.686   0.815   3.663 -2.2623  0.3971 -0.7717
 4267SOL     OW24259   3.118   4.681   3.510 -0.4569 -0.1894 -0.2245
 4267SOL    HW124260   3.029   4.715   3.517 -0.8208 -1.0213 -0.8826
 4267SOL    HW224261   3.148   0.021   3.448 -3.0224  1.4062  0.1866
 4268SOL     OW24262   3.642   2.743   8.914  0.3687  0.5091  0.2586
 4268SOL    HW124263   3.633   2.744   8.819 -1.9346 -1.1744  0.4399
 4268SOL    HW224264   3.725   2.697   8.924  0.7793  0.5575 -2.8139
 4269SOL     OW24265   0.632   2.206   5.285 -0.2278 -0.5528  0.0884
 4269SOL    HW124266   0.658   2.274   5.348 -2.1281 -0.2454  0.5548
 4269SOL    HW224267   0.688   2.232   5.212 -0.2125  0.9647  0.6260
 4270SOL     OW24268   2.708   1.831   0.914  0.0978  0.0429  0.5984
 4270SOL    HW124269   2.644   1.902   0.922 -0.1110  0.0470 -1.2482
 4270SOL    HW224270   2.731   1.838   0.822  0.9484 -0.1527  0.7975
 4271SOL     OW24271   3.470   1.826   3.059 -0.8171  0.4166  0.5173
 4271SOL    HW124272   3.475   1.789   2.971  1.2363 -1.2014  1.2973
 4271SOL    HW224273   3.561   1.856   3.062  0.1685 -2.1388 -3.0258
 4272SOL     OW24274   2.641   0.475   5.886  0.5691  0.2735 -0.1570
 4272SOL    HW124275   2.684   0.474   5.800 -1.2865 -1.9658 -1.0631
 4272SOL    HW224276   2.581   0.547   5.869  3.7835  3.0216  0.0383
 4273SOL     OW24277   1.775   1.100   0.657  0.4435 -0.0597 -0.4274
 4273SOL    HW124278   1.821   1.070   0.579  1.7295  1.2251 -0.1704
 4273SOL    HW224279   1.788   1.195   0.657 -1.9229  0.2645  2.8421
 4274SOL     OW24280   3.521   2.235  13.626  0.4605  0.7169  0.1145
 4274SOL    HW124281   3.563   2.208  13.708 -0.8762  0.8074  0.8298
 4274SOL    HW224282   3.430   2.222  13.655  0.6727 -0.4873  0.2386
 4275SOL     OW24283   3.999   3.255   7.341  0.0934 -0.6246 -0.0300
 4275SOL    HW124284   4.001   3.207   7.424 -1.8150 -0.3643  0.1607
 4275SOL    HW224285   3.909   3.286   7.335 -0.0030 -1.2458 -1.6231
 4276SOL     OW24286   3.362   2.367   4.287  0.5819  0.1650 -0.3992
 4276SOL    HW124287   3.377   2.285   4.333 -1.4516 -0.6147 -1.1392
 4276SOL    HW224288   3.353   2.427   4.362  2.0117  0.6084 -0.5805
 4277SOL     OW24289   4.080   1.056   6.035  0.5905 -0.6855  0.1301
 4277SOL    HW124290   3.993   1.031   6.066  0.1903  0.3251 -0.2092
 4277SOL    HW224291   4.109   0.984   5.979 -0.4497 -0.2281 -0.9784
 4278SOL     OW24292   1.905   3.275   0.272 -0.3874 -0.3106 -0.0472
 4278SOL    HW124293   1.948   3.189   0.263  0.4508  0.0177  0.7784
 4278SOL    HW224294   1.981   3.329   0.251 -0.0235  0.2472  2.6453
 4279SOL     OW24295   2.893   1.369   8.810 -0.0492 -0.3113  0.1376
 4279SOL    HW124296   2.983   1.337   8.813 -0.7950 -2.0359  4.5945
 4279SOL    HW224297   2.903   1.464   8.810  1.9619 -0.4912  5.2537
 4280SOL     OW24298   3.286   1.846  14.692  0.3981  0.2103  0.2059
 4280SOL    HW124299   3.366   1.806  14.724 -0.5839 -0.1065  2.3012
 4280SOL    HW224300   3.291   1.938  14.718 -1.9596  0.9337 -1.8502
 4281SOL     OW24301   1.621   4.580   1.396 -0.1385  0.5697 -0.4985
 4281SOL    HW124302   1.614   4.661   1.447  0.1798 -0.0548  0.5474
 4281SOL    HW224303   1.628   4.623   1.311  1.0074  0.5061 -0.4383
 4282SOL     OW24304   2.784   1.338   8.545  0.5580  0.3165  1.1197
 4282SOL    HW124305   2.773   1.367   8.636  0.3598  0.0455  1.1835
 4282SOL    HW224306   2.755   1.420   8.506 -1.8674 -0.6428  0.9017
 4283SOL     OW24307   3.795   4.433   7.394 -0.1400  0.2004  0.3207
 4283SOL    HW124308   3.853   4.370   7.437  1.3168  0.5163 -1.1653
 4283SOL    HW224309   3.714   4.384   7.404  0.8953 -0.9356  3.2209
 4284SOL     OW24310   3.600   1.649   5.929  0.2879 -0.4167 -0.4795
 4284SOL    HW124311   3.540   1.637   5.856 -1.4681  2.8270  0.4346
 4284SOL    HW224312   3.586   1.740   5.954 -1.6208 -1.7390  3.4291
 4285SOL     OW24313   2.128   2.756   7.333  0.3070  0.1944 -0.0345
 4285SOL    HW124314   2.062   2.728   7.270  2.7659 -1.3043 -1.9947
 4285SOL    HW224315   2.191   2.685   7.320  0.7392  0.1526  2.3199
 4286SOL     OW24316   1.766   1.797  17.079 -0.6316  0.2102  0.3641
 4286SOL    HW124317   1.680   1.837  17.091 -0.7723 -0.9115  3.1351
 4286SOL    HW224318   1.787   1.816  16.988 -2.0365  1.0778  0.2299
 4287SOL     OW24319   4.665   4.391   1.828 -0.7307 -0.2646 -0.4793
 4287SOL    HW124320   4.686   4.416   1.918 -0.6843 -3.3022  0.3306
 4287SOL    HW224321   4.570   4.384   1.833 -0.7659  1.2300  1.0954
 4288SOL     OW24322   1.116   3.065  10.320 -0.1936 -0.5425 -0.2685
 4288SOL    HW124323   1.211   3.063  10.312 -0.0019  1.5622  1.6405
 4288SOL    HW224324   1.113   3.147  10.270 -2.5198  0.7224  1.9226
 4289SOL     OW24325   3.785   4.157  11.031  0.1213 -0.4650 -0.1033
 4289SOL    HW124326   3.769   4.065  11.052 -1.3090 -0.4689 -1.2471
 4289SOL    HW224327   3.795   4.201  11.116 -0.1876 -1.9085  0.6858
 4290SOL     OW24328   2.498   0.274   6.086  0.1954  0.1830 -0.1100
 4290SOL    HW124329   2.558   0.200   6.075  1.1298  1.0915 -1.0364
 4290SOL    HW224330   2.554   0.347   6.058  0.4765 -0.4911 -1.2868
 4291SOL     OW24331   3.811   3.190  12.508  0.0582 -0.2849 -0.0641
 4291SOL    HW124332   3.902   3.185  12.537  0.4256  0.8228 -1.0388
 4291SOL    HW224333   3.823   3.243  12.430  2.8285 -0.9947 -0.1175
 4292SOL     OW24334   0.601   4.063   2.295  0.4309  0.5659 -0.5246
 4292SOL    HW124335   0.509   4.048   2.273  0.8733 -2.5322 -0.1771
 4292SOL    HW224336   0.587   4.129   2.363 -1.7236  0.3596 -0.7824
 4293SOL     OW24337   3.469   3.491   1.501 -0.0322  0.2881 -0.1197
 4293SOL    HW124338   3.512   3.521   1.421 -1.1944  0.4510 -0.6891
 4293SOL    HW224339   3.378   3.489   1.471 -0.0016  3.6655 -0.3913
 4294SOL     OW24340   3.034   3.929   5.229  0.1706 -0.1612  0.6150
 4294SOL    HW124341   3.117   3.910   5.274  0.2641  0.7712  0.8248
 4294SOL    HW224342   2.986   3.964   5.304 -0.7029 -1.0212  0.4537
 4295SOL     OW24343   2.699   2.781   2.168 -0.4014 -0.0482  0.2697
 4295SOL    HW124344   2.657   2.695   2.164  0.5950 -0.6261  2.1040
 4295SOL    HW224345   2.627   2.822   2.217  0.9405  2.0208  0.4862
 4296SOL     OW24346   3.256   0.420   6.033  0.5859 -0.7531 -0.1867
 4296SOL    HW124347   3.266   0.357   6.104 -1.6973  0.3439  1.1076
 4296SOL    HW224348   3.192   0.483   6.067  1.5821 -0.6752  1.5109
 4297SOL     OW24349   2.695   4.249   7.560 -0.3949  0.6379  0.0311
 4297SOL    HW124350   2.624   4.305   7.590  1.7885  2.6556  1.4469
 4297SOL    HW224351   2.741   4.229   7.642  0.9314 -0.9731 -1.0982
 4298SOL     OW24352   2.593   0.193   3.094 -0.2010  0.2438  0.9460
 4298SOL    HW124353   2.673   0.170   3.048 -0.5192  2.0849 -0.5204
 4298SOL    HW224354   2.539   0.128   3.048 -0.8942  1.3790  0.1488
 4299SOL     OW24355   1.350   2.218  11.773 -0.0758 -0.5388 -0.1609
 4299SOL    HW124356   1.296   2.154  11.727  0.4346 -1.2029  0.1733
 4299SOL    HW224357   1.428   2.170  11.800  0.8979  1.8212  1.2125
 4300SOL     OW24358   2.217   0.383   5.123 -0.3191  0.1663  0.2384
 4300SOL    HW124359   2.257   0.300   5.098  2.2961  1.3833  0.3576
 4300SOL    HW224360   2.291   0.444   5.130 -0.5884  0.4431  0.5995
 4301SOL     OW24361   3.613   0.455   7.794 -0.4878 -0.4969  0.3051
 4301SOL    HW124362   3.588   0.512   7.722  0.4595  1.6518  1.6900
 4301SOL    HW224363   3.591   0.369   7.759  0.7638 -0.5272 -0.4105
 4302SOL     OW24364   1.129   4.243   4.642 -0.0651  0.5092  0.9272
 4302SOL    HW124365   1.168   4.253   4.555 -1.4969  0.4635  0.2653
 4302SOL    HW224366   1.204   4.222   4.697 -1.2310 -1.8924  1.5811
 4303SOL     OW24367   1.596   1.462   8.275  0.3106  0.0645  0.2037
 4303SOL    HW124368   1.515   1.459   8.224  0.0297  0.7569  0.6132
 4303SOL    HW224369   1.651   1.513   8.215  0.2087 -1.3170 -1.0765
 4304SOL     OW24370   0.446   2.637   4.250  0.5928  0.6758  0.0382
 4304SOL    HW124371   0.386   2.708   4.224  0.8741  1.2525  0.9581
 4304SOL    HW224372   0.531   2.652   4.208 -0.0786  1.7836 -0.9489
 4305SOL     OW24373   2.311   2.394  16.350 -0.1242 -0.0378  0.0800
 4305SOL    HW124374   2.334   2.430  16.436 -0.5371  2.5333 -0.8979
 4305SOL    HW224375   2.258   2.458  16.303 -2.1470 -1.0898  0.9415
 4306SOL     OW24376   3.376   4.549   4.160  0.3150  0.1751 -0.2972
 4306SOL    HW124377   3.411   4.547   4.249 -0.5668 -2.8464 -0.0367
 4306SOL    HW224378   3.435   4.611   4.118 -0.2254  0.3535 -0.7947
 4307SOL     OW24379   4.344   2.712   7.414  0.1285 -0.4359 -0.1363
 4307SOL    HW124380   4.368   2.799   7.381 -0.0887 -0.7317 -1.0790
 4307SOL    HW224381   4.352   2.661   7.334 -2.7381 -1.3102  0.1587
 4308SOL     OW24382   3.801   2.675   7.295  0.4674  0.4859  0.2431
 4308SOL    HW124383   3.829   2.594   7.252  0.8320  1.1730 -0.7969
 4308SOL    HW224384   3.882   2.698   7.341  0.7232  0.0589  0.0077
 4309SOL     OW24385   4.628   3.449   0.956  0.1854  0.3843 -0.1434
 4309SOL    HW124386   4.712   3.488   0.978  0.6870 -0.4220 -0.6085
 4309SOL    HW224387   4.620   3.383   1.025 -0.3320  0.1595 -0.4127
 4310SOL     OW24388   0.490   3.918   9.322  0.1270  0.1473  0.6596
 4310SOL    HW124389   0.414   3.859   9.320 -0.6319  1.2067 -0.9598
 4310SOL    HW224390   0.505   3.921   9.417  1.5357  0.3139  0.4335
 4311SOL     OW24391   4.465   1.806   5.426 -0.4732  0.1611  0.0270
 4311SOL    HW124392   4.402   1.749   5.384 -1.1667  1.8136 -1.1975
 4311SOL    HW224393   4.410   1.857   5.486  0.4675 -1.4069  2.2000
 4312SOL     OW24394   1.059   1.272   7.200  0.3686  0.4869 -0.5016
 4312SOL    HW124395   1.110   1.242   7.275 -1.6045 -0.6509  0.3910
 4312SOL    HW224396   1.000   1.196   7.197  0.2484  0.5827 -0.6006
 4313SOL     OW24397   4.607   2.046   5.519 -0.3131 -0.6616  0.0670
 4313SOL    HW124398   4.627   2.123   5.572 -0.8558 -0.7175  0.3513
 4313SOL    HW224399   4.681   1.994   5.549 -0.8565  0.6510  3.6353
 4314SOL     OW24400   0.757   3.664  11.795 -0.1982  0.6923  0.2039
 4314SOL    HW124401   0.843   3.649  11.833 -0.4185 -0.0933  0.3944
 4314SOL    HW224402   0.719   3.714  11.867  1.1306  1.4914  0.3309
 4315SOL     OW24403   3.438   0.303   3.979  0.8638  0.0573  0.1567
 4315SOL    HW124404   3.391   0.292   4.062 -0.5087  2.5765 -0.3026
 4315SOL    HW224405   3.433   0.213   3.946  1.0468  0.3582 -0.6898
 4316SOL     OW24406   2.919   2.916   0.203 -0.3629  0.1289 -0.5278
 4316SOL    HW124407   2.976   2.844   0.176 -0.5353 -0.1973 -0.0044
 4316SOL    HW224408   2.984   2.986   0.206 -1.6673  1.3329 -0.3794
 4317SOL     OW24409   2.368   0.286   8.495 -0.7498  0.1147  0.3160
 4317SOL    HW124410   2.425   0.261   8.567  1.5660 -0.7736 -1.8044
 4317SOL    HW224411   2.293   0.227   8.507 -1.0567  0.2752 -0.7275
 4318SOL     OW24412   4.094   3.990  11.958  0.5356 -0.2208 -0.1498
 4318SOL    HW124413   4.013   3.954  11.921  0.3330 -0.8158  0.8690
 4318SOL    HW224414   4.089   4.080  11.926  0.6569  0.0478  0.5729
 4319SOL     OW24415   2.109   2.243   5.059 -0.1437  0.5138  0.0312
 4319SOL    HW124416   2.143   2.252   5.148 -1.1117 -1.7550  0.6393
 4319SOL    HW224417   2.030   2.297   5.059 -0.0589  0.6250  1.3265
 4320SOL     OW24418   2.622   3.969   2.236 -0.2632  0.0771 -0.4677
 4320SOL    HW124419   2.625   4.062   2.256 -2.2122 -0.0130  0.2451
 4320SOL    HW224420   2.541   3.952   2.188 -1.6831  0.1350  1.8934
 4321SOL     OW24421   3.121   0.016   7.529  0.2010 -0.1359 -0.0720
 4321SOL    HW124422   3.035   4.706   7.508  0.4610  1.3030 -3.5058
 4321SOL    HW224423   3.145   0.064   7.449  2.8242 -0.8717  0.2584
 4322SOL     OW24424   2.463   3.062   2.570  0.1463  0.5071 -0.6475
 4322SOL    HW124425   2.494   3.049   2.480  0.5470 -1.3584 -0.2503
 4322SOL    HW224426   2.489   3.154   2.576  0.8713  0.3651 -1.5525
 4323SOL     OW24427   3.357   4.285   2.800  0.3714 -0.2962 -0.1189
 4323SOL    HW124428   3.308   4.234   2.864 -0.8513 -0.4123 -1.1601
 4323SOL    HW224429   3.398   4.349   2.859  1.2596 -1.1812  0.2264
 4324SOL     OW24430   3.918   3.297   3.946  0.0832 -0.5356  0.3542
 4324SOL    HW124431   3.851   3.240   3.984  1.6907 -2.1712  0.7393
 4324SOL    HW224432   3.918   3.381   3.993 -0.6311  0.3361 -1.2106
 4325SOL     OW24433   3.997   0.205  10.012  0.0121  0.1200  0.3343
 4325SOL    HW124434   4.043   0.145   9.954 -0.2219  2.2696 -2.0860
 4325SOL    HW224435   3.922   0.162  10.054 -0.3735  1.2487  0.8158
 4326SOL     OW24436   0.561   2.419  11.059 -0.3097  0.0123  0.0831
 4326SOL    HW124437   0.547   2.504  11.017  0.7037  0.2535  0.2203
 4326SOL    HW224438   0.547   2.362  10.983 -3.1388 -0.3147  0.8478
 4327SOL     OW24439   1.631   4.323   1.810  0.0329  0.4616  0.2489
 4327SOL    HW124440   1.614   4.307   1.903  1.3653 -0.8453  0.2729
 4327SOL    HW224441   1.659   4.415   1.815  0.6033  0.2428  1.0366
 4328SOL     OW24442   2.475   1.499   1.643  0.3501 -0.0320  0.2661
 4328SOL    HW124443   2.551   1.532   1.595  0.6641  1.3714  1.7136
 4328SOL    HW224444   2.475   1.555   1.721 -0.7506  1.0320 -0.4938
 4329SOL     OW24445   0.148   4.708   2.950  0.5750 -0.2026  0.2588
 4329SOL    HW124446   0.077   4.717   2.887 -0.6450 -5.5998  0.8404
 4329SOL    HW224447   0.093   4.713   3.028 -0.2820  0.1065 -0.3769
 4330SOL     OW24448   1.684   2.178  16.730 -0.1158  0.3298 -0.0496
 4330SOL    HW124449   1.671   2.272  16.742  0.6928  0.6958 -1.9761
 4330SOL    HW224450   1.599   2.149  16.763  0.0125  0.4654  0.3921
 4331SOL     OW24451   4.521   0.229   0.610  0.5491  0.1116 -0.4798
 4331SOL    HW124452   4.612   0.227   0.639 -0.1977  0.8230  1.9125
 4331SOL    HW224453   4.485   0.186   0.688  1.3738 -0.2236 -0.2878
 4332SOL     OW24454   0.075   1.004   9.048 -0.0407 -0.0909 -0.5054
 4332SOL    HW124455   0.139   0.957   9.101 -0.6488 -1.4636 -1.0102
 4332SOL    HW224456   4.719   0.972   9.085 -0.2214  0.2210 -0.6275
 4333SOL     OW24457   4.232   2.205   7.637 -0.3730 -0.2253  0.4767
 4333SOL    HW124458   4.196   2.228   7.551  1.3655 -2.2689 -0.7791
 4333SOL    HW224459   4.198   2.275   7.692  1.3358  1.5995 -0.7713
 4334SOL     OW24460   3.588   1.139   6.210  0.1746  0.4601 -0.3740
 4334SOL    HW124461   3.544   1.167   6.130 -0.0399 -1.9657 -1.1253
 4334SOL    HW224462   3.552   1.203   6.272  0.3556  1.1145 -0.9570
 4335SOL     OW24463   2.075   0.584  17.101  0.2116  0.3097 -0.0201
 4335SOL    HW124464   2.021   0.652  17.142  0.2017 -0.0165  0.5079
 4335SOL    HW224465   2.087   0.529  17.178  1.2300 -2.9690 -2.5306
 4336SOL     OW24466   0.727   1.020   8.213  0.1874 -0.3192 -0.1949
 4336SOL    HW124467   0.750   0.957   8.144 -0.2559 -0.6957  0.0016
 4336SOL    HW224468   0.676   0.958   8.265  1.1992 -2.7138 -2.0820
 4337SOL     OW24469   4.514   1.110   8.827  0.1051 -0.0129  0.4924
 4337SOL    HW124470   4.450   1.135   8.761  0.3385 -2.2076 -0.5677
 4337SOL    HW224471   4.515   1.194   8.873 -1.1596 -0.9518  2.2328
 4338SOL     OW24472   3.145   1.229   0.257  0.7379  0.1782  0.4526
 4338SOL    HW124473   3.077   1.162   0.256  0.8637  0.0659 -0.2944
 4338SOL    HW224474   3.091   1.307   0.264  0.8447  0.4347 -1.9089
 4339SOL     OW24475   2.141   3.342   6.226 -0.3185 -0.1736  0.3976
 4339SOL    HW124476   2.195   3.361   6.303 -2.1781 -2.9215  2.3622
 4339SOL    HW224477   2.133   3.423   6.175  1.4486 -0.5981 -0.5377
 4340SOL     OW24478   0.908   4.130  11.028  0.2392  0.1369  0.0539
 4340SOL    HW124479   0.858   4.206  10.998 -0.9748 -1.0063 -0.8646
 4340SOL    HW224480   0.905   4.141  11.123 -0.4395  0.9275 -0.0552
 4341SOL     OW24481   1.440   0.454   6.794 -0.6130 -0.4902  0.1428
 4341SOL    HW124482   1.508   0.520   6.792 -0.4589 -0.6646 -0.4453
 4341SOL    HW224483   1.452   0.415   6.707  3.0899  0.0417  0.4186
 4342SOL     OW24484   4.226   0.053   4.304 -0.2972 -0.4306 -0.1363
 4342SOL    HW124485   4.134   0.079   4.296  0.1682  0.9847 -1.0029
 4342SOL    HW224486   4.253   0.108   4.378  0.5114 -1.2924  0.2014
 4343SOL     OW24487   0.772   3.703   1.613 -0.7419 -0.3349 -0.1303
 4343SOL    HW124488   0.834   3.630   1.615 -0.3741  0.0219  1.1768
 4343SOL    HW224489   0.729   3.695   1.698 -1.9829 -0.3391 -0.7577
 4344SOL     OW24490   2.868   1.074  11.609  0.3129 -0.5449  0.4946
 4344SOL    HW124491   2.854   0.987  11.573  0.8483  0.1036 -1.2835
 4344SOL    HW224492   2.911   1.053  11.692  2.4134  0.3727 -0.3453
 4345SOL     OW24493   1.993   1.431   5.523 -0.1779  0.4483 -0.2787
 4345SOL    HW124494   1.909   1.460   5.487 -1.1022 -0.4962  1.1184
 4345SOL    HW224495   2.006   1.363   5.457 -1.5624 -2.4491  2.4436
 4346SOL     OW24496   1.396   3.854   1.811  0.4026  0.0061 -0.1599
 4346SOL    HW124497   1.331   3.804   1.762  2.7987 -1.3262 -1.9991
 4346SOL    HW224498   1.344   3.905   1.873  0.2408  0.6261 -0.8092
 4347SOL     OW24499   2.952   2.307   5.968  0.3391 -0.1315  0.0114
 4347SOL    HW124500   3.007   2.245   6.015 -2.8562 -2.4742  0.7017
 4347SOL    HW224501   2.973   2.395   5.998 -0.1780 -0.1930  0.5607
 4348SOL     OW24502   0.984   2.039   5.751  0.4928  0.2436 -0.6858
 4348SOL    HW124503   1.037   1.960   5.754  1.4265  0.9288  0.6567
 4348SOL    HW224504   0.976   2.059   5.657  2.8175  2.5596 -0.3829
 4349SOL     OW24505   3.110   1.341  15.273 -1.0355  0.1449 -0.3867
 4349SOL    HW124506   3.101   1.418  15.329  0.9950  0.7482 -0.8896
 4349SOL    HW224507   3.021   1.308  15.265 -0.9475 -0.4378  1.0072
 4350SOL     OW24508   0.233   0.529   7.270  0.0258 -0.5293 -0.4167
 4350SOL    HW124509   0.173   0.537   7.344  1.1155 -1.5353  0.5768
 4350SOL    HW224510   0.169   0.495   7.208 -2.5289 -1.0908  2.5090
 4351SOL     OW24511   3.041   3.455  12.328 -0.1744 -0.4950  0.0638
 4351SOL    HW124512   2.985   3.532  12.330 -0.2874 -0.5914  0.7652
 4351SOL    HW224513   3.093   3.470  12.407  1.8466  3.2201 -2.0188
 4352SOL     OW24514   4.646   1.262   4.195  0.0523 -0.4475  0.2109
 4352SOL    HW124515   4.659   1.167   4.202 -1.0859 -0.9200 -4.2207
 4352SOL    HW224516   4.667   1.287   4.285 -0.8777 -0.6095  0.4705
 4353SOL     OW24517   1.179   0.634  14.518 -0.0970  0.6221 -0.3237
 4353SOL    HW124518   1.146   0.615  14.606 -0.6020  0.3368 -0.5745
 4353SOL    HW224519   1.256   0.687  14.536  1.3267 -1.4666 -0.2170
 4354SOL     OW24520   3.066   4.573  17.660  0.5725  0.0116 -0.3743
 4354SOL    HW124521   3.025   4.510   0.015  0.0082  0.3520 -0.4029
 4354SOL    HW224522   3.006   4.561  17.586  0.9911  0.9185 -0.8661
 4355SOL     OW24523   1.271   1.760   0.122 -0.2694  0.1051 -0.0794
 4355SOL    HW124524   1.272   1.848   0.085  0.1251 -0.1494 -0.6619
 4355SOL    HW224525   1.220   1.777   0.202 -0.9463  1.7356 -0.8541
 4356SOL     OW24526   4.020   4.189   1.931  0.0355  0.0624 -0.5822
 4356SOL    HW124527   4.067   4.262   1.972  0.9289  0.0029 -1.5188
 4356SOL    HW224528   4.083   4.160   1.865 -0.7774  1.4857 -1.9986
 4357SOL     OW24529   1.692   3.398  10.255 -0.4586  0.5460  0.3114
 4357SOL    HW124530   1.728   3.317  10.290 -2.8049 -1.5199 -2.0079
 4357SOL    HW224531   1.607   3.399  10.299  0.4850  0.7165  2.1265
 4358SOL     OW24532   2.541   1.726   6.801  0.2967  0.4116  0.1187
 4358SOL    HW124533   2.452   1.692   6.788  0.6752 -0.2675 -0.6435
 4358SOL    HW224534   2.539   1.813   6.761 -1.8499 -1.0095 -2.8696
 4359SOL     OW24535   0.937   3.368   0.772 -0.5778 -0.1630  0.0844
 4359SOL    HW124536   0.878   3.431   0.732 -0.1788  0.6143  0.7265
 4359SOL    HW224537   0.999   3.359   0.699  0.3956 -1.7925  1.1001
 4360SOL     OW24538   1.853   4.621   8.371  0.2759 -0.1612 -0.0026
 4360SOL    HW124539   1.805   4.703   8.355 -0.6703 -0.3613  1.8147
 4360SOL    HW224540   1.886   4.641   8.458  0.8152  0.2752 -0.3085
 4361SOL     OW24541   3.728   2.269   8.875 -0.0178  0.0527 -0.4430
 4361SOL    HW124542   3.706   2.338   8.937 -0.9701  0.6523 -1.4407
 4361SOL    HW224543   3.776   2.201   8.922 -0.0176 -0.3857 -1.0751
 4362SOL     OW24544   1.888   2.967   8.026  0.3793 -0.5403  0.2436
 4362SOL    HW124545   1.980   2.942   8.016  0.5012  0.0327 -0.0574
 4362SOL    HW224546   1.860   2.907   8.095 -0.2081 -0.5364  0.0052
 4363SOL     OW24547   1.034   1.580   9.832  0.5770  0.4841 -0.3988
 4363SOL    HW124548   1.102   1.565   9.767  0.9559  1.9382 -0.3447
 4363SOL    HW224549   0.957   1.561   9.778  0.1223 -0.5745  0.6250
 4364SOL     OW24550   3.182   1.478   4.695  0.4923  0.6842 -0.6385
 4364SOL    HW124551   3.102   1.511   4.736 -0.2531  0.1796 -1.6824
 4364SOL    HW224552   3.212   1.529   4.620 -0.6276  0.5814 -1.1620
 4365SOL     OW24553   1.785   2.689   1.880  0.1358  0.0775  0.3932
 4365SOL    HW124554   1.739   2.761   1.836  0.2491 -0.2007 -0.1901
 4365SOL    HW224555   1.814   2.738   1.956  0.9801  0.8157 -0.4093
 4366SOL     OW24556   4.255   0.181   4.531  0.1234 -0.2885 -0.0068
 4366SOL    HW124557   4.338   0.144   4.559  0.1716  1.0015  1.4940
 4366SOL    HW224558   4.272   0.275   4.527  0.1202 -0.2724  0.3694
 4367SOL     OW24559   0.620   3.743   6.242  0.1146 -0.4435  0.4853
 4367SOL    HW124560   0.534   3.700   6.243  0.1065 -0.4292  0.4281
 4367SOL    HW224561   0.585   3.824   6.205 -0.8321 -1.4569 -0.8702
 4368SOL     OW24562   1.268   3.466   2.088  0.1896  0.2268 -0.2984
 4368SOL    HW124563   1.223   3.382   2.094  0.7725  0.0366  1.1910
 4368SOL    HW224564   1.188   3.512   2.113  0.2651  0.7883 -1.0929
 4369SOL     OW24565   1.507   4.186  16.831 -0.1062 -0.0268  0.2105
 4369SOL    HW124566   1.449   4.194  16.907  1.0111  1.1206  0.9446
 4369SOL    HW224567   1.590   4.201  16.877  1.7852 -0.3019 -3.1674
 4370SOL     OW24568   0.936   4.069   9.680  0.2049  0.1746 -0.4577
 4370SOL    HW124569   0.889   3.988   9.659 -1.3394  0.8469  0.4457
 4370SOL    HW224570   0.938   4.083   9.774  2.6982 -2.7914 -0.0856
 4371SOL     OW24571   0.133   2.498  17.274  0.1029 -0.3179  0.3190
 4371SOL    HW124572   0.098   2.534  17.192  0.7842 -0.7111 -0.1452
 4371SOL    HW224573   0.155   2.412  17.240  2.1122  0.2825  0.0637
 4372SOL     OW24574   2.955   3.001   8.981 -0.9350  0.3378 -0.0269
 4372SOL    HW124575   2.886   2.969   8.923  1.0061 -1.6310 -1.2795
 4372SOL    HW224576   3.026   2.952   8.939 -1.5066 -0.6822  0.2038
 4373SOL     OW24577   2.444   3.646   8.283  0.5783  0.2599  0.0359
 4373SOL    HW124578   2.503   3.713   8.248  1.1630  0.3614  1.2040
 4373SOL    HW224579   2.468   3.569   8.231 -0.7067  0.5543 -0.9769
 4374SOL     OW24580   4.044   0.288   4.689 -0.5657 -0.0370  0.1696
 4374SOL    HW124581   4.102   0.364   4.698  0.5079 -0.8207 -0.2259
 4374SOL    HW224582   4.093   0.233   4.629 -1.0816  0.9114 -1.1262
 4375SOL     OW24583   0.918   1.100  11.901  0.6333  0.1240  0.6120
 4375SOL    HW124584   0.826   1.102  11.927  0.7229  0.6787  0.8962
 4375SOL    HW224585   0.931   1.014  11.863  0.9045  0.5499 -0.2665
 4376SOL     OW24586   4.080   4.056   6.045  0.3376 -0.3566 -0.7545
 4376SOL    HW124587   4.157   4.112   6.032  0.3510 -0.2763 -0.3353
 4376SOL    HW224588   4.031   4.077   5.965  0.4904  1.0355 -0.4895
 4377SOL     OW24589   2.802   4.008   8.271  0.0279  0.6487  0.0588
 4377SOL    HW124590   2.732   4.024   8.334 -1.5590  0.1311 -1.5847
 4377SOL    HW224591   2.782   3.918   8.247  0.4238 -0.1739  2.8080
 4378SOL     OW24592   0.245   3.576   3.461 -0.6692  0.0049 -0.5103
 4378SOL    HW124593   0.319   3.608   3.513  1.3612 -1.1576 -2.6363
 4378SOL    HW224594   0.283   3.495   3.427 -0.1050  0.7312 -1.6222
 4379SOL     OW24595   3.723   4.705   8.245  0.3318 -0.0427 -0.5070
 4379SOL    HW124596   3.763   0.060   8.276  1.7558 -0.5125 -1.1216
 4379SOL    HW224597   3.768   4.697   8.161 -1.1795  0.8217 -1.4025
 4380SOL     OW24598   2.512   0.052   4.429  0.4691 -0.2691 -0.1154
 4380SOL    HW124599   2.467   0.097   4.501 -0.3992 -0.7704 -0.3337
 4380SOL    HW224600   2.601   0.087   4.433  0.8546 -1.1477 -0.9471
 4381SOL     OW24601   1.931   0.237   8.296  0.1903  0.0572  0.1734
 4381SOL    HW124602   1.838   0.225   8.310  0.2215  0.9826  1.2007
 4381SOL    HW224603   1.940   0.331   8.313 -0.1192 -0.0580  0.9519
 4382SOL     OW24604   1.661   3.513   5.558  0.3715 -0.5029  0.1869
 4382SOL    HW124605   1.731   3.449   5.572 -1.0854 -2.3947 -1.1619
 4382SOL    HW224606   1.667   3.520   5.463  0.2913  0.6344  0.2631
 4383SOL     OW24607   3.710   1.142   2.242 -0.1770 -0.0396 -1.1249
 4383SOL    HW124608   3.709   1.046   2.235 -0.3743 -0.2330  1.4250
 4383SOL    HW224609   3.804   1.159   2.234  0.2227 -1.8037 -0.2637
 4384SOL     OW24610   3.070   2.118   3.133  0.3171  0.4337 -0.4143
 4384SOL    HW124611   3.072   2.042   3.074  1.1324  0.2633 -0.1624
 4384SOL    HW224612   3.139   2.091   3.194 -0.3726 -0.4889 -0.0511
 4385SOL     OW24613   3.842   1.808   4.623 -0.2833 -0.3247  0.2138
 4385SOL    HW124614   3.904   1.844   4.559 -0.4698  0.1209  0.2893
 4385SOL    HW224615   3.864   1.854   4.704  0.9089  0.6758 -0.6835
 4386SOL     OW24616   1.824   1.650   6.143  0.0827 -0.2049 -0.6898
 4386SOL    HW124617   1.736   1.681   6.120 -0.6477 -2.2138 -0.6190
 4386SOL    HW224618   1.803   1.578   6.202  3.5489 -0.3139  0.4126
 4387SOL     OW24619   0.814   1.045   6.210  0.1201 -0.0154  0.1374
 4387SOL    HW124620   0.889   1.094   6.246 -0.8597  1.7328 -0.1799
 4387SOL    HW224621   0.776   1.116   6.158  2.8572  1.3163 -0.0400
 4388SOL     OW24622   2.532   0.887   8.948  0.3278  0.2152 -0.7220
 4388SOL    HW124623   2.591   0.933   8.888  0.3030  2.3885  0.9180
 4388SOL    HW224624   2.506   0.956   9.009 -1.5515 -1.6369  0.5545
 4389SOL     OW24625   2.918   0.715  16.829  0.3646  0.1012 -0.2162
 4389SOL    HW124626   2.855   0.750  16.767 -1.8230 -0.4041  1.7168
 4389SOL    HW224627   2.878   0.632  16.852  0.9298 -0.5419 -1.5459
 4390SOL     OW24628   4.555   3.316   2.848  0.3377 -0.3754  0.4805
 4390SOL    HW124629   4.522   3.276   2.768  1.8803 -0.2816 -0.2039
 4390SOL    HW224630   4.485   3.376   2.873  1.0038  0.1513  1.0578
 4391SOL     OW24631   2.040   2.848   2.015 -0.2871  0.2581 -0.2195
 4391SOL    HW124632   2.020   2.837   1.922 -0.7680  1.4202 -0.2637
 4391SOL    HW224633   2.044   2.944   2.023  1.5505 -0.0093  2.2039
 4392SOL     OW24634   2.435   1.024   4.230  0.6670  0.1378 -0.2969
 4392SOL    HW124635   2.423   1.041   4.136  0.3942 -1.6832 -0.6068
 4392SOL    HW224636   2.430   0.928   4.236 -1.5501  0.1859 -1.3274
 4393SOL     OW24637   2.336   1.302   4.854  0.3663  0.7236  0.2827
 4393SOL    HW124638   2.335   1.369   4.922 -1.2722  0.2412  0.7460
 4393SOL    HW224639   2.302   1.232   4.910 -0.3792 -0.2087 -1.3372
 4394SOL     OW24640   3.230   4.527  10.230  0.2665  0.4881 -0.0157
 4394SOL    HW124641   3.211   4.453  10.289  3.8831 -1.7191 -1.5719
 4394SOL    HW224642   3.323   4.507  10.215 -0.2243 -0.7483 -1.4084
 4395SOL     OW24643   1.023   2.034   2.726  0.7009  0.1992  0.1363
 4395SOL    HW124644   1.093   2.091   2.693 -0.8963  2.4286  0.6461
 4395SOL    HW224645   0.972   2.096   2.777  1.3613  1.0818 -0.2622
 4396SOL     OW24646   2.051   0.852  12.599  0.1668  0.4251 -0.3252
 4396SOL    HW124647   1.991   0.897  12.659  0.5667  0.8323 -0.2209
 4396SOL    HW224648   2.128   0.887  12.646 -0.3893 -1.3376  1.8943
 4397SOL     OW24649   1.324   4.204   5.094 -0.4213 -0.3895 -0.1854
 4397SOL    HW124650   1.337   4.298   5.101 -0.0632 -0.4590  0.1022
 4397SOL    HW224651   1.412   4.169   5.112 -0.9876 -0.2396  2.8517
 4398SOL     OW24652   1.752   2.032   2.014 -0.1287  0.1787  0.5751
 4398SOL    HW124653   1.762   2.109   1.958 -1.0495 -0.2093 -0.1357
 4398SOL    HW224654   1.696   2.067   2.084 -0.9191 -1.2806  0.6776
 4399SOL     OW24655   1.661   3.992  12.622  0.0320 -0.1661 -0.2727
 4399SOL    HW124656   1.644   3.948  12.705 -0.5551  0.6444  0.0432
 4399SOL    HW224657   1.601   3.939  12.569 -1.6332  1.8184 -0.3873
 4400SOL     OW24658   0.962   3.787   9.951 -0.6515  0.3724 -0.2805
 4400SOL    HW124659   1.056   3.804   9.963 -0.7290  0.9564 -0.5094
 4400SOL    HW224660   0.966   3.728   9.876  0.6196 -0.4685  0.4378
 4401SOL     OW24661   3.115   2.535  11.370  0.1272 -0.3785 -0.6057
 4401SOL    HW124662   3.143   2.574  11.287  2.2806 -1.4881 -0.3978
 4401SOL    HW224663   3.183   2.468  11.379 -1.4559 -2.0003 -0.8244
 4402SOL     OW24664   2.696   2.270   7.367 -0.1008 -0.1209  0.6225
 4402SOL    HW124665   2.654   2.313   7.442  1.9078  3.1430 -0.1395
 4402SOL    HW224666   2.657   2.184   7.385  0.2443 -0.2565  0.7132
 4403SOL     OW24667   0.581   4.242   6.728  0.7519  1.4033  0.1196
 4403SOL    HW124668   0.544   4.252   6.640  1.2882  0.5410 -0.1969
 4403SOL    HW224669   0.585   4.148   6.745  2.3992  1.2444 -1.2274
 4404SOL     OW24670   1.662   3.410  15.441  0.2769  0.5030  0.2768
 4404SOL    HW124671   1.645   3.337  15.501  1.1255 -0.8803 -1.1516
 4404SOL    HW224672   1.627   3.487  15.486  1.2328  1.1172 -0.0370
 4405SOL     OW24673   1.308   1.043   1.912  0.3255 -0.6534 -0.5857
 4405SOL    HW124674   1.230   1.067   1.863 -0.2509 -1.5792 -0.1170
 4405SOL    HW224675   1.289   0.953   1.935  2.3530 -1.5498 -2.3405
 4406SOL     OW24676   2.473   0.590  12.029 -0.2693 -0.0367  0.3275
 4406SOL    HW124677   2.497   0.621  12.117  2.8841  1.9730 -1.2758
 4406SOL    HW224678   2.544   0.633  11.982 -0.7264 -0.0933 -0.4037
 4407SOL     OW24679   4.502   3.537   3.596 -0.6125  0.6479  0.2718
 4407SOL    HW124680   4.456   3.453   3.592 -0.6354  0.7043 -0.7846
 4407SOL    HW224681   4.464   3.570   3.514 -2.6084 -1.5161  0.3260
 4408SOL     OW24682   0.662   3.723   8.066 -0.6617  0.6207  0.6781
 4408SOL    HW124683   0.602   3.795   8.048  1.2110  2.3156  1.2208
 4408SOL    HW224684   0.621   3.672   8.136  0.6814 -0.6131  0.5580
 4409SOL     OW24685   2.622   2.520   2.120 -0.1103 -0.3610  0.2249
 4409SOL    HW124686   2.558   2.506   2.050 -1.5005 -0.6704  1.5656
 4409SOL    HW224687   2.702   2.489   2.078 -0.0743  0.4045 -0.2617
 4410SOL     OW24688   4.488   1.479  10.827 -0.1440 -0.5816 -0.1234
 4410SOL    HW124689   4.562   1.435  10.786  0.0379 -1.7660  1.4530
 4410SOL    HW224690   4.475   1.548  10.763 -1.5661 -0.0083  0.7658
 4411SOL     OW24691   1.729   0.813  16.944  0.5482  0.3744 -0.2367
 4411SOL    HW124692   1.731   0.731  16.895 -0.8441  0.1354  0.1079
 4411SOL    HW224693   1.815   0.848  16.921  1.0797  0.1451  1.4495
 4412SOL     OW24694   4.121   4.209   4.465 -0.2721 -0.0487 -0.3307
 4412SOL    HW124695   4.080   4.125   4.480  1.3872 -1.0730 -1.4506
 4412SOL    HW224696   4.071   4.247   4.392 -0.6137  1.2794  0.5910
 4413SOL     OW24697   3.587   3.764  13.511 -0.7659  0.2274 -0.8351
 4413SOL    HW124698   3.515   3.759  13.449 -2.8733  1.2703  1.5291
 4413SOL    HW224699   3.550   3.715  13.585 -0.3952  1.5208  0.2222
 4414SOL     OW24700   3.248   3.473   8.362  0.0794  0.8032 -0.0222
 4414SOL    HW124701   3.265   3.498   8.453  0.8043  0.9712 -0.2037
 4414SOL    HW224702   3.152   3.471   8.358  0.0964  0.7279 -0.4182
 4415SOL     OW24703   4.441   1.594  17.371 -0.2170  0.2769  0.0563
 4415SOL    HW124704   4.401   1.665  17.422 -2.0536 -0.6635 -0.0706
 4415SOL    HW224705   4.356   1.551  17.359  1.7999 -4.2380  1.8267
 4416SOL     OW24706   1.159   1.475   8.551 -0.7437  0.3518  0.1351
 4416SOL    HW124707   1.073   1.440   8.574  0.4865 -2.0684  1.0523
 4416SOL    HW224708   1.220   1.410   8.585 -1.5224  0.0622  0.9866
 4417SOL     OW24709   1.991   3.809   7.996  0.4694  0.7793 -0.4389
 4417SOL    HW124710   1.957   3.807   7.906  0.3034  2.2047 -0.4055
 4417SOL    HW224711   1.960   3.727   8.036 -0.6659  0.2102 -2.4946
 4418SOL     OW24712   4.531   1.113   7.088 -0.3204  0.2948 -0.0558
 4418SOL    HW124713   4.492   1.195   7.060 -0.4517 -0.2812 -1.5573
 4418SOL    HW224714   4.501   1.110   7.179 -1.0728  0.3195 -0.3017
 4419SOL     OW24715   4.494   0.785   4.955  0.3450  0.1008  0.3315
 4419SOL    HW124716   4.442   0.714   4.992  1.9377  0.0459  2.4797
 4419SOL    HW224717   4.424   0.845   4.930 -0.3322 -0.7692  0.1508
 4420SOL     OW24718   2.534   4.445   5.318  0.3699  0.2277  0.4822
 4420SOL    HW124719   2.474   4.381   5.355  0.8971 -0.1095  0.7503
 4420SOL    HW224720   2.510   4.528   5.358 -0.4538  0.4044 -0.3627
 4421SOL     OW24721   2.536   2.363   7.572  0.1589  0.1413 -0.5655
 4421SOL    HW124722   2.581   2.361   7.656 -2.2996  1.5520  0.7970
 4421SOL    HW224723   2.465   2.298   7.580 -1.7272  2.1938 -0.5391
 4422SOL     OW24724   0.854   0.162   5.165 -0.0458 -0.4117 -0.2835
 4422SOL    HW124725   0.919   0.109   5.120  0.0115 -1.0964  0.6015
 4422SOL    HW224726   0.874   0.250   5.131 -1.8505  0.8950  2.0147
 4423SOL     OW24727   2.929   4.493   0.810  0.5139  0.1005  0.1609
 4423SOL    HW124728   2.958   4.570   0.761  0.5737  0.6450  1.0407
 4423SOL    HW224729   2.953   4.425   0.747  3.6372  1.7092 -0.4206
 4424SOL     OW24730   4.532   3.807  10.652 -0.3536 -0.3023  0.3727
 4424SOL    HW124731   4.565   3.721  10.626  0.0261  0.0886 -0.4407
 4424SOL    HW224732   4.509   3.790  10.743 -2.8929  0.3703 -0.1324
 4425SOL     OW24733   0.693   0.416   3.913 -0.2363  0.4932 -0.4445
 4425SOL    HW124734   0.786   0.432   3.932 -0.2340 -0.4212  0.2733
 4425SOL    HW224735   0.663   0.501   3.881 -1.3866 -0.1393 -1.0270
 4426SOL     OW24736   2.972   0.569   5.849  0.3561  0.2045  0.4865
 4426SOL    HW124737   3.005   0.657   5.866  1.6810 -0.4745  1.4439
 4426SOL    HW224738   2.956   0.539   5.939 -0.1846  0.2292  0.4017
 4427SOL     OW24739   3.587   0.933   8.013 -0.3541  0.1107  0.6727
 4427SOL    HW124740   3.612   0.842   8.024 -0.8345  0.0278  1.0756
 4427SOL    HW224741   3.498   0.935   8.048 -1.0042  0.8048 -0.9602
 4428SOL     OW24742   0.535   2.240   5.919  0.1233 -0.0455  0.1563
 4428SOL    HW124743   0.596   2.247   5.845 -1.4554 -0.0486 -1.1603
 4428SOL    HW224744   0.588   2.293   5.978 -1.6918 -2.3798  3.8644
 4429SOL     OW24745   3.881   4.304   8.048  0.4077  0.5158 -0.1484
 4429SOL    HW124746   3.969   4.306   8.084  0.8013 -0.7003 -1.0185
 4429SOL    HW224747   3.831   4.249   8.108 -0.4871  0.9740 -0.4731
 4430SOL     OW24748   0.181   3.117   5.273 -0.1236  0.1728 -0.3438
 4430SOL    HW124749   0.155   3.207   5.295  1.2366  0.1173  1.5631
 4430SOL    HW224750   0.127   3.104   5.195 -1.7156  1.0979  0.6079
 4431SOL     OW24751   0.709   0.466   5.276 -0.0616  0.4882  0.0766
 4431SOL    HW124752   0.680   0.375   5.282  0.9456  0.1854  0.4154
 4431SOL    HW224753   0.680   0.503   5.359 -0.1314  0.9288 -0.1405
 4432SOL     OW24754   0.459   3.277   9.624 -0.3253 -0.0315 -0.3435
 4432SOL    HW124755   0.530   3.220   9.654  2.2684  2.6432 -1.4221
 4432SOL    HW224756   0.404   3.278   9.702  0.7363 -2.4452  0.4561
 4433SOL     OW24757   4.235   1.403  11.246  0.7813  0.0362  1.0132
 4433SOL    HW124758   4.295   1.478  11.250 -0.9263  1.3823  1.1492
 4433SOL    HW224759   4.295   1.330  11.263 -2.6764 -2.7868  0.9441
 4434SOL     OW24760   3.368   4.663   2.568 -0.0046 -0.7716 -0.6442
 4434SOL    HW124761   3.384   0.031   2.573 -1.6355 -0.4572 -1.5779
 4434SOL    HW224762   3.332   4.650   2.481 -1.5014  0.1077 -0.1557
 4435SOL     OW24763   3.457   0.240  14.493 -0.1952 -0.2366  0.4118
 4435SOL    HW124764   3.387   0.295  14.457 -0.8896 -1.2018  0.2781
 4435SOL    HW224765   3.457   0.264  14.586  2.7259  1.7488 -0.1168
 4436SOL     OW24766   1.731   4.644  11.002  0.2800  0.1002 -0.0112
 4436SOL    HW124767   1.789   4.650  10.925 -0.7351 -0.1084 -0.7978
 4436SOL    HW224768   1.649   4.607  10.969  0.1688 -0.3291  0.7597
 4437SOL     OW24769   4.157   2.510   2.924 -0.1758 -0.1464  0.0521
 4437SOL    HW124770   4.174   2.546   2.837  3.2331 -0.8239  0.4501
 4437SOL    HW224771   4.145   2.583   2.985 -0.7949 -0.5220  0.3726
 4438SOL     OW24772   3.535   1.402   7.235  0.1302  0.0460 -0.1801
 4438SOL    HW124773   3.623   1.367   7.221 -0.0838 -0.3898 -0.4400
 4438SOL    HW224774   3.504   1.329   7.290  2.4876 -2.6513 -2.4139
 4439SOL     OW24775   0.819   4.392  12.300 -0.2183  0.2587  0.0599
 4439SOL    HW124776   0.739   4.434  12.270 -0.6338  0.1026  0.9638
 4439SOL    HW224777   0.823   4.416  12.393 -0.0827 -1.6117  0.5322
 4440SOL     OW24778   1.731   0.125   5.121 -0.0206 -0.1400 -0.6782
 4440SOL    HW124779   1.637   0.139   5.115  0.2841  2.7410  0.9795
 4440SOL    HW224780   1.765   0.206   5.082 -1.7372  1.6565  1.5647
 4441SOL     OW24781   2.665   2.267   2.496  0.3892 -0.4396 -0.2898
 4441SOL    HW124782   2.613   2.261   2.576 -2.6850  0.9691 -2.2134
 4441SOL    HW224783   2.610   2.341   2.472  0.1502 -1.0410 -1.5669
 4442SOL     OW24784   3.806   4.237  11.601 -0.3121 -0.5378  0.2871
 4442SOL    HW124785   3.797   4.192  11.685  0.8953 -1.7089 -0.2089
 4442SOL    HW224786   3.767   4.172  11.543 -0.5719  1.3718 -1.6764
 4443SOL     OW24787   1.912   1.582   3.297 -0.1003 -0.1212 -0.0835
 4443SOL    HW124788   1.889   1.620   3.382 -2.0301 -1.2529 -0.1049
 4443SOL    HW224789   1.835   1.538   3.260  0.5199  1.6816 -3.5087
 4444SOL     OW24790   4.328   3.158   6.163  0.4151  0.1880  0.5591
 4444SOL    HW124791   4.336   3.252   6.174  0.4325  0.3372 -0.8134
 4444SOL    HW224792   4.410   3.124   6.200 -0.0509  1.7777  3.0577
 4445SOL     OW24793   1.879   4.228  12.254  0.2371 -0.1828  0.2934
 4445SOL    HW124794   1.881   4.187  12.341 -0.4794 -1.8354 -0.4683
 4445SOL    HW224795   1.967   4.258  12.232 -0.0870 -0.5138 -1.4563
 4446SOL     OW24796   4.539   0.361   6.360 -0.6682  0.2225  0.5706
 4446SOL    HW124797   4.628   0.366   6.395 -0.5357 -0.8797  0.3864
 4446SOL    HW224798   4.517   0.438   6.307 -0.4166 -1.0904 -1.4270
 4447SOL     OW24799   1.261   1.259  11.401  0.4297  0.0140 -0.2272
 4447SOL    HW124800   1.243   1.181  11.453 -1.6938  0.0588 -0.8901
 4447SOL    HW224801   1.192   1.254  11.334 -0.9456 -1.0061  1.2657
 4448SOL     OW24802   3.269   3.544   3.466  0.2412 -0.1602  0.0795
 4448SOL    HW124803   3.205   3.483   3.504 -2.3353  2.0949 -0.6070
 4448SOL    HW224804   3.309   3.592   3.538 -1.8425 -1.6333  2.2474
 4449SOL     OW24805   3.846   2.733   5.499  0.4740  0.4950 -0.6125
 4449SOL    HW124806   3.835   2.821   5.464 -0.9358  0.7916  0.5477
 4449SOL    HW224807   3.939   2.710   5.506  0.0727 -0.8842  0.3879
 4450SOL     OW24808   3.956   1.060   8.431 -0.4694 -0.2815  0.0054
 4450SOL    HW124809   3.988   0.994   8.492 -1.2097  0.7900  1.5515
 4450SOL    HW224810   3.972   1.021   8.345 -2.1546 -0.3754 -0.2731
 4451SOL     OW24811   0.188   3.195  11.616  0.3875 -0.3457  1.0730
 4451SOL    HW124812   0.195   3.126  11.682  0.4126  1.6252  3.1774
 4451SOL    HW224813   0.208   3.268  11.675 -0.6030  0.6850  0.1367
 4452SOL     OW24814   0.389   4.035  10.145 -0.1943  0.1741  0.5919
 4452SOL    HW124815   0.370   4.129  10.136 -1.0594  0.3060  3.5078
 4452SOL    HW224816   0.408   4.027  10.239  0.6722 -0.3392  0.3647
 4453SOL     OW24817   2.183   1.875   7.735  0.5490 -0.2441  0.2314
 4453SOL    HW124818   2.104   1.925   7.756  1.9816  1.7354  0.9201
 4453SOL    HW224819   2.191   1.824   7.815 -0.9984 -0.7949  0.0480
 4454SOL     OW24820   2.349   0.917   3.255 -0.5642 -0.3108 -0.8423
 4454SOL    HW124821   2.264   0.889   3.221  0.6685 -0.7248 -3.5637
 4454SOL    HW224822   2.386   0.836   3.289 -0.2919 -0.0467 -0.5028
 4455SOL     OW24823   2.884   1.170   9.180 -0.0577 -0.4402 -0.1876
 4455SOL    HW124824   2.897   1.105   9.111  0.2130 -3.1484  2.4115
 4455SOL    HW224825   2.857   1.110   9.250 -0.1375 -0.6467 -0.3954
 4456SOL     OW24826   4.010   3.838   3.070  0.8428 -0.1202  0.0500
 4456SOL    HW124827   4.028   3.811   2.980 -0.4517  1.0090 -0.5406
 4456SOL    HW224828   3.928   3.886   3.060 -0.1542 -1.7489  0.5100
 4457SOL     OW24829   0.991   4.632   7.565 -0.7176 -0.0857  0.2751
 4457SOL    HW124830   0.993   4.715   7.612  1.7878  0.1288 -0.2197
 4457SOL    HW224831   0.910   4.591   7.596 -0.4396 -1.8973 -1.4146
 4458SOL     OW24832   4.011   4.023  12.540  0.0200 -0.5909 -0.4160
 4458SOL    HW124833   4.008   4.096  12.603 -0.6970 -1.5421  0.6518
 4458SOL    HW224834   4.070   3.968  12.592 -0.8241 -1.1591 -0.0590
 4459SOL     OW24835   4.006   3.153   7.591 -0.2192 -0.5575 -0.7115
 4459SOL    HW124836   4.054   3.072   7.606  0.0440 -0.0157  1.3206
 4459SOL    HW224837   3.946   3.147   7.665 -0.0683 -0.4279 -0.5775
 4460SOL     OW24838   2.762   0.905   5.412  0.5150 -0.6534  0.1337
 4460SOL    HW124839   2.785   0.841   5.345 -1.0495  0.0693 -1.0874
 4460SOL    HW224840   2.720   0.838   5.467 -1.8709 -1.6723 -2.9246
 4461SOL     OW24841   4.330   4.410   3.435 -0.7401  0.1036  0.9063
 4461SOL    HW124842   4.415   4.399   3.478  0.9537 -1.1607 -2.6911
 4461SOL    HW224843   4.269   4.369   3.495 -0.1986  1.8826  2.6632
 4462SOL     OW24844   3.380   2.053   8.030  0.1308 -0.2012 -0.1797
 4462SOL    HW124845   3.412   2.101   8.106 -0.0221 -1.6809  0.8171
 4462SOL    HW224846   3.343   1.972   8.067 -0.8000  0.0406 -0.5739
 4463SOL     OW24847   3.669   2.423   2.543 -0.1477 -0.3622 -0.1799
 4463SOL    HW124848   3.707   2.384   2.622  0.5598  2.8224  1.0526
 4463SOL    HW224849   3.633   2.346   2.499 -0.4598  0.1211 -0.7763
 4464SOL     OW24850   3.077   2.117   1.479  0.8399  0.2780 -0.4990
 4464SOL    HW124851   3.054   2.098   1.388 -1.8396  0.3296  0.1822
 4464SOL    HW224852   3.147   2.054   1.499  1.8517  1.2516 -0.9854
 4465SOL     OW24853   4.701   4.396  13.065 -0.2873  0.1457 -0.0997
 4465SOL    HW124854   4.628   4.457  13.054  0.4198  1.0494  0.2819
 4465SOL    HW224855   0.011   4.411  12.977 -1.8167 -1.6619 -1.0398
 4466SOL     OW24856   4.620   1.996   3.928 -0.0063  0.2159  0.4080
 4466SOL    HW124857   4.648   1.921   3.981 -1.0505  0.7453  1.7198
 4466SOL    HW224858   4.558   2.047   3.981 -1.9808 -0.3816 -1.3233
 4467SOL     OW24859   0.118   0.656   6.625 -0.0218  0.1316  0.2099
 4467SOL    HW124860   0.085   0.647   6.714  2.1879 -0.8075  0.9239
 4467SOL    HW224861   0.188   0.591   6.626 -0.4006 -0.3039 -1.1772
 4468SOL     OW24862   3.796   3.236   5.335  0.0240  0.0374  0.4443
 4468SOL    HW124863   3.751   3.284   5.265  0.7365 -0.6372 -0.4791
 4468SOL    HW224864   3.716   3.215   5.384 -0.6302 -0.6370 -0.9032
 4469SOL     OW24865   0.591   3.993   6.767 -0.3782  0.2275  0.4904
 4469SOL    HW124866   0.654   3.923   6.752 -1.1344 -0.3412 -0.0185
 4469SOL    HW224867   0.587   3.987   6.863  0.5163 -0.6026  0.4714
 4470SOL     OW24868   4.077   4.116   2.397  0.0351  0.1894 -0.1201
 4470SOL    HW124869   4.063   4.045   2.334 -0.5616 -0.6096  0.9169
 4470SOL    HW224870   4.172   4.118   2.404  0.0222 -1.5485  0.5128
 4471SOL     OW24871   0.671   1.011   8.570  0.6686 -0.1486 -0.0989
 4471SOL    HW124872   0.627   1.092   8.546 -2.5215 -2.0111 -0.5357
 4471SOL    HW224873   0.738   1.041   8.631 -0.5862  1.0513  0.6969
 4472SOL     OW24874   2.089   2.212   7.720  0.7246  0.3628 -0.1968
 4472SOL    HW124875   2.050   2.170   7.643 -1.4985 -0.4158  1.3618
 4472SOL    HW224876   2.118   2.295   7.680 -2.4729  2.2400  1.3238
 4473SOL     OW24877   1.681   3.143   3.601  0.5955  0.0043 -0.4210
 4473SOL    HW124878   1.586   3.144   3.587  0.7942 -0.4796 -1.7817
 4473SOL    HW224879   1.710   3.084   3.532  0.6961  1.1647 -1.3624
 4474SOL     OW24880   1.773   2.700   0.023 -0.7137  0.3429  0.6465
 4474SOL    HW124881   1.840   2.683   0.089 -0.1792  1.5621  0.4351
 4474SOL    HW224882   1.780   2.618  17.679 -0.5208 -0.7028  2.4385
 4475SOL     OW24883   0.387   3.056   7.595  0.0388 -0.2459  0.1550
 4475SOL    HW124884   0.299   3.068   7.631 -0.3752 -1.9913 -0.2493
 4475SOL    HW224885   0.389   3.143   7.555 -1.1781 -0.5767 -0.6444
 4476SOL     OW24886   3.723   2.179  11.430 -0.1728 -0.1065 -0.4937
 4476SOL    HW124887   3.784   2.106  11.429  0.9052  0.7879 -0.3039
 4476SOL    HW224888   3.656   2.162  11.363 -0.7459 -0.2621  0.1251
 4477SOL     OW24889   1.462   1.427   3.058 -0.4827  0.6312 -0.1503
 4477SOL    HW124890   1.384   1.380   3.089  2.0054 -2.8357  0.8441
 4477SOL    HW224891   1.535   1.367   3.072 -1.8714 -0.9298  0.3160
 4478SOL     OW24892   1.833   0.415   8.767  0.1547 -0.3201  0.4121
 4478SOL    HW124893   1.843   0.420   8.862 -0.8555  2.3513  0.3985
 4478SOL    HW224894   1.913   0.457   8.733  0.7834 -0.7737  1.3411
 4479SOL     OW24895   4.280   3.442  11.991  0.5533 -0.2377  0.1964
 4479SOL    HW124896   4.295   3.529  11.954  0.1940 -0.3211 -0.1483
 4479SOL    HW224897   4.370   3.412  11.979  1.0484  1.0189  0.7683
 4480SOL     OW24898   3.098   4.349   9.474  0.4735  0.5964 -0.4667
 4480SOL    HW124899   3.175   4.298   9.446 -1.8444 -2.9307 -0.4290
 4480SOL    HW224900   3.072   4.384   9.389  1.7802  1.1860 -0.6251
 4481SOL     OW24901   0.368   1.550   8.784 -0.0445 -0.3962 -0.2117
 4481SOL    HW124902   0.343   1.564   8.875 -0.7061  1.6758 -0.7093
 4481SOL    HW224903   0.381   1.636   8.744  1.0147 -2.0513 -3.5028
 4482SOL     OW24904   2.634   3.963   9.342 -0.2870  0.0857 -0.4545
 4482SOL    HW124905   2.608   3.992   9.255  1.5539  1.8140 -0.4288
 4482SOL    HW224906   2.682   4.039   9.375 -2.7588  0.1524  2.9702
 4483SOL     OW24907   0.583   3.151   4.696 -0.6571 -0.3788 -0.2436
 4483SOL    HW124908   0.645   3.218   4.724  0.6487 -1.2189 -1.1509
 4483SOL    HW224909   0.520   3.148   4.769 -0.5555  0.2671 -0.1283
 4484SOL     OW24910   1.623   2.781   6.496  0.5586  0.1629 -0.0223
 4484SOL    HW124911   1.631   2.870   6.462  0.7550  0.3009  0.3893
 4484SOL    HW224912   1.685   2.737   6.437  0.0184  1.7236 -1.7598
 4485SOL     OW24913   0.153   1.034   4.863 -0.2822  0.2858  0.4441
 4485SOL    HW124914   0.068   1.077   4.861 -0.5466 -0.3388 -2.9371
 4485SOL    HW224915   0.205   1.100   4.817  1.8273 -0.3543  1.9083
 4486SOL     OW24916   4.107   1.222  12.013  0.0469  0.1094 -0.2073
 4486SOL    HW124917   4.024   1.224  12.061 -0.0700 -1.6648 -0.3487
 4486SOL    HW224918   4.095   1.288  11.945  0.8793  0.6925  0.2147
 4487SOL     OW24919   2.604   1.821   3.162 -0.0526  0.0438  0.4977
 4487SOL    HW124920   2.515   1.794   3.143  0.0723 -0.8871  1.2429
 4487SOL    HW224921   2.594   1.807   3.256  0.8969 -2.3737  0.2402
 4488SOL     OW24922   1.696   4.556  11.248 -0.3254  0.1126 -0.1296
 4488SOL    HW124923   1.683   4.602  11.165  0.8550  1.0619  0.2152
 4488SOL    HW224924   1.791   4.560  11.256 -0.0818  0.1328 -3.2164
 4489SOL     OW24925   2.099   0.005   2.492  0.0339 -0.9180 -0.5356
 4489SOL    HW124926   2.086   0.009   2.397  0.0736 -2.1090 -0.5943
 4489SOL    HW224927   2.088   4.636   2.489  1.0780 -1.0381 -0.4606
 4490SOL     OW24928   1.741   4.295   7.865 -0.4438 -0.1708 -0.0398
 4490SOL    HW124929   1.702   4.310   7.778 -1.0520 -2.2859 -0.1374
 4490SOL    HW224930   1.820   4.347   7.854 -0.4635 -0.1405 -0.0393
 4491SOL     OW24931   4.662   1.574  11.262 -0.4579 -0.5847  0.3711
 4491SOL    HW124932   4.605   1.520  11.317 -0.7154 -0.5624  0.1257
 4491SOL    HW224933   4.711   1.628  11.324 -1.3399 -1.7792  2.1169
 4492SOL     OW24934   0.543   0.442  12.489 -0.4546 -0.4553 -0.0236
 4492SOL    HW124935   0.590   0.376  12.540 -2.7647  0.3493  3.1263
 4492SOL    HW224936   0.457   0.400  12.496  0.2009 -1.5428  1.3836
 4493SOL     OW24937   0.078   3.335   6.843  0.6874 -1.1070  0.0851
 4493SOL    HW124938   0.143   3.322   6.775  0.5622 -2.8408  0.3163
 4493SOL    HW224939   0.072   3.430   6.831  3.0600 -0.5893  2.8273
 4494SOL     OW24940   2.557   1.367  15.212  0.5114  0.0282  0.1559
 4494SOL    HW124941   2.521   1.361  15.124 -3.5363 -1.4417  1.9096
 4494SOL    HW224942   2.573   1.461  15.224 -0.8171  0.1245  1.2024
 4495SOL     OW24943   1.290   3.314   7.971  0.1089 -0.7118 -0.3070
 4495SOL    HW124944   1.340   3.379   7.922 -2.4110  1.7547  0.4027
 4495SOL    HW224945   1.323   3.234   7.930 -1.4703 -0.1732 -2.6358
 4496SOL     OW24946   2.899   4.246  15.666  0.4390  0.3631  0.3749
 4496SOL    HW124947   2.946   4.173  15.706 -0.5666 -0.6913 -0.3498
 4496SOL    HW224948   2.880   4.213  15.578 -1.1835 -1.2713  1.3289
 4497SOL     OW24949   2.994   1.040   1.668 -0.7015 -0.0840  0.7875
 4497SOL    HW124950   2.991   1.056   1.763 -2.3011  1.8551  0.4197
 4497SOL    HW224951   2.936   0.964   1.664 -2.7770  1.4824  0.8483
 4498SOL     OW24952   0.944   0.026   1.739  0.0900  0.4726 -0.1903
 4498SOL    HW124953   0.958   0.114   1.774  0.2149 -0.3694  1.9241
 4498SOL    HW224954   0.889   4.708   1.805 -0.3971  0.5277 -0.5641
 4499SOL     OW24955   1.887   3.536  14.979  0.1030  0.3076 -0.0349
 4499SOL    HW124956   1.930   3.594  14.916 -0.4952  2.5082  1.5984
 4499SOL    HW224957   1.944   3.540  15.055  0.4570  1.2175 -0.3544
 4500SOL     OW24958   2.206   3.136   7.627  0.2679  0.1123 -0.1790
 4500SOL    HW124959   2.225   3.077   7.554 -1.1187 -0.2868 -0.2147
 4500SOL    HW224960   2.115   3.166   7.618  0.8569  1.7488 -0.6884
 4501SOL     OW24961   3.524   3.613   7.353 -0.3570 -0.0862  0.1418
 4501SOL    HW124962   3.551   3.612   7.262  2.5960  0.7777  1.0216
 4501SOL    HW224963   3.595   3.642   7.410 -0.9287 -0.5013  1.0690
 4502SOL     OW24964   3.754   4.641   7.756 -0.0026 -0.1475  0.4360
 4502SOL    HW124965   3.670   4.656   7.713 -0.8746 -0.6710  1.9483
 4502SOL    HW224966   3.742   4.698   7.833  1.9309  1.6948 -0.6140
 4503SOL     OW24967   2.048   0.402  15.826  0.4110 -0.5552  0.1093
 4503SOL    HW124968   1.961   0.365  15.811  1.2823 -2.2115 -0.9637
 4503SOL    HW224969   2.046   0.404  15.921 -0.5485 -2.0246  0.1152
 4504SOL     OW24970   0.096   2.896   4.010  0.3255  0.2259 -0.3243
 4504SOL    HW124971   0.065   2.888   3.919 -1.2511  0.3945  0.1899
 4504SOL    HW224972   0.029   2.956   4.042  1.8191  0.9419  1.4773
 4505SOL     OW24973   2.039   2.615   3.124  0.6748  0.4322 -0.2217
 4505SOL    HW124974   2.090   2.621   3.205 -2.2367 -0.8597  1.7233
 4505SOL    HW224975   2.017   2.705   3.103  0.5062  0.1794 -1.1246
 4506SOL     OW24976   1.679   0.110   2.578  0.3422  0.4151 -0.1169
 4506SOL    HW124977   1.636   0.087   2.496  0.2521  1.5909 -0.4056
 4506SOL    HW224978   1.728   0.032   2.602 -1.4875 -0.9013 -0.6659
 4507SOL     OW24979   0.205   4.170   5.398  0.4747 -0.2545 -0.2560
 4507SOL    HW124980   0.249   4.229   5.459 -0.8533  0.7982 -0.3303
 4507SOL    HW224981   0.214   4.224   5.320 -1.8355 -0.3760 -0.6035
 4508SOL     OW24982   3.513   4.497  15.318  0.0786 -0.1281  0.3046
 4508SOL    HW124983   3.590   4.506  15.262 -0.2346  0.5528 -0.0192
 4508SOL    HW224984   3.481   4.413  15.284  0.3674 -0.4271  0.7654
 4509SOL     OW24985   3.078   2.942   8.201  0.0458  0.0085  0.7649
 4509SOL    HW124986   3.135   2.873   8.165  0.2625  0.8564 -0.5121
 4509SOL    HW224987   3.110   2.941   8.291  1.3016 -2.4220  0.2982
 4510SOL     OW24988   0.754   2.265   5.745 -0.0539  0.2608 -0.0614
 4510SOL    HW124989   0.824   2.297   5.801 -0.9898  0.4033  1.0229
 4510SOL    HW224990   0.796   2.188   5.706 -3.2485  0.0546 -3.2093
 4511SOL     OW24991   4.146   1.881   7.406  0.2969 -0.3506  0.1188
 4511SOL    HW124992   4.138   1.946   7.336 -0.5539  0.4563  0.9643
 4511SOL    HW224993   4.082   1.924   7.462  2.0581  2.1505  0.1949
 4512SOL     OW24994   2.442   2.969  11.233  0.2628 -0.1447 -0.5024
 4512SOL    HW124995   2.412   2.896  11.287  0.8833 -0.0411 -0.0167
 4512SOL    HW224996   2.509   2.928  11.179  0.8871  0.6075 -0.2998
 4513SOL     OW24997   2.145   3.374  15.170  0.2390 -0.5756  0.2294
 4513SOL    HW124998   2.055   3.367  15.201 -0.3438 -0.8864 -1.5265
 4513SOL    HW224999   2.141   3.310  15.099 -1.4890  1.2076 -1.2600
 4514SOL     OW25000   3.627   1.468  12.946  0.1441  1.0320  0.0168
 4514SOL    HW125001   3.679   1.460  13.025  1.8330 -0.1972 -1.2246
 4514SOL    HW225002   3.538   1.468  12.981  0.4820  1.4780  0.8593
 4515SOL     OW25003   3.776   2.292   6.180 -0.4109  0.0686  0.6418
 4515SOL    HW125004   3.727   2.261   6.104 -0.4315  1.0974  0.2351
 4515SOL    HW225005   3.837   2.351   6.135  0.0938 -0.6954  0.3146
 4516SOL     OW25006   3.165   2.872   0.434 -0.0151  0.4029 -0.2079
 4516SOL    HW125007   3.105   2.832   0.496  0.3591  1.1454  0.6237
 4516SOL    HW225008   3.196   2.949   0.481  0.3792  0.2475 -0.2151
 4517SOL     OW25009   2.631   1.676   3.628  0.4979  0.3326 -0.0100
 4517SOL    HW125010   2.559   1.639   3.577 -0.0936 -0.0722  1.1182
 4517SOL    HW225011   2.588   1.718   3.703 -0.4950  0.0730 -0.4334
 4518SOL     OW25012   4.212   4.561   7.994 -0.3114  0.4272  0.0172
 4518SOL    HW125013   4.118   4.557   8.010 -0.2736 -0.8288 -0.0801
 4518SOL    HW225014   4.216   4.509   7.913  1.2036  0.3304  0.1543
 4519SOL     OW25015   0.282   0.964   6.358  0.0415 -0.1352  0.4130
 4519SOL    HW125016   0.235   0.891   6.317 -1.1009  1.7859 -1.6430
 4519SOL    HW225017   0.253   1.041   6.309  1.0043  0.0146  0.0854
 4520SOL     OW25018   1.437   4.416  14.592  0.9495  0.1807  0.3930
 4520SOL    HW125019   1.387   4.445  14.515 -0.3236  1.4871  1.7178
 4520SOL    HW225020   1.377   4.352  14.631 -1.3229  2.2540  0.2926
 4521SOL     OW25021   4.235   1.968   3.806 -0.2420  0.3006  0.1687
 4521SOL    HW125022   4.236   1.876   3.834 -2.0989 -0.1589 -1.2607
 4521SOL    HW225023   4.203   2.002   3.890 -1.7231 -0.1899 -0.1945
 4522SOL     OW25024   0.807   4.390  14.226 -0.0361 -0.5647 -0.1964
 4522SOL    HW125025   0.739   4.368  14.289 -1.9269  0.4799 -1.8827
 4522SOL    HW225026   0.813   4.480  14.257  1.4007 -0.8290  0.3392
 4523SOL     OW25027   4.057   1.420   4.959  0.2485 -0.2981  0.3203
 4523SOL    HW125028   4.125   1.480   4.990  0.9359 -0.7187 -0.3513
 4523SOL    HW225029   4.045   1.439   4.866 -2.0582  2.0541  1.1200
 4524SOL     OW25030   3.010   0.024   7.981 -0.9259 -0.2411  0.0302
 4524SOL    HW125031   3.064   4.670   7.987  2.7237  2.0756 -2.2501
 4524SOL    HW225032   2.997   0.056   8.070  3.5988  1.2738  0.1429
 4525SOL     OW25033   2.131   4.028   4.646  0.1767  0.5827 -0.3135
 4525SOL    HW125034   2.112   3.953   4.590 -1.1057 -0.0345  0.9816
 4525SOL    HW225035   2.100   4.098   4.589 -1.8499 -0.1182 -0.0551
 4526SOL     OW25036   1.277   0.788  16.150 -0.4781 -0.2179  0.2512
 4526SOL    HW125037   1.240   0.700  16.149 -1.2721  0.1096  0.8287
 4526SOL    HW225038   1.342   0.787  16.221  1.1528  2.1027 -1.2013
 4527SOL     OW25039   1.728   2.121   2.677 -0.9042 -0.4869 -0.3246
 4527SOL    HW125040   1.692   2.208   2.695 -2.1406 -1.5786  2.3319
 4527SOL    HW225041   1.695   2.107   2.588  1.8001 -0.6876 -1.2934
 4528SOL     OW25042   0.175   2.179   7.299 -0.2556  0.1744  0.8403
 4528SOL    HW125043   0.108   2.234   7.341 -0.2361 -1.1892  2.6910
 4528SOL    HW225044   0.199   2.243   7.233  0.4707 -0.5126  0.4393
 4529SOL     OW25045   3.969   0.388  11.164  0.6464 -0.1344  0.4625
 4529SOL    HW125046   4.024   0.372  11.087 -0.3653  1.9524 -0.6897
 4529SOL    HW225047   3.889   0.343  11.137 -0.3277  1.1427  1.2518
 4530SOL     OW25048   3.753   0.055  16.705 -0.1056  0.2343 -0.0288
 4530SOL    HW125049   3.834   0.023  16.745  0.0178 -1.2680 -1.4706
 4530SOL    HW225050   3.789   0.079  16.619 -1.5303  1.0283 -0.3953
 4531SOL     OW25051   3.542   2.384  12.219  0.1706 -0.3262 -0.4416
 4531SOL    HW125052   3.527   2.289  12.216 -0.9245 -0.2335  2.8172
 4531SOL    HW225053   3.517   2.402  12.128 -1.0292  0.6413  0.0916
 4532SOL     OW25054   1.649   3.672  16.172  0.0835  0.5735  0.5484
 4532SOL    HW125055   1.621   3.737  16.107  1.7298  1.9161  1.1694
 4532SOL    HW225056   1.568   3.623  16.185  0.4060 -0.2256 -0.4360
 4533SOL     OW25057   1.693   1.686   7.307 -0.4231 -0.1394 -0.2883
 4533SOL    HW125058   1.694   1.598   7.270 -0.2239  0.1600 -1.0016
 4533SOL    HW225059   1.600   1.694   7.323 -0.4972 -0.7492 -0.4157
 4534SOL     OW25060   1.712   0.212   0.290  0.1225 -0.7356  0.6068
 4534SOL    HW125061   1.761   0.142   0.247  1.1033 -1.4313  2.8954
 4534SOL    HW225062   1.667   0.245   0.212 -0.8717 -1.0689  1.0363
 4535SOL     OW25063   3.226   3.799   2.870  0.5158 -0.5473  0.4511
 4535SOL    HW125064   3.301   3.746   2.900  0.0002 -3.2226 -3.0117
 4535SOL    HW225065   3.274   3.868   2.825  1.0684 -0.3768  1.2886
 4536SOL     OW25066   4.616   2.573   4.770  0.3545  0.0572 -0.0642
 4536SOL    HW125067   4.672   2.498   4.789  1.4341  1.1010  0.9381
 4536SOL    HW225068   4.557   2.580   4.845  1.5865  2.0708  0.7378
 4537SOL     OW25069   3.780   3.580  16.947  0.0263 -0.9689 -0.8931
 4537SOL    HW125070   3.865   3.573  16.903  0.1110  0.2303 -0.9146
 4537SOL    HW225071   3.719   3.538  16.886 -0.4146  1.0785 -1.8348
 4538SOL     OW25072   1.420   2.233   1.518  0.1117 -0.7705  0.3144
 4538SOL    HW125073   1.360   2.176   1.471  1.4932 -0.5571 -1.6856
 4538SOL    HW225074   1.363   2.309   1.527  2.8522  1.1823  1.3301
 4539SOL     OW25075   0.125   0.197  13.412 -0.1630  0.2668 -0.2816
 4539SOL    HW125076   0.171   0.126  13.367  0.0440 -1.5776  2.8503
 4539SOL    HW225077   0.045   0.204  13.360  0.0557  4.3123 -0.0789
 4540SOL     OW25078   1.624   2.666   5.028 -0.2993 -0.4575 -0.1454
 4540SOL    HW125079   1.560   2.729   5.062 -0.3435 -0.9512  0.6711
 4540SOL    HW225080   1.704   2.712   5.051 -1.3711  2.5510 -2.3797
 4541SOL     OW25081   2.487   3.074   7.328 -0.5173  0.3047 -0.2592
 4541SOL    HW125082   2.547   3.049   7.398  0.8534 -1.5103 -2.0624
 4541SOL    HW225083   2.403   3.029   7.338  0.6334 -2.0371 -0.9479
 4542SOL     OW25084   2.168   0.299  17.589  0.2125  0.2255  0.2878
 4542SOL    HW125085   2.198   0.209  17.605 -1.3470 -0.3796 -0.1428
 4542SOL    HW225086   2.076   0.298  17.614  0.6899  1.3027  2.0443
 4543SOL     OW25087   0.177   0.724   9.386  0.1678  0.3630 -0.1241
 4543SOL    HW125088   0.268   0.696   9.386 -0.9086 -3.1967 -1.9139
 4543SOL    HW225089   0.182   0.814   9.417 -0.5931  0.3863 -0.0711
 4544SOL     OW25090   4.203   2.394   9.090 -0.0592  0.9064  0.6010
 4544SOL    HW125091   4.110   2.371   9.099  0.0907 -0.0934 -0.4889
 4544SOL    HW225092   4.238   2.308   9.114  2.0047  1.1711 -1.5655
 4545SOL     OW25093   2.322   3.939  11.491  0.4231 -0.3901  0.1041
 4545SOL    HW125094   2.411   3.931  11.456  1.8684  2.2949  3.2632
 4545SOL    HW225095   2.327   3.876  11.563  0.6274  1.3563  1.6056
 4546SOL     OW25096   2.202   2.706   8.294 -0.0035  0.6031  0.4374
 4546SOL    HW125097   2.201   2.633   8.232 -0.6708  1.0628 -0.0876
 4546SOL    HW225098   2.291   2.741   8.283  1.2732 -1.6902  3.2643
 4547SOL     OW25099   2.128   1.746  17.426  0.8721 -0.7025  0.1281
 4547SOL    HW125100   2.071   1.670  17.434  1.4992 -1.1372  0.4975
 4547SOL    HW225101   2.097   1.762  17.337  2.3385 -2.2564 -0.6835
 4548SOL     OW25102   2.600   0.908   5.705 -0.3226 -0.0634 -0.5372
 4548SOL    HW125103   2.613   1.000   5.682 -0.6155 -0.0954 -0.8371
 4548SOL    HW225104   2.504   0.900   5.697 -0.3788  1.7118 -1.6604
 4549SOL     OW25105   4.196   4.015   5.432 -0.2361 -0.6550  0.7388
 4549SOL    HW125106   4.199   3.970   5.348 -3.3156  0.1742  0.1550
 4549SOL    HW225107   4.212   3.945   5.494  1.3383 -0.0577  1.0110
 4550SOL     OW25108   1.983   0.691   0.787 -0.6195 -0.5148 -0.2921
 4550SOL    HW125109   2.005   0.784   0.787  1.3657 -0.9843  0.8866
 4550SOL    HW225110   1.973   0.682   0.693  2.9501  2.6261 -0.9850
 4551SOL     OW25111   0.824   4.102   8.160 -0.3692 -0.3387 -0.5416
 4551SOL    HW125112   0.863   4.019   8.134  0.1216  0.1224 -1.2809
 4551SOL    HW225113   0.850   4.101   8.252  0.2133 -0.1812 -0.7088
 4552SOL     OW25114   2.173   3.929   5.415 -0.3167 -0.0925 -0.5916
 4552SOL    HW125115   2.236   3.979   5.466  0.3283  0.0129 -1.4918
 4552SOL    HW225116   2.220   3.931   5.331  1.6668  0.0300  0.5091
 4553SOL     OW25117   3.010   1.102   6.886  0.3454 -0.2347 -0.2097
 4553SOL    HW125118   2.931   1.149   6.914  0.2119 -0.9902  0.6886
 4553SOL    HW225119   3.071   1.112   6.959  2.6753  1.1705 -2.3340
 4554SOL     OW25120   0.536   4.653   0.297 -0.5233 -0.3369  0.4505
 4554SOL    HW125121   0.607   4.614   0.349 -0.0917  0.7003  0.6340
 4554SOL    HW225122   0.461   4.651   0.356  0.0701 -0.7979  1.1922
 4555SOL     OW25123   1.919   2.576   3.673 -0.4759  0.4736 -0.3104
 4555SOL    HW125124   1.841   2.604   3.625 -0.9117  1.0856  0.7483
 4555SOL    HW225125   1.985   2.618   3.618 -0.8477  0.5861 -0.6641
 4556SOL     OW25126   2.815   1.488  15.783 -0.1425  0.1989 -0.7059
 4556SOL    HW125127   2.769   1.546  15.723  0.7554  1.1800 -0.4450
 4556SOL    HW225128   2.904   1.492  15.749  0.2933 -1.3298  0.2203
 4557SOL     OW25129   2.259   3.441   7.474  0.2073 -0.0776 -1.0891
 4557SOL    HW125130   2.188   3.405   7.527  1.0839  1.2299  0.9504
 4557SOL    HW225131   2.232   3.415   7.386  2.1246 -0.6646 -1.5135
 4558SOL     OW25132   1.802   4.169   7.317  0.0262 -0.5507 -0.1420
 4558SOL    HW125133   1.859   4.220   7.375 -1.2858 -0.0522  0.7145
 4558SOL    HW225134   1.735   4.235   7.299  0.6701 -0.0980 -0.8573
 4559SOL     OW25135   4.159   4.321   4.108  0.0993 -0.4408 -0.0270
 4559SOL    HW125136   4.152   4.232   4.143 -1.0890 -0.6956 -0.9266
 4559SOL    HW225137   4.084   4.361   4.152 -0.6976  0.1232 -1.9333
 4560SOL     OW25138   0.175   4.680   8.294  0.6057  0.2000  0.3692
 4560SOL    HW125139   0.108   4.612   8.304  0.4070  0.6365  2.0717
 4560SOL    HW225140   0.118   0.030   8.279  0.8226  0.4449  0.7693
 4561SOL     OW25141   3.081   3.369  16.855  0.8133  0.3196 -0.3599
 4561SOL    HW125142   2.985   3.370  16.859  0.9208  0.8180  2.4449
 4561SOL    HW225143   3.100   3.459  16.829  1.8770  0.4436  0.8837
 4562SOL     OW25144   4.679   1.421   4.001  0.1316  0.1493 -0.1636
 4562SOL    HW125145   4.671   1.351   4.066  0.1104 -0.7581 -1.1506
 4562SOL    HW225146   4.710   1.495   4.053  2.2015 -0.7122 -0.1359
 4563SOL     OW25147   1.088   4.409   1.650 -0.4181 -0.1448 -0.2441
 4563SOL    HW125148   1.061   4.454   1.570  2.7744  1.2163 -0.5661
 4563SOL    HW225149   1.059   4.469   1.719  0.5928 -2.5576  2.3012
 4564SOL     OW25150   2.481   2.179  14.782 -0.4494  0.3988 -0.3999
 4564SOL    HW125151   2.469   2.266  14.820 -2.4789  0.4417 -1.1588
 4564SOL    HW225152   2.470   2.190  14.688 -1.1993  1.7288 -0.1520
 4565SOL     OW25153   1.277   3.707   0.903  0.5679 -0.0110  0.0065
 4565SOL    HW125154   1.235   3.787   0.935  2.6514  1.7610 -1.7092
 4565SOL    HW225155   1.301   3.738   0.815  1.0893 -1.6730 -0.4354
 4566SOL     OW25156   0.822   3.421   5.056  0.4223  0.0009  0.5243
 4566SOL    HW125157   0.823   3.335   5.097 -2.3660  0.0275  0.6350
 4566SOL    HW225158   0.793   3.411   4.965 -0.3311  0.9304  0.6511
 4567SOL     OW25159   0.140   1.347  11.180  0.1731 -0.4113  0.2097
 4567SOL    HW125160   0.052   1.379  11.202  0.2916  0.6946 -0.9262
 4567SOL    HW225161   0.188   1.428  11.164 -1.3018  0.4903  0.3713
 4568SOL     OW25162   0.674   3.106   7.431  0.2847  0.3284 -0.2489
 4568SOL    HW125163   0.732   3.066   7.495 -1.6414 -0.4047  1.0148
 4568SOL    HW225164   0.651   3.181   7.485  0.1756 -0.7252  1.1622
 4569SOL     OW25165   4.109   0.971   6.795  0.7720 -0.3134  0.2380
 4569SOL    HW125166   4.091   0.957   6.702  0.8179  0.0695  0.1678
 4569SOL    HW225167   4.058   0.898   6.829 -0.3646  0.0910 -0.5984
 4570SOL     OW25168   0.135   0.603   7.548  0.1942 -0.4326 -0.0829
 4570SOL    HW125169   0.041   0.618   7.544  0.1099 -1.6821 -2.3419
 4570SOL    HW225170   0.168   0.688   7.580  0.4753  0.1138 -1.8448
 4571SOL     OW25171   3.729   1.073   1.932  0.0570  0.0022 -0.4771
 4571SOL    HW125172   3.708   1.126   1.855 -1.4200  0.0623 -0.0382
 4571SOL    HW225173   3.807   1.117   1.965 -0.6041  0.3674  0.6145
 4572SOL     OW25174   0.065   2.827   7.735 -0.3592  0.6438  0.1159
 4572SOL    HW125175   0.013   2.747   7.746  0.3226  0.1459 -0.3114
 4572SOL    HW225176   0.094   2.811   7.645 -1.7619 -1.7614  0.1004
 4573SOL     OW25177   3.685   1.119  16.433 -0.8574 -0.1022  0.7180
 4573SOL    HW125178   3.637   1.185  16.483 -0.1045  1.0520 -0.0835
 4573SOL    HW225179   3.637   1.039  16.454  0.1453 -0.3154  2.1377
 4574SOL     OW25180   1.741   2.592  15.268  0.6436 -0.2491  0.1730
 4574SOL    HW125181   1.721   2.500  15.284  1.1444 -0.3962 -0.0221
 4574SOL    HW225182   1.711   2.610  15.179  2.6410 -2.8979 -1.0327
 4575SOL     OW25183   2.254   2.950   9.155  0.4036 -0.5369  0.0133
 4575SOL    HW125184   2.234   2.906   9.238 -0.9316  0.4548  0.2178
 4575SOL    HW225185   2.334   2.904   9.129  0.8255  0.8635 -1.1851
 4576SOL     OW25186   2.467   0.982  10.248 -0.1295  0.2432  0.1713
 4576SOL    HW125187   2.414   1.033  10.187 -0.1181 -0.2148 -0.2200
 4576SOL    HW225188   2.529   0.941  10.187  1.6119  2.5898  0.3503
 4577SOL     OW25189   3.336   0.620  13.726  0.1691 -0.2959  0.4000
 4577SOL    HW125190   3.288   0.660  13.798  0.4521 -0.8805  0.9160
 4577SOL    HW225191   3.391   0.691  13.692 -0.7864  1.1242  1.8484
 4578SOL     OW25192   0.718   2.222  15.116  0.1112 -0.2867  0.2436
 4578SOL    HW125193   0.801   2.175  15.119  0.3498  0.2559  1.6846
 4578SOL    HW225194   0.729   2.260  15.028  0.5041 -2.5377 -0.6889
 4579SOL     OW25195   0.489   3.208   2.522  0.1849 -0.5241 -0.0742
 4579SOL    HW125196   0.547   3.134   2.506  0.5128 -0.2571 -0.1257
 4579SOL    HW225197   0.404   3.169   2.504  0.8507 -1.1326 -1.9746
 4580SOL     OW25198   2.005   2.629   7.115  0.1067 -0.5570  0.2261
 4580SOL    HW125199   2.016   2.589   7.029  0.8239  0.2275 -0.0507
 4580SOL    HW225200   1.943   2.693   7.082 -2.8103 -2.8392  1.3281
 4581SOL     OW25201   1.885   4.488   3.094  0.1874  0.3071  0.0864
 4581SOL    HW125202   1.856   4.579   3.104  0.8826  0.5942 -0.5545
 4581SOL    HW225203   1.873   4.449   3.181 -0.1740 -1.7275 -0.8958
 4582SOL     OW25204   0.861   2.910   9.432  0.0392 -0.6084 -0.4035
 4582SOL    HW125205   0.907   2.994   9.437 -1.3871  0.1494  0.1569
 4582SOL    HW225206   0.873   2.879   9.522 -0.3300  0.2481 -0.0520
 4583SOL     OW25207   2.356   1.380   5.457 -0.0927 -0.3663  0.3957
 4583SOL    HW125208   2.447   1.409   5.461 -0.5077  1.0271 -0.5132
 4583SOL    HW225209   2.318   1.407   5.541 -2.4811  1.7256 -1.3571
 4584SOL     OW25210   1.930   1.226  17.484 -0.2556  0.0611  0.2322
 4584SOL    HW125211   1.843   1.247  17.450 -0.6927  1.8151  2.4326
 4584SOL    HW225212   1.901   1.155  17.541  2.0279 -2.6301 -1.9534
 4585SOL     OW25213   1.239   1.748   8.632 -0.0337 -0.0925  0.1030
 4585SOL    HW125214   1.160   1.693   8.630 -0.1045  0.0167 -0.1272
 4585SOL    HW225215   1.294   1.695   8.574  0.4213 -1.2706  1.6155
 4586SOL     OW25216   1.274   3.122   7.408 -0.2992  0.3928 -0.2469
 4586SOL    HW125217   1.286   3.041   7.359  0.9933  1.3527 -1.5334
 4586SOL    HW225218   1.183   3.107   7.432 -0.3659 -0.2896 -0.9295
 4587SOL     OW25219   0.845   4.444   3.099 -0.2695  0.8978  0.7840
 4587SOL    HW125220   0.771   4.385   3.084  2.4598 -2.2946 -0.1225
 4587SOL    HW225221   0.914   4.381   3.121 -0.6848 -0.3409 -1.4634
 4588SOL     OW25222   3.315   0.377  13.572 -0.3222  0.3436 -0.5774
 4588SOL    HW125223   3.406   0.354  13.551  0.0068  1.2244 -0.1548
 4588SOL    HW225224   3.326   0.455  13.627  0.0590  0.2075 -0.4645
 4589SOL     OW25225   4.138   1.892   7.891  0.2791  0.2264  0.5513
 4589SOL    HW125226   4.162   1.806   7.927  0.8539 -0.6353 -1.9012
 4589SOL    HW225227   4.196   1.896   7.815  0.3291  1.1969  0.6384
 4590SOL     OW25228   3.182   2.393  13.439 -0.3549 -0.1021  0.5148
 4590SOL    HW125229   3.193   2.407  13.533 -1.5814 -0.3362  0.6869
 4590SOL    HW225230   3.088   2.402  13.424 -0.2989 -2.9624 -1.5094
 4591SOL     OW25231   2.220   3.230   2.439 -0.2037  0.1781  0.1264
 4591SOL    HW125232   2.152   3.263   2.497  1.3627 -1.3973  2.8729
 4591SOL    HW225233   2.252   3.310   2.398  1.4376 -0.6198 -0.1672
 4592SOL     OW25234   2.156   0.964  14.390  0.0012 -0.3480  0.3076
 4592SOL    HW125235   2.173   1.051  14.428  0.4271  0.8362 -2.5579
 4592SOL    HW225236   2.099   0.925  14.456 -2.3861  1.2750 -0.7534
 4593SOL     OW25237   1.245   4.398   6.515 -0.1361 -0.5323 -0.6034
 4593SOL    HW125238   1.215   4.374   6.603  0.2971 -0.5248 -0.4525
 4593SOL    HW225239   1.159   4.413   6.478 -0.4836 -0.5560  0.1859
 4594SOL     OW25240   1.437   1.826   5.876 -0.2392 -0.2725 -0.7223
 4594SOL    HW125241   1.407   1.908   5.839 -1.7974 -0.7342 -0.4832
 4594SOL    HW225242   1.507   1.847   5.938 -1.1123 -2.3316  0.9940
 4595SOL     OW25243   1.005   0.009  16.571  0.5530 -0.2079 -0.0859
 4595SOL    HW125244   0.944   0.032  16.641  0.1994 -0.2979 -0.3672
 4595SOL    HW225245   1.053   4.661  16.609 -0.4107 -0.8670 -0.1631
 4596SOL     OW25246   0.332   1.319   9.229  0.3621  0.5814 -0.1843
 4596SOL    HW125247   0.406   1.284   9.280 -0.2300 -0.8537 -0.3272
 4596SOL    HW225248   0.259   1.267   9.261  0.5571  0.0973 -0.5232
 4597SOL     OW25249   4.329   1.460  11.877  0.1568  0.7952  0.0851
 4597SOL    HW125250   4.328   1.499  11.965  1.9523  1.6078 -0.2518
 4597SOL    HW225251   4.240   1.474  11.844 -0.0759 -0.9719 -0.0673
 4598SOL     OW25252   0.137   1.959   6.729 -0.1381 -0.0957  0.0396
 4598SOL    HW125253   0.167   1.970   6.819  0.7339 -1.1971 -0.1201
 4598SOL    HW225254   0.188   2.018   6.674 -1.2483  1.3582  0.5653
 4599SOL     OW25255   1.263   3.805   9.071 -0.2778 -0.1687 -0.4268
 4599SOL    HW125256   1.244   3.887   9.118  4.5012  2.7952 -3.6090
 4599SOL    HW225257   1.237   3.825   8.981 -0.6628 -0.0025 -0.2804
 4600SOL     OW25258   0.134   1.627   6.135 -0.1440  0.0589 -0.3983
 4600SOL    HW125259   0.071   1.675   6.082  0.8161  1.2491 -0.4606
 4600SOL    HW225260   0.209   1.653   6.081  0.4833 -1.1567 -0.1269
 4601SOL     OW25261   4.654   0.911   2.089  0.0620  0.0888  0.0983
 4601SOL    HW125262   4.634   0.824   2.053 -3.1302  0.4079  1.1023
 4601SOL    HW225263   4.723   0.938   2.029 -0.7628  0.5618 -0.6429
 4602SOL     OW25264   0.800   2.308   4.305  0.1408 -0.0208 -0.0290
 4602SOL    HW125265   0.763   2.307   4.393  1.7310  0.0666  0.6432
 4602SOL    HW225266   0.873   2.369   4.315 -1.1535  1.6276 -0.5038
 4603SOL     OW25267   3.996   2.984  17.108  0.7544  0.3054  0.2322
 4603SOL    HW125268   4.069   2.931  17.139  0.7446  0.3665  0.3587
 4603SOL    HW225269   3.922   2.922  17.105 -1.0853  2.4769  0.8342
 4604SOL     OW25270   3.639   1.390  12.445  0.4993 -0.0847  0.5786
 4604SOL    HW125271   3.594   1.317  12.487 -1.3120 -0.0191 -1.2561
 4604SOL    HW225272   3.605   1.364  12.359 -1.7099  1.6246  0.9394
 4605SOL     OW25273   0.867   0.603  14.307  0.2160  0.0306  0.1118
 4605SOL    HW125274   0.923   0.548  14.252  0.3636  0.4248 -0.1376
 4605SOL    HW225275   0.846   0.544  14.379  0.9534 -1.4916 -0.9215
 4606SOL     OW25276   0.258   4.683  14.981  0.0056  0.0419  0.3143
 4606SOL    HW125277   0.242   0.042  14.941 -1.1952 -0.8901 -1.1640
 4606SOL    HW225278   0.232   4.618  14.915  0.5675  0.8589 -0.7176
 4607SOL     OW25279   1.453   1.206   8.317 -0.4123 -0.2548 -0.0247
 4607SOL    HW125280   1.470   1.264   8.242 -0.1979 -1.5146 -0.9617
 4607SOL    HW225281   1.403   1.256   8.381 -0.4854 -0.3125 -0.0364
 4608SOL     OW25282   4.310   0.293   6.519 -0.6021  0.4593 -0.0823
 4608SOL    HW125283   4.382   0.310   6.459  0.3924 -0.3956  0.8833
 4608SOL    HW225284   4.300   0.198   6.525 -3.7026  0.6867 -1.5346
 4609SOL     OW25285   2.602   2.930   8.480  0.4749  0.2657 -0.2766
 4609SOL    HW125286   2.651   2.941   8.562  1.4372 -0.1859 -0.7943
 4609SOL    HW225287   2.623   2.838   8.463  0.5005 -0.1299  1.8285
 4610SOL     OW25288   1.605   0.048   7.048 -0.0350  0.3105 -0.3491
 4610SOL    HW125289   1.588   0.133   7.009  0.0282 -0.0023 -1.0505
 4610SOL    HW225290   1.521   0.064   7.092  0.6416  0.8896  0.7307
 4611SOL     OW25291   3.393   0.676  10.829  0.0975 -0.4100 -0.5196
 4611SOL    HW125292   3.413   0.674  10.736 -0.4737  2.2395 -0.6980
 4611SOL    HW225293   3.459   0.742  10.853 -0.2701 -0.0938 -0.3760
 4612SOL     OW25294   3.850   3.140   4.936  0.2833  0.4134 -0.1191
 4612SOL    HW125295   3.871   3.231   4.958  3.1529  0.0192 -1.1830
 4612SOL    HW225296   3.925   3.086   4.963  0.3198 -0.1455 -1.3578
 4613SOL     OW25297   0.634   4.272  15.998 -0.0452  0.3708 -0.1357
 4613SOL    HW125298   0.727   4.272  15.980 -0.0852 -1.8340 -0.2782
 4613SOL    HW225299   0.618   4.349  15.944 -2.1146 -0.6259 -0.9408
 4614SOL     OW25300   2.895   4.686   7.390  0.3727  0.0206 -0.4257
 4614SOL    HW125301   2.803   4.705   7.373  0.2514  0.4407  0.7118
 4614SOL    HW225302   2.890   4.592   7.404  1.3973  0.1753  1.0357
 4615SOL     OW25303   0.903   3.853   6.667  0.1488  0.0766 -0.4805
 4615SOL    HW125304   0.951   3.833   6.586  2.8048 -1.7909  1.5490
 4615SOL    HW225305   0.942   3.791   6.728 -0.5000 -0.6022 -0.7666
 4616SOL     OW25306   1.889   4.658  14.471  0.1832 -0.2072 -0.6747
 4616SOL    HW125307   1.971   4.626  14.434  0.1761  1.6854 -2.3097
 4616SOL    HW225308   1.919   0.006  14.524  0.8607 -1.1928  0.3302
 4617SOL     OW25309   4.511   2.267   9.401 -0.2555 -0.6415 -0.0044
 4617SOL    HW125310   4.521   2.308   9.487 -1.3056  1.0947 -0.7133
 4617SOL    HW225311   4.550   2.332   9.343 -0.3908  1.3635  2.1501
 4618SOL     OW25312   0.273   2.793   7.528 -0.2330  0.5802  0.1844
 4618SOL    HW125313   0.357   2.832   7.554 -0.2430  1.6382 -1.3517
 4618SOL    HW225314   0.238   2.853   7.463  0.6899  0.4628 -0.4200
 4619SOL     OW25315   3.111   1.095   7.142 -0.2481  0.6750  0.1803
 4619SOL    HW125316   3.072   1.008   7.153  0.4732  0.4641  1.0346
 4619SOL    HW225317   3.191   1.092   7.193  0.1011 -1.3817 -0.5165
 4620SOL     OW25318   4.547   2.251   4.640  0.7215 -0.8311  0.1656
 4620SOL    HW125319   4.542   2.185   4.571 -0.3342  0.2001 -0.7464
 4620SOL    HW225320   4.600   2.317   4.594  0.4824 -1.1763 -0.6133
 4621SOL     OW25321   0.542   2.617   7.803 -0.4047 -0.2432  0.2609
 4621SOL    HW125322   0.616   2.653   7.852 -1.5243  0.9459  1.0616
 4621SOL    HW225323   0.477   2.596   7.871  0.8883  0.4122  1.6925
 4622SOL     OW25324   4.044   0.506   5.553  0.4709 -0.4560  0.1350
 4622SOL    HW125325   4.070   0.466   5.636  0.6936 -2.9984 -1.1496
 4622SOL    HW225326   4.095   0.446   5.499  0.5497 -0.0452 -0.2460
 4623SOL     OW25327   4.369   4.275   2.596 -0.3649  0.5937 -0.7636
 4623SOL    HW125328   4.442   4.308   2.543 -0.3574  0.2404 -0.9807
 4623SOL    HW225329   4.371   4.339   2.667 -1.7043 -1.8089  1.4471
 4624SOL     OW25330   1.897   3.486   5.094  0.5616 -0.6674 -0.1545
 4624SOL    HW125331   1.852   3.404   5.074 -0.6165 -0.3106  1.0573
 4624SOL    HW225332   1.866   3.549   5.029 -0.8959  0.6941  1.8712
 4625SOL     OW25333   1.218   3.475  13.904  0.0213  0.3873 -0.0766
 4625SOL    HW125334   1.239   3.513  13.990  0.7596  1.4911 -0.7347
 4625SOL    HW225335   1.298   3.510  13.864 -0.8649  2.3963 -0.0790
 4626SOL     OW25336   4.694   1.031  14.855  0.0394  0.4804 -0.0704
 4626SOL    HW125337   4.602   1.019  14.878  0.6515 -0.9769  1.6664
 4626SOL    HW225338   4.692   1.113  14.805  1.8466 -0.1409 -1.1668
 4627SOL     OW25339   0.142   1.643   6.908 -0.5286  0.5167  0.2794
 4627SOL    HW125340   0.124   1.604   6.823  0.1194 -0.8862  0.7806
 4627SOL    HW225341   0.084   1.588   6.960  0.5956 -2.5503 -1.7519
 4628SOL     OW25342   3.245   3.844   2.229  0.1785  0.2443  0.2239
 4628SOL    HW125343   3.279   3.813   2.145  0.1716  2.5779 -0.6525
 4628SOL    HW225344   3.181   3.912   2.208  0.3570  0.1881 -0.4987
 4629SOL     OW25345   2.472   2.145  16.911 -0.0554  0.4419  0.4824
 4629SOL    HW125346   2.564   2.136  16.936 -0.3929 -0.3080  1.4872
 4629SOL    HW225347   2.482   2.228  16.865 -2.6187  1.1675  1.2077
 4630SOL     OW25348   2.058   0.656   6.437 -0.9625 -0.0111 -0.1803
 4630SOL    HW125349   2.145   0.696   6.433 -0.5474 -0.9007 -0.2854
 4630SOL    HW225350   2.045   0.626   6.527 -1.5695  0.0591 -0.2464
 4631SOL     OW25351   4.131   1.238   7.204 -0.2186 -0.3709  0.0805
 4631SOL    HW125352   4.161   1.219   7.115  0.3853  0.6124  0.0828
 4631SOL    HW225353   4.162   1.328   7.204 -0.7076 -0.2038  0.0781
 4632SOL     OW25354   2.167   0.683   6.958  0.4382 -0.1874  0.1047
 4632SOL    HW125355   2.182   0.667   6.864 -0.3460 -0.7468  0.0652
 4632SOL    HW225356   2.130   0.771   6.952  1.1976  0.1025 -0.2971
 4633SOL     OW25357   1.718   1.718   4.872  0.5199 -0.1399  0.4176
 4633SOL    HW125358   1.651   1.652   4.890  1.7767 -1.8971 -1.4214
 4633SOL    HW225359   1.665   1.797   4.859 -0.0628 -0.5261  0.4409
 4634SOL     OW25360   2.119   1.430   3.058  0.1453 -0.1169  0.5008
 4634SOL    HW125361   2.048   1.383   3.014  1.3827 -0.2589 -1.3543
 4634SOL    HW225362   2.057   1.481   3.110  0.6237  0.5266  0.4334
 4635SOL     OW25363   2.321   1.609   2.130 -0.0229  0.2079  0.2005
 4635SOL    HW125364   2.355   1.527   2.166  0.0521  0.3189  0.3795
 4635SOL    HW225365   2.372   1.670   2.183  1.4591 -0.2296 -0.7451
 4636SOL     OW25366   0.681   1.350  13.293  0.1682  0.4700  0.9490
 4636SOL    HW125367   0.623   1.295  13.241  0.3119 -0.0897  1.3935
 4636SOL    HW225368   0.750   1.286  13.311 -0.9008 -0.3154  2.2282
 4637SOL     OW25369   0.543   2.826   0.196  0.3199 -0.4381  0.2603
 4637SOL    HW125370   0.459   2.814   0.241 -1.2083 -0.2424 -2.5151
 4637SOL    HW225371   0.591   2.840   0.278 -1.5284  0.6015  1.1710
 4638SOL     OW25372   0.686   1.866  14.039 -0.6958 -0.5321  0.3144
 4638SOL    HW125373   0.663   1.791  13.983  2.2584 -1.4546  0.3139
 4638SOL    HW225374   0.650   1.931  13.979  0.7025  0.0846  0.1340
 4639SOL     OW25375   2.366   2.723   3.552 -0.2282 -0.6778  0.0745
 4639SOL    HW125376   2.438   2.732   3.489 -2.0943 -1.5724 -2.2025
 4639SOL    HW225377   2.372   2.630   3.573  0.2537 -0.1524  2.2219
 4640SOL     OW25378   3.839   3.041   2.953  0.3929 -0.2154  0.3875
 4640SOL    HW125379   3.762   3.025   3.007  0.8463  4.4491  2.4071
 4640SOL    HW225380   3.820   3.126   2.913 -1.5449 -0.2919  1.1601
 4641SOL     OW25381   2.059   1.626  11.388 -0.1337  0.2620  0.0759
 4641SOL    HW125382   2.014   1.629  11.473 -1.6863 -0.2956 -0.7402
 4641SOL    HW225383   2.050   1.537  11.353  0.0398 -0.1158  0.9702
 4642SOL     OW25384   0.929   2.623   8.597  0.1895  0.2460  0.1576
 4642SOL    HW125385   0.989   2.548   8.589 -0.1479  0.0572 -0.6134
 4642SOL    HW225386   0.953   2.679   8.523  0.9638 -0.2474  0.0356
 4643SOL     OW25387   1.600   2.464   3.991  0.0153  0.7111  0.2798
 4643SOL    HW125388   1.626   2.380   3.953  0.7674 -0.2570  2.9307
 4643SOL    HW225389   1.563   2.512   3.917 -1.0741  0.4373  0.6508
 4644SOL     OW25390   2.949   3.678   3.414 -0.0309 -0.2528  0.0870
 4644SOL    HW125391   2.903   3.756   3.444 -1.6463 -0.8469 -0.8033
 4644SOL    HW225392   2.988   3.656   3.498 -0.4893 -4.4787 -0.7725
 4645SOL     OW25393   0.835   2.181   2.475 -0.0495  0.1400 -0.7433
 4645SOL    HW125394   0.895   2.120   2.517 -1.3628 -0.9768 -0.4604
 4645SOL    HW225395   0.867   2.211   2.390  2.7264 -1.6140 -0.3253
 4646SOL     OW25396   0.094   0.800  11.440  0.0902  0.2803  0.1764
 4646SOL    HW125397   0.080   0.876  11.496  2.7944  0.1995  0.9389
 4646SOL    HW225398   0.078   0.722  11.493  1.5238  1.3561  2.1774
 4647SOL     OW25399   2.652   2.219   4.776  0.3264 -0.2987 -0.2648
 4647SOL    HW125400   2.681   2.227   4.867 -0.5388  1.3684 -0.1307
 4647SOL    HW225401   2.586   2.150   4.778 -0.5564  0.5896  1.2316
 4648SOL     OW25402   3.082   0.104  10.076  0.6896  0.3593  0.2635
 4648SOL    HW125403   3.053   0.070  10.161  2.0259  0.8600  0.9112
 4648SOL    HW225404   3.042   0.042  10.015  1.1662  1.2179 -0.9252
 4649SOL     OW25405   4.133   1.097   5.336 -0.5439 -0.1939  0.5381
 4649SOL    HW125406   4.102   1.116   5.247  1.3674 -1.3736 -0.3844
 4649SOL    HW225407   4.215   1.145   5.327 -0.4251 -0.4509  0.2388
 4650SOL     OW25408   4.347   3.424   6.231 -0.2026  0.2281 -0.3372
 4650SOL    HW125409   4.407   3.443   6.303 -0.8398 -0.6867  0.4314
 4650SOL    HW225410   4.263   3.443   6.272  0.0837  1.0990 -0.1557
 4651SOL     OW25411   0.891   3.742   6.994  0.0585  0.0279 -1.2216
 4651SOL    HW125412   0.864   3.690   7.070  0.8167  2.6042  0.8005
 4651SOL    HW225413   0.803   3.770   6.967  0.0325  2.1065  0.9821
 4652SOL     OW25414   1.897   4.343  11.928  0.0860  0.4959  0.0870
 4652SOL    HW125415   1.969   4.369  11.984 -0.0669 -1.4783  1.1803
 4652SOL    HW225416   1.936   4.345  11.840  1.2763 -0.4058  0.6120
 4653SOL     OW25417   1.532   0.550   9.035 -0.3437  0.4959  0.0666
 4653SOL    HW125418   1.493   0.507   9.111 -2.0357 -0.5460 -1.3824
 4653SOL    HW225419   1.509   0.487   8.966 -1.5601  0.8634  0.1330
 4654SOL     OW25420   4.301   1.276   8.297 -0.5538  0.3032 -0.2266
 4654SOL    HW125421   4.293   1.370   8.282 -0.2556  0.6534  1.8847
 4654SOL    HW225422   4.326   1.234   8.214 -1.1934  1.4614 -0.9969
 4655SOL     OW25423   3.938   3.563   3.285  0.2551  0.4466  0.2556
 4655SOL    HW125424   3.885   3.642   3.278 -1.8446 -1.0499 -0.7853
 4655SOL    HW225425   3.915   3.515   3.206  1.6049 -0.3898  0.3767
 4656SOL     OW25426   2.806   3.893  12.580 -0.5359  0.0861  0.4656
 4656SOL    HW125427   2.825   3.968  12.524 -0.2225  0.4446  1.0551
 4656SOL    HW225428   2.879   3.833  12.566 -1.5968 -0.9528 -0.7096
 4657SOL     OW25429   0.808   3.763   1.333  0.4717  0.4051  0.1698
 4657SOL    HW125430   0.862   3.719   1.267 -0.0010  1.5343 -0.9785
 4657SOL    HW225431   0.722   3.737   1.302 -0.0138  0.5716  1.3633
 4658SOL     OW25432   1.280   1.440   2.378  0.1233 -0.1002  0.3781
 4658SOL    HW125433   1.303   1.466   2.289  4.0713 -1.7256  0.9230
 4658SOL    HW225434   1.218   1.507   2.407 -0.4361 -0.2081 -0.5614
 4659SOL     OW25435   4.624   3.538  10.653  0.2962  0.0928 -0.1828
 4659SOL    HW125436   4.554   3.474  10.666 -0.6673  1.0322 -0.6941
 4659SOL    HW225437   4.670   3.529  10.736  0.7335 -0.0903 -0.4470
 4660SOL     OW25438   0.962   1.234   9.698  0.0701 -0.2443 -0.2086
 4660SOL    HW125439   0.890   1.292   9.724 -1.8987 -2.9034  0.2474
 4660SOL    HW225440   0.977   1.191   9.782 -1.4594 -1.3767 -0.5229
 4661SOL     OW25441   3.032   3.110   1.405 -0.0755  0.2577  0.4978
 4661SOL    HW125442   2.961   3.069   1.354  1.4511 -2.5482  0.5935
 4661SOL    HW225443   3.069   3.032   1.447 -4.2160 -1.2722  1.3110
 4662SOL     OW25444   1.785   4.029   9.941  0.4450  0.5884 -0.1081
 4662SOL    HW125445   1.817   4.105   9.891  2.1231 -0.0970 -0.0719
 4662SOL    HW225446   1.778   4.064  10.029  0.6647  0.7024 -0.1339
 4663SOL     OW25447   1.796   3.232  16.774  0.0702  0.0273  0.6423
 4663SOL    HW125448   1.887   3.213  16.753 -0.4121 -2.9129  1.1726
 4663SOL    HW225449   1.762   3.143  16.771  0.1962  0.1146 -2.6270
 4664SOL     OW25450   1.818   3.228   1.853  0.3432 -0.1734 -0.5705
 4664SOL    HW125451   1.839   3.285   1.779  2.6674 -0.3769 -0.0684
 4664SOL    HW225452   1.729   3.258   1.871  0.4719  0.5434 -1.1592
 4665SOL     OW25453   1.874   0.989   2.553  0.1165 -0.1010 -0.0743
 4665SOL    HW125454   1.791   0.942   2.555  0.4178 -0.6419 -0.1920
 4665SOL    HW225455   1.923   0.908   2.534  0.0944 -0.5253  1.7052
 4666SOL     OW25456   4.273   3.022   1.704  0.0222 -0.0541  0.3327
 4666SOL    HW125457   4.231   3.067   1.632 -0.9797 -1.9011 -0.2244
 4666SOL    HW225458   4.214   3.033   1.779  0.3664  1.5140  0.3754
 4667SOL     OW25459   0.768   0.292  12.967  0.4386 -0.1554  0.1325
 4667SOL    HW125460   0.738   0.347  12.895 -2.1359 -1.2316  0.3641
 4667SOL    HW225461   0.790   0.364  13.027 -0.1388 -0.5473  0.8174
 4668SOL     OW25462   2.191   2.327   8.328  0.2613 -0.1524 -0.3160
 4668SOL    HW125463   2.206   2.260   8.394 -1.1710 -1.0915 -0.9640
 4668SOL    HW225464   2.103   2.348   8.359  0.5179  1.6443 -0.7562
 4669SOL     OW25465   3.700   2.898   5.832  0.1518 -0.2491  0.2911
 4669SOL    HW125466   3.776   2.950   5.808 -0.8158  0.4874 -1.2182
 4669SOL    HW225467   3.737   2.826   5.884 -1.5115 -0.6784  0.8938
 4670SOL     OW25468   4.677   1.463  16.106  0.1744  0.5516 -0.1024
 4670SOL    HW125469   0.005   1.443  16.029  1.2257  0.4133  0.6730
 4670SOL    HW225470   4.590   1.426  16.092 -1.1584  3.5720  0.0607
 4671SOL     OW25471   1.225   1.661   7.190 -0.3715  0.1244  0.2778
 4671SOL    HW125472   1.224   1.605   7.112 -0.2774 -0.5609  0.7738
 4671SOL    HW225473   1.142   1.702   7.165 -0.7203 -0.2332  0.8626
 4672SOL     OW25474   1.495   1.175   0.798 -0.3213 -0.5464 -0.0513
 4672SOL    HW125475   1.581   1.191   0.758 -1.0997 -0.0660 -1.5303
 4672SOL    HW225476   1.513   1.098   0.851  0.5436  0.7237  1.4975
 4673SOL     OW25477   0.282   0.848   5.429 -0.2504  0.0227  0.6132
 4673SOL    HW125478   0.242   0.911   5.490  0.2341 -0.4205  1.3918
 4673SOL    HW225479   0.368   0.885   5.413  0.0733 -0.6903  0.7010
 4674SOL     OW25480   2.778   3.352   6.557  0.2243 -0.1428  0.3978
 4674SOL    HW125481   2.719   3.339   6.631 -0.5537  0.0594 -0.2002
 4674SOL    HW225482   2.822   3.267   6.556 -1.8697 -1.1894 -0.7063
 4675SOL     OW25483   1.577   3.869  11.098  0.4040  0.4898  0.0507
 4675SOL    HW125484   1.510   3.801  11.106 -0.5080  1.0924 -2.4731
 4675SOL    HW225485   1.655   3.822  11.067  1.1817  1.3607  0.6735
 4676SOL     OW25486   2.971   1.703   9.008  0.2920 -0.3854 -0.0292
 4676SOL    HW125487   2.986   1.658   8.925  0.8893 -0.8461  0.3362
 4676SOL    HW225488   2.916   1.778   8.983 -0.4796 -0.7408  0.6294
 4677SOL     OW25489   1.257   2.064  12.125  0.4618 -0.9155 -0.4515
 4677SOL    HW125490   1.253   2.047  12.031 -0.1131 -0.5666 -0.4864
 4677SOL    HW225491   1.258   1.975  12.158 -2.5830 -0.9331 -0.4098
 4678SOL     OW25492   4.470   0.848   5.399 -0.1667  0.4474  0.7137
 4678SOL    HW125493   4.475   0.774   5.460  1.9631 -0.9196 -1.1315
 4678SOL    HW225494   4.523   0.919   5.433 -1.0888  0.9527  1.1081
 4679SOL     OW25495   4.492   2.169  15.726  0.0634  0.3134  0.0552
 4679SOL    HW125496   4.453   2.141  15.643 -0.9047  0.6237  0.4175
 4679SOL    HW225497   4.417   2.190  15.781 -0.1473  0.0236 -0.1218
 4680SOL     OW25498   1.491   0.369   4.409  0.2156  0.5629  0.1140
 4680SOL    HW125499   1.423   0.368   4.477  1.9388 -2.6018  1.7901
 4680SOL    HW225500   1.489   0.284   4.366  0.5754  0.1477  0.9157
 4681SOL     OW25501   4.502   2.560   1.360 -0.2126  0.0679  0.6419
 4681SOL    HW125502   4.407   2.561   1.350 -0.2163 -0.3637  0.6456
 4681SOL    HW225503   4.518   2.466   1.362 -0.1442  0.0231 -1.1534
 4682SOL     OW25504   0.447   2.161  15.117 -0.0845  0.2393  0.1924
 4682SOL    HW125505   0.415   2.186  15.204 -2.3216 -1.4286 -0.1596
 4682SOL    HW225506   0.542   2.175  15.118 -0.3270  1.7796  0.9470
 4683SOL     OW25507   4.225   0.621   2.304  0.4750  0.5071  0.6485
 4683SOL    HW125508   4.154   0.557   2.309  0.2438  0.7373  0.2577
 4683SOL    HW225509   4.219   0.649   2.213 -1.5105  1.6827  1.1453
 4684SOL     OW25510   0.956   1.542   0.029  0.6333  0.1793  1.0028
 4684SOL    HW125511   0.902   1.616   0.058 -0.2909 -0.0378 -0.1414
 4684SOL    HW225512   0.926   1.483   0.098 -0.7913 -0.7685 -0.3936
 4685SOL     OW25513   4.085   3.177  10.233  0.2487 -0.7623  0.2430
 4685SOL    HW125514   4.034   3.169  10.314 -0.4892  0.1441 -0.1270
 4685SOL    HW225515   4.173   3.173  10.270  0.3894  0.9415  0.0711
 4686SOL     OW25516   0.758   2.509   4.582  0.2124 -0.2240 -0.6740
 4686SOL    HW125517   0.761   2.565   4.660  0.7793 -0.5237 -0.4754
 4686SOL    HW225518   0.827   2.442   4.590  1.5089  0.8908 -2.7958
 4687SOL     OW25519   3.344   3.373  13.297  0.0242  0.2327  0.0150
 4687SOL    HW125520   3.411   3.430  13.336  0.5266 -1.0677  1.0422
 4687SOL    HW225521   3.267   3.413  13.336 -1.5784 -1.7390 -1.1162
 4688SOL     OW25522   3.300   2.794   8.026  0.8826 -0.5833  0.1558
 4688SOL    HW125523   3.285   2.747   7.944 -0.3914 -0.9723  0.6150
 4688SOL    HW225524   3.386   2.761   8.051  0.5527 -0.3696  1.5812
 4689SOL     OW25525   4.686   4.199   4.781 -0.4009 -0.4923  0.3966
 4689SOL    HW125526   4.726   4.135   4.722 -0.2621  0.9442 -1.0867
 4689SOL    HW225527   4.639   4.261   4.725 -1.2778 -0.3096  1.3357
 4690SOL     OW25528   3.050   3.102  17.382 -0.2147  0.3490 -0.3982
 4690SOL    HW125529   3.116   3.093  17.451  1.5340  1.3697 -1.9298
 4690SOL    HW225530   2.994   3.026  17.399  1.8332 -1.1882 -0.4526
 4691SOL     OW25531   2.978   1.266   4.227  0.1834 -0.4085 -0.1537
 4691SOL    HW125532   3.011   1.332   4.165  1.6763  0.5652  1.6744
 4691SOL    HW225533   3.028   1.188   4.200 -0.2979 -1.1420  1.1297
 4692SOL     OW25534   0.543   1.768   0.661  0.2097  0.3095  0.1106
 4692SOL    HW125535   0.529   1.691   0.607  0.5465  0.5616 -0.3368
 4692SOL    HW225536   0.589   1.827   0.601 -1.8182  3.2481  1.4746
 4693SOL     OW25537   2.596   2.284   5.648  0.4250 -0.1901  0.2092
 4693SOL    HW125538   2.567   2.322   5.731 -1.9664  0.2677 -0.8524
 4693SOL    HW225539   2.516   2.235   5.634  1.6522 -1.3157 -2.8715
 4694SOL     OW25540   1.158   0.749   1.863  0.3224  0.2216 -0.4107
 4694SOL    HW125541   1.172   0.669   1.913 -2.3744 -0.8064 -1.3186
 4694SOL    HW225542   1.131   0.719   1.776  0.5028  1.7511 -1.0068
 4695SOL     OW25543   2.287   1.975   8.628 -0.2719  0.0524  0.1199
 4695SOL    HW125544   2.346   1.900   8.625  0.7922  0.8945 -0.0427
 4695SOL    HW225545   2.264   1.970   8.721  0.5326  2.3967  0.4416
 4696SOL     OW25546   2.637   3.018  15.146 -0.0978  0.8371 -0.5101
 4696SOL    HW125547   2.650   3.105  15.182  1.7643  1.2880 -2.2782
 4696SOL    HW225548   2.663   2.970  15.225 -4.9346 -1.1598 -0.0604
 4697SOL     OW25549   4.056   1.831   8.678 -0.8404 -0.1160  0.0500
 4697SOL    HW125550   3.970   1.795   8.702 -0.1030 -1.4188  0.7021
 4697SOL    HW225551   4.036   1.885   8.602  0.6938 -0.1877 -0.4027
 4698SOL     OW25552   4.260   4.274   7.137  0.4375  0.2479  0.5229
 4698SOL    HW125553   4.202   4.339   7.176 -1.6368 -0.5982 -1.1816
 4698SOL    HW225554   4.208   4.195   7.131  0.2161  0.4986 -1.0461
 4699SOL     OW25555   4.177   2.401   8.449 -0.3326  0.4146  0.0798
 4699SOL    HW125556   4.246   2.356   8.400 -0.2148  0.8937 -0.2025
 4699SOL    HW225557   4.207   2.492   8.459  1.1382  0.0704 -1.1541
 4700SOL     OW25558   2.634   0.917   7.386  0.1385 -0.2604  0.0934
 4700SOL    HW125559   2.642   0.825   7.410  1.7240  0.2415  1.4615
 4700SOL    HW225560   2.600   0.918   7.296 -1.5582  1.1742  0.7388
 4701SOL     OW25561   1.002   3.669   8.921 -0.2188 -0.2935 -0.3185
 4701SOL    HW125562   0.961   3.741   8.968  1.4322  0.1500  0.4377
 4701SOL    HW225563   1.006   3.609   8.995 -0.8306  1.7513  1.3587
 4702SOL     OW25564   1.390   0.315   5.795  0.2499 -0.9916  0.7149
 4702SOL    HW125565   1.352   0.398   5.823 -0.4010 -1.9707  2.7287
 4702SOL    HW225566   1.381   0.270   5.879  0.9630 -1.7867  0.3708
 4703SOL     OW25567   0.092   3.121   2.352  0.1221  0.7021 -0.2652
 4703SOL    HW125568   0.037   3.069   2.293  1.5756 -1.5929  0.3828
 4703SOL    HW225569   0.149   3.054   2.390 -0.3532 -0.6895 -1.9782
 4704SOL     OW25570   2.661   3.423   5.753 -0.0378 -0.8867 -0.4927
 4704SOL    HW125571   2.642   3.450   5.842  0.7619  1.6647 -1.0719
 4704SOL    HW225572   2.575   3.428   5.711 -0.9329  0.1234  1.4917
 4705SOL     OW25573   3.779   4.597   6.339  0.2308 -0.0710  0.1097
 4705SOL    HW125574   3.814   4.566   6.423 -1.9390 -2.0942  0.2836
 4705SOL    HW225575   3.808   4.688   6.340 -2.3020  0.7478 -1.6463
 4706SOL     OW25576   1.469   2.334   3.047  0.5082  0.8585 -0.1089
 4706SOL    HW125577   1.561   2.311   3.060  0.2607 -0.5243 -0.7853
 4706SOL    HW225578   1.426   2.260   3.004 -1.8968  1.3239  1.5133
 4707SOL     OW25579   4.428   3.097   7.779 -0.1159  0.2064 -0.5350
 4707SOL    HW125580   4.512   3.062   7.807 -0.0326  1.0468  0.2833
 4707SOL    HW225581   4.439   3.192   7.788  0.3472  0.2363 -1.3873
 4708SOL     OW25582   2.356   3.463   2.716  0.4030  0.5079  0.0210
 4708SOL    HW125583   2.367   3.551   2.679  0.3186  0.0573 -1.0766
 4708SOL    HW225584   2.406   3.405   2.659  2.8573  1.3719  1.2757
 4709SOL     OW25585   1.580   1.991   5.199 -0.1203 -0.6545 -0.3351
 4709SOL    HW125586   1.543   1.912   5.239  0.6686 -0.3758  0.9622
 4709SOL    HW225587   1.549   2.051   5.266 -1.3489 -0.2930 -1.2416
 4710SOL     OW25588   4.440   0.618   2.455  0.8577  0.4685  0.2975
 4710SOL    HW125589   4.354   0.626   2.414  0.5672  1.2125  1.0610
 4710SOL    HW225590   4.491   0.673   2.394 -0.6577  2.6613  0.9988
 4711SOL     OW25591   3.343   1.244   0.436  0.2800  0.5835 -0.0521
 4711SOL    HW125592   3.325   1.309   0.503 -1.9617 -0.4120  0.3031
 4711SOL    HW225593   3.266   1.239   0.379  0.5249  0.8808 -0.4069
 4712SOL     OW25594   2.096   4.038   1.553 -0.4054 -0.1456  0.0407
 4712SOL    HW125595   2.124   4.010   1.465 -0.2737 -2.0269  0.6844
 4712SOL    HW225596   2.067   4.129   1.540  2.0611  0.9501  2.4265
 4713SOL     OW25597   3.593   0.354   4.861 -0.2354 -0.1680  0.1798
 4713SOL    HW125598   3.653   0.366   4.787 -0.3882  0.0196  0.0870
 4713SOL    HW225599   3.638   0.281   4.902 -2.9366 -0.9436  1.7649
 4714SOL     OW25600   1.609   1.584   1.158  0.2679 -0.1147 -0.2904
 4714SOL    HW125601   1.698   1.621   1.159  0.6076 -0.9611  0.9822
 4714SOL    HW225602   1.603   1.528   1.235 -0.8788 -1.7906 -1.5946
 4715SOL     OW25603   2.789   0.775  11.578  0.0653  0.6152  0.4569
 4715SOL    HW125604   2.808   0.694  11.626 -1.5613 -0.7561 -1.2101
 4715SOL    HW225605   2.813   0.741  11.492 -0.8364 -0.9435  0.8219
 4716SOL     OW25606   2.823   3.932  12.218 -0.6594 -0.3396 -0.0912
 4716SOL    HW125607   2.810   3.924  12.312 -3.0010  0.4504 -0.3616
 4716SOL    HW225608   2.746   3.985  12.198  0.1173  0.3995 -1.1539
 4717SOL     OW25609   2.587   2.573  12.037  1.0691 -0.0112  0.5358
 4717SOL    HW125610   2.661   2.614  12.081  1.5287 -0.6145  0.3204
 4717SOL    HW225611   2.555   2.502  12.092  0.5770 -0.4876 -0.3631
 4718SOL     OW25612   0.298   2.985   8.785  0.0093  0.0167 -0.3858
 4718SOL    HW125613   0.374   2.926   8.791  0.5782  0.7314 -0.5222
 4718SOL    HW225614   0.234   2.914   8.789  0.1382 -0.0787 -0.0287
 4719SOL     OW25615   0.802   3.945   1.979 -0.0131  1.0623  0.1795
 4719SOL    HW125616   0.818   4.027   1.931  0.7129  0.0252 -1.3662
 4719SOL    HW225617   0.756   3.895   1.911 -0.5611  1.3238  0.3588
 4720SOL     OW25618   3.811   3.000   6.367 -0.4287  0.0627  0.6118
 4720SOL    HW125619   3.902   3.008   6.339 -0.5549  1.8056  0.7181
 4720SOL    HW225620   3.822   2.970   6.458 -1.1836  0.6723  0.9008
 4721SOL     OW25621   4.091   3.650  12.974 -0.2814  0.5254 -0.3171
 4721SOL    HW125622   4.137   3.609  12.901 -0.5056 -1.7413  0.8408
 4721SOL    HW225623   4.129   3.608  13.051 -0.4019 -1.3990 -1.3065
 4722SOL     OW25624   1.280   2.797   5.627  0.1235 -0.0017  0.2656
 4722SOL    HW125625   1.271   2.868   5.563  3.9753  1.0467  0.9060
 4722SOL    HW225626   1.366   2.809   5.668  0.0339 -1.6183  0.8856
 4723SOL     OW25627   0.195   4.145  15.059  0.3351  0.3607 -0.5227
 4723SOL    HW125628   0.225   4.083  15.126  0.1396 -0.1124 -0.8688
 4723SOL    HW225629   0.131   4.095  15.008  1.5340 -2.7834  1.0286
 4724SOL     OW25630   0.097   3.424   9.435 -0.1503 -0.2831 -0.8657
 4724SOL    HW125631   0.187   3.395   9.418  0.3417  0.9323 -0.3450
 4724SOL    HW225632   0.067   3.342   9.473  1.2510  0.4084  1.7262
 4725SOL     OW25633   0.790   2.378  16.742 -0.0713  0.2192 -0.0805
 4725SOL    HW125634   0.884   2.389  16.732  0.0249  0.0709  0.6606
 4725SOL    HW225635   0.780   2.283  16.748 -1.2207  0.4125  1.2782
 4726SOL     OW25636   0.713   3.027   7.177 -0.2318  0.2395 -0.3799
 4726SOL    HW125637   0.802   3.060   7.170 -0.0579  0.2807  1.9460
 4726SOL    HW225638   0.685   3.054   7.265  0.6686 -0.6749  0.1895
 4727SOL     OW25639   4.598   2.766   2.322 -0.0574  0.1374  0.5790
 4727SOL    HW125640   4.589   2.760   2.226 -0.4739 -1.2799  0.7016
 4727SOL    HW225641   4.590   2.676   2.354 -2.1567 -0.3488 -1.2376
 4728SOL     OW25642   0.132   0.346  10.950  0.5221  0.1609  0.5473
 4728SOL    HW125643   0.134   0.294  10.870  0.0036 -1.1728  1.4055
 4728SOL    HW225644   0.165   0.275  11.005 -1.3264 -1.0308  0.1075
 4729SOL     OW25645   2.552   0.798   4.743  0.4681 -0.0168 -0.1973
 4729SOL    HW125646   2.614   0.828   4.810 -1.7042  0.0698  1.7757
 4729SOL    HW225647   2.525   0.879   4.699 -0.4947  0.1248  0.6618
 4730SOL     OW25648   1.414   3.887   4.942 -0.2660  0.2874  0.6896
 4730SOL    HW125649   1.474   3.883   5.016  1.2956 -2.2422 -0.7036
 4730SOL    HW225650   1.458   3.939   4.874 -0.8426  1.1730  0.9884
 4731SOL     OW25651   0.733   1.904   6.452  0.0389  0.5844  0.7063
 4731SOL    HW125652   0.804   1.883   6.512 -0.4926 -1.1887  0.7136
 4731SOL    HW225653   0.691   1.819   6.440 -2.6234  2.0441 -0.1835
 4732SOL     OW25654   0.894   1.798   6.635 -0.3297 -0.1440 -0.2200
 4732SOL    HW125655   0.886   1.840   6.721  0.8371 -0.1908 -0.0848
 4732SOL    HW225656   0.854   1.714   6.656  0.3166 -0.0427  1.4039
 4733SOL     OW25657   2.117   1.173   9.692  0.1650 -0.2445 -0.1783
 4733SOL    HW125658   2.160   1.189   9.776 -0.0820  0.1901 -0.1370
 4733SOL    HW225659   2.027   1.202   9.704  1.2519  2.9926  0.0258
 4734SOL     OW25660   0.459   2.149   1.227 -0.4270  0.0210 -0.0303
 4734SOL    HW125661   0.401   2.096   1.281 -0.5641 -1.3910 -1.5468
 4734SOL    HW225662   0.518   2.187   1.292 -1.3010 -0.0665  0.8063
 4735SOL     OW25663   0.170   3.113   7.730  0.7911 -0.4338 -0.2491
 4735SOL    HW125664   0.153   3.060   7.808 -3.3429  0.3662 -0.6039
 4735SOL    HW225665   0.138   3.202   7.744 -0.8059 -1.0910  0.2470
 4736SOL     OW25666   0.511   2.538   2.718  0.1725 -0.3342 -0.5777
 4736SOL    HW125667   0.452   2.508   2.649 -0.2198  0.6353 -0.6624
 4736SOL    HW225668   0.592   2.505   2.680  0.2057 -1.8159  0.7773
 4737SOL     OW25669   0.301   0.471   2.419  0.3186 -0.3918 -0.5848
 4737SOL    HW125670   0.364   0.493   2.350  0.7732  2.8251  0.8294
 4737SOL    HW225671   0.239   0.544   2.416  1.1505  0.3749  0.9076
 4738SOL     OW25672   2.699   3.828   6.882  0.1255 -0.2049  0.4250
 4738SOL    HW125673   2.665   3.742   6.856 -2.8359  0.5613  1.7977
 4738SOL    HW225674   2.748   3.805   6.961 -0.6840  0.4585  1.1104
 4739SOL     OW25675   3.925   4.155   3.470  0.1610 -0.1133 -0.1071
 4739SOL    HW125676   3.864   4.214   3.426 -0.5618  0.5196  1.7437
 4739SOL    HW225677   3.878   4.072   3.482  1.1501 -0.7568 -0.6362
 4740SOL     OW25678   1.094   1.492   1.404  0.2572  0.3779 -0.9027
 4740SOL    HW125679   1.016   1.443   1.430  0.8689  0.3558  0.8519
 4740SOL    HW225680   1.094   1.460   1.314  0.2807  1.1993 -1.1918
 4741SOL     OW25681   2.875   1.786   1.137 -0.2191 -0.8603  0.5256
 4741SOL    HW125682   2.947   1.825   1.089  0.0483 -1.3617  0.5190
 4741SOL    HW225683   2.812   1.796   1.066  1.0740 -0.3240 -0.5260
 4742SOL     OW25684   3.732   1.220   3.327  0.0333 -0.6639  0.4134
 4742SOL    HW125685   3.753   1.313   3.320 -1.1528 -0.4741 -0.6073
 4742SOL    HW225686   3.652   1.213   3.275  1.0327 -1.5028 -1.0269
 4743SOL     OW25687   0.502   3.242   5.797  0.0344 -0.2091 -0.1625
 4743SOL    HW125688   0.543   3.264   5.714  0.4382  0.1084  0.1211
 4743SOL    HW225689   0.569   3.276   5.856 -0.8295 -0.1776  0.8118
 4744SOL     OW25690   1.656   0.884   1.441 -0.5170  0.0586 -0.4224
 4744SOL    HW125691   1.650   0.845   1.354  0.1338  2.1988 -1.4309
 4744SOL    HW225692   1.745   0.863   1.467 -1.2367  1.0828  2.8225
 4745SOL     OW25693   1.673   4.455   8.051 -0.7302 -0.0131  0.0478
 4745SOL    HW125694   1.752   4.510   8.052 -1.0766  0.4934 -0.1787
 4745SOL    HW225695   1.700   4.378   8.003  1.9633 -0.5135  2.3253
 4746SOL     OW25696   1.928   4.617   3.553  0.5784  0.7704 -0.1471
 4746SOL    HW125697   1.915   4.552   3.622  0.9297  0.8447 -0.0121
 4746SOL    HW225698   1.875   4.576   3.484  0.4252 -2.3452  1.8239
 4747SOL     OW25699   1.643   2.305   5.994  0.1483 -0.1096  0.0906
 4747SOL    HW125700   1.687   2.315   5.909  2.4872  0.2941  1.3625
 4747SOL    HW225701   1.720   2.321   6.049  0.9541 -0.8041 -0.8115
 4748SOL     OW25702   3.373   3.929   1.115 -0.3171  0.1226 -0.1309
 4748SOL    HW125703   3.415   4.014   1.130 -1.9970  0.9512 -0.0850
 4748SOL    HW225704   3.401   3.899   1.029  0.0635 -0.3586  0.1562
 4749SOL     OW25705   0.934   1.634   6.413 -0.3566  0.1230 -0.3654
 4749SOL    HW125706   1.011   1.621   6.357 -0.6950 -1.6099 -0.4464
 4749SOL    HW225707   0.950   1.711   6.467  0.1937 -0.4516  0.3091
 4750SOL     OW25708   3.577   3.929   9.036  0.0253 -0.5977 -0.1838
 4750SOL    HW125709   3.522   3.852   9.020 -0.6150  0.6386 -3.9977
 4750SOL    HW225710   3.656   3.886   9.068 -0.1896  1.0787  2.5968
 4751SOL     OW25711   2.044   0.690   0.518  0.5885 -0.2902  0.0827
 4751SOL    HW125712   2.094   0.720   0.442  1.6770  0.2090  0.9980
 4751SOL    HW225713   2.112   0.645   0.568  1.9750 -0.0069 -1.5443
 4752SOL     OW25714   0.854   2.253   6.591  0.1237 -0.1826 -0.0185
 4752SOL    HW125715   0.945   2.283   6.587 -0.3237  0.9180 -1.9883
 4752SOL    HW225716   0.852   2.207   6.675  1.7114 -0.2022  0.0135
 4753SOL     OW25717   4.204   0.768   7.077  0.1957 -0.0705 -0.2892
 4753SOL    HW125718   4.294   0.756   7.046 -0.0190 -0.2620 -0.8393
 4753SOL    HW225719   4.215   0.848   7.128 -1.5663  1.9405 -3.0931
 4754SOL     OW25720   3.605   2.380   1.305 -0.1248 -0.4663  0.1037
 4754SOL    HW125721   3.525   2.399   1.354  0.4397 -1.5125  1.4496
 4754SOL    HW225722   3.633   2.301   1.352  1.6513  0.2941  0.2884
 4755SOL     OW25723   4.583   4.653   4.313 -0.7470  0.2572 -0.4115
 4755SOL    HW125724   4.502   4.633   4.361  0.0603 -0.7839  0.5142
 4755SOL    HW225725   4.624   4.571   4.342 -0.8364  0.0229 -0.9567
 4756SOL     OW25726   3.940   1.741   7.691  0.4398 -0.2322 -0.5719
 4756SOL    HW125727   3.851   1.736   7.657  0.7420  1.9225 -1.6847
 4756SOL    HW225728   3.963   1.830   7.664  1.5823 -0.3993 -0.1574
 4757SOL     OW25729   3.844   2.554  12.124 -0.0474 -0.0783  0.4797
 4757SOL    HW125730   3.875   2.645  12.122 -1.6255  0.4422 -0.9680
 4757SOL    HW225731   3.812   2.546  12.214 -0.8469 -2.1407  0.0091
 4758SOL     OW25732   0.408   2.078   3.025 -0.6712  0.7649  0.1106
 4758SOL    HW125733   0.327   2.051   2.981 -0.8804  4.2915 -1.6631
 4758SOL    HW225734   0.368   2.063   3.111 -1.5479  1.0856 -0.2386
 4759SOL     OW25735   2.352   2.729   4.301  0.4286 -0.1302 -0.0869
 4759SOL    HW125736   2.270   2.742   4.255  0.3624 -2.7955 -0.7547
 4759SOL    HW225737   2.402   2.806   4.274  0.4488 -0.2159 -0.2897
 4760SOL     OW25738   1.937   4.527  13.289 -0.2559  0.1732 -0.1610
 4760SOL    HW125739   1.929   4.524  13.193 -1.1062 -0.8762 -0.0539
 4760SOL    HW225740   1.845   4.527  13.316 -0.3820  0.8277 -0.5684
 4761SOL     OW25741   1.750   0.479   9.362 -0.3718  0.5440  0.4551
 4761SOL    HW125742   1.831   0.470   9.310  0.9726  0.6345  2.5422
 4761SOL    HW225743   1.715   0.391   9.349 -0.5399  0.5528  0.8621
 4762SOL     OW25744   0.630   0.185   2.143  0.0867  0.2712 -0.9389
 4762SOL    HW125745   0.721   0.170   2.167  1.3146  3.3507 -3.5039
 4762SOL    HW225746   0.601   0.095   2.153  0.1758  0.2847 -0.5653
 4763SOL     OW25747   0.015   0.357   5.266 -0.0562 -0.7182  0.3687
 4763SOL    HW125748   4.718   0.300   5.193  0.9439  0.3228 -0.7579
 4763SOL    HW225749   4.683   0.432   5.253  0.0672 -0.6561  0.1789
 4764SOL     OW25750   1.252   0.158   8.102 -0.3527 -0.7546  0.3610
 4764SOL    HW125751   1.299   0.240   8.083  0.3808 -1.1551  0.4594
 4764SOL    HW225752   1.291   0.110   8.028 -1.3383  0.5844 -1.0385
 4765SOL     OW25753   3.359   3.191   3.763  0.1754  0.1056  0.1712
 4765SOL    HW125754   3.389   3.184   3.673 -0.5940 -0.5292 -0.0372
 4765SOL    HW225755   3.264   3.194   3.752 -0.2190 -1.8585  2.9481
 4766SOL     OW25756   2.947   3.559   1.674  0.1763 -0.5539  0.5321
 4766SOL    HW125757   3.007   3.631   1.654 -1.8267  1.1213  0.6261
 4766SOL    HW225758   2.867   3.611   1.683 -0.2303 -1.2193  0.7748
 4767SOL     OW25759   0.192   2.343  10.487 -0.3861  0.0173  0.1872
 4767SOL    HW125760   0.106   2.303  10.475 -0.2394  0.1904 -1.5195
 4767SOL    HW225761   0.248   2.274  10.452 -1.1401 -0.6862  0.3511
 4768SOL     OW25762   1.353   0.896   5.062 -0.2783 -0.0688  0.2138
 4768SOL    HW125763   1.295   0.946   5.004  1.2479  1.8853  0.3448
 4768SOL    HW225764   1.290   0.870   5.129 -0.1382  0.7795  0.6739
 4769SOL     OW25765   2.170   1.311   7.473 -0.0643 -0.2362  0.2536
 4769SOL    HW125766   2.186   1.224   7.509  0.3306  0.2469  1.2329
 4769SOL    HW225767   2.082   1.326   7.508 -0.0333  0.7447 -0.0964
 4770SOL     OW25768   3.653   2.759   2.765 -0.6589  0.5013 -0.2180
 4770SOL    HW125769   3.679   2.750   2.856 -1.3764 -1.1632 -0.1845
 4770SOL    HW225770   3.735   2.751   2.717 -1.2090  2.3382 -1.5152
 4771SOL     OW25771   0.176   3.060   6.803  0.1044 -0.4433  0.1649
 4771SOL    HW125772   0.144   3.137   6.849  0.0159 -2.3811  3.3714
 4771SOL    HW225773   0.117   3.055   6.727  0.9767 -0.5973 -0.5012
 4772SOL     OW25774   4.664   4.126   5.875 -0.4023 -0.4499  0.1666
 4772SOL    HW125775   4.595   4.140   5.809  0.3391  2.0402 -0.0927
 4772SOL    HW225776   0.003   4.190   5.845 -0.7868 -0.9139 -1.6490
 4773SOL     OW25777   1.919   2.410   1.811  0.4330  0.6813 -0.1113
 4773SOL    HW125778   1.954   2.420   1.723 -1.2893  0.5653 -0.7997
 4773SOL    HW225779   1.884   2.497   1.831 -1.6416 -0.0671 -0.4500
 4774SOL     OW25780   3.302   4.324   7.681 -0.6346  0.0666  0.5244
 4774SOL    HW125781   3.329   4.287   7.765 -2.4272 -0.6611  0.7785
 4774SOL    HW225782   3.211   4.347   7.697 -0.2606 -0.1154  2.8322
 4775SOL     OW25783   1.493   4.094   1.693  0.2767 -0.5584 -0.1153
 4775SOL    HW125784   1.504   4.013   1.743  2.2208 -0.7202 -0.8031
 4775SOL    HW225785   1.544   4.168   1.726 -1.7855  0.3553  1.0189
 4776SOL     OW25786   1.603   1.541   2.201  0.3228  0.1696  0.5254
 4776SOL    HW125787   1.515   1.514   2.175  1.1805 -0.9218 -1.2662
 4776SOL    HW225788   1.582   1.634   2.212  2.0933  0.9700 -2.6994
 4777SOL     OW25789   2.335   3.054   6.098  0.1501 -0.1860 -0.7233
 4777SOL    HW125790   2.251   3.035   6.054 -0.6734 -1.5663  1.4524
 4777SOL    HW225791   2.368   2.969   6.125 -0.0871 -0.0574 -0.0368
 4778SOL     OW25792   0.881   3.944   5.887  0.0419  0.5944  0.5039
 4778SOL    HW125793   0.792   3.972   5.869 -0.0298  0.6224  0.9136
 4778SOL    HW225794   0.891   4.012   5.953 -0.5218  0.8647  0.3063
 4779SOL     OW25795   1.957   1.926   5.596 -0.3445  0.9520 -0.5400
 4779SOL    HW125796   1.923   1.858   5.537  0.6981 -0.2383  0.2208
 4779SOL    HW225797   1.872   1.961   5.623 -0.9313 -0.1031 -1.0431
 4780SOL     OW25798   3.182   1.558   7.034  0.1783 -0.3700  0.2820
 4780SOL    HW125799   3.263   1.584   6.989 -0.0847 -0.7187 -0.3815
 4780SOL    HW225800   3.191   1.463   7.033  0.8588 -0.3052  0.3993
 4781SOL     OW25801   2.814   3.614   4.266  0.6538  0.1715 -0.2546
 4781SOL    HW125802   2.813   3.664   4.348  0.0003 -1.5609  0.7791
 4781SOL    HW225803   2.892   3.657   4.232  0.9319  1.2756  1.7635
 4782SOL     OW25804   3.867   0.763   7.727 -0.2416  0.0166  0.1954
 4782SOL    HW125805   3.856   0.678   7.768 -2.0489 -0.8150 -2.0739
 4782SOL    HW225806   3.863   0.826   7.799  2.7726  1.5249 -0.9235
 4783SOL     OW25807   2.758   1.135   8.351 -0.2833  0.1356  0.4540
 4783SOL    HW125808   2.699   1.189   8.298 -0.5075 -0.3932  0.1626
 4783SOL    HW225809   2.772   1.194   8.424 -0.3799  1.2204 -0.4082
 4784SOL     OW25810   2.805   0.164  17.535  0.7636  0.1864  0.1254
 4784SOL    HW125811   2.889   0.157  17.489  1.9244  0.7895  2.1611
 4784SOL    HW225812   2.755   0.194  17.459  0.8444 -0.7814 -0.3120
 4785SOL     OW25813   1.828   0.625   5.235 -0.1312  0.7548  0.2683
 4785SOL    HW125814   1.888   0.622   5.310 -0.9660 -0.2800  0.9117
 4785SOL    HW225815   1.738   0.618   5.267 -0.2715 -1.7740 -0.6537
 4786SOL     OW25816   0.623   2.833   6.718  0.8891 -0.3263  0.3269
 4786SOL    HW125817   0.530   2.835   6.738  0.3959 -1.6742 -1.7828
 4786SOL    HW225818   0.642   2.925   6.738 -0.9528  0.0441  0.3587
 4787SOL     OW25819   4.085   3.885   3.310  0.1843  0.4829  0.1984
 4787SOL    HW125820   4.111   3.972   3.279 -1.2720  1.5189  1.8909
 4787SOL    HW225821   4.040   3.863   3.228 -0.9443  3.5319 -0.0335
 4788SOL     OW25822   4.063   2.163  13.809 -0.3902 -0.7317 -0.2326
 4788SOL    HW125823   4.144   2.142  13.855 -0.5390  0.6848  0.6740
 4788SOL    HW225824   4.098   2.189  13.724  0.7248  0.2971  0.5441
 4789SOL     OW25825   1.045   3.782   9.365  0.7151 -0.4968  0.1161
 4789SOL    HW125826   1.115   3.719   9.347 -0.1639 -1.0180 -1.5003
 4789SOL    HW225827   0.987   3.729   9.418  0.1499  0.4909  0.4944
 4790SOL     OW25828   3.760   3.930   0.564  0.3191 -0.5182 -0.2075
 4790SOL    HW125829   3.806   3.959   0.643 -2.4430 -1.4874  1.7707
 4790SOL    HW225830   3.694   3.997   0.547 -0.4800 -1.3608 -0.4599
 4791SOL     OW25831   1.929   1.637   4.347 -0.4430 -0.2132 -0.3679
 4791SOL    HW125832   1.924   1.576   4.274 -0.3177 -2.2963  1.3554
 4791SOL    HW225833   2.019   1.667   4.331 -0.4656  1.0007  1.6965
 4792SOL     OW25834   2.211   1.151   5.841  0.0364 -0.3177  0.1338
 4792SOL    HW125835   2.301   1.174   5.817  0.0021  1.5391  1.8305
 4792SOL    HW225836   2.206   1.086   5.771  2.6614  2.7667 -2.9547
 4793SOL     OW25837   1.901   2.297  17.609  0.2829 -0.3814 -0.6094
 4793SOL    HW125838   1.820   2.346  17.596  0.3255  0.0973  0.9625
 4793SOL    HW225839   1.962   2.369  17.623  0.6979 -0.6330 -1.1057
 4794SOL     OW25840   1.789   3.207  12.626 -0.3828  0.2695  0.0297
 4794SOL    HW125841   1.695   3.188  12.631 -0.4844  0.6671 -0.3078
 4794SOL    HW225842   1.789   3.300  12.603 -0.0880  0.2185 -0.1702
 4795SOL     OW25843   1.655   3.147   6.644 -0.1109 -0.1975  0.6645
 4795SOL    HW125844   1.610   3.155   6.560 -1.6150  1.4539  1.6254
 4795SOL    HW225845   1.585   3.187   6.696 -1.4414 -0.1084 -1.2151
 4796SOL     OW25846   2.435   3.529  10.845  0.0697  0.5949 -0.6461
 4796SOL    HW125847   2.471   3.614  10.869 -0.3963  0.2297  1.3944
 4796SOL    HW225848   2.413   3.502  10.935  1.0958  1.5894 -0.1056
 4797SOL     OW25849   0.687   1.922   0.479  0.0722 -0.3696 -0.0988
 4797SOL    HW125850   0.775   1.924   0.441  0.5214 -1.3572  0.8825
 4797SOL    HW225851   0.662   2.009   0.449  1.1768  0.0550  0.2184
 4798SOL     OW25852   0.525   3.837   1.463 -0.0164  0.2446  0.2834
 4798SOL    HW125853   0.517   3.789   1.545 -1.4981  1.5304  0.8775
 4798SOL    HW225854   0.564   3.775   1.401  3.7900  0.6261  2.3325
 4799SOL     OW25855   1.035   3.290  13.546  0.7517 -0.4381  0.4659
 4799SOL    HW125856   1.112   3.328  13.505 -0.2985  1.7959  0.5749
 4799SOL    HW225857   0.996   3.360  13.597 -0.2490  0.4120 -1.4626
 4800SOL     OW25858   2.064   2.091   3.620  0.5161  0.0893 -0.4508
 4800SOL    HW125859   2.037   2.071   3.531  2.4730 -0.4354 -0.9438
 4800SOL    HW225860   2.014   2.169   3.643 -2.1378 -1.7727  0.0842
 4801SOL     OW25861   1.882   1.376   0.616  0.2537 -0.3312 -0.2657
 4801SOL    HW125862   1.907   1.417   0.699 -2.8285  0.2247  0.3799
 4801SOL    HW225863   1.960   1.381   0.561  0.7244  1.2173  0.5309
 4802SOL     OW25864   3.356   0.878   5.984 -0.7161 -0.0655 -0.2408
 4802SOL    HW125865   3.418   0.844   5.921  0.6384 -1.2446  1.7229
 4802SOL    HW225866   3.385   0.834   6.064  1.7158  2.7338  0.4447
 4803SOL     OW25867   3.749   3.342   8.852 -0.0135  0.2689 -0.3845
 4803SOL    HW125868   3.833   3.313   8.817  0.2288 -0.6129  0.9495
 4803SOL    HW225869   3.780   3.374   8.937  1.4409  2.2321 -1.6483
 4804SOL     OW25870   1.463   1.587   8.787 -0.4816  0.4714  0.2853
 4804SOL    HW125871   1.410   1.665   8.770 -1.5420 -0.3311 -0.1116
 4804SOL    HW225872   1.548   1.629   8.798 -0.4161  0.3365  0.2946
 4805SOL     OW25873   2.204   1.286  14.456  0.5117  0.3236 -0.5169
 4805SOL    HW125874   2.182   1.355  14.519 -1.7955 -0.4753 -0.4699
 4805SOL    HW225875   2.162   1.316  14.376  0.4236  0.9705 -0.2309
 4806SOL     OW25876   0.237   1.627   8.188  0.2013  0.4289  0.1759
 4806SOL    HW125877   0.326   1.662   8.197 -0.9392  2.6607  3.1191
 4806SOL    HW225878   0.196   1.650   8.272 -1.9126 -1.0310 -0.4646
 4807SOL     OW25879   2.682   3.182   5.058  0.2332 -0.1638 -0.2348
 4807SOL    HW125880   2.598   3.216   5.088  0.6064 -0.2131  0.8403
 4807SOL    HW225881   2.741   3.200   5.130  1.1779  0.0553 -1.0644
 4808SOL     OW25882   4.246   3.592   6.884  0.1682  0.0878  0.1424
 4808SOL    HW125883   4.322   3.578   6.941  0.3117  1.3085  0.2445
 4808SOL    HW225884   4.220   3.501   6.867  0.2699  0.8406 -4.0177
 4809SOL     OW25885   1.221   1.580   6.583 -0.7551  0.2896  0.2134
 4809SOL    HW125886   1.177   1.662   6.559  1.1948  0.8293 -1.4920
 4809SOL    HW225887   1.314   1.600   6.585 -1.0532  1.7165 -0.5460
 4810SOL     OW25888   2.912   3.803   7.999  0.6341 -0.6895  0.3737
 4810SOL    HW125889   2.886   3.839   7.915 -0.2199  0.5780  1.1835
 4810SOL    HW225890   2.909   3.883   8.053 -1.1592 -0.7884  0.4186
 4811SOL     OW25891   1.299   0.317   4.042 -0.0986  0.2815 -0.0769
 4811SOL    HW125892   1.357   0.352   3.975 -0.4104  1.7043  0.3901
 4811SOL    HW225893   1.270   0.397   4.086 -2.1777 -0.7081  0.3552
 4812SOL     OW25894   2.032   4.617  14.938 -0.4786  0.1082  0.2974
 4812SOL    HW125895   1.954   4.563  14.936 -1.6459  1.8587 -1.2153
 4812SOL    HW225896   2.012   4.680  15.008  2.0014  1.5286 -0.2718
 4813SOL     OW25897   3.748   2.557   4.394  0.3060 -0.0150  0.6330
 4813SOL    HW125898   3.765   2.566   4.488  0.2570  1.8205  0.4786
 4813SOL    HW225899   3.826   2.605   4.368  0.7929 -0.8779  0.5090
 4814SOL     OW25900   1.714   1.946  14.718 -0.0633 -0.3443  0.6102
 4814SOL    HW125901   1.697   1.981  14.805 -0.9867  0.1002  0.2505
 4814SOL    HW225902   1.634   1.974  14.673  1.1529 -0.5439 -1.7323
 4815SOL     OW25903   4.443   1.138   4.413  0.4485 -0.0442 -0.2647
 4815SOL    HW125904   4.510   1.205   4.426  0.1415  0.1962  0.1130
 4815SOL    HW225905   4.376   1.189   4.368  0.4983  0.6685  0.4665
 4816SOL     OW25906   0.489   0.019   3.901 -0.1873  0.5345 -0.1848
 4816SOL    HW125907   0.478   0.107   3.864  0.5031  0.8973  0.4673
 4816SOL    HW225908   0.401   4.708   3.898 -0.2739  0.5961  1.7617
 4817SOL     OW25909   1.631   1.152   4.990 -0.0367 -0.9412 -0.6584
 4817SOL    HW125910   1.645   1.070   5.038  0.5675 -1.1172 -1.1188
 4817SOL    HW225911   1.624   1.112   4.903 -1.8563  0.2045 -1.0203
 4818SOL     OW25912   2.048   0.075  14.713  0.2545  0.9186  0.7608
 4818SOL    HW125913   2.021   0.012  14.779  0.7612 -0.8334 -0.6898
 4818SOL    HW225914   2.068   0.153  14.765  1.5593  1.6062 -0.7676
 4819SOL     OW25915   2.983   0.905   3.203  0.0159 -0.5957 -0.0846
 4819SOL    HW125916   3.062   0.928   3.154 -1.8951 -0.4060 -3.1096
 4819SOL    HW225917   3.016   0.859   3.280 -0.4982  0.0038  0.4880
 4820SOL     OW25918   1.682   0.133  17.122  0.3094  0.2918  0.5050
 4820SOL    HW125919   1.775   0.145  17.104  0.3546  0.6737  0.9867
 4820SOL    HW225920   1.683   0.085  17.205 -0.3715  0.0968  0.3973
 4821SOL     OW25921   1.846   0.948   4.790  0.2087  0.0135  0.1221
 4821SOL    HW125922   1.834   0.885   4.861  1.9807 -0.4501  0.0174
 4821SOL    HW225923   1.935   0.925   4.764  0.5114  0.6782  0.5808
 4822SOL     OW25924   2.741   0.478  16.900  0.5633 -0.0471  0.2111
 4822SOL    HW125925   2.781   0.391  16.900  1.8239  0.5415  1.8521
 4822SOL    HW225926   2.664   0.466  16.955 -0.6456 -0.6172 -1.6174
 4823SOL     OW25927   3.021   1.892  11.874  0.5676 -0.2837 -0.2151
 4823SOL    HW125928   3.079   1.837  11.927  0.5584 -0.3935 -0.3170
 4823SOL    HW225929   2.948   1.905  11.935  0.0557 -1.1250 -0.6349
 4824SOL     OW25930   1.759   4.297   0.769  0.1372  0.4243  0.1285
 4824SOL    HW125931   1.801   4.266   0.849 -1.3457 -1.6381  0.1235
 4824SOL    HW225932   1.673   4.325   0.800  1.5020  3.4279  1.2269
 4825SOL     OW25933   0.951   0.188   8.814  0.1620 -0.1222 -0.2481
 4825SOL    HW125934   1.020   0.184   8.880 -0.4825  0.7236  0.4664
 4825SOL    HW225935   0.956   0.277   8.779 -0.9780  0.4380  1.0250
 4826SOL     OW25936   4.226   3.822   2.002 -0.2034 -0.0665 -0.0206
 4826SOL    HW125937   4.289   3.890   1.980  0.3997 -0.7404 -0.4075
 4826SOL    HW225938   4.289   3.762   2.043  0.1200  0.6684  0.5629
 4827SOL     OW25939   4.153   1.503   8.715  0.6042 -0.5013 -0.1480
 4827SOL    HW125940   4.130   1.513   8.623  1.0661  0.6269 -0.1398
 4827SOL    HW225941   4.083   1.558   8.750  0.2508 -1.0208 -0.0501
 4828SOL     OW25942   0.552   0.618   4.926  0.5972  0.0369 -0.3058
 4828SOL    HW125943   0.484   0.636   4.862  1.0146 -0.9832 -1.0238
 4828SOL    HW225944   0.628   0.653   4.880 -0.1945  1.0109 -0.8743
 4829SOL     OW25945   3.364   3.315  16.904  0.3404 -0.9418 -0.4650
 4829SOL    HW125946   3.355   3.328  16.998  1.3667  0.5712 -0.5862
 4829SOL    HW225947   3.275   3.334  16.877 -0.1172 -1.0159  0.9797
 4830SOL     OW25948   0.081   2.888  15.817 -0.3475 -0.1539  0.3956
 4830SOL    HW125949   0.128   2.966  15.847 -1.4310  0.3351  0.8116
 4830SOL    HW225950   0.104   2.814  15.873  0.8349  0.5722  0.8752
 4831SOL     OW25951   0.876   4.644  13.976  0.3724  0.3071  0.5115
 4831SOL    HW125952   0.866   4.675  13.886 -1.1581 -1.9637 -0.1049
 4831SOL    HW225953   0.844   4.716  14.031 -2.9694 -0.6971 -0.1175
 4832SOL     OW25954   0.473   3.098   4.472  0.0565  0.2174 -0.0531
 4832SOL    HW125955   0.509   3.101   4.561  1.4806  2.7780 -0.7254
 4832SOL    HW225956   0.418   3.176   4.478  0.3879  0.5460 -1.2950
 4833SOL     OW25957   3.643   3.331   1.966  0.1104  0.4201 -0.3015
 4833SOL    HW125958   3.574   3.397   1.968 -1.0355 -0.8115  0.7899
 4833SOL    HW225959   3.672   3.328   1.875  1.8822 -2.4677  0.3312
 4834SOL     OW25960   1.698   2.000   5.654 -0.1716 -0.5981 -0.1572
 4834SOL    HW125961   1.669   1.963   5.738  1.5701 -0.2505  0.5843
 4834SOL    HW225962   1.664   1.940   5.588 -1.1565  0.8259 -0.9587
 4835SOL     OW25963   4.528   4.683  15.176 -0.7054  0.2172 -0.0222
 4835SOL    HW125964   4.608   4.653  15.219 -0.0902  1.5919 -0.1813
 4835SOL    HW225965   4.570   4.722  15.100 -1.3564 -0.2585 -0.6182
 4836SOL     OW25966   2.341   2.844   9.578  0.1001  0.4158  0.8884
 4836SOL    HW125967   2.275   2.884   9.521 -0.1025 -1.8081 -0.4165
 4836SOL    HW225968   2.324   2.896   9.657 -2.0977 -1.7488  1.8247
 4837SOL     OW25969   2.711   3.765   8.249  0.3035 -0.6813  0.2874
 4837SOL    HW125970   2.730   3.679   8.211  0.1431 -0.1363 -1.0280
 4837SOL    HW225971   2.687   3.740   8.338  0.3549  3.7656  1.5317
 4838SOL     OW25972   1.432   3.294  16.910 -0.6358 -0.3182  0.0159
 4838SOL    HW125973   1.518   3.282  16.950 -1.7959 -0.8103  2.3954
 4838SOL    HW225974   1.392   3.354  16.973  0.8937 -0.2663  0.9364
 4839SOL     OW25975   2.208   0.305   7.946  0.7650 -0.1378 -0.5780
 4839SOL    HW125976   2.145   0.377   7.945  0.2065 -0.5792  2.1891
 4839SOL    HW225977   2.228   0.298   7.852 -0.0766 -0.3235 -0.7436
 4840SOL     OW25978   0.096   1.412  15.889  0.2563 -0.2581 -0.4666
 4840SOL    HW125979   0.059   1.334  15.847 -0.1488 -0.3240  0.0130
 4840SOL    HW225980   0.152   1.456  15.825  1.4434 -0.4051  0.4694
 4841SOL     OW25981   3.440   4.531   3.010  0.7748  0.4319  0.2943
 4841SOL    HW125982   3.530   4.537   2.976  0.7191  0.2430  0.1132
 4841SOL    HW225983   3.451   4.546   3.104 -1.6183 -1.0881  0.8064
 4842SOL     OW25984   0.389   1.086  17.309  0.3791 -0.1060 -0.4866
 4842SOL    HW125985   0.474   1.083  17.352  0.3953 -0.8640 -0.5697
 4842SOL    HW225986   0.410   1.019  17.244 -1.2977  0.0280 -1.1626
 4843SOL     OW25987   1.656   0.936  17.330 -0.2907 -0.3666  0.1563
 4843SOL    HW125988   1.583   0.961  17.387 -1.1094 -0.9647 -0.6187
 4843SOL    HW225989   1.730   0.953  17.388 -0.5990 -2.1808  1.0884
 4844SOL     OW25990   3.845   2.551   6.453  0.1421 -0.0878  0.0137
 4844SOL    HW125991   3.778   2.612   6.422  2.7984  0.2870 -4.8645
 4844SOL    HW225992   3.922   2.607   6.441  0.0423  0.2049  0.6950
 4845SOL     OW25993   3.081   4.185  16.745  0.6081 -0.4356 -0.2268
 4845SOL    HW125994   3.038   4.204  16.662  0.4728 -1.1419 -0.3189
 4845SOL    HW225995   3.005   4.190  16.803  1.5471  2.3824  0.7865
 4846SOL     OW25996   3.317   4.334  16.731 -0.6229 -0.4232  0.3527
 4846SOL    HW125997   3.309   4.367  16.641  0.3677  0.0302  0.4242
 4846SOL    HW225998   3.235   4.287  16.744 -1.2132  0.5919  0.2761
 4847SOL     OW25999   1.694   4.182   1.407  0.1057  0.4247  0.1030
 4847SOL    HW126000   1.638   4.110   1.436  0.8020  0.7372  2.1663
 4847SOL    HW226001   1.626   4.249   1.411  1.4289  1.5630  2.9511
 4848SOL     OW26002   2.621   0.386   6.597 -0.0034  0.3561 -0.4338
 4848SOL    HW126003   2.589   0.323   6.532  1.1492 -2.1334  1.3985
 4848SOL    HW226004   2.697   0.341   6.634  0.8937  2.1400 -0.1075
 4849SOL     OW26005   4.636   3.274   1.662 -0.7557  0.8185  0.1415
 4849SOL    HW126006   4.601   3.362   1.674 -3.0039  0.0514 -0.7245
 4849SOL    HW226007   4.589   3.257   1.580  0.4305 -2.8813  0.2127
 4850SOL     OW26008   2.295   0.727   4.880  0.1521 -1.0840  0.5802
 4850SOL    HW126009   2.376   0.777   4.865 -0.8289  0.9378  1.9740
 4850SOL    HW226010   2.346   0.646   4.880  2.0724  0.1192 -0.6944
 4851SOL     OW26011   4.661   0.204   2.090  0.0849 -0.7279 -0.0095
 4851SOL    HW126012   0.004   0.216   2.155  0.2780 -0.8516 -0.1887
 4851SOL    HW226013   4.595   0.272   2.099  1.6681  0.8996 -0.6701
 4852SOL     OW26014   0.613   0.905   4.122 -0.1913  0.1600 -0.1243
 4852SOL    HW126015   0.644   0.954   4.046 -0.9025  0.5592 -0.1603
 4852SOL    HW226016   0.528   0.873   4.094  0.4607  0.3145 -2.2852
 4853SOL     OW26017   1.036   3.087   6.459  0.5674 -0.8382 -0.5446
 4853SOL    HW126018   1.032   3.133   6.375  1.0589 -0.5158 -0.3890
 4853SOL    HW226019   0.957   3.033   6.459 -0.8899  1.2817 -0.0063
 4854SOL     OW26020   4.722   1.521   3.121  0.1882  0.3855 -0.3778
 4854SOL    HW126021   0.037   1.491   3.040 -1.0079  0.1450 -0.8867
 4854SOL    HW226022   4.643   1.467   3.114 -1.2639  2.2700  1.3299
 4855SOL     OW26023   1.994   0.451   8.049 -0.1976 -0.2068 -0.1875
 4855SOL    HW126024   1.899   0.437   8.041 -0.1339  0.0433 -1.3792
 4855SOL    HW226025   2.000   0.478   8.141  0.5255  0.8213 -0.5377
 4856SOL     OW26026   4.613   0.855   1.687  0.0643  0.1522  0.3446
 4856SOL    HW126027   4.695   0.895   1.657  0.4881 -0.7356  0.3264
 4856SOL    HW226028   4.551   0.899   1.629 -0.5828 -0.9785  0.1659
 4857SOL     OW26029   3.533   1.754  12.399 -0.2615 -0.1717  0.0410
 4857SOL    HW126030   3.465   1.808  12.358  1.1316  0.1224 -1.9213
 4857SOL    HW226031   3.607   1.812  12.382  0.3117 -0.9198 -0.0073
 4858SOL     OW26032   2.376   1.339   7.304 -0.2280 -0.0278  0.6405
 4858SOL    HW126033   2.307   1.325   7.369 -1.1041 -2.0379 -0.7132
 4858SOL    HW226034   2.314   1.329   7.232  0.1512 -2.2055  0.6067
 4859SOL     OW26035   1.941   1.399  11.263 -0.5661  0.4297  0.6228
 4859SOL    HW126036   1.892   1.354  11.332 -0.1561 -3.4753 -1.6914
 4859SOL    HW226037   1.873   1.440  11.210 -0.3015 -0.9884 -0.7890
 4860SOL     OW26038   4.693   4.405   8.006 -0.4879 -0.5678  0.1934
 4860SOL    HW126039   4.650   4.367   8.083 -0.9079  0.8661  0.6655
 4860SOL    HW226040   4.633   4.375   7.938  1.1330  0.3131 -1.6081
 4861SOL     OW26041   1.075   0.054   9.680 -0.1316 -0.0382  0.5733
 4861SOL    HW126042   1.041   4.690   9.676  2.0317 -0.8175 -0.1669
 4861SOL    HW226043   0.985   0.074   9.705  0.8474  4.6409  0.3372
 4862SOL     OW26044   2.639   1.292   7.819 -0.7281 -0.1730  0.5039
 4862SOL    HW126045   2.708   1.356   7.839 -0.1126 -1.0244  1.0704
 4862SOL    HW226046   2.688   1.225   7.771 -1.3892 -1.4146  1.5689
 4863SOL     OW26047   0.939   2.386   1.559 -0.2971 -0.3493 -0.1077
 4863SOL    HW126048   0.938   2.329   1.482 -1.1958 -1.4603  0.7175
 4863SOL    HW226049   0.957   2.317   1.623  2.1284 -0.2106 -0.6384
 4864SOL     OW26050   2.609   3.350   8.462 -0.1236  0.1068  0.3963
 4864SOL    HW126051   2.603   3.360   8.367 -3.1474  3.4573  0.9128
 4864SOL    HW226052   2.675   3.415   8.487  0.0394  0.2751 -0.4653
 4865SOL     OW26053   0.470   3.232   1.973 -0.2953  0.1540 -0.5693
 4865SOL    HW126054   0.429   3.231   2.059 -0.4675  2.1895 -0.6244
 4865SOL    HW226055   0.432   3.151   1.940  0.6513  0.5225 -2.5601
 4866SOL     OW26056   0.234   2.750  16.517  0.0220 -0.6746 -0.0435
 4866SOL    HW126057   0.211   2.803  16.594 -0.5529  0.7899 -1.2208
 4866SOL    HW226058   0.330   2.749  16.521  0.1191  1.9961 -1.8145
 4867SOL     OW26059   1.655   3.562   7.274 -0.2021  0.5692  0.2828
 4867SOL    HW126060   1.710   3.499   7.319 -0.6154 -0.2275 -0.3177
 4867SOL    HW226061   1.711   3.613   7.215  1.5246 -1.3924  0.2383
 4868SOL     OW26062   1.429   4.624   6.025 -0.4363 -0.5224  0.7215
 4868SOL    HW126063   1.510   4.611   6.074  0.6361  1.6224 -0.5051
 4868SOL    HW226064   1.458   4.572   5.950  0.2995 -2.1349  2.1117
 4869SOL     OW26065   4.657   3.595   3.153 -0.5415  0.8193  0.1490
 4869SOL    HW126066   4.666   3.511   3.108  0.8582  1.3680 -0.5831
 4869SOL    HW226067   4.647   3.654   3.078  0.1256  1.1432  0.3129
 4870SOL     OW26068   3.727   0.626   4.406  0.2563  0.1661 -0.0805
 4870SOL    HW126069   3.796   0.565   4.380 -0.9658 -0.6467 -1.4066
 4870SOL    HW226070   3.773   0.703   4.439 -0.1674  1.7391 -3.1949
 4871SOL     OW26071   3.461   4.282  16.317 -0.1361  0.0919 -0.5926
 4871SOL    HW126072   3.525   4.240  16.375 -0.8650 -2.7610 -1.8091
 4871SOL    HW226073   3.517   4.326  16.253 -0.1377  0.2057 -0.5148
 4872SOL     OW26074   1.398   2.489  13.963  0.0868 -0.2792 -0.4215
 4872SOL    HW126075   1.317   2.534  13.987  2.8794  4.3053  0.3260
 4872SOL    HW226076   1.457   2.564  13.963  0.5063 -0.6117 -0.4288
 4873SOL     OW26077   2.107   1.870   0.275 -0.1208 -0.2763  0.3253
 4873SOL    HW126078   2.145   1.948   0.235  0.2132 -1.0191 -0.8111
 4873SOL    HW226079   2.184   1.819   0.300 -0.1906  0.2310  1.5508
 4874SOL     OW26080   2.500   4.647   7.790  0.2730  0.3331 -0.3028
 4874SOL    HW126081   2.432   4.685   7.846  1.2607  0.0038  1.1158
 4874SOL    HW226082   2.576   4.700   7.816  0.7076 -1.1233  1.3735
 4875SOL     OW26083   3.238   3.694   5.174 -0.5604 -0.1681  0.0075
 4875SOL    HW126084   3.151   3.726   5.148 -2.1644 -2.5743  2.4894
 4875SOL    HW226085   3.264   3.641   5.098 -0.2239 -0.7582  0.5384
 4876SOL     OW26086   3.148   4.015  10.268  0.3884  0.1884  0.3566
 4876SOL    HW126087   3.107   4.004  10.182  0.6219  1.4963  0.0646
 4876SOL    HW226088   3.086   4.073  10.312 -1.2340 -0.0349 -1.6330
 4877SOL     OW26089   3.806   4.564   2.349 -0.0341 -0.0359  0.3513
 4877SOL    HW126090   3.721   4.520   2.363 -0.3482  0.6258  0.5116
 4877SOL    HW226091   3.862   4.492   2.377  0.5150  0.6492  0.9986
 4878SOL     OW26092   2.067   2.560   0.619 -0.1176 -0.1026 -0.1927
 4878SOL    HW126093   2.024   2.513   0.548 -2.1122 -0.6325  1.3710
 4878SOL    HW226094   2.002   2.625   0.648 -1.4947  0.2282 -4.0912
 4879SOL     OW26095   0.041   3.390  11.401 -0.2050 -0.1342 -0.6727
 4879SOL    HW126096   0.129   3.358  11.419 -1.1837 -2.3385  0.1891
 4879SOL    HW226097   0.027   3.442  11.480  2.6448  1.2235 -1.0424
 4880SOL     OW26098   1.558   0.808   5.689 -0.4603  0.2928  0.3508
 4880SOL    HW126099   1.502   0.791   5.765 -0.2334  1.9003  0.8956
 4880SOL    HW226100   1.627   0.866   5.722 -0.1662 -0.3301  0.8311
 4881SOL     OW26101   3.703   4.643  15.982  0.0361 -0.1314 -0.0022
 4881SOL    HW126102   3.690   4.702  15.908  2.8056 -0.0697 -0.4182
 4881SOL    HW226103   3.797   4.624  15.975 -0.0561 -0.8128  0.6241
 4882SOL     OW26104   1.413   0.983   8.650 -0.1746  0.4529  0.2630
 4882SOL    HW126105   1.471   0.907   8.656 -2.0242 -0.9559  0.1684
 4882SOL    HW226106   1.432   1.013   8.739 -0.7641 -0.7899  0.8182
 4883SOL     OW26107   1.494   1.798   1.034 -0.0843  0.7437  0.0984
 4883SOL    HW126108   1.532   1.742   1.102 -1.2813 -0.0394  0.1182
 4883SOL    HW226109   1.568   1.810   0.974 -0.1846 -0.6636 -0.3135
 4884SOL     OW26110   1.703   4.096  14.328  0.2991  0.3606 -0.3635
 4884SOL    HW126111   1.743   4.175  14.291  1.6849 -0.1929 -0.0378
 4884SOL    HW226112   1.683   4.128  14.415 -0.4802 -4.3981  1.2064
 4885SOL     OW26113   4.012   4.368   9.653 -0.1267  0.1796 -0.1008
 4885SOL    HW126114   3.948   4.327   9.711  0.2805 -0.7112 -0.2772
 4885SOL    HW226115   4.022   4.448   9.705  0.2850  1.0734 -1.5465
 4886SOL     OW26116   2.614   2.344  13.944  0.4518  0.3076  0.1437
 4886SOL    HW126117   2.580   2.260  13.973  0.7201  0.8506  2.0271
 4886SOL    HW226118   2.552   2.369  13.875 -0.5159 -2.6461 -0.0265
 4887SOL     OW26119   2.086   2.134   2.888  0.3327  0.1404 -0.3856
 4887SOL    HW126120   2.057   2.095   2.970  0.3888  0.3533 -0.2636
 4887SOL    HW226121   2.081   2.225   2.919 -0.2655  0.1515 -0.5168
 4888SOL     OW26122   1.454   3.321   7.428 -0.3854 -0.4987  0.2654
 4888SOL    HW126123   1.375   3.268   7.415 -1.2311  0.7285  0.3584
 4888SOL    HW226124   1.494   3.272   7.499 -1.2430 -1.6437 -0.0357
 4889SOL     OW26125   1.157   1.965   8.823  0.3084 -0.1271  0.1193
 4889SOL    HW126126   1.241   1.922   8.840 -0.1321 -0.9361  0.2478
 4889SOL    HW226127   1.097   1.891   8.820 -1.1973  1.0744  0.6935
 4890SOL     OW26128   1.745   2.564  13.764  0.1647  0.1797 -0.4328
 4890SOL    HW126129   1.815   2.598  13.708  0.7233 -0.3562 -0.0492
 4890SOL    HW226130   1.680   2.540  13.698  1.1984 -2.2210 -0.5904
 4891SOL     OW26131   0.217   2.953   7.304  0.4178  0.7502  0.0741
 4891SOL    HW126132   0.225   3.044   7.276  1.0207  0.5762 -0.3265
 4891SOL    HW226133   0.247   2.906   7.226 -2.0999  0.5480 -0.7841
 4892SOL     OW26134   2.362   4.494   8.219 -0.5607 -0.1041 -0.4361
 4892SOL    HW126135   2.331   4.468   8.306 -1.1478  4.7075  0.7953
 4892SOL    HW226136   2.384   4.586   8.232 -0.1285 -0.7779  3.6703
 4893SOL     OW26137   0.185   4.487   3.692  0.1055 -0.4423  0.4887
 4893SOL    HW126138   0.170   4.396   3.718  0.4376  0.3356  3.3249
 4893SOL    HW226139   0.206   4.466   3.601  0.5715  0.7624  0.3162
 4894SOL     OW26140   1.109   4.170   1.769  0.2431 -0.0269  0.0676
 4894SOL    HW126141   1.133   4.262   1.751  0.8491 -0.1864  0.0433
 4894SOL    HW226142   1.015   4.177   1.782  0.1967  0.2541 -0.3894
 4895SOL     OW26143   1.674   1.480  11.445 -1.2272  0.0080 -0.1175
 4895SOL    HW126144   1.739   1.488  11.515 -2.1842  0.2500  0.7425
 4895SOL    HW226145   1.708   1.401  11.403 -0.9666 -0.7290  1.4650
 4896SOL     OW26146   0.551   2.260   2.470  0.5361  0.3901 -0.1766
 4896SOL    HW126147   0.485   2.193   2.485  0.8464  0.1554  0.1519
 4896SOL    HW226148   0.622   2.196   2.478  0.1967 -0.0806 -0.9796
 4897SOL     OW26149   4.610   0.218   7.089 -0.1102  0.1980 -0.6009
 4897SOL    HW126150   4.581   0.127   7.094 -0.7628  0.2974 -2.6265
 4897SOL    HW226151   4.529   0.266   7.107 -0.1762 -0.2571  0.3142
 4898SOL     OW26152   2.249   0.033   6.527  0.4746 -0.4733 -0.3243
 4898SOL    HW126153   2.235   0.126   6.510  1.8415 -0.1316  0.4087
 4898SOL    HW226154   2.179   0.012   6.589  1.4377  0.1295  0.9769
 4899SOL     OW26155   2.788   1.013  16.087 -0.2448 -0.0457  0.7812
 4899SOL    HW126156   2.776   1.108  16.075 -3.0200 -0.5879 -0.7640
 4899SOL    HW226157   2.702   0.994  16.125 -0.8549  1.0611 -0.0431
 4900SOL     OW26158   1.695   1.231  13.574 -0.3758  0.3440 -0.4353
 4900SOL    HW126159   1.699   1.232  13.479 -0.3831  2.5279 -0.4119
 4900SOL    HW226160   1.776   1.280  13.585 -0.9643  1.4101 -0.9180
 4901SOL     OW26161   0.123   1.138   7.309  0.5620  0.7756 -0.0430
 4901SOL    HW126162   0.107   1.233   7.304  1.5185  0.9091 -0.5813
 4901SOL    HW226163   0.067   1.117   7.384  0.4511  1.8641  0.1920
 4902SOL     OW26164   2.853   2.766   6.135 -0.0244  0.0300 -0.2546
 4902SOL    HW126165   2.843   2.779   6.041  0.0277  0.6293 -0.1831
 4902SOL    HW226166   2.819   2.853   6.157 -0.0540 -0.0033 -0.1689
 4903SOL     OW26167   1.883   3.481   9.252 -0.2992  0.0763  0.3579
 4903SOL    HW126168   1.924   3.454   9.334  2.0815  0.6118 -0.6490
 4903SOL    HW226169   1.794   3.450   9.265 -0.7053  0.9923 -0.2827
 4904SOL     OW26170   3.354   4.557  13.249  0.4083  0.2332  0.0564
 4904SOL    HW126171   3.381   4.552  13.158 -1.4727 -0.6644 -0.4493
 4904SOL    HW226172   3.262   4.582  13.246  0.5958  1.1391  1.7086
 4905SOL     OW26173   4.102   1.734  11.082 -0.2532  0.0939 -0.0919
 4905SOL    HW126174   4.100   1.650  11.036  0.8953  0.5683 -0.9884
 4905SOL    HW226175   4.148   1.787  11.017  1.9507  0.1204  1.4985
 4906SOL     OW26176   3.808   4.503   4.837 -1.0055  0.5011  0.3312
 4906SOL    HW126177   3.713   4.511   4.845 -0.9942 -0.2689  1.2527
 4906SOL    HW226178   3.816   4.419   4.791 -2.9262 -0.2019  1.2756
 4907SOL     OW26179   4.007   0.127   6.354  0.2714  0.8241 -0.3311
 4907SOL    HW126180   3.935   0.152   6.296 -0.1854  0.0817 -0.0821
 4907SOL    HW226181   4.078   0.112   6.291  1.3575  1.9474  0.6265
 4908SOL     OW26182   3.752   1.307   5.192 -0.5086 -0.0838  0.6166
 4908SOL    HW126183   3.775   1.242   5.127  1.5526  0.2602  0.9964
 4908SOL    HW226184   3.788   1.277   5.276  1.0813 -0.7384 -0.3097
 4909SOL     OW26185   2.194   4.385  16.058 -0.1418 -0.3966  0.0219
 4909SOL    HW126186   2.161   4.453  16.116 -1.2638 -0.4047 -0.6031
 4909SOL    HW226187   2.156   4.308  16.100 -2.5683  1.0585  0.4678
 4910SOL     OW26188   1.724   4.057   6.201  0.1939 -0.2588  0.0404
 4910SOL    HW126189   1.793   4.070   6.266  0.0738 -2.1811  0.5578
 4910SOL    HW226190   1.770   4.019   6.126 -0.5947 -1.2180  0.0345
 4911SOL     OW26191   1.219   2.633   6.924  0.1852  0.2487  0.1438
 4911SOL    HW126192   1.191   2.665   6.838 -0.5206  0.1085  0.3200
 4911SOL    HW226193   1.224   2.542   6.895  0.5014  0.3955 -0.2684
 4912SOL     OW26194   2.819   1.000  15.781 -0.4500 -0.3628  0.2607
 4912SOL    HW126195   2.780   1.087  15.776  1.8785  0.7109  0.4275
 4912SOL    HW226196   2.786   0.966  15.865 -1.0723 -0.8817 -0.2010
 4913SOL     OW26197   1.891   0.883   6.298  0.0095  0.5106  0.4366
 4913SOL    HW126198   1.986   0.891   6.308  0.7546 -1.9883 -4.9838
 4913SOL    HW226199   1.864   0.808   6.351  3.9410 -1.2820 -0.0879
 4914SOL     OW26200   0.345   0.905   0.352 -0.2952 -0.4632 -0.2502
 4914SOL    HW126201   0.266   0.960   0.354  0.5860  0.8763 -1.9241
 4914SOL    HW226202   0.403   0.960   0.405 -2.7460  2.1471 -0.2672
 4915SOL     OW26203   1.107   1.413   5.439  0.7412  0.6382 -0.0086
 4915SOL    HW126204   1.033   1.356   5.460  0.9315  0.6069  0.5802
 4915SOL    HW226205   1.128   1.375   5.354 -0.6444  0.0088 -0.0559
 4916SOL     OW26206   1.285   0.597  17.280 -0.0258 -0.1078 -0.1471
 4916SOL    HW126207   1.258   0.541  17.208  0.2793 -1.5496  0.8539
 4916SOL    HW226208   1.364   0.636  17.242 -1.0548  2.8940  0.8374
 4917SOL     OW26209   1.035   0.087   7.275  0.4382  0.2623  0.1383
 4917SOL    HW126210   1.046   0.117   7.365 -0.7907  0.6101  0.1615
 4917SOL    HW226211   1.092   0.011   7.286 -0.5214 -0.6679 -1.3773
 4918SOL     OW26212   4.464   1.721   8.668  0.5114  0.5308 -0.2627
 4918SOL    HW126213   4.532   1.670   8.624 -1.0438 -0.3259 -1.6877
 4918SOL    HW226214   4.377   1.697   8.634 -0.3066  0.7193  1.7072
 4919SOL     OW26215   4.700   0.865  12.039 -0.2644 -0.8231  0.9365
 4919SOL    HW126216   4.706   0.959  12.059 -0.4372 -0.3615 -1.1640
 4919SOL    HW226217   4.709   0.826  12.126 -0.3220 -1.0104  0.8561
 4920SOL     OW26218   3.431   2.588   7.120 -0.0806 -0.1251  0.0070
 4920SOL    HW126219   3.466   2.564   7.206 -0.3362  1.1492  0.4626
 4920SOL    HW226220   3.340   2.564   7.134 -0.7133  1.4392 -1.3874
 4921SOL     OW26221   2.227   1.130   1.534 -0.8635  0.0598 -0.3029
 4921SOL    HW126222   2.144   1.086   1.552 -0.6903  0.3021  1.0479
 4921SOL    HW226223   2.269   1.061   1.482 -0.4382  0.2949 -0.2666
 4922SOL     OW26224   3.885   1.737   0.369 -0.1431  0.0784 -0.5661
 4922SOL    HW126225   3.791   1.718   0.358  0.1748 -0.0291 -3.0421
 4922SOL    HW226226   3.877   1.770   0.458  0.2967  0.5395 -0.7025
 4923SOL     OW26227   1.588   1.347   8.982  1.0501  0.2260  0.0321
 4923SOL    HW126228   1.507   1.393   9.005  1.5444  0.0396  2.1375
 4923SOL    HW226229   1.620   1.332   9.071 -1.9354  1.7506  1.3535
 4924SOL     OW26230   3.876   0.430   5.996 -0.4817  0.3641 -0.2625
 4924SOL    HW126231   3.794   0.477   6.012 -0.4169  0.6059 -0.6571
 4924SOL    HW226232   3.861   0.414   5.903  3.3090  1.5356 -1.0492
 4925SOL     OW26233   2.488   2.463  11.630  0.0322  0.2705 -0.3594
 4925SOL    HW126234   2.441   2.539  11.663 -0.5131 -0.2260  0.0002
 4925SOL    HW226235   2.578   2.496  11.629  0.3917 -0.7096 -0.4779
 4926SOL     OW26236   4.089   1.021   4.516 -0.2123  0.5688  0.2272
 4926SOL    HW126237   4.096   1.083   4.589 -2.9200 -0.6219  1.4765
 4926SOL    HW226238   4.068   1.088   4.450  1.4781  1.2401  0.3762
 4927SOL     OW26239   2.510   0.919  12.761  0.3572 -0.3055 -0.2366
 4927SOL    HW126240   2.526   0.892  12.670 -0.5926 -0.8352 -0.2366
 4927SOL    HW226241   2.595   0.902  12.803  0.0430  1.6798  1.2492
 4928SOL     OW26242   3.970   4.657   1.398 -0.0230  0.4713  0.2885
 4928SOL    HW126243   3.983   4.595   1.325 -0.4799 -0.8329  1.3172
 4928SOL    HW226244   3.905   4.613   1.453  1.6505 -2.4364 -0.0418
 4929SOL     OW26245   1.241   0.533   7.846  0.8899  0.2727  0.6402
 4929SOL    HW126246   1.279   0.604   7.897  0.6806  0.4795  0.5124
 4929SOL    HW226247   1.165   0.500   7.894 -0.6326  1.5463 -0.8660
 4930SOL     OW26248   4.491   1.267  15.939  0.3734 -0.3199 -0.1951
 4930SOL    HW126249   4.398   1.272  15.916  0.3571  1.0647  0.2234
 4930SOL    HW226250   4.533   1.266  15.853 -0.7178 -0.0262 -0.7285
 4931SOL     OW26251   2.145   3.693   5.010 -0.0997  0.0595 -0.7283
 4931SOL    HW126252   2.106   3.606   5.009  1.2459 -0.6190  4.0339
 4931SOL    HW226253   2.181   3.702   4.921 -1.3108  1.6589 -1.0581
 4932SOL     OW26254   1.577   2.326   3.716 -0.3174 -0.1774 -0.3715
 4932SOL    HW126255   1.485   2.349   3.726  0.2055  1.1867  1.1272
 4932SOL    HW226256   1.600   2.253   3.774 -1.2764 -1.0723 -1.1140
 4933SOL     OW26257   0.815   4.560   8.176  0.0556 -0.5092 -0.3937
 4933SOL    HW126258   0.833   4.652   8.197 -2.9900  0.6732 -2.9984
 4933SOL    HW226259   0.741   4.549   8.236  0.8351  1.8778  1.0371
 4934SOL     OW26260   1.768   1.397   7.827  0.0282 -0.3093 -0.0361
 4934SOL    HW126261   1.838   1.462   7.824 -1.1177  0.9443  0.4638
 4934SOL    HW226262   1.812   1.328   7.779 -1.8871 -1.4095 -0.2108
 4935SOL     OW26263   1.742   4.609   4.902 -0.1232 -0.3819  0.3744
 4935SOL    HW126264   1.826   4.625   4.944  1.2255 -0.1663 -2.4012
 4935SOL    HW226265   1.769   4.635   4.814  0.3925 -0.6629  0.4493
 4936SOL     OW26266   1.689   4.069   8.019 -0.2945 -0.3562  0.2418
 4936SOL    HW126267   1.700   4.139   7.955  1.3812  0.6463  1.6468
 4936SOL    HW226268   1.662   4.000   7.958  0.4084 -0.1826 -0.2636
 4937SOL     OW26269   2.613   3.062   6.363 -0.0294 -0.4423  0.8133
 4937SOL    HW126270   2.596   3.156   6.377  1.6635  0.1973 -1.4332
 4937SOL    HW226271   2.520   3.038   6.369 -0.8479  2.4786 -0.0193
 4938SOL     OW26272   1.445   1.161  14.461  0.3949 -0.2486 -0.2590
 4938SOL    HW126273   1.380   1.094  14.438 -1.7831  1.5460  0.6666
 4938SOL    HW226274   1.393   1.219  14.517 -0.5524 -3.1583  1.8621
 4939SOL     OW26275   2.520   3.673   6.356  0.0261  0.0589 -0.3074
 4939SOL    HW126276   2.475   3.711   6.280  0.1428 -1.3476 -1.0581
 4939SOL    HW226277   2.593   3.735   6.357 -0.3266  0.4876 -1.1263
 4940SOL     OW26278   1.121   4.366  17.241 -0.1045 -0.1276  0.1759
 4940SOL    HW126279   1.052   4.332  17.184 -1.3441 -1.6391  2.5288
 4940SOL    HW226280   1.073   4.361  17.324 -0.2277 -0.4707  0.0847
 4941SOL     OW26281   0.595   0.448  14.674 -0.2865 -0.0031  0.2672
 4941SOL    HW126282   0.566   0.462  14.584  1.4126 -0.3217 -0.3416
 4941SOL    HW226283   0.629   0.361  14.654  0.0696  0.6955 -2.1691
 4942SOL     OW26284   2.442   3.695   7.969 -0.0288 -0.0195  0.2909
 4942SOL    HW126285   2.477   3.770   8.016 -1.1512 -0.0241  1.1471
 4942SOL    HW226286   2.499   3.694   7.892 -1.0225 -0.7205 -0.4558
 4943SOL     OW26287   0.490   2.967   2.218  0.4491  0.0551 -0.0196
 4943SOL    HW126288   0.533   3.029   2.277 -2.3525  0.2885  1.7606
 4943SOL    HW226289   0.415   3.023   2.193  1.0882  0.3516 -1.3119
 4944SOL     OW26290   4.489   3.484   1.741  0.3708  0.1149 -0.5445
 4944SOL    HW126291   4.414   3.522   1.696  0.3912  0.9512  0.1351
 4944SOL    HW226292   4.543   3.554   1.778 -1.2161 -0.4105  2.7864
 4945SOL     OW26293   1.666   1.995  10.262 -0.0867  0.1947  0.2452
 4945SOL    HW126294   1.744   2.005  10.315 -0.0152 -1.8075  0.5221
 4945SOL    HW226295   1.600   1.953  10.318 -0.3690  0.9082  0.4489
 4946SOL     OW26296   0.045   0.944   5.225 -0.2195  0.2741  0.1337
 4946SOL    HW126297   4.686   0.987   5.209 -0.3831  0.1774  0.7454
 4946SOL    HW226298   0.027   0.902   5.310  0.7443  0.2828  0.3368
 4947SOL     OW26299   2.364   4.240   5.395 -0.6575 -0.5011 -0.1833
 4947SOL    HW126300   2.409   4.182   5.457 -0.6819  0.0022  0.2999
 4947SOL    HW226301   2.276   4.246   5.430 -1.3044 -0.4497 -1.8467
 4948SOL     OW26302   3.087   3.853   9.398  0.0220 -0.2257 -0.2125
 4948SOL    HW126303   3.094   3.762   9.427 -2.2258 -1.1854 -2.6216
 4948SOL    HW226304   3.066   3.892   9.482 -1.1637 -0.3725 -0.4416
 4949SOL     OW26305   4.574   4.394   5.732  0.8176 -0.1589  0.1028
 4949SOL    HW126306   4.486   4.411   5.767  1.4738  4.5542 -0.4883
 4949SOL    HW226307   4.634   4.419   5.802  2.1702 -0.9714 -0.7780
 4950SOL     OW26308   4.363   2.023   2.924 -0.0566  0.1134 -0.0710
 4950SOL    HW126309   4.441   1.992   2.969  0.2814  0.2301 -0.5764
 4950SOL    HW226310   4.338   2.107   2.964 -1.2735  0.0198 -0.6345
 4951SOL     OW26311   1.288   0.800   6.210  0.7188  0.6464 -0.4006
 4951SOL    HW126312   1.264   0.826   6.121 -0.9399  0.7825  0.0961
 4951SOL    HW226313   1.220   0.838   6.266  2.3887 -0.3756  2.3341
 4952SOL     OW26314   4.388   3.348   5.195 -0.2488  0.0587 -0.1486
 4952SOL    HW126315   4.380   3.347   5.100 -2.3064  0.1417  0.0349
 4952SOL    HW226316   4.353   3.262   5.217 -1.5198  1.2412  2.4141
 4953SOL     OW26317   3.794   0.584  10.427 -0.4780 -1.1279  0.2028
 4953SOL    HW126318   3.838   0.644  10.487  0.1344 -1.0587 -0.3115
 4953SOL    HW226319   3.838   0.610  10.345  1.0981 -1.4266  0.9525
 4954SOL     OW26320   2.916   3.570   7.644 -0.2246  0.0440 -0.4190
 4954SOL    HW126321   2.892   3.537   7.731 -0.3456  1.3820  0.0516
 4954SOL    HW226322   2.924   3.487   7.598 -0.7709  0.8237 -1.9033
 4955SOL     OW26323   1.021   3.785   2.451 -0.3267  0.0248 -0.6006
 4955SOL    HW126324   1.055   3.871   2.429 -0.2554  0.0555 -0.3775
 4955SOL    HW226325   0.950   3.776   2.387 -2.4515 -2.3303  2.0412
 4956SOL     OW26326   2.581   3.152   6.748  1.0921  0.0424 -0.1249
 4956SOL    HW126327   2.511   3.111   6.798 -0.5829  0.8802 -1.8116
 4956SOL    HW226328   2.609   3.076   6.696 -0.4101 -2.2466  2.4557
 4957SOL     OW26329   0.623   3.653  12.848  0.2741  0.2532  0.4555
 4957SOL    HW126330   0.617   3.563  12.881  0.6406  0.0887  0.0626
 4957SOL    HW226331   0.639   3.698  12.931 -2.8941  2.6697 -0.2552
 4958SOL     OW26332   1.734   1.673   1.709 -0.1717  0.4810  0.6506
 4958SOL    HW126333   1.657   1.686   1.764 -1.0858 -0.9273 -0.3031
 4958SOL    HW226334   1.786   1.734   1.761 -0.8552  2.3472 -0.8240
 4959SOL     OW26335   0.551   2.313  15.865  0.4456 -0.4620  0.2420
 4959SOL    HW126336   0.501   2.381  15.821  1.6957  0.0140 -0.4361
 4959SOL    HW226337   0.596   2.288  15.785 -2.7523 -2.1925 -0.9877
 4960SOL     OW26338   3.757   4.463   8.554 -0.1934 -0.4555  0.3493
 4960SOL    HW126339   3.846   4.494   8.569  0.1989 -0.2375 -2.4365
 4960SOL    HW226340   3.725   4.468   8.644  0.6962 -1.5668  0.7329
 4961SOL     OW26341   2.332   3.632   4.390  0.3251  0.0830 -0.3256
 4961SOL    HW126342   2.388   3.698   4.350 -1.9456  2.1169 -0.1662
 4961SOL    HW226343   2.391   3.569   4.430 -0.5408 -0.3509  0.2661
 4962SOL     OW26344   0.242   1.809   0.408 -0.2061  0.4648  0.2678
 4962SOL    HW126345   0.149   1.829   0.417 -0.2000  0.4725  0.3141
 4962SOL    HW226346   0.244   1.759   0.490 -1.7192  1.3469  0.8239
 4963SOL     OW26347   3.021   0.746   2.683 -0.1571  0.9428 -0.1460
 4963SOL    HW126348   2.928   0.741   2.701  0.3355 -0.7306  1.9035
 4963SOL    HW226349   3.021   0.727   2.589 -1.0907  0.8959 -0.1372
 4964SOL     OW26350   1.977   0.614  12.474 -0.1179  0.4601 -0.2462
 4964SOL    HW126351   1.987   0.670  12.398 -1.3491  0.2349 -0.5765
 4964SOL    HW226352   1.986   0.682  12.541  1.2842 -0.2791  0.3159
 4965SOL     OW26353   3.579   3.196   5.493  0.1859 -0.1901  0.4577
 4965SOL    HW126354   3.491   3.233   5.490 -0.5823 -1.8636  2.0302
 4965SOL    HW226355   3.560   3.113   5.449 -0.6791  0.5453 -0.5617
 4966SOL     OW26356   2.775   3.791   0.370 -0.3867 -0.4103 -0.1279
 4966SOL    HW126357   2.782   3.883   0.398 -1.7932 -0.3373 -0.0253
 4966SOL    HW226358   2.817   3.803   0.284 -0.1154  1.1377  0.2126
 4967SOL     OW26359   3.399   1.092   3.311  0.3094  0.3311 -0.0659
 4967SOL    HW126360   3.321   1.040   3.329  1.2926 -0.4700  1.8494
 4967SOL    HW226361   3.417   1.137   3.393 -2.0455  0.4583  0.3723
 4968SOL     OW26362   2.252   4.657  11.671 -0.6732 -0.6096  0.1926
 4968SOL    HW126363   2.225   0.019  11.644 -0.4309 -0.2856  1.0177
 4968SOL    HW226364   2.269   4.675  11.764 -0.4289  1.7111 -0.3056
 4969SOL     OW26365   0.740   0.805  12.613  0.3558  0.2974  0.1951
 4969SOL    HW126366   0.733   0.734  12.677  0.6970  0.2580  0.1899
 4969SOL    HW226367   0.733   0.755  12.532 -1.0716 -0.1414  0.5790
 4970SOL     OW26368   0.617   1.945   7.889  0.3918  0.3073  0.0021
 4970SOL    HW126369   0.687   2.006   7.913  0.1336  1.4173 -2.0898
 4970SOL    HW226370   0.636   1.929   7.797 -0.4941  2.8585 -0.6157
 4971SOL     OW26371   2.515   1.276   7.508 -0.3607  1.0161  0.7547
 4971SOL    HW126372   2.456   1.229   7.567  0.1201 -1.3325 -0.5954
 4971SOL    HW226373   2.461   1.292   7.431  0.6605 -1.3610 -0.4468
 4972SOL     OW26374   1.067   4.414  13.035  0.2376 -0.2485  0.0357
 4972SOL    HW126375   1.024   4.426  13.120 -1.1282 -0.0606 -0.6847
 4972SOL    HW226376   1.023   4.475  12.975  0.1990  1.1447  1.4773
 4973SOL     OW26377   2.233   4.253   2.377 -0.5008 -0.3966  0.2176
 4973SOL    HW126378   2.222   4.270   2.283 -3.4877 -3.2802  0.0556
 4973SOL    HW226379   2.215   4.336   2.420 -1.1736  1.2788 -3.2561
 4974SOL     OW26380   3.820   1.543  14.040  0.6460 -0.2350 -0.1638
 4974SOL    HW126381   3.891   1.606  14.029 -0.7053  1.5003  1.1512
 4974SOL    HW226382   3.871   1.470  14.074 -1.2499 -2.0953 -1.3025
 4975SOL     OW26383   0.555   0.511   0.682 -0.4363  0.0109 -0.1239
 4975SOL    HW126384   0.570   0.603   0.703  3.1495 -0.6353  0.1469
 4975SOL    HW226385   0.464   0.506   0.651 -0.8368  2.4030  0.6653
 4976SOL     OW26386   0.347   3.205  16.814 -0.0936 -0.4135  0.1809
 4976SOL    HW126387   0.315   3.282  16.862 -1.4605 -1.3687  0.8257
 4976SOL    HW226388   0.347   3.235  16.724  1.0768 -0.0395  0.3113
 4977SOL     OW26389   0.063   0.192   5.792  0.2607 -0.8130  0.3010
 4977SOL    HW126390   0.146   0.218   5.832  1.1785  1.3251 -3.0311
 4977SOL    HW226391   0.063   0.246   5.713  0.4053  0.7745  1.4123
 4978SOL     OW26392   2.358   1.078   7.860  0.4658 -0.1186 -0.1776
 4978SOL    HW126393   2.381   0.994   7.901  3.5680 -0.0396 -1.6955
 4978SOL    HW226394   2.436   1.095   7.806  0.8682 -1.4386 -0.0139
 4979SOL     OW26395   0.190   3.354   7.874  0.1418  0.1233  0.2706
 4979SOL    HW126396   0.155   3.354   7.963 -0.4480  0.4893  0.0437
 4979SOL    HW226397   0.273   3.307   7.876 -0.4505 -0.8977  1.1693
 4980SOL     OW26398   0.211   0.928   8.235  0.5419  0.1553 -0.6113
 4980SOL    HW126399   0.241   0.886   8.315 -0.6351 -1.8378 -1.2063
 4980SOL    HW226400   0.196   1.019   8.260  0.2042  0.1305 -0.7240
 4981SOL     OW26401   2.664   0.419  11.372 -0.0314 -0.1213  0.4696
 4981SOL    HW126402   2.668   0.407  11.467 -0.6595  0.3169  0.5488
 4981SOL    HW226403   2.594   0.362  11.342 -0.3516  1.2018 -1.2867
 4982SOL     OW26404   4.451   3.666   7.879 -0.8551  1.3650 -0.0987
 4982SOL    HW126405   4.412   3.670   7.792  1.4687  0.0006 -1.2024
 4982SOL    HW226406   4.534   3.708   7.859 -0.0865  0.6914  1.7187
 4983SOL     OW26407   2.748   3.926   5.680 -0.2307 -0.0551  0.4089
 4983SOL    HW126408   2.824   3.903   5.735  0.3234  0.9057  0.0309
 4983SOL    HW226409   2.673   3.926   5.739  0.7989 -0.3633  1.7264
 4984SOL     OW26410   1.597   3.997   8.920  0.2149 -0.1590 -0.6628
 4984SOL    HW126411   1.568   3.930   8.981  0.5846  0.2845  0.0026
 4984SOL    HW226412   1.636   3.945   8.850 -0.5098 -1.0966 -0.3559
 4985SOL     OW26413   3.146   2.865   8.859  0.0947  0.0269  0.2423
 4985SOL    HW126414   3.170   2.778   8.890  0.0567 -0.2060 -0.3759
 4985SOL    HW226415   3.217   2.879   8.795 -0.2731  1.8138  0.2069
 4986SOL     OW26416   3.325   2.352   9.423  0.1311  0.3599 -0.3381
 4986SOL    HW126417   3.280   2.395   9.496 -0.3814 -1.2831  0.2948
 4986SOL    HW226418   3.385   2.287   9.461 -1.4438 -1.4447 -0.9675
 4987SOL     OW26419   3.758   3.554  15.846 -0.0758 -0.0496 -0.4207
 4987SOL    HW126420   3.771   3.647  15.861  0.3741 -0.0340 -0.9099
 4987SOL    HW226421   3.793   3.550  15.757  0.7402  1.8468 -0.1768
 4988SOL     OW26422   0.054   4.402   2.691  0.0950 -0.1546 -0.3628
 4988SOL    HW126423   0.112   4.420   2.765  2.0298 -0.2712 -1.8641
 4988SOL    HW226424   0.001   4.330   2.725 -2.9971  1.5119 -1.6269
 4989SOL     OW26425   2.768   2.956   3.529 -0.1777 -0.1710  0.0239
 4989SOL    HW126426   2.831   2.941   3.458 -0.1452 -2.0395  0.4359
 4989SOL    HW226427   2.691   2.994   3.487 -0.2251 -0.6126 -0.2851
 4990SOL     OW26428   1.533   4.625   5.079 -0.4501  0.3072 -0.1376
 4990SOL    HW126429   1.544   4.719   5.088 -0.6164  0.1471  1.6803
 4990SOL    HW226430   1.585   4.620   4.999 -0.4145 -2.2323  0.0285
 4991SOL     OW26431   1.734   0.135   7.273  0.7112 -0.4174 -0.0630
 4991SOL    HW126432   1.684   0.107   7.197 -1.0595  1.3499  0.4542
 4991SOL    HW226433   1.769   0.052   7.305 -2.5232 -1.6418  0.3053
 4992SOL     OW26434   3.905   0.464   8.340 -0.4909  0.1911  0.0159
 4992SOL    HW126435   3.985   0.458   8.286 -0.8668  0.0235 -0.5251
 4992SOL    HW226436   3.886   0.557   8.336 -2.4842 -0.2431 -0.8399
 4993SOL     OW26437   3.009   4.466   9.221  0.0153  0.5355  0.2893
 4993SOL    HW126438   2.993   4.432   9.133  1.4901  2.1842 -0.6158
 4993SOL    HW226439   3.010   4.560   9.200  0.0905  0.0466 -1.8020
 4994SOL     OW26440   4.377   4.243   6.782 -0.5349 -0.2494 -0.5752
 4994SOL    HW126441   4.447   4.191   6.742 -2.2855 -2.1679 -1.1773
 4994SOL    HW226442   4.311   4.174   6.781  0.0234 -0.8112  1.9962
 4995SOL     OW26443   2.851   4.222   5.832 -0.4211 -0.4931 -0.2137
 4995SOL    HW126444   2.787   4.228   5.762 -0.9885 -1.2025  0.2414
 4995SOL    HW226445   2.799   4.211   5.912 -0.2235  2.5538  0.3408
 4996SOL     OW26446   1.535   0.769  11.183 -0.4215  0.1241  0.1920
 4996SOL    HW126447   1.474   0.784  11.255 -0.7339  1.5434 -0.3734
 4996SOL    HW226448   1.498   0.688  11.147 -2.4772  0.0505  2.5243
 4997SOL     OW26449   4.271   1.055   1.644 -0.0480 -0.0225  0.3006
 4997SOL    HW126450   4.237   1.144   1.652  0.2401  0.0803  0.3982
 4997SOL    HW226451   4.190   1.007   1.660 -0.9679  1.1838 -0.7729
 4998SOL     OW26452   2.638   3.172   3.894  0.1654 -0.0793  0.4059
 4998SOL    HW126453   2.699   3.212   3.955  2.3834  0.9518 -2.4454
 4998SOL    HW226454   2.638   3.238   3.824 -0.7202 -2.3510 -1.7198
 4999SOL     OW26455   0.731   1.121   1.216 -0.0974  0.0278 -0.0829
 4999SOL    HW126456   0.788   1.139   1.141 -1.3673 -1.5733 -1.4244
 4999SOL    HW226457   0.758   1.194   1.272 -3.4849 -0.3262  1.9890
 5000SOL     OW26458   0.218   2.208   9.990  0.3104 -0.2426  0.3035
 5000SOL    HW126459   0.266   2.188  10.070  0.5106 -2.8678 -0.4543
 5000SOL    HW226460   0.278   2.164   9.930 -0.8735 -0.9467 -0.3798
 5001SOL     OW26461   1.324   0.733   8.308  0.1118 -0.1124 -0.2494
 5001SOL    HW126462   1.404   0.680   8.308  0.8335  1.0019 -4.1503
 5001SOL    HW226463   1.361   0.816   8.280  0.0960  0.1592  0.5265
 5002SOL     OW26464   1.432   1.408   0.012  0.4463  0.1514 -0.2442
 5002SOL    HW126465   1.363   1.474   0.001  0.4125  0.4128  1.5066
 5002SOL    HW226466   1.412   1.355  17.639  0.6510  0.3445 -0.4281
 5003SOL     OW26467   1.696   4.584  13.361  0.5872 -0.1124 -0.5474
 5003SOL    HW126468   1.603   4.577  13.339 -0.3476  3.7612  2.1830
 5003SOL    HW226469   1.710   4.678  13.351 -0.4848 -0.1441 -2.3284
 5004SOL     OW26470   3.763   2.153   2.218 -0.4730  0.7877  0.9504
 5004SOL    HW126471   3.779   2.245   2.195 -2.3067  0.5326 -1.3160
 5004SOL    HW226472   3.847   2.118   2.248  0.2340  1.1110 -0.6527
 5005SOL     OW26473   4.225   1.674   0.016 -0.1118 -0.1830 -0.6131
 5005SOL    HW126474   4.211   1.701   0.107  0.1163 -1.1197 -0.2983
 5005SOL    HW226475   4.136   1.645  17.701  0.4671 -2.3497 -0.0385
 5006SOL     OW26476   1.777   3.480   4.847 -0.7088  0.1277  0.3031
 5006SOL    HW126477   1.797   3.562   4.801 -2.6751  0.5094  0.1236
 5006SOL    HW226478   1.851   3.427   4.818  0.0391  0.4945  1.5370
 5007SOL     OW26479   0.849   4.675   0.761  0.2037 -0.1786  0.7747
 5007SOL    HW126480   0.882   4.585   0.757 -0.9354 -0.4932 -1.2335
 5007SOL    HW226481   0.844   4.689   0.856 -1.3334 -0.1464  0.6794
 5008SOL     OW26482   3.508   1.388   5.069 -0.6700 -0.0904  0.3371
 5008SOL    HW126483   3.586   1.361   5.118 -0.4382  2.5299  1.4554
 5008SOL    HW226484   3.443   1.319   5.082  0.3394 -0.9645  0.7601
 5009SOL     OW26485   0.361   1.087  15.121 -0.1897 -0.6449  0.0534
 5009SOL    HW126486   0.353   1.180  15.141  0.8478 -0.8103  1.2097
 5009SOL    HW226487   0.314   1.088  15.037 -2.1565  0.1336  1.1701
 5010SOL     OW26488   0.160   1.430   3.594 -0.3183  0.1147 -0.3995
 5010SOL    HW126489   0.113   1.509   3.564 -1.5999  0.2160  1.8300
 5010SOL    HW226490   0.110   1.357   3.557 -0.4794 -0.6655  1.3678
 5011SOL     OW26491   2.489   2.363  15.328  0.0474 -0.3333 -0.3715
 5011SOL    HW126492   2.542   2.295  15.288  2.7426  0.7155  1.4039
 5011SOL    HW226493   2.403   2.353  15.286  0.1269  1.4227 -0.9556
 5012SOL     OW26494   4.509   3.255  14.423 -0.4063 -0.6439 -0.0359
 5012SOL    HW126495   4.484   3.168  14.454 -1.4264 -0.3689 -0.0717
 5012SOL    HW226496   4.511   3.299  14.508  1.5245  1.1381 -1.0060
 5013SOL     OW26497   4.426   1.435   2.421  0.0927  0.3103  0.0863
 5013SOL    HW126498   4.450   1.442   2.329  1.6860 -2.3478  0.2891
 5013SOL    HW226499   4.332   1.454   2.425  0.4438  1.2760  4.1828
 5014SOL     OW26500   1.975   4.681   7.282  1.0893 -0.1008  0.7507
 5014SOL    HW126501   1.990   0.049   7.275 -1.2621  0.2498  0.2371
 5014SOL    HW226502   2.066   4.658   7.266  1.1658  1.8918 -1.5818
 5015SOL     OW26503   2.401   1.667   7.368 -0.2570 -0.1361  0.2113
 5015SOL    HW126504   2.446   1.620   7.438 -0.3642 -2.7579 -1.4888
 5015SOL    HW226505   2.463   1.655   7.297 -1.1645 -1.9185 -0.2802
 5016SOL     OW26506   3.829   3.877   3.548 -0.1896 -0.6337 -0.3690
 5016SOL    HW126507   3.757   3.821   3.577 -2.4332  3.0284  1.2372
 5016SOL    HW226508   3.896   3.816   3.578  1.6184  0.5944 -1.9122
 5017SOL     OW26509   1.204   3.506   6.843  0.6730  0.5373 -0.4853
 5017SOL    HW126510   1.134   3.535   6.784  2.6893  2.5030 -1.9209
 5017SOL    HW226511   1.210   3.576   6.909 -1.0863 -1.4245  1.7399
 5018SOL     OW26512   3.468   2.776   4.218 -0.5663 -0.2920  0.0008
 5018SOL    HW126513   3.393   2.737   4.173 -1.9895  2.1575  0.2127
 5018SOL    HW226514   3.470   2.729   4.302 -1.1927 -1.0026 -0.3793
 5019SOL     OW26515   0.535   1.504   1.741 -0.7126 -0.4083 -0.2811
 5019SOL    HW126516   0.477   1.566   1.786  0.4018 -0.0280  0.6063
 5019SOL    HW226517   0.617   1.546   1.767 -0.9693  0.9305 -1.5803
 5020SOL     OW26518   2.993   1.106   2.710  0.2197  0.1758  0.4725
 5020SOL    HW126519   2.967   1.196   2.690 -0.7747 -0.3435 -0.5797
 5020SOL    HW226520   2.924   1.087   2.774 -0.6524 -1.0667 -0.8232
 5021SOL     OW26521   2.527   2.826   8.963  0.3460 -0.5059 -0.1384
 5021SOL    HW126522   2.493   2.756   9.019  0.0701 -1.0662 -1.0023
 5021SOL    HW226523   2.517   2.786   8.876  0.7567 -1.8749  0.4439
 5022SOL     OW26524   0.484   3.152   5.535 -0.1803 -0.0525  0.0375
 5022SOL    HW126525   0.423   3.155   5.610  0.1525 -1.4341  0.3528
 5022SOL    HW226526   0.468   3.231   5.483  2.4421  0.1976 -0.3862
 5023SOL     OW26527   2.070   2.427   4.306 -0.0133 -0.0420  0.0815
 5023SOL    HW126528   2.114   2.432   4.391  0.2116  1.1396 -0.1045
 5023SOL    HW226529   2.151   2.451   4.262 -1.0893 -0.3985 -2.0834
 5024SOL     OW26530   3.405   0.007   7.984 -0.0666 -0.3060 -0.3898
 5024SOL    HW126531   3.397   4.644   8.019 -1.6063  0.3580  0.9285
 5024SOL    HW226532   3.360   4.721   7.900  0.4782  1.5637 -0.9370
 5025SOL     OW26533   1.251   1.523  16.754 -0.2695  0.2296  0.3509
 5025SOL    HW126534   1.201   1.447  16.726  0.7094 -0.0013 -0.7714
 5025SOL    HW226535   1.192   1.570  16.813 -0.3932 -0.3443  0.6839
 5026SOL     OW26536   4.236   1.971   2.308  0.3989 -0.5569 -0.4163
 5026SOL    HW126537   4.301   2.040   2.294 -1.0005  1.2403  1.9755
 5026SOL    HW226538   4.294   1.894   2.309  0.1516 -0.7383 -0.0512
 5027SOL     OW26539   0.647   3.324   8.332 -0.7901  0.3900  0.1677
 5027SOL    HW126540   0.681   3.402   8.376  1.3572 -0.5894  0.2663
 5027SOL    HW226541   0.592   3.291   8.402 -0.7173  0.4970  0.2751
 5028SOL     OW26542   1.323   2.393   1.794  0.0872  0.2900 -0.4343
 5028SOL    HW126543   1.404   2.424   1.836 -0.8140  0.0920  1.4499
 5028SOL    HW226544   1.341   2.412   1.702 -1.7057  1.1228 -0.6200
 5029SOL     OW26545   1.859   3.991  16.490  0.4684  0.3632  0.2173
 5029SOL    HW126546   1.849   4.003  16.396  1.0691  1.0802  0.2446
 5029SOL    HW226547   1.769   4.011  16.516  0.0428 -1.2624  0.0105
 5030SOL     OW26548   3.807   1.547   4.529 -0.3299  0.7713 -0.2146
 5030SOL    HW126549   3.811   1.625   4.584 -0.6511 -0.2904  1.3293
 5030SOL    HW226550   3.716   1.516   4.538 -0.7190  1.8758 -0.3029
 5031SOL     OW26551   4.041   0.176  11.639 -0.1274  0.1172  0.3190
 5031SOL    HW126552   4.040   0.231  11.717  1.4286  0.9522 -0.2712
 5031SOL    HW226553   4.059   0.095  11.688  1.6288  0.3280 -0.0038
 5032SOL     OW26554   0.691   3.506   6.527  0.2128  0.1075  0.3855
 5032SOL    HW126555   0.758   3.487   6.462  1.1458  0.6744  1.1794
 5032SOL    HW226556   0.686   3.601   6.514 -1.2263 -0.5039 -3.5780
 5033SOL     OW26557   2.190   1.445   1.472  0.0724 -0.8411 -0.2643
 5033SOL    HW126558   2.113   1.396   1.445  0.9228 -2.3962  0.0890
 5033SOL    HW226559   2.193   1.502   1.396 -2.8610  0.2019  0.4116
 5034SOL     OW26560   1.786   2.040  14.154 -0.3586 -0.1754 -0.1794
 5034SOL    HW126561   1.799   2.023  14.248 -0.4304  0.2801 -0.0874
 5034SOL    HW226562   1.749   2.128  14.164 -2.6140 -1.3859  2.1761
 5035SOL     OW26563   3.511   4.434   5.702 -0.0667 -0.5812  0.6433
 5035SOL    HW126564   3.600   4.439   5.667 -1.9589  0.6308 -3.9216
 5035SOL    HW226565   3.493   4.340   5.710 -0.7750 -0.6122 -1.2561
 5036SOL     OW26566   0.569   4.636   7.259  0.1596 -0.6838  0.3500
 5036SOL    HW126567   0.610   4.649   7.345 -0.1765 -2.1946  0.7365
 5036SOL    HW226568   0.521   4.555   7.276 -0.3828 -0.5455 -0.5390
 5037SOL     OW26569   0.481   2.757  16.415  0.3206 -0.3017  0.3219
 5037SOL    HW126570   0.562   2.725  16.376 -0.0376 -1.2005  0.3195
 5037SOL    HW226571   0.415   2.752  16.346 -1.4991 -0.7432  2.1011
 5038SOL     OW26572   1.188   1.241   5.783 -0.2952  0.2403 -0.2264
 5038SOL    HW126573   1.187   1.329   5.820 -2.4978  1.6798 -3.6098
 5038SOL    HW226574   1.096   1.226   5.758  0.6109 -1.5746 -2.5092
 5039SOL     OW26575   3.885   4.312   1.746  0.7038  0.2697 -0.1531
 5039SOL    HW126576   3.808   4.349   1.791 -1.1750 -1.4375 -1.9307
 5039SOL    HW226577   3.930   4.264   1.815  1.7606  2.3713  0.6269
 5040SOL     OW26578   0.142   3.014  16.218 -0.3434  0.1035 -0.3065
 5040SOL    HW126579   0.234   2.990  16.228 -0.5254 -0.4136  0.1325
 5040SOL    HW226580   0.135   3.098  16.265 -1.8271  1.0951 -2.3305
 5041SOL     OW26581   1.809   2.298   5.740  0.0445 -0.8978  0.2059
 5041SOL    HW126582   1.836   2.370   5.683  0.8111 -0.2863  1.3256
 5041SOL    HW226583   1.790   2.220   5.689  2.1218 -1.7057  0.6613
 5042SOL     OW26584   2.887   1.690   4.414  0.2880 -0.1960  0.4375
 5042SOL    HW126585   2.849   1.609   4.380  0.6430 -0.2996  0.2857
 5042SOL    HW226586   2.846   1.682   4.501  1.9761 -0.7715  1.1794
 5043SOL     OW26587   2.249   3.675  14.814  0.0047 -0.0550  0.1136
 5043SOL    HW126588   2.258   3.588  14.776  2.8215  0.6984 -0.9162
 5043SOL    HW226589   2.154   3.683  14.824  0.0247  1.0487 -0.5510
 5044SOL     OW26590   4.521   3.159   8.176  0.1570 -0.3130  0.4485
 5044SOL    HW126591   4.541   3.252   8.190 -0.5673 -0.0642 -0.1506
 5044SOL    HW226592   4.588   3.123   8.234  0.4247 -1.0498 -0.3315
 5045SOL     OW26593   1.241   0.441   8.343 -0.6837  0.3501  0.4304
 5045SOL    HW126594   1.266   0.437   8.250  0.3844  1.1694  0.6786
 5045SOL    HW226595   1.265   0.531   8.362  0.8645 -0.0205  0.2583
 5046SOL     OW26596   1.649   1.810   3.130  0.2688 -0.6865 -0.3750
 5046SOL    HW126597   1.563   1.819   3.090  0.0428  0.4068  0.3752
 5046SOL    HW226598   1.697   1.860   3.064 -0.0100  0.6660  0.4446
 5047SOL     OW26599   2.268   1.370   2.627  0.8166  0.1524 -0.2464
 5047SOL    HW126600   2.341   1.324   2.667  0.4157 -0.4688 -0.2310
 5047SOL    HW226601   2.305   1.456   2.608  0.4783  0.9003  2.4486
 5048SOL     OW26602   0.585   4.333  14.405 -0.2918 -0.4202 -0.0060
 5048SOL    HW126603   0.545   4.253  14.371  0.6081 -0.9839  0.2676
 5048SOL    HW226604   0.512   4.393  14.390 -0.2374 -0.7376 -1.5683
 5049SOL     OW26605   2.316   3.461  15.342 -0.2513  0.4753  0.1535
 5049SOL    HW126606   2.254   3.420  15.282 -1.4047  1.7628  0.4617
 5049SOL    HW226607   2.345   3.532  15.284  0.7964  0.2934  0.4638
 5050SOL     OW26608   0.293   3.738   9.198  0.4333  0.0762 -0.1099
 5050SOL    HW126609   0.278   3.797   9.124 -1.6345 -0.1238  0.1678
 5050SOL    HW226610   0.221   3.744   9.260 -0.0021 -2.6840 -0.3725
 5051SOL     OW26611   3.496   4.004  13.242 -0.0744  0.2434  0.4106
 5051SOL    HW126612   3.462   3.917  13.262 -0.5550  0.9048  2.4166
 5051SOL    HW226613   3.557   4.024  13.313 -0.5539  3.0983  0.0352
 5052SOL     OW26614   2.389   2.826   7.053 -0.5973  0.1629  0.2718
 5052SOL    HW126615   2.339   2.745   7.043  2.0322 -1.3190 -1.0891
 5052SOL    HW226616   2.371   2.839   7.146 -1.8719 -0.2194  0.0742
 5053SOL     OW26617   2.707   0.542   4.810  0.1106  0.1820 -0.4033
 5053SOL    HW126618   2.683   0.502   4.893 -3.0814 -0.8153 -1.8127
 5053SOL    HW226619   2.707   0.633   4.841 -2.0865 -0.3814  1.1712
 5054SOL     OW26620   1.587   0.083  12.125 -0.0025  0.2617  0.4809
 5054SOL    HW126621   1.649   0.080  12.199  1.2709  0.1449 -0.5911
 5054SOL    HW226622   1.569   4.715  12.121  0.6127  0.1214  0.9463
 5055SOL     OW26623   1.311   0.585  16.562  0.3606  0.0181 -0.6131
 5055SOL    HW126624   1.315   0.623  16.649 -0.8713 -4.8155  1.5667
 5055SOL    HW226625   1.261   0.504  16.572  2.4779 -1.5368 -2.4051
 5056SOL     OW26626   3.104   1.025   3.901 -0.0008  0.0394  0.1193
 5056SOL    HW126627   3.164   1.023   3.827 -0.2491  1.0713 -0.1139
 5056SOL    HW226628   3.032   1.082   3.873  0.6383  1.4500  1.4113
 5057SOL     OW26629   4.536   3.967   6.712 -0.4115 -0.3217 -0.2131
 5057SOL    HW126630   4.527   3.922   6.796  0.5802 -0.0464  0.0428
 5057SOL    HW226631   4.630   3.957   6.697 -0.6148 -2.5471  0.0560
 5058SOL     OW26632   3.196   4.463   1.543 -0.1761  0.1521 -0.0507
 5058SOL    HW126633   3.190   4.550   1.503  2.4809 -0.3454 -1.5098
 5058SOL    HW226634   3.231   4.409   1.472 -0.0419 -0.5571  0.5556
 5059SOL     OW26635   2.279   2.796   6.589 -0.1759 -0.3969  0.9024
 5059SOL    HW126636   2.325   2.766   6.667 -1.2527 -2.0648  0.8885
 5059SOL    HW226637   2.306   2.887   6.573 -0.4520 -0.6131 -0.8243
 5060SOL     OW26638   2.968   1.568  12.308 -0.3657  0.2810 -0.2381
 5060SOL    HW126639   3.052   1.603  12.340 -1.8298  1.8209  1.9713
 5060SOL    HW226640   2.913   1.615  12.371  0.4872  1.7090 -0.5572
 5061SOL     OW26641   2.710   4.613   2.499 -0.2968  0.6878 -0.3347
 5061SOL    HW126642   2.715   4.597   2.593  0.4734 -2.1671 -0.8804
 5061SOL    HW226643   2.700   4.524   2.466 -2.2547  0.6045  0.5158
 5062SOL     OW26644   3.289   0.086  14.637 -0.2711 -0.2145 -0.2722
 5062SOL    HW126645   3.311   4.718  14.636 -0.8170 -0.3487  0.7509
 5062SOL    HW226646   3.350   0.115  14.569  0.0086 -2.3422 -0.9478
 5063SOL     OW26647   4.246   0.174   2.149  0.2005 -0.1850  0.8046
 5063SOL    HW126648   4.210   0.086   2.150  0.2554 -0.1959  1.6890
 5063SOL    HW226649   4.163   0.220   2.160 -1.1673 -2.0639 -1.8744
 5064SOL     OW26650   0.882   3.318  17.059 -0.7050  0.0878  0.2375
 5064SOL    HW126651   0.873   3.262  16.982  0.0150  0.0554  0.1754
 5064SOL    HW226652   0.856   3.405  17.028 -0.0049  0.3377  0.3622
 5065SOL     OW26653   1.063   2.626   1.643  0.5499 -0.0928 -0.1941
 5065SOL    HW126654   1.063   2.697   1.579  0.4426  0.2287  0.1572
 5065SOL    HW226655   1.041   2.548   1.592 -2.6035  0.1082  0.8412
 5066SOL     OW26656   3.114   3.398   7.941 -0.0593 -0.5136  0.0334
 5066SOL    HW126657   3.169   3.381   7.864  0.2378  2.3432 -0.4109
 5066SOL    HW226658   3.156   3.480   7.969 -3.5566  0.9556  0.9829
 5067SOL     OW26659   1.870   3.771   5.104 -0.2630 -0.0569 -0.3403
 5067SOL    HW126660   1.923   3.718   5.164 -1.4198 -0.9593 -0.1043
 5067SOL    HW226661   1.823   3.833   5.160  0.8032 -0.1530  0.6598
 5068SOL     OW26662   3.271   0.878   6.614  0.2624 -0.3702 -0.5150
 5068SOL    HW126663   3.299   0.787   6.618  1.2831 -0.0828 -1.3750
 5068SOL    HW226664   3.340   0.919   6.667 -1.3874  0.2240  1.2025
 5069SOL     OW26665   0.939   4.159   4.981 -0.1937 -0.0742  0.2551
 5069SOL    HW126666   0.856   4.120   5.008  0.3671  0.2035  2.3537
 5069SOL    HW226667   0.949   4.120   4.894  3.3281 -0.2115  0.7095
 5070SOL     OW26668   1.261   3.672   3.348  0.1726  0.0230  0.0466
 5070SOL    HW126669   1.191   3.636   3.402  1.3380  0.9300  2.1656
 5070SOL    HW226670   1.284   3.590   3.304  1.1397 -0.9304  2.3059
 5071SOL     OW26671   1.171   4.508  15.178 -0.2621 -0.7093  0.3326
 5071SOL    HW126672   1.172   4.532  15.086  0.6999 -1.2263  0.2040
 5071SOL    HW226673   1.120   4.579  15.218 -0.3888 -1.2361  1.1117
 5072SOL     OW26674   0.875   1.042   2.356  0.2715  0.0033 -0.0157
 5072SOL    HW126675   0.807   1.018   2.293 -0.0823  1.2841 -0.1439
 5072SOL    HW226676   0.953   1.054   2.302  0.7058  1.0203  0.8447
 5073SOL     OW26677   1.220   3.197   5.870  0.3264 -0.2673  0.4986
 5073SOL    HW126678   1.263   3.270   5.914 -0.7912  0.0647  1.0510
 5073SOL    HW226679   1.282   3.124   5.880  1.1093 -0.1414 -3.4591
 5074SOL     OW26680   4.708   2.351  15.790  0.5087  0.1954 -0.2034
 5074SOL    HW126681   4.645   2.289  15.753  1.0479  0.4832 -1.6069
 5074SOL    HW226682   4.646   2.421  15.813  0.6024 -0.0305  0.7669
 5075SOL     OW26683   4.218   3.299   1.791 -0.2767  0.8581 -0.3527
 5075SOL    HW126684   4.313   3.302   1.780 -0.3686 -2.4751 -1.9426
 5075SOL    HW226685   4.188   3.344   1.711 -0.5592  0.9230 -0.2114
 5076SOL     OW26686   3.194   0.958   5.327  0.3639 -0.3784 -0.7965
 5076SOL    HW126687   3.274   0.972   5.277 -0.3805  3.5361 -0.8866
 5076SOL    HW226688   3.244   0.910   5.394  1.0405  1.1815 -0.1908
 5077SOL     OW26689   4.562   3.645   6.842  0.4829  0.5350  0.4206
 5077SOL    HW126690   4.525   3.574   6.893 -3.5589 -0.2866 -3.7214
 5077SOL    HW226691   4.532   3.724   6.888 -0.9032  1.1482 -1.5291
 5078SOL     OW26692   3.991   3.922   9.179 -0.1871  0.1043  0.1924
 5078SOL    HW126693   3.951   3.991   9.232  1.2120  0.6622  0.5188
 5078SOL    HW226694   4.071   3.967   9.150 -0.7697  0.5855 -0.6517
 5079SOL     OW26695   1.188   4.156   8.237 -0.3881 -0.1874 -0.5670
 5079SOL    HW126696   1.272   4.124   8.204 -0.6155  1.3366 -2.5737
 5079SOL    HW226697   1.197   4.250   8.223 -1.8674  0.0312 -0.0426
 5080SOL     OW26698   2.262   0.230   0.960 -0.2250  0.3464 -0.1225
 5080SOL    HW126699   2.233   0.318   0.983 -0.2308  0.2183  0.3628
 5080SOL    HW226700   2.320   0.252   0.888  1.9852  0.1922  1.6199
 5081SOL     OW26701   3.349   1.993  15.197  0.3186  0.2945 -0.1684
 5081SOL    HW126702   3.414   2.028  15.258 -0.3518 -3.2820  2.5265
 5081SOL    HW226703   3.295   1.939  15.253  1.4091 -1.3178 -0.6717
 5082SOL     OW26704   2.978   0.139   8.230 -0.0942 -0.4509 -0.5214
 5082SOL    HW126705   2.897   0.145   8.282  0.4308 -2.0384  0.4827
 5082SOL    HW226706   3.035   0.126   8.306  0.9051 -1.4342 -1.4453
 5083SOL     OW26707   2.744   3.312   2.280  0.1216 -0.1901  0.3614
 5083SOL    HW126708   2.827   3.352   2.307  0.8091 -1.8959  0.7700
 5083SOL    HW226709   2.769   3.220   2.285  0.7763  0.0721  1.9617
 5084SOL     OW26710   3.015   3.292   3.781  0.3034  0.2083  0.0644
 5084SOL    HW126711   2.979   3.287   3.870  0.8352  1.3785  0.3307
 5084SOL    HW226712   2.950   3.247   3.726  1.3927 -3.3814  1.6864
 5085SOL     OW26713   0.980   0.350   6.396 -0.2133 -0.3687 -0.1104
 5085SOL    HW126714   0.917   0.325   6.328 -1.1222 -1.0680  0.9746
 5085SOL    HW226715   1.042   0.278   6.382 -0.5525 -0.1723 -2.6648
 5086SOL     OW26716   3.799   2.811  12.416  0.9647  0.0120 -0.3409
 5086SOL    HW126717   3.752   2.831  12.497 -0.7842  3.9124 -2.3249
 5086SOL    HW226718   3.801   2.716  12.408 -0.9001 -0.1258  0.7783
 5087SOL     OW26719   3.319   0.205   6.181  0.4923 -0.0095  0.6636
 5087SOL    HW126720   3.332   0.114   6.153  2.5732  0.2068  0.9358
 5087SOL    HW226721   3.298   0.191   6.273 -3.1520  1.3418  0.0719
 5088SOL     OW26722   3.770   0.545  17.693 -0.6365  0.1147  0.2225
 5088SOL    HW126723   3.851   0.544  17.642 -1.1449 -0.7294 -0.5708
 5088SOL    HW226724   3.758   0.455   0.020  1.1683 -0.3983 -0.5646
 5089SOL     OW26725   0.773   1.719   0.213 -0.1311  0.4790  0.1776
 5089SOL    HW126726   0.685   1.748   0.236 -0.6101  0.8934 -2.2139
 5089SOL    HW226727   0.815   1.805   0.216  2.3846 -0.8029  1.7106
 5090SOL     OW26728   3.316   3.532  14.900  0.5671 -0.5889  0.3743
 5090SOL    HW126729   3.369   3.551  14.823 -0.0093 -1.7366 -0.2942
 5090SOL    HW226730   3.223   3.523  14.876  0.9621 -1.8664 -0.6645
 5091SOL     OW26731   2.676   4.354   8.029  0.0655  0.3568 -0.1302
 5091SOL    HW126732   2.609   4.299   8.070  1.9075 -2.1425 -0.4772
 5091SOL    HW226733   2.686   4.430   8.086 -0.6768  0.4355 -0.1022
 5092SOL     OW26734   2.745   3.006   6.131  0.3014 -0.8059 -0.2505
 5092SOL    HW126735   2.783   3.089   6.103 -2.8701  0.3714 -1.1389
 5092SOL    HW226736   2.696   3.027   6.211 -0.1187 -2.6648 -0.0313
 5093SOL     OW26737   3.529   3.827   8.684 -1.0667 -0.0540 -0.4091
 5093SOL    HW126738   3.600   3.820   8.619 -0.5897 -2.0590  0.3135
 5093SOL    HW226739   3.586   3.807   8.758 -0.1966  2.4113 -0.4065
 5094SOL     OW26740   2.812   4.593   7.720  0.5293 -0.4596 -0.1651
 5094SOL    HW126741   2.729   4.551   7.696 -0.3124 -0.3688  2.5976
 5094SOL    HW226742   2.798   4.657   7.789 -0.5828 -1.4496  0.5380
 5095SOL     OW26743   1.176   0.094   0.931  0.3808  0.2471 -0.1184
 5095SOL    HW126744   1.174   0.187   0.908 -0.2132  0.2261 -0.1631
 5095SOL    HW226745   1.095   0.085   0.982  0.5511  1.2655  0.3404
 5096SOL     OW26746   0.880   2.821   6.593 -0.3497  0.9533  0.4779
 5096SOL    HW126747   0.826   2.853   6.521  1.5360 -1.2902 -1.9548
 5096SOL    HW226748   0.800   2.809   6.644  0.3516 -1.9259  0.8814
 5097SOL     OW26749   3.235   3.560   6.666 -0.4996  0.0095  0.1811
 5097SOL    HW126750   3.248   3.468   6.690  1.3669  0.7694  1.9736
 5097SOL    HW226751   3.176   3.591   6.735  1.2789  1.9654  0.7893
 5098SOL     OW26752   4.360   1.754   3.518 -0.6769  0.2795  0.3412
 5098SOL    HW126753   4.386   1.793   3.434 -1.2106 -0.5724 -0.2099
 5098SOL    HW226754   4.269   1.733   3.496 -1.0190  0.7232  1.3365
 5099SOL     OW26755   2.387   3.791   6.166 -0.2435 -0.2266 -0.0146
 5099SOL    HW126756   2.461   3.816   6.110  0.1947  0.0356  0.6837
 5099SOL    HW226757   2.326   3.759   6.100  0.5739 -1.0644 -0.3655
 5100SOL     OW26758   4.454   1.424   4.931  0.2183 -1.3419  0.1077
 5100SOL    HW126759   4.386   1.480   4.967 -0.5249 -1.1421 -1.5901
 5100SOL    HW226760   4.436   1.346   4.984 -1.0950 -2.1112 -1.4605
 5101SOL     OW26761   4.680   4.294  11.960 -0.3846  0.5552 -0.2199
 5101SOL    HW126762   0.007   4.370  11.936  0.4014  0.3545  0.9119
 5101SOL    HW226763   4.630   4.267  11.883  0.8627  0.6955 -1.0777
 5102SOL     OW26764   3.259   0.727   3.767  0.1079 -0.1365  0.1329
 5102SOL    HW126765   3.217   0.710   3.683  2.4101 -0.3007 -0.9906
 5102SOL    HW226766   3.327   0.659   3.774 -0.3876 -0.9066 -2.7736
 5103SOL     OW26767   1.923   0.958   3.655 -0.1329  0.0506 -0.1265
 5103SOL    HW126768   1.943   1.026   3.719  2.6440 -0.4572 -0.4377
 5103SOL    HW226769   1.972   0.996   3.581 -1.8988  0.3906 -1.1193
 5104SOL     OW26770   1.328   0.860   2.940  0.2875 -0.2170  0.3866
 5104SOL    HW126771   1.299   0.929   3.000 -2.1756 -0.2753 -0.7374
 5104SOL    HW226772   1.259   0.864   2.874 -0.2301 -2.6334  0.7629
 5105SOL     OW26773   2.803   1.765   1.424  0.5090  0.1259  0.0250
 5105SOL    HW126774   2.765   1.677   1.424 -1.0519  0.7898  2.3850
 5105SOL    HW226775   2.825   1.769   1.331  0.6865 -0.2709  0.0462
 5106SOL     OW26776   4.039   0.341   2.128  0.3677 -0.3449 -0.7912
 5106SOL    HW126777   4.010   0.432   2.128  0.3344 -0.3567 -1.1598
 5106SOL    HW226778   4.012   0.300   2.046  0.4698 -1.2758 -0.3527
 5107SOL     OW26779   2.594   0.714  10.156 -0.2820 -0.5725  0.0630
 5107SOL    HW126780   2.616   0.724  10.064 -2.4979 -0.7074 -0.4768
 5107SOL    HW226781   2.502   0.685  10.157 -1.2399  2.4874  0.9085
 5108SOL     OW26782   2.051   2.183   4.575 -0.1289 -0.1500 -0.2661
 5108SOL    HW126783   2.083   2.254   4.520 -1.4347 -0.6165 -1.6261
 5108SOL    HW226784   2.015   2.236   4.647 -1.0221  0.3916 -1.1204
 5109SOL     OW26785   2.121   0.818   2.412 -0.2749  0.2620  0.5795
 5109SOL    HW126786   2.125   0.901   2.363 -1.4826 -0.2481 -0.3933
 5109SOL    HW226787   2.211   0.796   2.435  0.3513 -0.6770 -2.7413
 5110SOL     OW26788   3.820   3.986   5.430  0.1669 -0.9302  0.3477
 5110SOL    HW126789   3.847   3.939   5.509  2.4431 -0.4736 -0.1736
 5110SOL    HW226790   3.863   4.070   5.441 -1.6124 -0.1180  1.1943
 5111SOL     OW26791   1.296   1.049   6.498  0.0006  0.4353 -0.0111
 5111SOL    HW126792   1.322   1.025   6.586 -1.4525  1.1028  0.6006
 5111SOL    HW226793   1.299   1.145   6.502  1.9486  0.4354 -1.4352
 5112SOL     OW26794   3.404   3.361   6.285 -0.2255  0.1839 -0.3889
 5112SOL    HW126795   3.455   3.291   6.243  1.1761  1.1496 -0.2939
 5112SOL    HW226796   3.371   3.320   6.365  0.6271  0.2662  0.0064
 5113SOL     OW26797   3.411   4.136   1.583  0.4770 -0.1137  0.5194
 5113SOL    HW126798   3.388   4.077   1.655  0.3120 -1.9324 -1.0300
 5113SOL    HW226799   3.463   4.077   1.529 -0.0528 -0.7537  0.7123
 5114SOL     OW26800   0.946   4.529   9.657 -0.3642  0.5942  0.3751
 5114SOL    HW126801   0.873   4.590   9.666 -1.3719  0.0089 -3.4651
 5114SOL    HW226802   0.930   4.482   9.738 -1.8640 -0.8436 -0.7546
 5115SOL     OW26803   1.663   4.322   6.879 -0.2304 -0.1052  0.1833
 5115SOL    HW126804   1.676   4.367   6.963  0.9927 -1.5418  0.7615
 5115SOL    HW226805   1.569   4.306   6.873 -0.2825  0.1001  0.4153
 5116SOL     OW26806   4.357   4.328  16.720  0.7324 -0.4561  0.2093
 5116SOL    HW126807   4.382   4.269  16.791 -1.5935 -1.3998  0.2517
 5116SOL    HW226808   4.264   4.336  16.743  0.5121  0.2567 -0.9114
 5117SOL     OW26809   4.465   3.681   6.591 -0.1128 -0.6214  0.1440
 5117SOL    HW126810   4.450   3.595   6.552  1.3419 -1.1678  0.8265
 5117SOL    HW226811   4.504   3.667   6.677  1.8311 -1.0635 -0.8204
 5118SOL     OW26812   0.879   4.373   6.629  0.0772  0.0359  0.1908
 5118SOL    HW126813   0.943   4.427   6.674 -0.2565  1.5432 -1.1422
 5118SOL    HW226814   0.878   4.293   6.681  1.8305 -0.1334 -0.0506
 5119SOL     OW26815   0.224   4.664   9.526  0.6398  0.2748 -0.5243
 5119SOL    HW126816   0.213   0.033   9.523  0.9383  0.3039 -0.7811
 5119SOL    HW226817   0.233   4.649   9.620 -1.0878  1.3121 -0.2029
 5120SOL     OW26818   0.407   1.906   6.608 -0.6175  0.0376  0.1559
 5120SOL    HW126819   0.476   1.841   6.591 -0.1066  0.3605  0.9881
 5120SOL    HW226820   0.415   1.918   6.703 -3.5723 -2.2833  0.6862
 5121SOL     OW26821   3.785   2.026  16.341  0.8436 -0.1578 -0.2757
 5121SOL    HW126822   3.772   2.017  16.436  0.1972 -1.9549 -0.5409
 5121SOL    HW226823   3.846   2.099  16.352  0.2388  0.4197 -0.7620
 5122SOL     OW26824   2.166   4.218   3.183  0.3785  0.3095  0.0319
 5122SOL    HW126825   2.112   4.144   3.155  0.2634 -0.2526  1.7160
 5122SOL    HW226826   2.241   4.165   3.210  0.3998 -0.7831 -2.1524
 5123SOL     OW26827   1.825   1.947   6.755 -0.3424  0.1612 -0.0961
 5123SOL    HW126828   1.826   2.040   6.734 -1.4052  0.3804  0.8121
 5123SOL    HW226829   1.797   1.955   6.846 -0.6053 -0.1994 -0.1465
 5124SOL     OW26830   2.182   0.810  14.072 -0.7385  0.3148 -0.0607
 5124SOL    HW126831   2.221   0.774  14.152  1.3643  0.0847 -1.2061
 5124SOL    HW226832   2.171   0.903  14.093  0.1225  0.6176 -0.9445
 5125SOL     OW26833   2.832   2.222   5.521 -0.5775 -0.3134  0.4865
 5125SOL    HW126834   2.754   2.263   5.558 -1.6346 -2.8806  1.1278
 5125SOL    HW226835   2.885   2.208   5.600  0.4443 -0.7512 -0.2830
 5126SOL     OW26836   2.691   2.966   7.514  0.6392 -0.0537 -0.4455
 5126SOL    HW126837   2.670   3.005   7.599  1.5963 -0.7938  0.1201
 5126SOL    HW226838   2.720   2.877   7.532  1.5116  0.8550  2.6951
 5127SOL     OW26839   3.146   1.575  14.573 -0.1785 -0.6010 -0.3626
 5127SOL    HW126840   3.180   1.651  14.525 -1.3504 -0.6697 -1.3114
 5127SOL    HW226841   3.217   1.567  14.637 -0.2796  0.7966 -0.0684
 5128SOL     OW26842   1.851   1.509   0.942  0.2511  0.3027 -0.3790
 5128SOL    HW126843   1.864   1.423   0.982  1.2063  1.8819  2.7299
 5128SOL    HW226844   1.757   1.527   0.947 -0.1816 -1.0607 -3.7255
 5129SOL     OW26845   2.269   0.501   4.526  0.3699 -0.2985  0.6138
 5129SOL    HW126846   2.273   0.443   4.450 -0.0316 -0.3994  0.6701
 5129SOL    HW226847   2.342   0.558   4.502 -0.6233  0.9212  0.4248
 5130SOL     OW26848   3.637   3.252  12.916 -0.0114  0.2868  0.3577
 5130SOL    HW126849   3.602   3.173  12.959  0.2582  0.6938  1.3180
 5130SOL    HW226850   3.624   3.241  12.822  4.6267 -2.1989  0.0431
 5131SOL     OW26851   2.057   1.451   2.109  0.4272  0.2295  0.0831
 5131SOL    HW126852   2.118   1.522   2.092  0.2915  0.2988 -0.1120
 5131SOL    HW226853   1.972   1.482   2.077 -0.7752 -2.3702  0.7457
 5132SOL     OW26854   1.785   3.755   7.816 -0.1116 -0.4524  0.4093
 5132SOL    HW126855   1.817   3.721   7.732  1.2802 -1.3931  1.3397
 5132SOL    HW226856   1.762   3.670   7.853 -0.7594 -1.2979 -1.9175
 5133SOL     OW26857   0.109   2.694   2.034 -0.0409 -0.4507  0.0143
 5133SOL    HW126858   0.124   2.751   2.110  1.7662 -0.1558 -0.5797
 5133SOL    HW226859   0.181   2.633   2.048 -0.1145 -0.6204 -0.3556
 5134SOL     OW26860   4.536   0.157  11.443  0.6136  0.0578  0.2752
 5134SOL    HW126861   4.502   0.107  11.517 -1.4837  1.6768  0.4306
 5134SOL    HW226862   4.552   0.243  11.483  1.1013 -0.0606  0.3321
 5135SOL     OW26863   0.094   4.593   1.747 -0.3013 -0.1441  0.5367
 5135SOL    HW126864   0.036   4.646   1.801  0.3555  1.0788  0.0561
 5135SOL    HW226865   0.038   4.516   1.743 -0.3405 -0.1883  2.0531
 5136SOL     OW26866   2.567   1.534   7.182 -0.8068  0.4665 -0.0002
 5136SOL    HW126867   2.652   1.496   7.160 -1.7479 -1.5594 -0.0780
 5136SOL    HW226868   2.508   1.460   7.194  1.3783 -0.8457  2.8098
 5137SOL     OW26869   3.263   1.660   6.259  0.1092 -0.3133  0.4989
 5137SOL    HW126870   3.216   1.624   6.334 -0.0736  0.6976  0.8675
 5137SOL    HW226871   3.295   1.584   6.211 -1.8250 -1.2535  0.7309
 5138SOL     OW26872   3.183   0.586   0.369  0.3699  0.0354  0.6493
 5138SOL    HW126873   3.107   0.627   0.410  0.6467  1.1419  0.0616
 5138SOL    HW226874   3.163   0.502   0.411  0.0632 -0.2576 -0.0642
 5139SOL     OW26875   3.934   1.132   4.335  0.1339  0.3930  0.0781
 5139SOL    HW126876   3.885   1.116   4.254  2.3236  0.4110 -1.2430
 5139SOL    HW226877   3.879   1.184   4.394 -0.3722 -0.0684  0.0146
 5140SOL     OW26878   2.976   3.060   5.497  0.4822 -0.3052 -0.4489
 5140SOL    HW126879   2.999   2.995   5.564  0.2593  0.2544  0.1689
 5140SOL    HW226880   2.995   3.147   5.533 -0.2255 -0.3116 -0.0551
 5141SOL     OW26881   0.307   3.576  14.734 -0.5968  0.1575 -0.4272
 5141SOL    HW126882   0.217   3.610  14.739 -1.7304 -3.1082  1.3543
 5141SOL    HW226883   0.346   3.616  14.812 -0.1387  1.2535 -1.2192
 5142SOL     OW26884   1.950   0.046   6.105 -0.6694  0.1240  0.0558
 5142SOL    HW126885   1.884   0.010   6.045 -0.4332 -1.1826  0.6033
 5142SOL    HW226886   1.904   0.066   6.186 -0.7480 -1.1019  0.3143
 5143SOL     OW26887   0.494   1.679   0.009 -0.0952  0.0477  0.1260
 5143SOL    HW126888   0.473   1.766  17.680  2.0643 -0.2096 -1.9324
 5143SOL    HW226889   0.518   1.691   0.101 -0.5637 -1.3979  0.4342
 5144SOL     OW26890   3.371   2.591   3.968 -0.1405 -0.0494 -0.2445
 5144SOL    HW126891   3.284   2.603   4.007  0.1143  3.6057 -0.8692
 5144SOL    HW226892   3.350   2.541   3.889  0.7094  1.0879 -1.1927
 5145SOL     OW26893   3.336   2.492   8.073 -0.5731  0.3880  0.1004
 5145SOL    HW126894   3.277   2.453   8.009  0.0052  1.7195 -1.2526
 5145SOL    HW226895   3.427   2.476   8.048  0.3071  2.5906  1.8284
 5146SOL     OW26896   2.943   4.656  15.565  0.2324 -0.3490  0.1832
 5146SOL    HW126897   2.989   4.684  15.486  1.4900  2.3632  1.8620
 5146SOL    HW226898   2.993   4.579  15.593 -2.9829 -2.8868 -0.9816
 5147SOL     OW26899   0.484   0.052   0.758 -0.1723  0.2122 -0.3858
 5147SOL    HW126900   0.391   0.046   0.778 -0.1409 -2.2791 -1.0119
 5147SOL    HW226901   0.512   0.132   0.803 -0.5427  1.2667 -2.0378
 5148SOL     OW26902   1.103   0.705  17.566 -0.5058 -0.6620  0.0369
 5148SOL    HW126903   1.107   0.695  17.661 -2.3713 -0.0182  0.1872
 5148SOL    HW226904   1.189   0.744  17.545 -0.0568 -0.7062  1.7750
 5149SOL     OW26905   1.990   4.325   8.205  0.0310 -0.3128  0.2713
 5149SOL    HW126906   1.902   4.327   8.243  0.1279 -1.0700  0.5256
 5149SOL    HW226907   1.978   4.253   8.144 -1.0035  1.1232 -1.2246
 5150SOL     OW26908   1.910   3.392   2.347 -0.5297 -0.1371  0.2961
 5150SOL    HW126909   1.998   3.377   2.313 -0.6443  1.5981 -0.7492
 5150SOL    HW226910   1.904   3.337   2.425 -0.2779  1.5718  1.5290
 5151SOL     OW26911   3.320   4.499   3.453  0.4342 -0.4381  0.0154
 5151SOL    HW126912   3.260   4.428   3.430  0.5981 -0.9690  1.2200
 5151SOL    HW226913   3.260   4.572   3.471  0.0968 -0.5181 -0.7944
 5152SOL     OW26914   3.499   1.391  13.765 -0.2191  0.4331  0.0486
 5152SOL    HW126915   3.405   1.407  13.756 -0.0419  2.3851  1.6263
 5152SOL    HW226916   3.522   1.466  13.820  1.9226 -1.4860  1.7743
 5153SOL     OW26917   0.043   4.056   9.321 -0.3333  0.1818  0.6340
 5153SOL    HW126918   0.015   4.141   9.288  1.4712  0.5532  0.0308
 5153SOL    HW226919   4.716   4.052   9.400 -0.9606 -0.1385  0.1954
 5154SOL     OW26920   3.777   3.127   7.762 -1.1419  0.5770 -0.0792
 5154SOL    HW126921   3.779   3.149   7.855 -0.8082 -0.0779  0.0617
 5154SOL    HW226922   3.806   3.037   7.767 -2.2739  0.1799 -0.5810
 5155SOL     OW26923   2.783   0.437   1.905  0.6285  0.3892 -0.1533
 5155SOL    HW126924   2.845   0.367   1.883  1.7125  0.0089  4.0718
 5155SOL    HW226925   2.842   0.492   1.957 -1.1284  0.0492  2.1917
 5156SOL     OW26926   2.116   0.934   2.843  0.2828 -0.1181  0.1448
 5156SOL    HW126927   2.095   0.913   2.934  0.5050  1.8255  0.6632
 5156SOL    HW226928   2.129   0.851   2.797 -1.0181  0.6425 -1.5833
 5157SOL     OW26929   2.470   2.228  17.654 -0.1136 -0.4676 -0.5842
 5157SOL    HW126930   2.380   2.227  17.621 -0.1384 -1.9725 -0.4480
 5157SOL    HW226931   2.497   2.138  17.671  0.5748 -0.1726 -0.1222
 5158SOL     OW26932   0.074   4.629  10.902  0.4533 -0.4172  0.6525
 5158SOL    HW126933   0.080   4.555  10.842 -2.1943  1.3082 -1.7855
 5158SOL    HW226934   0.028   4.687  10.841 -0.6393 -1.3714  0.5625
 5159SOL     OW26935   3.834   3.560   6.042  0.5421  0.1213 -0.5362
 5159SOL    HW126936   3.798   3.484   6.089  0.2450  0.1623 -0.6963
 5159SOL    HW226937   3.895   3.520   5.980 -0.8085  1.1075 -2.4789
 5160SOL     OW26938   4.123   1.574   3.528  0.1605 -0.3002 -0.0848
 5160SOL    HW126939   4.181   1.519   3.476  0.8688  1.5340 -1.1977
 5160SOL    HW226940   4.088   1.508   3.589 -0.1225 -3.2372 -3.4279
 5161SOL     OW26941   3.116   1.431   1.418  0.2382  0.0580 -0.7631
 5161SOL    HW126942   3.131   1.345   1.456 -1.5990 -0.5160 -1.3434
 5161SOL    HW226943   3.105   1.493   1.490 -1.5381 -2.3239  1.0113
 5162SOL     OW26944   2.212   0.879   3.899 -0.2352 -0.0229 -1.2172
 5162SOL    HW126945   2.161   0.908   3.975  1.3693 -3.9040  1.3238
 5162SOL    HW226946   2.195   0.785   3.896  1.1556 -0.2843 -0.8879
 5163SOL     OW26947   2.921   3.144   7.777 -0.1526  0.3691  0.3921
 5163SOL    HW126948   3.011   3.111   7.772 -0.6928 -0.7325 -1.6990
 5163SOL    HW226949   2.916   3.137   7.873  2.1798 -1.9472  0.3704
 5164SOL     OW26950   2.265   4.290   8.780 -0.9696 -0.0688 -0.4948
 5164SOL    HW126951   2.338   4.276   8.721 -0.6353 -0.8044  0.0966
 5164SOL    HW226952   2.195   4.243   8.734 -1.7553 -1.0525  1.6769
 5165SOL     OW26953   2.175   1.661   1.007 -0.2031  0.0715  0.6173
 5165SOL    HW126954   2.242   1.617   0.955 -1.9423 -1.5751 -0.2599
 5165SOL    HW226955   2.178   1.608   1.086  3.0719 -0.4634  0.1296
 5166SOL     OW26956   3.838   1.392   7.573 -0.2596 -0.3299  0.3445
 5166SOL    HW126957   3.815   1.434   7.490 -1.4916  1.4040  1.5937
 5166SOL    HW226958   3.880   1.313   7.539  1.1955  1.1043 -1.1778
 5167SOL     OW26959   0.290   3.056   5.721  0.0062  0.2167  0.0079
 5167SOL    HW126960   0.328   3.014   5.797 -2.3127 -2.3088 -0.2418
 5167SOL    HW226961   0.242   3.131   5.756 -0.9336 -1.7721  2.8790
 5168SOL     OW26962   2.224   3.280   3.366  0.2728  0.5713 -0.2037
 5168SOL    HW126963   2.262   3.198   3.336 -0.1190 -0.0390  0.9437
 5168SOL    HW226964   2.275   3.343   3.315 -0.5601 -0.6289 -2.5040
 5169SOL     OW26965   3.010   1.931  11.594 -0.3328  0.4042 -1.0740
 5169SOL    HW126966   2.988   2.024  11.583  0.6352  0.7850  0.2790
 5169SOL    HW226967   2.989   1.912  11.685  0.6169  2.3228 -0.4439
 5170SOL     OW26968   4.165   0.343   5.001 -0.1020  0.1730  0.0055
 5170SOL    HW126969   4.095   0.309   4.945 -0.8699 -2.4099  2.4951
 5170SOL    HW226970   4.124   0.349   5.087  0.3169 -0.6707  0.2641
 5171SOL     OW26971   3.503   2.697   9.806 -0.0407 -0.3269 -0.3035
 5171SOL    HW126972   3.503   2.641   9.728 -0.6372  0.1057 -0.6146
 5171SOL    HW226973   3.595   2.720   9.795 -0.4928  0.9987 -1.2935
 5172SOL     OW26974   3.703   0.942  15.378 -0.4920 -0.1615 -0.2252
 5172SOL    HW126975   3.704   0.850  15.350 -0.1242 -0.3199  0.3149
 5172SOL    HW226976   3.610   0.951  15.399  0.0719  0.7164  1.8935
 5173SOL     OW26977   4.343   4.431   3.834  0.2983 -0.7129 -0.3909
 5173SOL    HW126978   4.372   4.401   3.920  0.0733 -1.7269 -0.6767
 5173SOL    HW226979   4.426   4.423   3.787  0.7427  0.5532  0.1680
 5174SOL     OW26980   3.800   3.786   3.281  0.5378 -0.2298  0.1154
 5174SOL    HW126981   3.792   3.829   3.366  3.4242 -0.8128  0.6935
 5174SOL    HW226982   3.830   3.861   3.229  1.9392 -1.8951 -1.4818
 5175SOL     OW26983   2.953   4.010   4.901 -0.3660 -0.4683 -0.4929
 5175SOL    HW126984   2.998   3.996   4.984  0.2284 -0.3916 -0.8088
 5175SOL    HW226985   2.882   3.945   4.902  0.3130 -1.1891  1.2021
 5176SOL     OW26986   2.770   0.817  12.979 -0.5481 -0.1662 -0.2712
 5176SOL    HW126987   2.809   0.896  12.942 -1.7005  0.8001  0.5584
 5176SOL    HW226988   2.825   0.819  13.057 -0.4470 -0.3121 -0.3385
 5177SOL     OW26989   3.678   3.660   4.254  0.3798  0.2580  0.7287
 5177SOL    HW126990   3.739   3.639   4.184 -0.6612 -1.7902  0.4329
 5177SOL    HW226991   3.663   3.749   4.223 -0.8576 -0.1310  0.2109
 5178SOL     OW26992   3.053   2.331  17.691  0.1722  0.0236  0.1791
 5178SOL    HW126993   3.146   2.312  17.676  0.0657  0.9185 -1.6280
 5178SOL    HW226994   3.060   2.424   0.004  1.3985 -0.0147 -0.1080
 5179SOL     OW26995   0.129   0.989   3.497  0.8216  0.3134 -0.2408
 5179SOL    HW126996   0.146   0.924   3.429  1.9273  1.2497 -0.8558
 5179SOL    HW226997   0.061   0.955   3.555  1.8273 -2.2768 -0.5619
 5180SOL     OW26998   3.426   4.238  15.246  0.1097  0.4394 -0.1973
 5180SOL    HW126999   3.449   4.169  15.183 -1.2146 -0.5988  0.4424
 5180SOL    HW227000   3.440   4.178  15.319 -3.9242  0.6121  0.6992
 5181SOL     OW27001   0.889   1.404   6.192 -0.6449  0.2916  0.3239
 5181SOL    HW127002   0.955   1.345   6.227  0.3802  1.2335  0.0090
 5181SOL    HW227003   0.854   1.349   6.122  1.5069  1.3532 -1.5753
 5182SOL     OW27004   3.572   0.004   3.664  0.4763 -0.1421 -0.4340
 5182SOL    HW127005   3.586   4.642   3.628  1.6970 -0.8477  1.8280
 5182SOL    HW227006   3.621   0.060   3.604  0.3310  0.3793 -0.0636
 5183SOL     OW27007   0.679   3.041   9.275  0.3872  0.4705  0.0431
 5183SOL    HW127008   0.735   3.008   9.345  0.0240  0.9140  0.5363
 5183SOL    HW227009   0.645   3.120   9.317 -1.2243  0.4393 -1.1784
 5184SOL     OW27010   3.201   2.263   4.881  0.0711  0.0069 -0.4408
 5184SOL    HW127011   3.169   2.264   4.971  0.7370 -1.9794 -0.1820
 5184SOL    HW227012   3.284   2.219   4.898  0.8700  2.5510  2.3569
 5185SOL     OW27013   3.937   4.564   5.473 -0.5794  0.0052 -0.4300
 5185SOL    HW127014   3.966   4.604   5.391 -0.1143 -0.8446 -0.6708
 5185SOL    HW227015   4.023   4.532   5.497 -1.2147 -0.1229  1.7042
 5186SOL     OW27016   1.476   2.432  15.174  0.4825  0.5112 -0.7474
 5186SOL    HW127017   1.556   2.408  15.220  1.2488  2.2216 -1.1507
 5186SOL    HW227018   1.495   2.519  15.139  1.2569  0.1465 -1.2363
 5187SOL     OW27019   2.981   1.649   4.729  0.1371 -0.0285  0.2701
 5187SOL    HW127020   2.890   1.654   4.699  1.1709 -0.1199 -2.8934
 5187SOL    HW227021   3.010   1.739   4.714  2.8708 -0.6533  1.7688
 5188SOL     OW27022   2.028   2.838   3.796 -0.0081  0.2670  0.8343
 5188SOL    HW127023   2.021   2.793   3.712  2.3220  0.2698  0.6275
 5188SOL    HW227024   1.936   2.856   3.812  0.1317  1.3999  0.3702
 5189SOL     OW27025   0.379   0.613   8.326  0.2106  0.2811 -0.2576
 5189SOL    HW127026   0.452   0.570   8.372  1.3962  0.7087 -1.7631
 5189SOL    HW227027   0.370   0.693   8.378  0.4427  1.3334 -1.8537
 5190SOL     OW27028   3.362   4.175  14.251 -0.1083 -0.3630 -0.2958
 5190SOL    HW127029   3.454   4.147  14.249  0.2849  0.9632 -1.2857
 5190SOL    HW227030   3.373   4.264  14.286 -1.7723 -0.3378  0.1646
 5191SOL     OW27031   1.535   4.526   4.694  0.2186  0.7437 -0.0433
 5191SOL    HW127032   1.449   4.562   4.717  0.3072  2.1315 -1.8775
 5191SOL    HW227033   1.566   4.510   4.783 -3.5171 -0.5476  1.0157
 5192SOL     OW27034   1.990   0.539   7.100  0.5237 -0.2032  0.0149
 5192SOL    HW127035   1.935   0.486   7.043  0.6867  2.2390 -2.3910
 5192SOL    HW227036   2.046   0.589   7.041  3.0961 -4.1767 -0.8981
 5193SOL     OW27037   2.360   2.711   7.566  0.3077  0.4682 -0.5338
 5193SOL    HW127038   2.271   2.746   7.570  0.5249  1.3551 -3.5286
 5193SOL    HW227039   2.380   2.709   7.659  0.4853 -0.2056 -0.5860
 5194SOL     OW27040   4.529   0.680  14.378  0.5595  0.0159 -0.3641
 5194SOL    HW127041   4.552   0.772  14.389 -0.2174  0.2479 -0.6849
 5194SOL    HW227042   4.472   0.674  14.301 -0.5713  1.3085  0.3620
 5195SOL     OW27043   3.675   3.469   7.852 -0.2424  0.2600 -0.4031
 5195SOL    HW127044   3.766   3.455   7.878 -0.6230  1.1307  1.4584
 5195SOL    HW227045   3.641   3.381   7.866 -2.6576  1.6681  2.7689
 5196SOL     OW27046   4.314   4.055  14.240 -0.2367  0.7816 -0.1240
 5196SOL    HW127047   4.229   4.013  14.251  0.2256 -0.3032 -0.6478
 5196SOL    HW227048   4.293   4.147  14.254  1.1362  1.0915 -0.0801
 5197SOL     OW27049   2.597   2.418  13.287  0.3265 -0.1579  0.4108
 5197SOL    HW127050   2.637   2.496  13.250 -0.1438 -0.2609 -0.3001
 5197SOL    HW227051   2.632   2.423  13.376  0.0966  0.3050  0.4716
 5198SOL     OW27052   0.248   3.819   8.300 -0.3333 -0.0716  0.2098
 5198SOL    HW127053   0.198   3.810   8.381  1.0580  1.2144  1.1975
 5198SOL    HW227054   0.279   3.731   8.281 -2.2002 -1.6091  4.1648
 5199SOL     OW27055   2.781   1.156   7.295 -1.1979 -0.1538 -0.2895
 5199SOL    HW127056   2.754   1.236   7.340 -0.8836 -0.2542  0.0768
 5199SOL    HW227057   2.755   1.090   7.359 -0.1943 -0.7015 -0.4456
 5200SOL     OW27058   1.257   3.493  11.964 -0.2594  0.1730  0.0269
 5200SOL    HW127059   1.266   3.452  12.051 -1.8831  0.6503  0.4146
 5200SOL    HW227060   1.343   3.528  11.944 -0.4498 -0.3287 -1.6918
 5201SOL     OW27061   1.245   4.001   1.976  0.0512  0.5412  0.1244
 5201SOL    HW127062   1.291   4.074   2.017  3.4220 -0.7692 -1.3613
 5201SOL    HW227063   1.175   4.056   1.942  1.0967  1.6924 -0.1515
 5202SOL     OW27064   2.536   3.909   5.252  0.1112 -0.4937  0.6813
 5202SOL    HW127065   2.629   3.899   5.229  0.4715  1.4380  1.3183
 5202SOL    HW227066   2.528   4.000   5.224  0.8463  0.2251  2.8270
 5203SOL     OW27067   0.869   0.467   3.671 -0.0712  1.4729  0.7604
 5203SOL    HW127068   0.885   0.464   3.766 -1.9062 -1.5196  0.9527
 5203SOL    HW227069   0.787   0.515   3.675  0.8653  3.0854  0.5820
 5204SOL     OW27070   1.760   1.480   4.507  0.3765 -0.7853  0.3598
 5204SOL    HW127071   1.754   1.546   4.577  0.6066 -1.1231  0.6990
 5204SOL    HW227072   1.841   1.516   4.469 -1.0718  1.8114 -0.2379
 5205SOL     OW27073   3.105   4.297   0.968  0.4358  0.7876 -0.9814
 5205SOL    HW127074   3.182   4.261   0.924  2.1142 -0.3838  2.9819
 5205SOL    HW227075   3.096   4.379   0.919 -0.6174  0.4247 -1.4009
 5206SOL     OW27076   4.663   2.584  12.909 -0.1471 -0.3208 -0.0838
 5206SOL    HW127077   4.594   2.648  12.931  0.8658  0.2880  1.3266
 5206SOL    HW227078   0.006   2.629  12.958  2.2825 -2.3196 -1.6916
 5207SOL     OW27079   3.397   2.866   1.943 -0.0595  0.1307  0.3830
 5207SOL    HW127080   3.310   2.828   1.933  0.1494 -0.5621  1.2014
 5207SOL    HW227081   3.390   2.961   1.938 -3.2373 -0.0447  1.2427
 5208SOL     OW27082   0.937   0.657   6.855  0.4151  0.5380 -0.5317
 5208SOL    HW127083   0.946   0.625   6.765  1.9582 -1.8906  0.4889
 5208SOL    HW227084   1.029   0.657   6.881  0.3873  0.3555 -0.4288
 5209SOL     OW27085   3.763   3.107   2.130 -0.1286 -0.2548  0.4255
 5209SOL    HW127086   3.800   3.120   2.217 -1.0158 -1.1021  0.9410
 5209SOL    HW227087   3.737   3.196   2.108  1.1972  0.0697  0.1869
 5210SOL     OW27088   1.215   2.182   4.700 -0.0249  0.2987  0.0508
 5210SOL    HW127089   1.310   2.179   4.704 -0.0090  0.9671  0.0812
 5210SOL    HW227090   1.198   2.104   4.647  1.7292 -1.0971  1.5473
 5211SOL     OW27091   0.803   1.937  14.289  0.3929  0.1864 -0.1295
 5211SOL    HW127092   0.891   1.934  14.251  1.1076  1.6949  1.4374
 5211SOL    HW227093   0.751   1.916  14.212  1.4481 -1.4384 -0.3999
 5212SOL     OW27094   1.739   1.499  17.682 -0.2576  0.2600  0.3179
 5212SOL    HW127095   1.662   1.553  17.699 -1.7377 -1.4416 -0.9938
 5212SOL    HW227096   1.762   1.465   0.064  0.8346  2.0961  0.7555
 5213SOL     OW27097   4.082   3.358   8.940  0.2350  0.0710 -0.3863
 5213SOL    HW127098   4.128   3.441   8.924  0.5986 -0.2525 -1.0474
 5213SOL    HW227099   4.120   3.329   9.023 -0.4018  0.6015  0.0918
 5214SOL     OW27100   2.908   4.614  11.283 -0.6104  0.5106 -0.2447
 5214SOL    HW127101   2.878   4.523  11.283  0.5373  0.1378  1.2295
 5214SOL    HW227102   3.001   4.592  11.295 -0.2116  3.0163  1.2346
 5215SOL     OW27103   1.895   1.883   2.207  0.1780 -0.7044  0.0182
 5215SOL    HW127104   1.846   1.912   2.130 -0.4427  0.3333  0.7955
 5215SOL    HW227105   1.976   1.857   2.163  0.4919 -0.9765  0.7528
 5216SOL     OW27106   0.027   3.485   6.496 -0.2063 -0.9170 -0.0889
 5216SOL    HW127107   0.067   3.568   6.520  0.9873 -0.1935 -4.6848
 5216SOL    HW227108   0.087   3.453   6.428 -0.0393  0.1701 -0.4446
 5217SOL     OW27109   4.649   0.705  13.631 -0.4950 -0.3825 -0.1362
 5217SOL    HW127110   4.563   0.673  13.657 -0.7945 -1.8810 -2.9867
 5217SOL    HW227111   4.633   0.798  13.611 -0.0846 -0.1326  0.6836
 5218SOL     OW27112   0.567   2.510   8.120  0.1335 -0.2548  0.1386
 5218SOL    HW127113   0.572   2.597   8.158  2.2812 -0.9342  1.4435
 5218SOL    HW227114   0.474   2.493   8.105  0.0301 -0.0600  0.5492
 5219SOL     OW27115   1.073   1.766   1.420  0.1372  0.0039 -0.0454
 5219SOL    HW127116   1.052   1.674   1.437 -1.4699  0.5825  1.0851
 5219SOL    HW227117   1.157   1.758   1.374  0.1984  2.2644 -0.3138
 5220SOL     OW27118   0.294   0.922  11.735  0.3958  0.1818 -0.3819
 5220SOL    HW127119   0.305   0.829  11.715  0.9274  0.5444 -1.7321
 5220SOL    HW227120   0.207   0.946  11.704  1.6524  3.5996 -1.3387
 5221SOL     OW27121   3.706   0.073  14.457 -0.0529  0.3325  0.1393
 5221SOL    HW127122   3.641   0.128  14.414 -0.3147 -0.4216 -0.4131
 5221SOL    HW227123   3.742   0.132  14.524 -0.9414 -0.0112  0.9073
 5222SOL     OW27124   3.270   4.090   5.545  0.1891 -0.3193 -0.3934
 5222SOL    HW127125   3.178   4.087   5.573  0.4829  0.3220  0.6532
 5222SOL    HW227126   3.268   4.011   5.491  0.7078  1.2400 -2.6773
 5223SOL     OW27127   3.760   0.544   2.785  0.5346  0.4360  0.2322
 5223SOL    HW127128   3.823   0.532   2.714  0.2633 -0.2698  0.1088
 5223SOL    HW227129   3.785   0.477   2.848 -2.4920 -0.6194  0.2948
 5224SOL     OW27130   4.363   2.064   6.886  0.0970 -0.2923 -0.3523
 5224SOL    HW127131   4.416   2.116   6.947 -0.1187 -0.6723  0.1558
 5224SOL    HW227132   4.435   2.049   6.824  1.0551  2.0022  0.1954
 5225SOL     OW27133   1.104   1.236   0.379 -0.3215  0.4978 -0.4730
 5225SOL    HW127134   1.035   1.174   0.402  1.8858 -0.9084  2.3844
 5225SOL    HW227135   1.120   1.268   0.468  1.5399 -0.0148 -0.6202
 5226SOL     OW27136   2.013   4.142   7.794  0.0720  0.7149 -0.0045
 5226SOL    HW127137   2.033   4.139   7.888  0.3286  3.5978  0.0536
 5226SOL    HW227138   1.955   4.218   7.791  0.6284  1.0606 -1.6156
 5227SOL     OW27139   4.480   3.059   9.432  0.3054 -0.3113 -0.4551
 5227SOL    HW127140   4.440   2.978   9.402  0.7812 -0.7357  0.0686
 5227SOL    HW227141   4.435   3.070   9.515  0.9071 -1.5151  0.0386
 5228SOL     OW27142   0.590   0.754   4.369 -0.2589 -0.2392 -0.3623
 5228SOL    HW127143   0.531   0.787   4.437 -0.6765 -2.2572  0.2496
 5228SOL    HW227144   0.596   0.820   4.300 -0.4512 -1.9614 -2.0181
 5229SOL     OW27145   3.944   1.984   8.508  0.8086 -0.2781  0.0514
 5229SOL    HW127146   3.931   2.007   8.416 -1.4499  0.9320  0.6802
 5229SOL    HW227147   3.983   2.062   8.548 -0.4236  0.3084  0.1163
 5230SOL     OW27148   3.405   1.744   7.768 -0.4675  0.1337  0.0113
 5230SOL    HW127149   3.334   1.711   7.823  0.3918  0.4985  1.3714
 5230SOL    HW227150   3.360   1.745   7.684 -0.8176 -1.7556  0.1967
 5231SOL     OW27151   0.414   3.024  16.212 -0.1526 -0.1946 -0.4829
 5231SOL    HW127152   0.496   3.030  16.262  0.5050  1.7744 -1.7851
 5231SOL    HW227153   0.444   3.039  16.122  1.2142  0.9669  0.1695
 5232SOL     OW27154   0.650   3.886   3.621 -0.4769 -0.0174 -0.1724
 5232SOL    HW127155   0.719   3.867   3.558  1.3269  1.8928  1.2263
 5232SOL    HW227156   0.697   3.920   3.697 -0.7102 -0.2013  0.0529
 5233SOL     OW27157   1.571   2.075   6.468  0.2963  0.0236 -0.5683
 5233SOL    HW127158   1.567   2.062   6.563  2.0371  2.0811 -0.2095
 5233SOL    HW227159   1.491   2.120   6.441 -0.6693 -1.3159  0.0503
 5234SOL     OW27160   0.210   4.712   3.833 -0.4346 -0.0573 -0.4003
 5234SOL    HW127161   0.197   4.619   3.813 -1.5400 -0.5609  2.6240
 5234SOL    HW227162   0.126   0.026   3.810 -0.4004  0.1768 -0.1189
 5235SOL     OW27163   1.628   0.840   4.208  0.0650  0.1337  0.0115
 5235SOL    HW127164   1.709   0.798   4.180 -0.1777  0.1766 -0.7475
 5235SOL    HW227165   1.672   0.920   4.239 -2.6855  1.1458  1.3275
 5236SOL     OW27166   1.580   1.800   2.301  0.3707 -0.0159 -0.2117
 5236SOL    HW127167   1.561   1.730   2.363 -0.8365 -1.1226 -1.8229
 5236SOL    HW227168   1.654   1.843   2.344  1.3296 -0.0916 -1.7828
 5237SOL     OW27169   4.613   0.080   5.955  0.4706  0.7336 -0.0415
 5237SOL    HW127170   4.690   0.114   5.908  1.1208 -0.2821  0.2710
 5237SOL    HW227171   4.599   0.144   6.024  0.8460 -0.0119  0.7305
 5238SOL     OW27172   0.088   0.384   7.076  0.0799  0.1242  0.5375
 5238SOL    HW127173   0.013   0.325   7.070  1.1839 -1.2916  0.5684
 5238SOL    HW227174   0.119   0.386   6.985 -0.7508  0.4857  0.2626
 5239SOL     OW27175   2.893   2.176   8.581  0.3272  0.3239 -0.0132
 5239SOL    HW127176   2.863   2.098   8.629  1.3481 -0.0450  0.0343
 5239SOL    HW227177   2.958   2.132   8.526  0.0837 -0.4533  0.3206
 5240SOL     OW27178   3.365   3.086   7.661 -0.4952  0.4499 -0.3338
 5240SOL    HW127179   3.326   3.047   7.740  1.3078  0.6797  0.6656
 5240SOL    HW227180   3.287   3.111   7.612 -2.0807  1.2780  2.5898
 5241SOL     OW27181   1.780   0.656   5.615  0.1605  0.1053 -0.2237
 5241SOL    HW127182   1.696   0.696   5.637  0.8226  2.8012 -2.5555
 5241SOL    HW227183   1.777   0.572   5.660 -0.6285  0.9816  1.3475
 5242SOL     OW27184   3.802   2.279   7.536 -0.7398  0.4914  0.7399
 5242SOL    HW127185   3.753   2.347   7.584  0.4158  0.6023  1.7505
 5242SOL    HW227186   3.755   2.196   7.532 -0.0149  0.0764  0.9816
 5243SOL     OW27187   0.664   3.987   4.589 -0.3278  0.3167 -0.1511
 5243SOL    HW127188   0.655   4.082   4.596  1.3010  0.4994 -0.6998
 5243SOL    HW227189   0.751   3.969   4.625 -1.4269 -0.8032  1.9654
 5244SOL     OW27190   4.621   0.501  11.143 -0.4609 -0.3453  0.1282
 5244SOL    HW127191   4.618   0.410  11.113  1.5874 -0.0091 -1.1235
 5244SOL    HW227192   4.565   0.537  11.073  1.6678  0.0785 -1.3516
 5245SOL     OW27193   4.123   1.648   8.025  0.0534  0.0910 -0.2937
 5245SOL    HW127194   4.170   1.584   8.078 -1.3653 -0.5295  0.2174
 5245SOL    HW227195   4.041   1.606   8.000  0.3942 -0.1155 -1.0584
 5246SOL     OW27196   4.415   0.891   4.266  0.1852 -0.5203  0.1768
 5246SOL    HW127197   4.410   0.970   4.320  0.4119 -1.8416  2.1229
 5246SOL    HW227198   4.359   0.913   4.191 -1.8024 -2.8794  0.9609
 5247SOL     OW27199   2.758   4.716   4.773  0.1813  0.2586  0.0717
 5247SOL    HW127200   2.766   0.081   4.743  2.7056  0.4838  1.4230
 5247SOL    HW227201   2.791   4.664   4.701  0.2937  1.8668 -1.0441
 5248SOL     OW27202   1.562   2.362   2.055  0.3252 -0.5987 -0.3844
 5248SOL    HW127203   1.650   2.373   2.091 -0.3118 -1.0974  1.3052
 5248SOL    HW227204   1.587   2.388   1.966  0.7376 -0.8337 -0.3342
 5249SOL     OW27205   4.098   4.620   3.244 -0.2795 -0.2394 -0.4549
 5249SOL    HW127206   4.194   4.629   3.241 -0.4782  2.1023  0.0432
 5249SOL    HW227207   4.068   4.628   3.153  0.3067 -0.8826 -0.7059
 5250SOL     OW27208   1.960   4.483   4.369  0.1875  0.4007  0.1000
 5250SOL    HW127209   2.048   4.446   4.363 -0.6935 -1.8806  1.4716
 5250SOL    HW227210   1.917   4.432   4.438 -2.0882  0.8090 -1.0314
 5251SOL     OW27211   2.999   0.489   4.685 -0.0781 -0.2353  0.0788
 5251SOL    HW127212   2.966   0.579   4.687  1.7790  0.4430  0.9723
 5251SOL    HW227213   2.960   0.466   4.601 -0.2887 -0.7524  0.3230
 5252SOL     OW27214   0.047   2.201   3.809 -0.6312  0.3544  0.1346
 5252SOL    HW127215   0.018   2.132   3.868 -2.5270 -1.7813 -3.3520
 5252SOL    HW227216   0.047   2.156   3.724  0.0884 -2.9940  1.8936
 5253SOL     OW27217   1.979   1.067   1.161  0.2236 -0.4026  0.3854
 5253SOL    HW127218   1.957   1.004   1.093 -0.7428  1.1439 -0.7285
 5253SOL    HW227219   2.074   1.071   1.153  0.2568  1.5994  1.8050
 5254SOL     OW27220   1.027   4.482   2.063 -0.9242 -0.0892  0.5974
 5254SOL    HW127221   0.958   4.517   2.007  0.8174 -1.2498 -2.3139
 5254SOL    HW227222   1.083   4.550   2.099  1.3262 -1.5535 -0.1430
 5255SOL     OW27223   0.933   3.521   0.448  0.4593  0.2722 -0.2403
 5255SOL    HW127224   0.988   3.451   0.411  1.1916  0.6316  0.1618
 5255SOL    HW227225   0.958   3.589   0.386  1.1877  0.7165  0.5410
 5256SOL     OW27226   3.559   2.950   9.319  0.1977  0.3598 -0.3199
 5256SOL    HW127227   3.539   2.965   9.227 -1.0104  0.2456 -0.0728
 5256SOL    HW227228   3.654   2.936   9.318  0.0958 -0.3779  0.1607
 5257SOL     OW27229   1.113   0.554   2.474  0.3650 -0.1406  0.0668
 5257SOL    HW127230   1.046   0.487   2.494  0.0136 -0.1179 -1.0484
 5257SOL    HW227231   1.068   0.637   2.459  1.8990  0.6254 -0.2078
 5258SOL     OW27232   2.273   1.058   8.985  0.1220  0.3747  0.2614
 5258SOL    HW127233   2.212   1.132   8.989  0.4826  0.6689  0.3493
 5258SOL    HW227234   2.278   1.039   9.079  1.1703 -0.5387  0.0281
 5259SOL     OW27235   1.193   2.042  14.524 -0.4366  0.2259 -0.5629
 5259SOL    HW127236   1.173   1.948  14.525 -1.0385  0.3949  3.7049
 5259SOL    HW227237   1.200   2.056  14.430 -0.5964  0.6496 -0.5158
 5260SOL     OW27238   1.038   1.793  13.083 -0.0774  0.1978 -0.2137
 5260SOL    HW127239   1.097   1.727  13.121  0.6884  1.8608  1.4692
 5260SOL    HW227240   0.986   1.732  13.030  3.5864 -1.9960 -1.2858
 5261SOL     OW27241   4.641   4.034  15.084  0.0637 -0.0491  0.2993
 5261SOL    HW127242   4.651   4.126  15.108  1.2568 -0.0815 -0.0419
 5261SOL    HW227243   4.669   3.994  15.167 -1.5504  2.0657  1.8465
 5262SOL     OW27244   1.755   2.203   1.783 -0.4807 -0.5763 -0.4680
 5262SOL    HW127245   1.817   2.275   1.795  1.1594 -2.4963  2.5384
 5262SOL    HW227246   1.782   2.172   1.696  0.6598  1.2839 -0.7650
 5263SOL     OW27247   3.168   2.515   5.045  0.0785  0.0144  0.1000
 5263SOL    HW127248   3.178   2.565   5.126  1.9628 -2.0659  1.1510
 5263SOL    HW227249   3.109   2.442   5.064  0.5284  0.2181  2.3325
 5264SOL     OW27250   4.214   3.927  16.842 -0.3809  0.7730 -0.2662
 5264SOL    HW127251   4.245   3.922  16.933  0.3702  0.6979 -0.5300
 5264SOL    HW227252   4.119   3.923  16.852 -0.2102  1.5325  1.6200
 5265SOL     OW27253   2.208   2.413   3.402 -0.1967 -0.3474 -0.3418
 5265SOL    HW127254   2.301   2.399   3.386 -0.5621 -0.4497 -2.3557
 5265SOL    HW227255   2.210   2.423   3.498 -0.5433  0.0842 -0.3764
 5266SOL     OW27256   3.022   3.879   1.836 -0.7009 -0.5465  0.1355
 5266SOL    HW127257   2.941   3.920   1.806  0.9654  1.5139 -1.5640
 5266SOL    HW227258   3.076   3.886   1.757  1.3599 -0.9613  1.5003
 5267SOL     OW27259   0.560   4.569  10.869  0.2274  0.0185  0.4946
 5267SOL    HW127260   0.637   4.593  10.920  0.6868 -1.6260  0.5783
 5267SOL    HW227261   0.501   4.531  10.934  1.3851  0.2737  1.6735
 5268SOL     OW27262   2.963   4.569   8.798  0.2458 -0.2196  0.6735
 5268SOL    HW127263   2.962   4.479   8.830 -2.4964 -0.4839 -0.1963
 5268SOL    HW227264   3.006   4.617   8.869  2.0512  1.2072 -1.3674
 5269SOL     OW27265   2.563   2.996   3.126  0.2556 -0.3490  0.1843
 5269SOL    HW127266   2.562   3.055   3.050 -0.4345 -0.6006 -0.0069
 5269SOL    HW227267   2.555   2.912   3.081 -0.1751  0.5240 -1.3839
 5270SOL     OW27268   1.158   0.737   5.244 -0.2531  0.2820  0.2081
 5270SOL    HW127269   1.104   0.778   5.312  0.1850 -0.2015  0.8414
 5270SOL    HW227270   1.122   0.649   5.239  0.7315 -0.2326  2.1242
 5271SOL     OW27271   0.033   3.529   0.130  0.1188  0.1116  0.2938
 5271SOL    HW127272   0.054   3.502   0.041 -0.1044  0.7934  0.0320
 5271SOL    HW227273   0.107   3.589   0.145 -1.2589  1.5220  1.4954
 5272SOL     OW27274   0.907   4.716  15.002 -0.1059 -0.5137  0.4390
 5272SOL    HW127275   0.880   4.720  14.911  2.1572  1.2908 -0.1382
 5272SOL    HW227276   0.944   4.629  15.019  2.5518  0.8894  1.8178
 5273SOL     OW27277   2.474   4.266   8.170 -0.2830 -0.4865 -0.2244
 5273SOL    HW127278   2.406   4.207   8.137 -0.8334  1.1192 -2.0350
 5273SOL    HW227279   2.425   4.348   8.168  0.2518 -0.1728 -0.7320
 5274SOL     OW27280   0.883   0.873   2.599  0.1620  0.4280 -0.0847
 5274SOL    HW127281   0.879   0.927   2.520 -0.4803  0.7880  0.1861
 5274SOL    HW227282   0.788   0.869   2.611  0.0193  2.3729 -0.4770
 5275SOL     OW27283   4.177   1.812   4.976 -0.1477  0.0450  0.4034
 5275SOL    HW127284   4.096   1.808   4.925  0.2992 -3.0669 -0.0416
 5275SOL    HW227285   4.175   1.907   4.989 -2.2847  0.2346 -1.3580
 5276SOL     OW27286   0.920   2.334  13.607 -0.3489  0.6108 -0.8887
 5276SOL    HW127287   0.896   2.277  13.679  0.9591 -0.2194 -1.1105
 5276SOL    HW227288   0.873   2.415  13.627  0.2762  0.9095 -0.6215
 5277SOL     OW27289   0.724   3.681  11.499 -0.4885 -0.5826  0.1205
 5277SOL    HW127290   0.764   3.692  11.585 -0.4385 -2.4073  0.3353
 5277SOL    HW227291   0.765   3.749  11.445 -1.5081 -1.8338 -2.2359
 5278SOL     OW27292   4.687   3.886   5.980  0.1292  0.0318 -0.4283
 5278SOL    HW127293   4.688   3.826   5.905 -1.9920  0.6148 -0.9242
 5278SOL    HW227294   4.683   3.972   5.937 -0.7733  0.9738  1.5335
 5279SOL     OW27295   3.995   2.979   9.021 -0.3392  0.3989  0.3747
 5279SOL    HW127296   3.964   3.067   9.042 -0.6707  0.4262 -0.2370
 5279SOL    HW227297   4.086   2.989   9.051  0.3872 -0.2102 -1.6446
 5280SOL     OW27298   1.858   1.868  11.325  0.5470 -0.0675  0.7225
 5280SOL    HW127299   1.902   1.950  11.348 -2.1080  1.6402 -0.3544
 5280SOL    HW227300   1.933   1.809  11.338  0.5923  0.0224  0.8741
 5281SOL     OW27301   0.311   1.160  14.616  0.5150 -0.4069 -0.8479
 5281SOL    HW127302   0.293   1.083  14.563 -0.4735 -1.7186  1.3604
 5281SOL    HW227303   0.405   1.146  14.629  0.8361  2.1202 -0.4561
 5282SOL     OW27304   0.982   4.143   3.678 -0.1750 -0.9905  0.3504
 5282SOL    HW127305   1.041   4.069   3.663  1.5798  0.2840  1.0699
 5282SOL    HW227306   1.046   4.214   3.679 -1.9969  0.6716 -0.3373
 5283SOL     OW27307   3.883   0.902   7.107 -0.4310  0.0252 -0.0722
 5283SOL    HW127308   3.959   0.895   7.165 -0.2410  0.1488 -0.3032
 5283SOL    HW227309   3.811   0.870   7.161  1.6562 -1.9517  1.5139
 5284SOL     OW27310   3.296   4.632   0.099 -0.0791 -0.0374 -0.6442
 5284SOL    HW127311   3.216   4.627   0.048 -0.2684  1.3590 -0.4879
 5284SOL    HW227312   3.318   4.539   0.094  0.0753 -0.1577  1.9316
 5285SOL     OW27313   0.711   3.336   5.948 -0.4350 -0.0822 -0.8278
 5285SOL    HW127314   0.796   3.293   5.946 -1.4097 -2.0923  0.6928
 5285SOL    HW227315   0.705   3.370   5.859  3.4956 -0.5408 -1.2543
 5286SOL     OW27316   2.401   2.887   0.249 -0.3253  0.3346 -0.0128
 5286SOL    HW127317   2.465   2.942   0.205  0.4434 -1.3594 -0.9958
 5286SOL    HW227318   2.431   2.862   0.336 -2.2108  2.8423  1.3695
 5287SOL     OW27319   3.101   0.130   0.007  0.0113  0.3082  0.4706
 5287SOL    HW127320   3.071   0.167  17.628 -3.3799 -1.4555  0.9373
 5287SOL    HW227321   3.079   0.037  17.703 -1.3132  0.5029  1.8088
 5288SOL     OW27322   2.203   4.227   2.109  0.2093 -0.1239 -0.5896
 5288SOL    HW127323   2.165   4.165   2.047 -0.6755  1.6453 -1.8342
 5288SOL    HW227324   2.294   4.232   2.081  0.5367 -2.1847  0.1303
 5289SOL     OW27325   1.287   1.139   0.227  0.5596  0.3495  0.6780
 5289SOL    HW127326   1.358   1.196   0.260 -0.8782  0.5219  3.5310
 5289SOL    HW227327   1.208   1.180   0.261 -0.4441 -0.1229 -1.1329
 5290SOL     OW27328   3.565   0.287   6.232 -0.0674  0.4724 -0.1465
 5290SOL    HW127329   3.577   0.369   6.280  0.5513  1.3603 -1.8304
 5290SOL    HW227330   3.470   0.291   6.222 -0.2141 -1.7745  0.3149
 5291SOL     OW27331   0.721   0.780   6.749 -0.0271  0.0226  0.2805
 5291SOL    HW127332   0.637   0.735   6.762  0.7026 -1.4156  0.0088
 5291SOL    HW227333   0.780   0.721   6.797  2.3400  1.4204 -0.9285
 5292SOL     OW27334   1.776   2.964   3.793 -0.5456 -0.0371  0.2351
 5292SOL    HW127335   1.705   2.900   3.798 -1.2378  0.7449  0.4600
 5292SOL    HW227336   1.742   3.032   3.734 -1.4207 -0.7237 -0.0681
 5293SOL     OW27337   3.654   3.239   6.541  0.5154  0.2706  0.1766
 5293SOL    HW127338   3.646   3.155   6.495 -2.8188  1.6212 -1.6358
 5293SOL    HW227339   3.733   3.210   6.588  0.4431  0.1241  0.2091
 5294SOL     OW27340   1.997   3.384   4.702 -0.1354  0.5758 -0.0810
 5294SOL    HW127341   2.077   3.385   4.755  0.3743  0.9413 -0.8723
 5294SOL    HW227342   1.978   3.293   4.679  1.8209  0.6757 -2.0212
 5295SOL     OW27343   3.037   1.362  14.952 -0.0828 -0.1793  0.4490
 5295SOL    HW127344   3.086   1.332  15.028 -0.6459 -0.4466  0.7031
 5295SOL    HW227345   3.060   1.293  14.889  2.3278  1.0428  0.0204
 5296SOL     OW27346   3.593   0.939   4.784 -0.4538  0.1083  0.2984
 5296SOL    HW127347   3.515   0.919   4.836 -0.8806  0.2359 -0.2961
 5296SOL    HW227348   3.556   0.906   4.702  1.0557 -0.5873 -0.1045
 5297SOL     OW27349   0.451   0.060   1.848 -0.3080  0.0723  0.5851
 5297SOL    HW127350   0.411   0.054   1.762  0.2647 -0.0290  0.3269
 5297SOL    HW227351   0.448   4.701   1.892 -0.9903  0.3395  1.0671
 5298SOL     OW27352   3.493   0.932  16.517  1.1151 -0.1791 -0.4937
 5298SOL    HW127353   3.456   0.936  16.606 -0.2007 -3.3438 -0.8870
 5298SOL    HW227354   3.418   0.974  16.475  1.3131  0.0979 -0.5688
 5299SOL     OW27355   0.281   4.292   7.006  0.7602  0.6457 -0.2708
 5299SOL    HW127356   0.237   4.265   6.926  1.0248 -1.4440  0.2980
 5299SOL    HW227357   0.303   4.384   6.991 -0.0709  0.9950  0.6046
 5300SOL     OW27358   1.683   2.696   0.833  0.5245 -0.3181  0.7136
 5300SOL    HW127359   1.635   2.774   0.861 -1.1203 -0.6966 -1.0877
 5300SOL    HW227360   1.739   2.727   0.762 -0.2543 -1.7638 -0.5357
 5301SOL     OW27361   3.110   1.861   5.529  0.3054 -0.2632 -0.2710
 5301SOL    HW127362   3.178   1.799   5.556  1.4807  0.0800 -2.4031
 5301SOL    HW227363   3.170   1.935   5.519 -0.2117  0.6701  3.7353
 5302SOL     OW27364   1.804   1.723  13.472  0.2905  0.0913  0.2063
 5302SOL    HW127365   1.758   1.803  13.448 -2.3398 -0.7513  2.4772
 5302SOL    HW227366   1.727   1.666  13.481  2.9698 -3.3947  0.8653
 5303SOL     OW27367   0.615   4.228   3.051 -0.0377 -1.1027  0.7448
 5303SOL    HW127368   0.608   4.132   3.050 -1.2493 -1.0145  0.6921
 5303SOL    HW227369   0.660   4.224   3.136 -2.5089 -0.3776  2.1153
 5304SOL     OW27370   0.847   2.691   4.793 -0.2913 -0.1442  0.4740
 5304SOL    HW127371   0.911   2.711   4.861 -0.9904 -0.7029  1.3138
 5304SOL    HW227372   0.779   2.750   4.826 -1.5053 -0.7504 -0.9646
 5305SOL     OW27373   2.443   4.133   8.634 -0.2004 -0.7302 -0.4909
 5305SOL    HW127374   2.512   4.129   8.700  0.8556 -2.2611 -1.7222
 5305SOL    HW227375   2.497   4.155   8.558 -1.0892 -0.6816 -1.1140
 5306SOL     OW27376   0.188   4.200   3.735 -0.2948 -0.0105  0.2078
 5306SOL    HW127377   0.183   4.173   3.643  1.3176 -0.9217  0.3922
 5306SOL    HW227378   0.187   4.116   3.780 -0.5317  0.4995  1.1583
 5307SOL     OW27379   0.844   2.918   9.695  0.2461 -0.1858  0.3720
 5307SOL    HW127380   0.765   2.865   9.688 -0.4440  0.8238  0.5320
 5307SOL    HW227381   0.894   2.877   9.765 -0.6759  0.5880  1.4765
 5308SOL     OW27382   4.446   3.522   4.896 -0.0161 -0.1547 -0.0069
 5308SOL    HW127383   4.407   3.435   4.894 -2.0909  0.7659  0.1066
 5308SOL    HW227384   4.397   3.567   4.827  1.2444  2.2485  0.6454
 5309SOL     OW27385   2.473   0.511   7.067  0.2835 -0.0300 -0.0795
 5309SOL    HW127386   2.475   0.525   6.973  1.4280  0.1354 -0.0244
 5309SOL    HW227387   2.475   0.416   7.079 -1.1648 -0.4275 -2.9392
 5310SOL     OW27388   0.593   2.496  14.735 -0.1837  0.0742 -0.0253
 5310SOL    HW127389   0.623   2.408  14.758 -1.2237 -0.0460  0.8614
 5310SOL    HW227390   0.600   2.526  14.825 -0.2909 -0.2889  0.1047
 5311SOL     OW27391   2.895   0.634   8.623 -0.2108 -0.8251 -0.2063
 5311SOL    HW127392   2.835   0.562   8.642 -0.2136 -0.6624  0.3752
 5311SOL    HW227393   2.857   0.675   8.544  0.4034 -0.8201 -0.5024
 5312SOL     OW27394   1.732   2.305   7.507 -0.0805 -0.1437  0.0305
 5312SOL    HW127395   1.724   2.399   7.490  1.1436  0.2759  1.8078
 5312SOL    HW227396   1.737   2.286   7.413  1.2798 -0.8213  0.2345
 5313SOL     OW27397   0.588   2.465   8.461 -0.0706 -0.1825  0.2380
 5313SOL    HW127398   0.620   2.554   8.470 -0.7502 -0.2061  2.7935
 5313SOL    HW227399   0.504   2.476   8.416  1.3830 -0.5573 -2.5862
 5314SOL     OW27400   3.528   2.599   7.387  0.3985  0.0565  0.0406
 5314SOL    HW127401   3.550   2.676   7.334 -0.3873  0.2646  0.0225
 5314SOL    HW227402   3.616   2.560   7.388 -0.4117 -1.8581 -1.3363
 5315SOL     OW27403   2.810   1.862   2.766  0.2643 -0.1520  0.0431
 5315SOL    HW127404   2.860   1.839   2.845  0.8313  3.2925  0.7095
 5315SOL    HW227405   2.801   1.956   2.781  0.9061 -0.0575 -0.1593
 5316SOL     OW27406   4.533   0.250  17.324 -0.0982  0.3894  0.2072
 5316SOL    HW127407   4.532   0.299  17.243 -0.6164  0.6144  0.3507
 5316SOL    HW227408   4.453   0.289  17.358  0.6375  0.3523  2.0243
 5317SOL     OW27409   0.465   1.632   6.753  0.6697 -0.1002  0.4927
 5317SOL    HW127410   0.405   1.680   6.696 -0.3249 -1.5803  0.2904
 5317SOL    HW227411   0.450   1.675   6.837  0.4700  0.9916 -0.0911
 5318SOL     OW27412   1.193   2.492   8.614 -0.6359  0.4912  0.0283
 5318SOL    HW127413   1.201   2.423   8.680 -0.5939  0.4444 -0.0268
 5318SOL    HW227414   1.244   2.561   8.657  1.8156 -2.7860  2.3543
 5319SOL     OW27415   0.452   0.757   9.348  0.0299  0.1836 -0.5563
 5319SOL    HW127416   0.495   0.804   9.419 -3.2595  0.9198  0.9748
 5319SOL    HW227417   0.518   0.691   9.327 -0.6981 -1.1278  1.2817
 5320SOL     OW27418   2.949   2.370   7.228  0.7512  0.0678  0.2853
 5320SOL    HW127419   2.907   2.428   7.293  3.5746  0.5486  1.6894
 5320SOL    HW227420   2.911   2.285   7.251  0.0427  0.6716  1.3893
 5321SOL     OW27421   1.142   1.909  10.702  1.1246 -0.1310 -0.3952
 5321SOL    HW127422   1.145   1.842  10.770  1.1258  0.3184  0.0457
 5321SOL    HW227423   1.167   1.987  10.751  0.3833  0.9843 -1.7595
 5322SOL     OW27424   1.045   1.047   1.806  0.6440  0.0327 -0.3042
 5322SOL    HW127425   0.949   1.050   1.803  0.6227 -0.7594 -0.3392
 5322SOL    HW227426   1.059   0.957   1.834 -0.0755  0.1890  0.5725
 5323SOL     OW27427   3.531   4.287  10.906 -0.7819 -0.4169 -0.1853
 5323SOL    HW127428   3.517   4.321  10.995  2.0829 -0.6228  0.3507
 5323SOL    HW227429   3.609   4.234  10.920 -0.6831 -0.5346 -1.2023
 5324SOL     OW27430   3.540   2.282   3.196 -0.3713 -0.0947 -1.6145
 5324SOL    HW127431   3.480   2.211   3.171  1.1549 -1.9303 -0.0341
 5324SOL    HW227432   3.625   2.244   3.173 -0.6933 -0.9216 -1.4403
 5325SOL     OW27433   1.354   1.099  10.211 -0.2359 -0.4111  0.0185
 5325SOL    HW127434   1.381   1.159  10.142 -0.9860 -0.7849 -0.6005
 5325SOL    HW227435   1.423   1.034  10.198  0.6580  0.8133 -1.2647
 5326SOL     OW27436   3.905   2.694   2.653  0.0705  0.6900 -0.2381
 5326SOL    HW127437   3.983   2.639   2.643  1.3856  2.1935  1.8954
 5326SOL    HW227438   3.899   2.746   2.573 -0.6159 -0.1478 -0.7336
 5327SOL     OW27439   1.597   3.286   4.751 -0.4140  0.0026  0.0428
 5327SOL    HW127440   1.548   3.346   4.695  0.6660 -1.9815 -3.0300
 5327SOL    HW227441   1.652   3.347   4.801 -0.4968  0.9044 -0.9708
 5328SOL     OW27442   2.550   0.970   1.439  0.1775  0.0189  0.5258
 5328SOL    HW127443   2.463   0.950   1.405  0.0735 -0.7528  1.2343
 5328SOL    HW227444   2.532   1.039   1.502 -3.0095 -1.7571  1.5328
 5329SOL     OW27445   3.503   1.225  16.621  0.2636 -0.0550 -0.5042
 5329SOL    HW127446   3.516   1.177  16.703 -1.1536  1.9922  0.9130
 5329SOL    HW227447   3.464   1.302  16.664 -1.3268 -0.9576 -0.3292
 5330SOL     OW27448   3.190   1.243  13.016 -0.0355 -0.5507 -0.2964
 5330SOL    HW127449   3.265   1.303  13.021 -0.0118 -0.7647  2.1063
 5330SOL    HW227450   3.122   1.310  13.008 -1.1689 -1.3937  2.5009
 5331SOL     OW27451   0.966   0.535  17.355  0.3190  0.2864  0.6743
 5331SOL    HW127452   0.928   0.618  17.328  0.5870  0.0757 -0.3512
 5331SOL    HW227453   1.057   0.563  17.357  0.5066 -0.3584  1.1271
 5332SOL     OW27454   3.376   3.711   3.649  0.1128  0.4425  0.0694
 5332SOL    HW127455   3.318   3.788   3.653  0.4491  0.7492 -0.8655
 5332SOL    HW227456   3.380   3.684   3.740 -0.9521  1.1106  0.3161
 5333SOL     OW27457   4.195   0.598   6.778 -0.3061  0.3412 -0.2681
 5333SOL    HW127458   4.140   0.522   6.799 -2.6189  1.9010 -0.6581
 5333SOL    HW227459   4.133   0.670   6.787 -2.1426 -1.3208  0.6915
 5334SOL     OW27460   4.308   3.584   0.245  0.3140  0.4331  0.0539
 5334SOL    HW127461   4.339   3.579   0.336 -1.7514 -1.3972  0.6487
 5334SOL    HW227462   4.245   3.656   0.239  1.3302  1.5865  2.6092
 5335SOL     OW27463   2.914   2.637   5.341  0.8567 -0.3890 -0.4103
 5335SOL    HW127464   3.003   2.672   5.343  0.6440  0.0895  0.7381
 5335SOL    HW227465   2.938   2.548   5.314  1.9006 -0.8628  2.0278
 5336SOL     OW27466   2.209   0.620   3.796 -0.0807 -0.2039 -0.2490
 5336SOL    HW127467   2.268   0.630   3.721 -1.6792  1.4708 -1.2839
 5336SOL    HW227468   2.263   0.560   3.848 -0.0726 -0.0690 -0.1005
 5337SOL     OW27469   4.201   4.295   0.848 -0.1604 -0.3201  0.4307
 5337SOL    HW127470   4.108   4.303   0.825 -0.4007  0.8732  1.8038
 5337SOL    HW227471   4.202   4.248   0.931  0.0899  1.8483  1.6463
 5338SOL     OW27472   3.640   2.522   2.279  0.3786  0.4141  0.7368
 5338SOL    HW127473   3.695   2.597   2.255 -1.0886  0.3713 -2.8115
 5338SOL    HW227474   3.681   2.495   2.361 -0.3746 -0.8737  0.6881
 5339SOL     OW27475   4.008   1.526  12.996  0.3401 -0.0398  0.3034
 5339SOL    HW127476   4.017   1.431  13.010 -1.3095 -0.0985  1.0829
 5339SOL    HW227477   4.096   1.548  12.966 -0.2109 -0.6738 -1.7309
 5340SOL     OW27478   1.202   2.849   3.721 -0.1802  0.1179 -0.5552
 5340SOL    HW127479   1.225   2.780   3.783  2.3669  1.3918 -0.0667
 5340SOL    HW227480   1.107   2.856   3.719 -0.1507  0.6497 -0.1568
 5341SOL     OW27481   0.629   3.162   9.031  0.0032  0.0368 -0.2271
 5341SOL    HW127482   0.558   3.131   9.086  1.6466 -1.3462  1.1030
 5341SOL    HW227483   0.697   3.142   9.095  1.2158 -0.8948 -1.8181
 5342SOL     OW27484   2.241   2.574   3.903  0.1396  0.2713 -0.2676
 5342SOL    HW127485   2.234   2.520   3.982  1.7274  1.5972  0.7823
 5342SOL    HW227486   2.184   2.647   3.929 -0.8251 -0.0465 -1.4813
 5343SOL     OW27487   1.327   2.855   8.892 -0.4971 -0.1250 -0.0084
 5343SOL    HW127488   1.354   2.939   8.929  0.9425 -1.3115  1.6183
 5343SOL    HW227489   1.376   2.799   8.952 -0.5001 -0.0662  0.0485
 5344SOL     OW27490   1.581   4.593   8.726 -0.3793  0.1942  0.1944
 5344SOL    HW127491   1.630   4.596   8.808 -0.6369 -1.2519  0.3954
 5344SOL    HW227492   1.636   4.531   8.679  0.9702  1.4441  0.0951
 5345SOL     OW27493   4.208   4.474   7.720 -0.3699  0.2533 -0.1749
 5345SOL    HW127494   4.231   4.411   7.652 -0.8442 -0.1291  0.0198
 5345SOL    HW227495   4.247   4.552   7.682 -1.4718  0.5051 -0.7826
 5346SOL     OW27496   1.091   3.774   8.590  0.3011  0.2803 -0.1264
 5346SOL    HW127497   1.009   3.800   8.632  0.4260 -0.1405  0.3845
 5346SOL    HW227498   1.119   3.860   8.560  1.4888 -0.5470 -1.3766
 5347SOL     OW27499   1.974   1.942   5.860  0.0503 -0.0361  0.5812
 5347SOL    HW127500   1.950   1.851   5.872  1.6145 -0.4093  0.9408
 5347SOL    HW227501   2.016   1.943   5.774 -1.0233 -2.4171  0.0534
 5348SOL     OW27502   3.010   1.626   8.294 -0.3616  0.1879 -0.3963
 5348SOL    HW127503   3.041   1.549   8.341 -2.4411  0.5592  1.6162
 5348SOL    HW227504   3.065   1.694   8.332  0.1159 -0.5695  0.2630
 5349SOL     OW27505   0.331   2.641   3.032 -0.2545 -0.1530  0.0537
 5349SOL    HW127506   0.238   2.663   3.021 -0.3371 -1.0404 -0.9802
 5349SOL    HW227507   0.342   2.705   3.102 -2.5086 -0.0847  0.3513
 5350SOL     OW27508   2.752   3.924   2.773 -0.6735  0.0730  0.3206
 5350SOL    HW127509   2.720   3.837   2.748  0.0707  0.1049 -0.7386
 5350SOL    HW227510   2.846   3.914   2.755 -0.1263  0.4682  2.9946
 5351SOL     OW27511   2.457   0.271  16.176  0.0452 -0.2173  0.3878
 5351SOL    HW127512   2.387   0.299  16.117  0.6947 -0.2826 -0.4114
 5351SOL    HW227513   2.419   0.186  16.196 -0.1976  0.1501  1.4765
 5352SOL     OW27514   3.660   0.049   3.192  0.7778 -0.7666  0.2014
 5352SOL    HW127515   3.728   0.109   3.163 -1.2331  0.0233 -2.9074
 5352SOL    HW227516   3.651   4.725   3.111  1.3061 -1.6259  0.6758
 5353SOL     OW27517   1.768   2.254   6.394  0.2211  0.2597 -0.2860
 5353SOL    HW127518   1.690   2.205   6.418  1.3583 -1.2111  0.4202
 5353SOL    HW227519   1.840   2.193   6.413  0.4250  0.1607 -1.3932
 5354SOL     OW27520   1.639   2.569   3.246  0.1464 -0.0193  0.1165
 5354SOL    HW127521   1.673   2.566   3.336 -3.8223 -2.1932  1.5171
 5354SOL    HW227522   1.674   2.493   3.200 -0.9928 -2.0497  2.5749
 5355SOL     OW27523   3.161   1.365   8.959 -0.3049 -0.0365 -1.0950
 5355SOL    HW127524   3.097   1.362   9.030 -0.0196  1.2714 -0.7937
 5355SOL    HW227525   3.179   1.459   8.963  1.7654 -0.4340 -1.1703
 5356SOL     OW27526   3.640   3.872   6.634  0.1364  0.6220  0.2513
 5356SOL    HW127527   3.716   3.823   6.666  0.5141  0.7046 -0.5280
 5356SOL    HW227528   3.675   3.904   6.551 -0.6197 -2.9939 -1.4886
 5357SOL     OW27529   3.732   1.880   0.645  0.3791 -0.4578  0.3349
 5357SOL    HW127530   3.741   1.933   0.566  0.7298 -1.6433 -0.4342
 5357SOL    HW227531   3.812   1.905   0.691 -0.7346  1.0434  1.4760
 5358SOL     OW27532   1.893   2.463   5.537 -0.5238  0.0890  0.3580
 5358SOL    HW127533   1.957   2.518   5.582  0.2297 -1.0214  0.6487
 5358SOL    HW227534   1.850   2.524   5.476 -0.7735  0.3619  0.8063
 5359SOL     OW27535   0.541   2.466   8.782  0.5823  0.4002 -0.1045
 5359SOL    HW127536   0.529   2.372   8.771  1.1483  0.3465 -0.2458
 5359SOL    HW227537   0.601   2.501   8.716  0.1732  2.6629  0.7019
 5360SOL     OW27538   2.128   3.824   4.436 -0.0507 -0.0306 -0.3303
 5360SOL    HW127539   2.193   3.756   4.417  0.4148  0.3593 -0.1542
 5360SOL    HW227540   2.138   3.879   4.359 -0.4301  0.1474 -0.2500
 5361SOL     OW27541   0.300   3.636  12.799  0.8755  0.1453  0.2717
 5361SOL    HW127542   0.266   3.656  12.711  2.4228 -0.3782 -0.4424
 5361SOL    HW227543   0.392   3.615  12.781  1.2068  1.0955  0.8172
 5362SOL     OW27544   2.469   3.185  12.649 -0.2812  0.1733  0.3193
 5362SOL    HW127545   2.435   3.270  12.621  0.0960  0.2554  0.1064
 5362SOL    HW227546   2.499   3.142  12.569  0.4474  2.0565 -0.4117
 5363SOL     OW27547   3.795   1.101   9.889  0.0154 -0.2654  0.1884
 5363SOL    HW127548   3.773   1.020   9.935 -1.3927  0.7679  1.3194
 5363SOL    HW227549   3.876   1.131   9.929  0.8920 -2.5838  0.1432
 5364SOL     OW27550   0.210   4.119   5.939  0.0823 -0.5224  0.6456
 5364SOL    HW127551   0.190   4.205   5.900  2.3225  0.3031  1.3482
 5364SOL    HW227552   0.134   4.094   5.991 -1.3765 -0.4703 -1.4558
 5365SOL     OW27553   1.672   2.415  16.962  0.2731 -0.8284 -0.0781
 5365SOL    HW127554   1.731   2.428  17.036 -1.1926  2.1583  0.5388
 5365SOL    HW227555   1.716   2.459  16.889  1.3719 -2.5310 -0.4498
 5366SOL     OW27556   2.317   2.067   4.416  0.2674  0.1952  0.3774
 5366SOL    HW127557   2.232   2.067   4.459  0.2830 -0.7550  0.4065
 5366SOL    HW227558   2.293   2.055   4.324 -0.4303  0.2148  0.5573
 5367SOL     OW27559   3.466   2.923   5.945 -0.3792  0.6371  0.1191
 5367SOL    HW127560   3.556   2.912   5.915  0.5806  0.7370  2.9558
 5367SOL    HW227561   3.469   3.009   5.985 -0.2013  0.5921  0.1994
 5368SOL     OW27562   2.589   3.686   9.177  0.1740  0.0236  0.2495
 5368SOL    HW127563   2.643   3.626   9.228 -0.8554 -1.3384 -0.3016
 5368SOL    HW227564   2.602   3.773   9.215  1.2691 -0.0328  0.0127
 5369SOL     OW27565   0.044   0.327   2.389  0.3069  0.5438  0.4467
 5369SOL    HW127566   0.070   0.254   2.334  1.9171  1.1071  0.4677
 5369SOL    HW227567   0.119   0.345   2.446  1.0161 -0.1990 -0.2435
 5370SOL     OW27568   1.826   0.939   2.215  0.1086  0.2816  0.2861
 5370SOL    HW127569   1.810   0.964   2.124  0.2493  2.1032  0.7523
 5370SOL    HW227570   1.899   0.994   2.246  0.7533  1.0399 -2.5064
 5371SOL     OW27571   0.890   2.167  14.135 -0.0771 -0.0644  0.1111
 5371SOL    HW127572   0.954   2.098  14.152 -1.6416 -1.3406  0.8095
 5371SOL    HW227573   0.860   2.189  14.223  0.7614  0.4094  0.2785
 5372SOL     OW27574   1.419   4.225   2.792  0.2391 -0.7676 -0.2842
 5372SOL    HW127575   1.352   4.285   2.824 -0.0238 -0.9244 -0.5447
 5372SOL    HW227576   1.439   4.195   2.881  0.4744  2.4581  0.7604
 5373SOL     OW27577   0.819   2.603  12.136 -0.2782 -0.0606 -0.5654
 5373SOL    HW127578   0.874   2.676  12.107  0.0473 -0.8191 -1.8597
 5373SOL    HW227579   0.878   2.530  12.117 -1.2812 -1.5068  1.8193
 5374SOL     OW27580   0.499   2.526   1.307 -0.0501 -0.4725  0.6766
 5374SOL    HW127581   0.593   2.528   1.291  0.0611 -1.4632  1.1917
 5374SOL    HW227582   0.481   2.608   1.353  1.1381 -0.1721  0.6111
 5375SOL     OW27583   0.707   1.872   4.240 -0.1477 -0.1614  0.3521
 5375SOL    HW127584   0.757   1.815   4.181 -0.2916 -1.3541  1.3719
 5375SOL    HW227585   0.625   1.825   4.223  0.5049 -1.2802  0.2503
 5376SOL     OW27586   1.293   2.700  10.953 -0.2940 -0.2313 -0.7599
 5376SOL    HW127587   1.332   2.785  10.932  0.3074 -1.2810 -3.9151
 5376SOL    HW227588   1.231   2.726  11.021  0.8886 -1.6293  0.8499
 5377SOL     OW27589   0.543   1.163   5.699 -0.5081  0.4573  0.1511
 5377SOL    HW127590   0.595   1.243   5.697  0.5442 -0.2940 -2.2343
 5377SOL    HW227591   0.503   1.154   5.613 -0.3118 -0.3210  0.1393
 5378SOL     OW27592   4.223   0.230   3.250 -0.3576  0.0460  0.4041
 5378SOL    HW127593   4.136   0.263   3.274 -0.2181  1.1287 -0.5906
 5378SOL    HW227594   4.232   0.158   3.312  0.6909  1.0176  1.3716
 5379SOL     OW27595   1.450   1.089   7.484 -0.1268  0.2888  0.3015
 5379SOL    HW127596   1.384   1.080   7.415  0.1011  1.1944 -0.0349
 5379SOL    HW227597   1.414   1.166   7.529  0.7435  0.4698  0.6900
 5380SOL     OW27598   0.999   2.140   4.195  0.6052  0.2185 -0.1841
 5380SOL    HW127599   0.974   2.099   4.113  0.1945  0.5356 -0.2140
 5380SOL    HW227600   0.929   2.201   4.217  1.6655  1.6644 -0.8437
 5381SOL     OW27601   0.886   2.045   7.934  0.0858  0.9197 -0.5055
 5381SOL    HW127602   0.929   2.092   8.006  0.2076  2.4958 -1.5980
 5381SOL    HW227603   0.819   2.110   7.912 -1.7872 -1.8036 -2.8110
 5382SOL     OW27604   0.557   1.675   3.767 -0.1717 -0.3404 -0.1202
 5382SOL    HW127605   0.562   1.687   3.672  2.6406  0.3330  0.0995
 5382SOL    HW227606   0.473   1.718   3.781  0.0286 -0.3460  1.1033
 5383SOL     OW27607   3.694   2.514  12.382  0.0761 -0.7871 -0.0391
 5383SOL    HW127608   3.638   2.457  12.330  0.6901 -1.5850  0.1884
 5383SOL    HW227609   3.631   2.555  12.442  0.0928 -0.4986 -0.2162
 5384SOL     OW27610   3.850   1.699   8.798  0.2657 -0.0134 -0.1470
 5384SOL    HW127611   3.807   1.772   8.842 -1.2564  0.3519 -2.2395
 5384SOL    HW227612   3.777   1.656   8.752 -0.1343  0.6775 -0.1640
 5385SOL     OW27613   0.320   4.293   4.502 -0.4273 -0.7502 -0.2914
 5385SOL    HW127614   0.364   4.231   4.444  0.3276 -0.2933 -0.2050
 5385SOL    HW227615   0.295   4.360   4.438  0.9194  1.4068  1.4166
 5386SOL     OW27616   3.804   1.775  13.287  0.2573 -0.0810 -0.3839
 5386SOL    HW127617   3.743   1.707  13.259  0.3976  0.8669 -2.9693
 5386SOL    HW227618   3.889   1.735  13.268  0.4138 -0.0262  0.2092
 5387SOL     OW27619   0.806   3.760  15.413 -0.0176 -0.3427 -0.5593
 5387SOL    HW127620   0.829   3.839  15.463 -0.2383 -0.8169  0.2952
 5387SOL    HW227621   0.713   3.779  15.407  0.0443 -0.5008 -1.8769
 5388SOL     OW27622   3.700   0.265   8.896 -0.8997 -0.7086  0.0785
 5388SOL    HW127623   3.634   0.207   8.933 -0.9515  0.2619  1.5300
 5388SOL    HW227624   3.771   0.202   8.883 -1.1117 -1.0990  0.8214
 5389SOL     OW27625   4.713   3.516   2.045  0.1022  0.6562  0.1367
 5389SOL    HW127626   4.647   3.586   2.044  0.4162  0.9247 -1.6636
 5389SOL    HW227627   0.064   3.554   2.089  0.9925 -1.1795  0.1517
 5390SOL     OW27628   4.439   2.801   2.101 -0.4861 -0.0238 -0.1248
 5390SOL    HW127629   4.353   2.759   2.104 -0.5776  0.3395  2.2536
 5390SOL    HW227630   4.443   2.835   2.011 -0.3201  1.9973  0.6411
 5391SOL     OW27631   3.866   0.463   3.041 -0.0603  0.7041  0.3163
 5391SOL    HW127632   3.787   0.518   3.042 -1.0828 -0.7767  1.8627
 5391SOL    HW227633   3.939   0.521   3.061  0.6241  0.2051 -0.7570
 5392SOL     OW27634   3.962   1.518  13.363  0.6236 -0.1110  0.5376
 5392SOL    HW127635   3.986   1.584  13.428  4.5985 -1.1753  0.1685
 5392SOL    HW227636   4.031   1.452  13.372  1.6071  0.9006  0.3619
 5393SOL     OW27637   1.014   3.064   4.432  0.8472  0.4602 -0.1809
 5393SOL    HW127638   0.971   3.025   4.508  3.1500 -0.3525  0.7178
 5393SOL    HW227639   1.030   3.153   4.464  2.0687 -0.0213  0.5394
 5394SOL     OW27640   2.090   0.386  16.644 -0.0730 -0.8337  0.1435
 5394SOL    HW127641   2.131   0.346  16.721  1.0968  0.1525  0.0463
 5394SOL    HW227642   2.062   0.459  16.701  0.5473 -2.0588  2.0145
 5395SOL     OW27643   3.842   4.022   3.976  0.0299  0.3474  0.3532
 5395SOL    HW127644   3.869   4.089   3.914 -0.3344 -1.5359 -1.8510
 5395SOL    HW227645   3.905   4.045   4.044  0.5218 -0.9198  0.3355
 5396SOL     OW27646   1.384   1.852   8.919 -0.0136 -0.0826 -0.1065
 5396SOL    HW127647   1.479   1.838   8.915  0.2730  2.1310 -0.5818
 5396SOL    HW227648   1.372   1.875   9.011 -1.9706 -1.1262 -0.1016
 5397SOL     OW27649   2.992   4.338   0.611 -0.1647 -0.1105 -0.1173
 5397SOL    HW127650   3.048   4.261   0.604  0.1473  0.0595  0.5432
 5397SOL    HW227651   2.981   4.361   0.519 -3.1477 -0.0494  0.2404
 5398SOL     OW27652   0.048   0.063  12.897 -0.8338 -0.0424 -0.4103
 5398SOL    HW127653   0.043   0.144  12.947  2.5127  0.2631 -0.5414
 5398SOL    HW227654   4.687   0.059  12.857 -0.3675  3.1675 -1.7186
 5399SOL     OW27655   0.547   1.222   7.818 -0.3897  0.0860  0.6832
 5399SOL    HW127656   0.470   1.188   7.772 -0.2923  1.7850 -0.7384
 5399SOL    HW227657   0.564   1.301   7.766 -0.3224 -1.2568 -1.3200
 5400SOL     OW27658   0.298   0.801   5.797  0.2791  0.5188 -0.3995
 5400SOL    HW127659   0.284   0.869   5.731 -1.3170  1.5828  1.0498
 5400SOL    HW227660   0.286   0.846   5.880 -0.5619 -1.4518  0.5369
 5401SOL     OW27661   0.170   2.084   8.081  0.8628 -0.0959  0.2343
 5401SOL    HW127662   0.237   2.028   8.041  0.5927 -0.8290  0.8070
 5401SOL    HW227663   0.217   2.117   8.158 -0.1551 -0.0667  0.8491
 5402SOL     OW27664   2.465   0.347   8.920 -0.4251  0.5701 -0.5545
 5402SOL    HW127665   2.473   0.284   8.991  1.5454  2.2461  0.6917
 5402SOL    HW227666   2.482   0.436   8.949 -0.2166  0.5193 -0.5223
 5403SOL     OW27667   2.206   0.475   1.389 -0.2240 -0.5115 -0.6886
 5403SOL    HW127668   2.265   0.454   1.317  0.4559 -2.7773  0.5034
 5403SOL    HW227669   2.151   0.397   1.394  1.1593 -1.4953 -0.5200
 5404SOL     OW27670   4.268   3.390  17.427  0.1301 -0.0701 -0.3065
 5404SOL    HW127671   4.345   3.345  17.393  0.4446  0.7251 -0.6604
 5404SOL    HW227672   4.209   3.317  17.410  0.7927 -0.2040 -1.9974
 5405SOL     OW27673   3.069   1.167   7.466  0.4701 -0.3205  0.2159
 5405SOL    HW127674   3.081   1.075   7.441  0.5343 -0.6096  1.3295
 5405SOL    HW227675   3.159   1.180   7.496 -1.2752  0.0231  5.1543
 5406SOL     OW27676   1.873   0.819  14.795  0.1496  0.2947 -0.1121
 5406SOL    HW127677   1.869   0.724  14.791  2.2469  0.2012 -0.0350
 5406SOL    HW227678   1.942   0.844  14.734 -1.0785  2.5150 -0.5928
 5407SOL     OW27679   3.996   4.648   6.039  0.2915 -0.2587 -0.1619
 5407SOL    HW127680   4.035   4.725   6.081 -0.0997  0.9846 -2.0239
 5407SOL    HW227681   3.902   4.664   6.048  0.2543  0.5947 -1.8958
 5408SOL     OW27682   0.567   1.303   4.531  0.1249 -0.6501 -0.0334
 5408SOL    HW127683   0.572   1.355   4.451 -2.0625  0.1275  0.3429
 5408SOL    HW227684   0.614   1.224   4.502  5.0569  2.0299  0.6813
 5409SOL     OW27685   0.872   1.266   3.812 -0.1747 -0.0420 -0.7504
 5409SOL    HW127686   0.809   1.325   3.853  0.6111  1.7515 -2.1243
 5409SOL    HW227687   0.816   1.192   3.786 -1.0802 -0.2654  1.8832
 5410SOL     OW27688   1.438   1.400   4.050 -0.2188  0.5488  0.5391
 5410SOL    HW127689   1.498   1.449   4.106  0.6440  0.5780 -0.3978
 5410SOL    HW227690   1.461   1.313   4.084 -0.3510 -0.0054 -0.7613
 5411SOL     OW27691   3.761   2.619  14.749  0.0633  0.2974 -0.1749
 5411SOL    HW127692   3.773   2.525  14.757  1.9077  0.6714  1.5115
 5411SOL    HW227693   3.833   2.651  14.803 -1.5712  0.0487  2.1794
 5412SOL     OW27694   1.521   4.649  16.541 -0.3232 -0.3928  0.1769
 5412SOL    HW127695   1.511   4.598  16.622  3.2780 -1.3052  0.0418
 5412SOL    HW227696   1.451   4.608  16.489 -2.0931  1.8085  0.8021
 5413SOL     OW27697   2.515   0.847  15.447  0.4852  0.0810 -0.2135
 5413SOL    HW127698   2.503   0.933  15.407 -0.9858  0.0694  0.2070
 5413SOL    HW227699   2.430   0.805  15.447  1.1210 -1.1800 -1.5458
 5414SOL     OW27700   2.435   0.593   9.632  0.2211 -0.0428 -0.6156
 5414SOL    HW127701   2.527   0.616   9.624  0.9890 -3.3665 -1.5259
 5414SOL    HW227702   2.443   0.509   9.678  1.8405  0.8222  0.6484
 5415SOL     OW27703   2.503   0.017   8.273  0.3693 -0.1549  0.2280
 5415SOL    HW127704   2.566   0.050   8.338  0.4035 -0.7870  0.5119
 5415SOL    HW227705   2.469   0.100   8.239  0.3041 -0.0947  0.4422
 5416SOL     OW27706   2.919   4.344  17.102  0.1427  0.0620  0.1322
 5416SOL    HW127707   2.967   4.425  17.087 -0.9362  0.5319 -0.8120
 5416SOL    HW227708   2.835   4.388  17.095 -2.2290 -4.4793 -0.1584
 5417SOL     OW27709   1.670   1.496   7.123 -0.0055  0.2264 -0.2927
 5417SOL    HW127710   1.744   1.441   7.098  1.3006  0.9955  1.9099
 5417SOL    HW227711   1.680   1.566   7.059 -2.1225  0.7990  0.0239
 5418SOL     OW27712   4.250   1.189   6.870  0.4605  0.2192 -0.4268
 5418SOL    HW127713   4.243   1.100   6.837 -0.0393  0.1421 -0.1143
 5418SOL    HW227714   4.172   1.228   6.830 -0.9881 -1.8642  0.3881
 5419SOL     OW27715   1.364   2.469   5.676 -0.5781 -0.0915  0.1994
 5419SOL    HW127716   1.316   2.446   5.597  1.2746 -1.0773 -0.6474
 5419SOL    HW227717   1.305   2.457   5.751  1.4156  0.5993  1.8805
 5420SOL     OW27718   4.581   0.961  15.731  0.4051 -0.2672 -0.0736
 5420SOL    HW127719   4.492   0.933  15.708  0.5796  0.5368 -1.6696
 5420SOL    HW227720   4.622   0.890  15.682 -0.5070 -0.1123 -1.0453
 5421SOL     OW27721   3.798   0.761   6.442  0.2819 -0.6365  0.5573
 5421SOL    HW127722   3.711   0.802   6.438  0.0834 -1.0038  1.0889
 5421SOL    HW227723   3.805   0.746   6.537 -1.2413  1.6288  1.0456
 5422SOL     OW27724   0.370   1.222   5.468  0.1553  0.4026 -0.0521
 5422SOL    HW127725   0.343   1.313   5.453 -3.5028 -0.8319 -0.9290
 5422SOL    HW227726   0.419   1.202   5.389  0.4220  1.3870 -0.1434
 5423SOL     OW27727   2.900   0.586   7.243  0.4615 -0.3311 -0.1400
 5423SOL    HW127728   2.902   0.609   7.336  0.5082  0.7529 -0.4098
 5423SOL    HW227729   2.811   0.552   7.237 -0.1987  1.3643  0.0717
 5424SOL     OW27730   1.283   2.163   2.014 -0.3324 -0.1391  0.3423
 5424SOL    HW127731   1.291   2.252   1.979  0.6545 -0.2344  0.3353
 5424SOL    HW227732   1.312   2.114   1.937 -0.6537  0.5317 -0.2138
 5425SOL     OW27733   4.092   3.193  17.375  0.1584 -0.0857  0.4587
 5425SOL    HW127734   4.117   3.140  17.299 -0.4838 -0.8800  0.7968
 5425SOL    HW227735   4.036   3.133  17.424  0.3428  0.1605  0.9760
 5426SOL     OW27736   0.004   3.157   9.519 -0.3890 -0.4060  1.0960
 5426SOL    HW127737   4.718   3.127   9.610 -0.5339 -2.2469  0.4712
 5426SOL    HW227738   4.638   3.134   9.502 -0.2666  0.6342 -0.9374
 5427SOL     OW27739   3.107   3.795   1.563 -0.3471 -0.0863 -0.2127
 5427SOL    HW127740   3.058   3.875   1.547  2.2400  1.6767  0.5394
 5427SOL    HW227741   3.163   3.792   1.485  0.5838 -1.6433  0.5066
 5428SOL     OW27742   0.242   2.737  10.494 -0.1138  0.4306 -0.3785
 5428SOL    HW127743   0.241   2.691  10.410  1.6363  1.4335 -0.9497
 5428SOL    HW227744   0.207   2.666  10.548  1.5050 -1.0080 -1.1734
 5429SOL     OW27745   4.479   3.817   0.741 -0.5879  0.3136  0.3282
 5429SOL    HW127746   4.486   3.722   0.735  0.2951  0.4108 -0.1197
 5429SOL    HW227747   4.535   3.838   0.816 -2.1082  3.1648  0.6464
 5430SOL     OW27748   0.413   4.043   3.500  0.0086  0.0457  0.2644
 5430SOL    HW127749   0.387   3.980   3.433 -1.1307 -0.9006  1.5885
 5430SOL    HW227750   0.473   3.985   3.548 -0.3931 -0.1017  0.5792
 5431SOL     OW27751   0.886   3.290   2.428 -0.7325 -0.5337 -0.0792
 5431SOL    HW127752   0.977   3.311   2.407 -0.5618 -2.0994 -0.9017
 5431SOL    HW227753   0.889   3.227   2.501 -0.4798 -1.6583 -1.0531
 5432SOL     OW27754   2.426   2.396  14.928  0.0697 -0.0204 -0.0917
 5432SOL    HW127755   2.476   2.467  14.968 -0.2448  0.5392 -0.7001
 5432SOL    HW227756   2.386   2.364  15.009  1.1833  0.5549  0.6727
 5433SOL     OW27757   2.230   2.932   1.659  0.3125  0.1170  0.3740
 5433SOL    HW127758   2.172   2.857   1.669  1.8190 -1.2631 -1.1199
 5433SOL    HW227759   2.272   2.917   1.574  0.2054 -0.2240  0.3837
 5434SOL     OW27760   1.389   1.633  17.283  0.8753  0.0850 -0.0873
 5434SOL    HW127761   1.482   1.636  17.305  0.5992 -1.7012  1.3578
 5434SOL    HW227762   1.398   1.557  17.225  0.1339 -0.5779  0.6569
 5435SOL     OW27763   1.792   1.195   4.497  0.3445 -0.2529  0.0138
 5435SOL    HW127764   1.770   1.287   4.511 -1.0529 -0.6841  0.6969
 5435SOL    HW227765   1.857   1.186   4.567  0.4252 -0.5897 -0.1042
 5436SOL     OW27766   0.131   3.157   4.157  0.0533 -0.3099  0.4358
 5436SOL    HW127767   0.221   3.177   4.183  0.0037  1.1334 -0.4841
 5436SOL    HW227768   0.125   3.191   4.068 -2.0258  1.2981  1.1741
 5437SOL     OW27769   0.244   1.209   8.896 -0.1472  0.2776  0.4993
 5437SOL    HW127770   0.215   1.155   8.970  4.0221 -0.2124  1.7809
 5437SOL    HW227771   0.288   1.144   8.842 -2.1685  0.7397 -1.7176
 5438SOL     OW27772   3.788   1.882  12.344  0.1217 -0.1540 -0.0431
 5438SOL    HW127773   3.809   1.794  12.375  0.7495 -0.8245 -2.3105
 5438SOL    HW227774   3.812   1.939  12.416 -2.5922 -0.6574  1.2541
 5439SOL     OW27775   4.054   2.550   5.864 -0.3130  0.0887 -0.2634
 5439SOL    HW127776   4.131   2.595   5.900 -2.1554  2.3087  0.9420
 5439SOL    HW227777   4.089   2.465   5.839  0.2564  0.0101  0.8022
 5440SOL     OW27778   3.212   0.723   6.945  0.1139 -0.2915 -0.5650
 5440SOL    HW127779   3.172   0.786   7.006  2.0985  2.2108 -1.8483
 5440SOL    HW227780   3.162   0.646   6.972 -1.7289 -0.1332 -3.4593
 5441SOL     OW27781   2.078   3.222   1.593 -0.0226  0.5717  0.4764
 5441SOL    HW127782   2.036   3.170   1.662 -0.5363  0.1961 -0.1173
 5441SOL    HW227783   2.126   3.290   1.640  1.2080 -1.2307  1.8253
 5442SOL     OW27784   3.032   3.545   3.656 -0.4781  0.2147 -0.6450
 5442SOL    HW127785   3.053   3.467   3.708  0.5075  2.0231  1.6896
 5442SOL    HW227786   2.956   3.579   3.703 -0.8913  0.6016 -1.5991
 5443SOL     OW27787   2.732   3.120   8.307 -0.6346  0.6071  0.2666
 5443SOL    HW127788   2.679   3.168   8.244  1.7261 -0.8422 -2.8054
 5443SOL    HW227789   2.665   3.076   8.358 -0.8103 -0.9296 -1.3197
 5444SOL     OW27790   0.792   3.607   0.667 -0.0130  0.2559 -0.0728
 5444SOL    HW127791   0.824   3.582   0.581 -0.6775 -1.2355  0.1142
 5444SOL    HW227792   0.764   3.698   0.656 -1.3047  0.0717  1.5198
 5445SOL     OW27793   3.981   1.527   6.229  0.9981 -0.0303 -0.1264
 5445SOL    HW127794   4.011   1.446   6.189 -1.4598  0.9257 -3.8769
 5445SOL    HW227795   3.963   1.581   6.152 -0.9348 -0.5413 -0.0385
 5446SOL     OW27796   0.810   1.056   3.316 -0.2588  0.1288  0.3131
 5446SOL    HW127797   0.880   1.009   3.362  1.2358  2.5235  0.5193
 5446SOL    HW227798   0.750   0.986   3.291 -0.9580  0.9027 -0.1615
 5447SOL     OW27799   0.258   1.883  10.183  0.4231 -0.3973 -0.1816
 5447SOL    HW127800   0.314   1.934  10.123  0.8671  0.0654  0.6191
 5447SOL    HW227801   0.322   1.872  10.253  0.1380 -0.8749  0.0022
 5448SOL     OW27802   1.573   0.677  10.254 -0.5231  0.0397  0.0489
 5448SOL    HW127803   1.605   0.754  10.206 -1.5122  0.8152  0.6364
 5448SOL    HW227804   1.533   0.722  10.329  1.0044  1.9143 -0.2622
 5449SOL     OW27805   0.523   0.262   3.773  0.3360 -0.8885 -0.5747
 5449SOL    HW127806   0.572   0.314   3.837  0.2045  0.5420 -1.6313
 5449SOL    HW227807   0.457   0.328   3.752  0.9092  0.2255  1.0886
 5450SOL     OW27808   3.878   4.227   3.738 -0.3718 -0.3704 -0.1563
 5450SOL    HW127809   3.938   4.282   3.789 -0.1066  1.5279 -2.5080
 5450SOL    HW227810   3.925   4.213   3.656  1.1597  1.3910  0.4124
 5451SOL     OW27811   3.035   3.060  16.594  0.5369  0.6367  0.3940
 5451SOL    HW127812   3.010   3.064  16.686  0.6385 -0.9615  0.4853
 5451SOL    HW227813   3.072   2.975  16.571 -0.3181 -0.1577  1.9764
 5452SOL     OW27814   0.333   0.323  13.514  0.9555 -0.2317  0.1481
 5452SOL    HW127815   0.331   0.419  13.510 -1.0966 -0.2988 -0.4367
 5452SOL    HW227816   0.263   0.292  13.457  0.0750  2.3469 -0.1896
 5453SOL     OW27817   1.523   3.133   2.212  0.3142 -0.3457  0.1871
 5453SOL    HW127818   1.540   3.221   2.177  2.4073 -1.1378 -0.8054
 5453SOL    HW227819   1.483   3.092   2.136  0.2274 -0.2776  0.1965
 5454SOL     OW27820   1.150   0.453   9.390  0.0443 -0.3564  0.4318
 5454SOL    HW127821   1.157   0.490   9.302 -1.3995  0.2173  0.5593
 5454SOL    HW227822   1.188   0.367   9.373 -1.3277 -1.0757  1.0441
 5455SOL     OW27823   3.770   2.169   3.560 -0.0977 -0.1984 -0.0978
 5455SOL    HW127824   3.716   2.178   3.638 -1.4434  0.0393 -1.0410
 5455SOL    HW227825   3.855   2.157   3.602 -0.3027 -1.0065  0.0828
 5456SOL     OW27826   1.700   1.181   1.119 -0.5524 -0.2210  0.1807
 5456SOL    HW127827   1.778   1.135   1.150  0.6191  0.4648 -1.7341
 5456SOL    HW227828   1.660   1.186   1.206 -1.3002 -3.3472  0.0025
 5457SOL     OW27829   0.622   4.585   7.936 -0.6077 -0.0174  0.1498
 5457SOL    HW127830   0.588   4.588   8.026  1.8052 -2.8458  1.1236
 5457SOL    HW227831   0.567   4.521   7.891 -0.0907 -0.6827  0.4849
 5458SOL     OW27832   3.917   4.156   6.895  0.1925 -0.2569  0.3156
 5458SOL    HW127833   3.930   4.246   6.925 -0.5540  0.0658 -0.3353
 5458SOL    HW227834   3.822   4.151   6.903  0.1229  0.7475  0.1970
 5459SOL     OW27835   1.456   2.294  12.904 -0.5131 -0.3430 -0.1680
 5459SOL    HW127836   1.467   2.359  12.974 -0.4003 -1.1484  0.5566
 5459SOL    HW227837   1.548   2.277  12.882 -0.3247 -0.5413  0.8078
 5460SOL     OW27838   0.878   4.125   6.747  0.0544 -0.6795 -0.3640
 5460SOL    HW127839   0.865   4.052   6.687 -1.5166 -0.4820 -0.2624
 5460SOL    HW227840   0.844   4.092   6.830  2.3037  0.0148  0.8456
 5461SOL     OW27841   2.140   0.459   1.007 -0.1222  0.6621  0.2418
 5461SOL    HW127842   2.062   0.420   0.967 -0.0726 -0.2335  1.0387
 5461SOL    HW227843   2.196   0.467   0.930  2.7585  1.6724  2.4158
 5462SOL     OW27844   2.036   1.039  16.057 -0.3980  0.3459  0.2234
 5462SOL    HW127845   2.096   0.973  16.092 -0.2735 -0.6622 -1.8781
 5462SOL    HW227846   2.029   1.096  16.134 -0.7157 -1.9253  1.8624
 5463SOL     OW27847   4.632   1.492   6.956  0.0524  0.2352  0.0921
 5463SOL    HW127848   4.554   1.472   6.905  2.0892 -3.5688 -1.5147
 5463SOL    HW227849   4.657   1.408   6.994  1.5002  0.9605  0.7798
 5464SOL     OW27850   2.686   0.565   1.688 -0.4193 -0.6506 -0.2514
 5464SOL    HW127851   2.660   0.512   1.612 -1.2306  0.6166 -0.8548
 5464SOL    HW227852   2.728   0.497   1.741  0.4097  0.6718  0.7849
 5465SOL     OW27853   1.554   1.339   8.675 -0.4024 -0.3931  0.1570
 5465SOL    HW127854   1.521   1.361   8.762  0.6116 -0.8716  0.6546
 5465SOL    HW227855   1.478   1.291   8.641 -1.2273  0.7541  0.3317
 5466SOL     OW27856   2.340   1.662   6.083 -0.1574  0.7966 -0.1956
 5466SOL    HW127857   2.282   1.641   6.010 -1.5339  0.4617  0.9879
 5466SOL    HW227858   2.290   1.736   6.118 -1.9995  1.3456 -4.0195
 5467SOL     OW27859   1.559   0.433   2.319 -0.1661  0.4731 -0.0610
 5467SOL    HW127860   1.497   0.399   2.254  0.7572  1.4501 -1.4583
 5467SOL    HW227861   1.519   0.409   2.402  2.5715  1.1344  1.4338
 5468SOL     OW27862   1.243   1.928   6.638 -0.0373 -0.0327  0.0248
 5468SOL    HW127863   1.210   1.933   6.548  0.3893 -1.6931 -0.2214
 5468SOL    HW227864   1.334   1.901   6.624 -0.7986 -1.8569 -1.2670
 5469SOL     OW27865   2.010   2.809  13.768  0.2644  0.2853  0.0718
 5469SOL    HW127866   1.983   2.755  13.693  0.0331  0.5973 -0.0677
 5469SOL    HW227867   1.969   2.892  13.744 -0.3454 -0.0537 -0.0795
 5470SOL     OW27868   0.650   3.254   3.937 -0.3530 -0.4522 -0.4264
 5470SOL    HW127869   0.689   3.273   3.851  1.7950  0.1229  0.6855
 5470SOL    HW227870   0.725   3.215   3.980 -2.0954  0.7341  3.6289
 5471SOL     OW27871   0.998   2.226   5.244  0.5175  0.4604 -0.3456
 5471SOL    HW127872   0.922   2.237   5.188 -0.6205  2.0319  1.5400
 5471SOL    HW227873   1.025   2.317   5.256  1.9471 -0.0186  0.1777
 5472SOL     OW27874   4.376   0.592  16.268 -0.7374  0.5142  0.1865
 5472SOL    HW127875   4.439   0.546  16.324 -1.2689  0.5517  0.8092
 5472SOL    HW227876   4.358   0.521  16.207 -2.1240 -0.4074  1.6849
 5473SOL     OW27877   1.251   3.891   8.159 -0.0475 -0.2350 -0.1790
 5473SOL    HW127878   1.213   3.832   8.224 -1.5015  3.4535  2.3290
 5473SOL    HW227879   1.191   3.965   8.167 -0.8324 -1.1223  2.0632
 5474SOL     OW27880   3.209   4.356   4.445 -0.0692 -0.5224  0.5815
 5474SOL    HW127881   3.238   4.266   4.460  1.4831 -0.3616 -1.3674
 5474SOL    HW227882   3.286   4.413   4.448  0.2412 -0.8927 -0.2182
 5475SOL     OW27883   0.188   1.643   2.673 -0.2856 -0.7519 -0.0102
 5475SOL    HW127884   0.245   1.603   2.608 -0.5953 -1.2628  0.0362
 5475SOL    HW227885   0.100   1.643   2.635 -0.8065 -3.1403  1.2206
 5476SOL     OW27886   0.704   2.579   1.873 -0.7063  0.0774 -0.3187
 5476SOL    HW127887   0.649   2.514   1.916  0.6861 -1.2880 -0.6028
 5476SOL    HW227888   0.672   2.658   1.918 -1.0820 -0.3072  0.0833
 5477SOL     OW27889   4.140   0.442   8.143  0.2125 -0.1063 -0.1345
 5477SOL    HW127890   4.163   0.357   8.181  0.7721 -0.4923 -1.3421
 5477SOL    HW227891   4.226   0.459   8.104  1.2690 -2.0372  1.2702
 5478SOL     OW27892   3.524   3.071  10.631 -0.3731  0.0925  0.4803
 5478SOL    HW127893   3.463   3.023  10.687 -0.4937 -0.7423 -0.3692
 5478SOL    HW227894   3.582   3.107  10.697  0.3611  1.2931 -0.8160
 5479SOL     OW27895   1.046   4.029   1.394 -0.0026  0.3310 -0.1213
 5479SOL    HW127896   1.106   4.088   1.439 -1.7471  1.5849  0.5558
 5479SOL    HW227897   1.039   4.067   1.306 -0.7914 -2.2308 -1.1609
 5480SOL     OW27898   1.675   0.901   5.348  0.1345 -0.1169 -0.0374
 5480SOL    HW127899   1.651   0.808   5.353  1.8110 -0.5256  0.6602
 5480SOL    HW227900   1.744   0.897   5.414 -0.3957 -0.7396  0.4831
 5481SOL     OW27901   1.394   1.874  11.234  1.3439 -0.5402 -0.2442
 5481SOL    HW127902   1.464   1.811  11.251 -1.0950 -2.8863  1.1711
 5481SOL    HW227903   1.441   1.944  11.188 -1.2189  2.6942  2.0883
 5482SOL     OW27904   1.172   1.725  14.604  0.9274  0.0944 -0.1234
 5482SOL    HW127905   1.144   1.715  14.695  0.6892  1.2412 -0.0717
 5482SOL    HW227906   1.101   1.680  14.559 -0.7415  1.3522  1.2578
 5483SOL     OW27907   3.253   2.078  14.886  0.3966  0.1900 -0.3161
 5483SOL    HW127908   3.248   2.082  14.982  0.7698  3.0016 -0.4106
 5483SOL    HW227909   3.159   2.089  14.869  0.5918  1.1703 -0.7765
 5484SOL     OW27910   3.003   4.432  11.491  0.0656 -0.1060 -0.2064
 5484SOL    HW127911   2.958   4.385  11.561  1.3095  1.3190  1.5224
 5484SOL    HW227912   3.063   4.494  11.531  0.1984  0.8665 -1.8860
 5485SOL     OW27913   2.215   3.103   8.213  0.7804 -0.3493 -0.0206
 5485SOL    HW127914   2.232   3.183   8.163 -0.7882 -0.3806 -0.5953
 5485SOL    HW227915   2.294   3.098   8.268  1.1939 -0.8127 -0.6569
 5486SOL     OW27916   1.039   0.570  14.059  0.0780 -0.4640 -0.3728
 5486SOL    HW127917   1.033   0.584  13.965 -1.7059  0.6682 -0.1116
 5486SOL    HW227918   1.068   0.658  14.081  1.6724 -0.5791 -2.0438
 5487SOL     OW27919   4.205   1.360   5.503  0.0326 -0.1312 -0.1000
 5487SOL    HW127920   4.266   1.401   5.564  0.1481 -1.6665  0.8236
 5487SOL    HW227921   4.150   1.435   5.481 -0.5417 -0.3843  0.4419
 5488SOL     OW27922   1.060   1.671  14.827 -0.0030  0.9510  0.5780
 5488SOL    HW127923   0.998   1.708  14.890 -3.3887 -3.0482 -0.3856
 5488SOL    HW227924   1.139   1.710  14.864  1.0271 -2.9202  2.4504
 5489SOL     OW27925   1.264   0.369   4.543 -0.1146 -0.0754  0.5534
 5489SOL    HW127926   1.214   0.449   4.525  1.6291  1.1280  0.9755
 5489SOL    HW227927   1.246   0.353   4.635  3.5967 -1.6754  1.0176
 5490SOL     OW27928   2.143   3.406   0.214 -0.0042  0.1482 -0.1911
 5490SOL    HW127929   2.225   3.358   0.219  0.3913  0.7795 -0.6820
 5490SOL    HW227930   2.161   3.490   0.172 -2.2373 -0.2814 -2.0385
 5491SOL     OW27931   4.158   0.888   7.531 -0.5833 -0.5678  0.5617
 5491SOL    HW127932   4.133   0.799   7.554  1.8094 -1.3920 -0.0307
 5491SOL    HW227933   4.132   0.936   7.609 -0.6008  1.1326 -0.4763
 5492SOL     OW27934   4.241   1.934  16.361 -0.2050 -0.4712 -0.2863
 5492SOL    HW127935   4.233   1.852  16.410 -1.1207 -1.3567 -1.9385
 5492SOL    HW227936   4.296   1.992  16.414 -0.8425 -0.3665  0.2585
 5493SOL     OW27937   4.089   0.366   9.503 -0.3992 -0.4479  0.4835
 5493SOL    HW127938   4.055   0.418   9.431 -1.0588  0.3657  1.3854
 5493SOL    HW227939   4.180   0.393   9.517 -0.0863 -0.9090 -0.6307
 5494SOL     OW27940   2.014   1.788  13.613 -0.1189 -0.6693  0.6772
 5494SOL    HW127941   1.930   1.783  13.566  1.0494 -1.4293 -1.3214
 5494SOL    HW227942   2.002   1.738  13.693 -1.5066 -0.8942  0.3300
 5495SOL     OW27943   1.802   2.546   8.014  0.4800  0.3746 -0.0841
 5495SOL    HW127944   1.733   2.613   8.010 -1.5123 -1.6944 -0.4401
 5495SOL    HW227945   1.803   2.525   7.921 -0.4320  0.1164 -0.0388
 5496SOL     OW27946   1.003   2.908   7.323 -0.5560  0.0348 -0.7679
 5496SOL    HW127947   0.971   2.995   7.344  1.2030  0.5234 -0.1088
 5496SOL    HW227948   1.012   2.906   7.227 -1.7832  1.3352 -0.9075
 5497SOL     OW27949   0.070   2.610   5.151  0.1254  0.3141 -0.1202
 5497SOL    HW127950   0.161   2.639   5.163  0.1072 -0.6068  2.2026
 5497SOL    HW227951   0.082   2.538   5.089  1.4138 -0.5562  1.1395
 5498SOL     OW27952   2.298   2.286  12.384 -0.2428  0.3499 -0.6893
 5498SOL    HW127953   2.336   2.240  12.459 -0.4816  0.3339 -0.5795
 5498SOL    HW227954   2.376   2.301  12.330 -0.2001 -0.4409 -0.8500
 5499SOL     OW27955   2.058   3.209   9.818 -0.0388 -0.4898 -0.5092
 5499SOL    HW127956   2.037   3.289   9.867 -0.0660 -0.3768 -0.7035
 5499SOL    HW227957   1.987   3.156   9.851  0.7850 -1.0697  0.3302
 5500SOL     OW27958   1.164   3.625   8.230  0.1004 -1.1950 -0.4791
 5500SOL    HW127959   1.074   3.639   8.259  0.9514  1.3926  0.9066
 5500SOL    HW227960   1.151   3.545   8.180  0.5288 -0.8187 -1.1868
 5501SOL     OW27961   1.540   2.136   2.190 -0.6566  0.1019  0.6325
 5501SOL    HW127962   1.522   2.209   2.130 -0.2017  0.1021  0.4958
 5501SOL    HW227963   1.450   2.106   2.206 -0.9073  0.6419  0.2355
 5502SOL     OW27964   3.258   1.525   9.776  0.5205  0.1420 -0.3363
 5502SOL    HW127965   3.224   1.515   9.864 -0.1629 -1.0353 -0.7344
 5502SOL    HW227966   3.177   1.533   9.726  0.8414  0.4723 -0.8047
 5503SOL     OW27967   2.377   4.048  14.308 -0.3573 -0.0679 -0.3023
 5503SOL    HW127968   2.439   4.029  14.238  0.1826  1.7761 -0.3463
 5503SOL    HW227969   2.406   4.134  14.340  1.8316 -0.9719  0.0810
 5504SOL     OW27970   2.250   4.024   7.294 -0.0044  0.4606  0.1143
 5504SOL    HW127971   2.167   4.018   7.248  0.7346  0.8255 -1.2500
 5504SOL    HW227972   2.229   4.032   7.387 -1.4667  0.6537 -0.2427
 5505SOL     OW27973   0.123   1.922   1.376 -0.2638  0.3491  0.2671
 5505SOL    HW127974   0.104   1.902   1.468  0.4751  1.1078  0.5811
 5505SOL    HW227975   0.155   2.012   1.377  0.1868  0.1910 -0.1842
 5506SOL     OW27976   2.984   4.177  10.457  0.0343  0.3675  0.0480
 5506SOL    HW127977   2.915   4.242  10.466 -0.1987  0.0053  0.8415
 5506SOL    HW227978   2.927   4.104  10.478 -1.0279  0.9947 -0.6544
 5507SOL     OW27979   4.206   0.829   5.337  0.4947  0.1872 -0.7320
 5507SOL    HW127980   4.202   0.919   5.370 -1.8542  0.5647 -2.1054
 5507SOL    HW227981   4.301   0.815   5.341  0.3772 -0.0525  1.7525
 5508SOL     OW27982   1.655   1.252   2.593 -0.4891  0.3975 -0.3443
 5508SOL    HW127983   1.730   1.248   2.534 -0.2504  2.3157 -0.1505
 5508SOL    HW227984   1.639   1.345   2.603  0.7655  0.7521 -1.6276
 5509SOL     OW27985   2.736   3.659  10.980  0.3415 -0.1418  0.1617
 5509SOL    HW127986   2.683   3.705  10.916  1.5674 -0.8425 -1.3580
 5509SOL    HW227987   2.824   3.697  10.972  0.5578 -0.5531  0.5413
 5510SOL     OW27988   2.842   1.961  12.075 -0.3080  0.7902 -0.0162
 5510SOL    HW127989   2.898   1.961  12.153 -1.2444 -1.9700  0.6488
 5510SOL    HW227990   2.778   1.898  12.109 -0.0632  1.2411  1.3051
 5511SOL     OW27991   4.230   3.713   3.482 -0.3073  0.4054 -0.5046
 5511SOL    HW127992   4.186   3.772   3.421 -0.5278  0.0540 -0.6853
 5511SOL    HW227993   4.305   3.703   3.424  1.3134  0.1472  1.6368
 5512SOL     OW27994   1.532   1.945  14.063  0.9520 -0.0040  0.5780
 5512SOL    HW127995   1.531   1.850  14.058  0.8229  0.0066  0.3963
 5512SOL    HW227996   1.627   1.955  14.060  0.7702  1.7270  0.3026
 5513SOL     OW27997   2.546   1.175   1.621  0.0102 -0.3031  0.8404
 5513SOL    HW127998   2.555   1.197   1.714 -1.9597 -0.2054  1.0168
 5513SOL    HW227999   2.610   1.227   1.573 -2.0333  2.0747  0.6731
 5514SOL     OW28000   3.284   1.800   2.600 -0.0689  0.0045 -0.5797
 5514SOL    HW128001   3.189   1.800   2.586 -0.3555 -0.7737  1.3521
 5514SOL    HW228002   3.324   1.805   2.513 -2.6197  1.3159 -1.6916
 5515SOL     OW28003   2.031   1.054  13.872 -0.8345 -0.4633 -0.0380
 5515SOL    HW128004   1.951   1.005  13.854 -0.4582 -1.3583  0.6856
 5515SOL    HW228005   2.049   1.047  13.966  0.1522  0.7330 -0.1470
 5516SOL     OW28006   1.136   1.074   9.359 -0.2439  0.4490 -0.5707
 5516SOL    HW128007   1.117   1.168   9.354  1.0738  0.8593  2.1025
 5516SOL    HW228008   1.139   1.045   9.451 -1.1966  2.3673  0.0756
 5517SOL     OW28009   4.715   4.054   5.515  0.3643 -0.0247 -0.3545
 5517SOL    HW128010   4.646   4.041   5.451  2.4703 -3.2427 -1.9733
 5517SOL    HW228011   0.046   4.126   5.488 -0.3587  0.1291 -1.4186
 5518SOL     OW28012   0.932   0.479   8.764 -0.7723 -0.0143 -0.4236
 5518SOL    HW128013   0.893   0.520   8.842  1.6008 -0.7298  1.1486
 5518SOL    HW228014   1.025   0.470   8.785 -0.2862 -0.3064 -2.7589
 5519SOL     OW28015   4.345   1.208   8.653  0.2560  0.3780  0.3548
 5519SOL    HW128016   4.347   1.297   8.688 -0.1087  1.3564 -2.1481
 5519SOL    HW228017   4.259   1.212   8.611  1.1129 -0.7743 -1.4869
 5520SOL     OW28018   3.465   1.116   6.552  0.0255 -0.2403  0.1294
 5520SOL    HW128019   3.471   1.210   6.569 -0.0486 -0.4991  1.6613
 5520SOL    HW228020   3.384   1.110   6.501  1.4229 -2.3156 -1.8171
 5521SOL     OW28021   2.522   3.260   4.175  0.3996 -0.0770  0.0757
 5521SOL    HW128022   2.546   3.295   4.089 -2.0042  1.2300 -0.0897
 5521SOL    HW228023   2.590   3.283   4.239  1.3577 -3.3365  0.2169
 5522SOL     OW28024   0.500   3.711   4.056 -0.4471 -0.4200 -0.7461
 5522SOL    HW128025   0.407   3.735   4.054  0.1525  1.9141 -0.2072
 5522SOL    HW228026   0.528   3.751   3.973  0.6386 -0.1297 -0.2332
 5523SOL     OW28027   1.862   1.820   1.890  0.0398  0.5750 -0.1197
 5523SOL    HW128028   1.954   1.830   1.915  0.9084 -0.3595 -2.8916
 5523SOL    HW228029   1.835   1.911   1.903 -1.1559  0.2293 -0.2005
 5524SOL     OW28030   2.377   4.452   0.104 -0.5589  0.2092  0.3474
 5524SOL    HW128031   2.422   4.447   0.020 -0.2294  2.4337  0.3882
 5524SOL    HW228032   2.375   4.361   0.135  0.3088  0.5802  1.4948
 5525SOL     OW28033   0.613   0.990   0.897 -0.0092  0.4050  0.1318
 5525SOL    HW128034   0.699   1.029   0.912  0.3086 -0.7337  1.2129
 5525SOL    HW228035   0.624   0.914   0.954  1.6222 -0.2388 -1.0350
 5526SOL     OW28036   3.604   1.597   2.575 -0.2308 -0.4050  0.1656
 5526SOL    HW128037   3.616   1.503   2.582 -0.9758 -0.6260 -1.5587
 5526SOL    HW228038   3.606   1.627   2.666 -1.2871 -1.4120  0.5094
 5527SOL     OW28039   1.176   1.377   9.606  0.1556 -0.1470  0.1075
 5527SOL    HW128040   1.259   1.331   9.591  0.9470  1.2390  0.1588
 5527SOL    HW228041   1.126   1.326   9.669  1.1729 -2.1578 -0.7189
 5528SOL     OW28042   2.611   3.443   1.808  0.2132  0.5284  0.2805
 5528SOL    HW128043   2.677   3.383   1.774 -1.6135 -0.9163 -0.7026
 5528SOL    HW228044   2.668   3.519   1.825  1.1528  0.2443 -1.5357
 5529SOL     OW28045   0.125   1.444  12.070  0.2241 -0.0449 -0.0677
 5529SOL    HW128046   0.165   1.389  12.002  0.2403  1.2219 -1.0855
 5529SOL    HW228047   0.133   1.530  12.028  2.5442 -0.4817 -0.5411
 5530SOL     OW28048   4.109   4.648   2.392  0.1071 -0.0036 -0.2130
 5530SOL    HW128049   4.098   4.687   2.305  1.5828  0.9592  0.0289
 5530SOL    HW228050   4.021   4.614   2.409  0.2833  0.2198  1.0808
 5531SOL     OW28051   0.980   3.743  13.223  0.1651 -0.1209  0.0431
 5531SOL    HW128052   1.011   3.812  13.163  0.0839 -0.2087 -0.1014
 5531SOL    HW228053   0.942   3.680  13.161 -0.6123 -0.2125  0.6125
 5532SOL     OW28054   3.298   3.639   5.848 -0.1165  0.0904 -0.1256
 5532SOL    HW128055   3.270   3.615   5.936  0.5087  0.5340  0.1899
 5532SOL    HW228056   3.288   3.559   5.797 -1.7322 -1.5408  2.7585
 5533SOL     OW28057   3.483   3.026   3.560 -0.2288  0.3185  0.0790
 5533SOL    HW128058   3.445   2.981   3.636 -0.3185 -1.0580 -0.7715
 5533SOL    HW228059   3.568   3.057   3.591  0.5813 -1.0318 -0.8149
 5534SOL     OW28060   2.217   2.608   0.131  0.0009  0.1633  0.0934
 5534SOL    HW128061   2.266   2.569   0.204  2.2177  1.4151 -0.7408
 5534SOL    HW228062   2.185   2.693   0.160  1.1167  0.8000 -0.5546
 5535SOL     OW28063   2.988   2.568   6.044 -0.3730  0.3009 -0.4911
 5535SOL    HW128064   2.923   2.631   6.076  0.4711  1.1136 -0.3765
 5535SOL    HW228065   3.072   2.607   6.067 -0.3687  0.1303 -0.2156
 5536SOL     OW28066   3.920   0.231   8.745  0.1501  0.1258  0.0701
 5536SOL    HW128067   3.918   0.327   8.735  1.2479  0.0665 -0.7491
 5536SOL    HW228068   3.970   0.197   8.671  2.0934  0.7941  1.0641
 5537SOL     OW28069   3.616   3.081   6.197 -0.4382 -0.6580 -0.4768
 5537SOL    HW128070   3.660   3.035   6.269 -0.6577 -0.7453 -0.4005
 5537SOL    HW228071   3.689   3.115   6.144 -0.6144  0.4029 -0.0460
 5538SOL     OW28072   4.256   1.055  14.518  0.8753 -0.1133  0.0235
 5538SOL    HW128073   4.273   1.131  14.463  2.6767  0.5487  1.4834
 5538SOL    HW228074   4.342   1.014  14.527  1.5727  0.8601 -2.2148
 5539SOL     OW28075   2.608   0.624   9.304  0.5269  0.6092  0.0694
 5539SOL    HW128076   2.673   0.675   9.257  0.9362 -0.1122 -0.1461
 5539SOL    HW228077   2.655   0.602   9.384  0.1807 -0.0903  0.0776
 5540SOL     OW28078   0.466   1.652   9.191 -0.0468  0.4117  0.1922
 5540SOL    HW128079   0.511   1.589   9.246 -2.2552 -0.0255  1.4923
 5540SOL    HW228080   0.397   1.600   9.150 -1.9540  1.5019  2.0228
 5541SOL     OW28081   2.845   4.518  13.058  0.2749  0.7323 -0.0086
 5541SOL    HW128082   2.893   4.481  13.132  0.0906  0.0876 -0.2174
 5541SOL    HW228083   2.755   4.504  13.087  0.5030  1.6384  1.1524
 5542SOL     OW28084   2.355   0.779  14.287 -0.1628  0.0196  0.0624
 5542SOL    HW128085   2.357   0.697  14.335  0.4619 -0.0603 -0.0940
 5542SOL    HW228086   2.316   0.834  14.354 -2.4181  0.3102 -1.4967
 5543SOL     OW28087   0.483   3.611   9.674 -0.8735 -0.0985  0.9556
 5543SOL    HW128088   0.527   3.646   9.596 -3.4461 -0.1145 -0.4983
 5543SOL    HW228089   0.395   3.649   9.680 -0.8975 -0.0220  0.1312
 5544SOL     OW28090   3.012   3.899   2.734 -0.1924  0.0163 -0.0835
 5544SOL    HW128091   3.084   3.914   2.795 -0.1916 -0.2283 -0.0270
 5544SOL    HW228092   3.039   3.815   2.697  0.8035 -0.2277  1.2037
 5545SOL     OW28093   1.076   0.866   2.772 -0.5146  0.3419 -0.1584
 5545SOL    HW128094   1.056   0.796   2.834  0.6932  0.5948  0.5183
 5545SOL    HW228095   1.005   0.851   2.710  0.4007  0.7632 -1.3076
 5546SOL     OW28096   3.396   3.757  15.012  0.3702 -0.3003 -0.0287
 5546SOL    HW128097   3.368   3.670  14.982 -0.4878 -0.3559  0.9557
 5546SOL    HW228098   3.446   3.783  14.935  2.1719 -0.0668  1.2457
 5547SOL     OW28099   2.061   0.840   3.321 -0.0497 -0.1493  0.0321
 5547SOL    HW128100   1.997   0.783   3.363  0.2659  0.4501  1.3278
 5547SOL    HW228101   2.065   0.806   3.231  0.2249  2.7539 -1.0464
 5548SOL     OW28102   0.719   4.584   7.033  0.1572  0.8324  0.0024
 5548SOL    HW128103   0.688   4.569   7.122  3.7205 -0.1369  1.0744
 5548SOL    HW228104   0.656   4.530   6.985  1.5733 -0.4055 -0.4725
 5549SOL     OW28105   1.675   0.195   9.302 -0.2442  0.6192  0.2781
 5549SOL    HW128106   1.726   0.134   9.355  0.5039  0.7088 -0.3376
 5549SOL    HW228107   1.690   0.157   9.215 -0.4141 -0.2262  0.6162
 5550SOL     OW28108   3.594   3.664  10.473  0.1132  0.6579 -0.3553
 5550SOL    HW128109   3.557   3.576  10.481 -1.0611  1.1027 -0.8978
 5550SOL    HW228110   3.523   3.718  10.507  0.4296  0.4080  0.7078
 5551SOL     OW28111   0.474   2.412   2.963  0.5759 -0.2958  0.2322
 5551SOL    HW128112   0.465   2.452   2.876 -0.8734  0.4058  0.7106
 5551SOL    HW228113   0.437   2.491   3.003  0.0962 -0.7816  0.7297
 5552SOL     OW28114   0.320   3.245  12.712 -0.4472 -0.5178 -0.0860
 5552SOL    HW128115   0.362   3.311  12.657  0.7819  1.4712  3.2385
 5552SOL    HW228116   0.379   3.169  12.708  1.8504  1.2439  0.5128
 5553SOL     OW28117   3.429   1.014  11.947  0.4460 -0.8364 -0.1083
 5553SOL    HW128118   3.383   0.999  11.865  0.4494 -1.8765  0.0777
 5553SOL    HW228119   3.513   1.048  11.917 -0.4748  1.9375  0.5097
 5554SOL     OW28120   4.087   2.553   8.882 -0.7883 -0.1643 -0.9938
 5554SOL    HW128121   4.116   2.500   8.956  0.5827 -0.8996 -2.0529
 5554SOL    HW228122   4.164   2.546   8.825 -0.2023  0.4736 -0.2844
 5555SOL     OW28123   3.952   0.453   4.362  0.1315  0.1053  0.3178
 5555SOL    HW128124   3.914   0.378   4.317 -2.4299  2.6612 -1.7924
 5555SOL    HW228125   3.983   0.409   4.441 -0.6341 -0.6937  0.1611
 5556SOL     OW28126   4.585   3.048   6.223  0.0396 -0.3646  0.1495
 5556SOL    HW128127   4.577   2.976   6.161 -1.1278 -0.0633 -0.0488
 5556SOL    HW228128   4.675   3.074   6.207 -0.2900 -0.1379 -1.3522
 5557SOL     OW28129   0.900   3.318  17.324 -0.8488  0.3570 -0.6095
 5557SOL    HW128130   0.982   3.268  17.316 -1.1339 -0.3405  0.8883
 5557SOL    HW228131   0.881   3.334  17.231 -0.1276  2.0335 -0.4685
 5558SOL     OW28132   3.788   1.517  13.170  0.3527 -0.5359 -0.0196
 5558SOL    HW128133   3.828   1.500  13.255  0.8707 -0.8763 -0.3301
 5558SOL    HW228134   3.869   1.537  13.122 -0.5427  1.8302 -0.5387
 5559SOL     OW28135   1.106   1.796  12.445  0.5704 -0.7365  0.4316
 5559SOL    HW128136   1.141   1.828  12.361  0.9215  0.0513  0.8805
 5559SOL    HW228137   1.187   1.769  12.488 -0.5551 -1.6853  1.9370
 5560SOL     OW28138   3.544   3.260   9.152  0.0876 -0.3226 -0.6893
 5560SOL    HW128139   3.570   3.191   9.213  2.0509  1.3264  0.3499
 5560SOL    HW228140   3.460   3.229   9.118 -1.5112  1.9211  1.2043
 5561SOL     OW28141   1.777   1.235   5.312  0.0083  0.0525 -0.1412
 5561SOL    HW128142   1.856   1.182   5.299 -0.3148 -0.5626  0.3414
 5561SOL    HW228143   1.743   1.189   5.389 -1.1661 -0.6554 -1.0817
 5562SOL     OW28144   4.631   0.804  16.114  0.1415  0.0200 -0.4150
 5562SOL    HW128145   4.709   0.763  16.077  1.0586  1.7717 -0.4271
 5562SOL    HW228146   4.652   0.897  16.105 -0.0514  0.1240  0.2058
 5563SOL     OW28147   1.980   1.551   7.350 -0.3278  0.1811  0.1675
 5563SOL    HW128148   1.920   1.624   7.336 -0.4775  0.0766  0.2687
 5563SOL    HW228149   2.050   1.573   7.289  0.6562  3.2328  2.3682
 5564SOL     OW28150   4.412   1.529   5.645  0.8336  0.4550  0.4508
 5564SOL    HW128151   4.391   1.595   5.710  3.4162  2.4758 -0.7274
 5564SOL    HW228152   4.450   1.569   5.566 -2.6442 -1.2451 -2.0647
 5565SOL     OW28153   3.305   3.921   5.318  0.2367 -0.2497 -0.4756
 5565SOL    HW128154   3.296   3.840   5.268  1.2742 -0.2985 -0.5803
 5565SOL    HW228155   3.393   3.953   5.300  0.3772 -1.0190 -1.1479
 5566SOL     OW28156   1.110   4.703   1.540  0.2034  0.3477 -0.0842
 5566SOL    HW128157   1.050   0.012   1.606  0.5140 -0.2830  0.5256
 5566SOL    HW228158   1.087   0.020   1.457  1.0678  1.0001  0.0083
 5567SOL     OW28159   2.113   0.315  13.259  0.7638  0.4266 -0.9141
 5567SOL    HW128160   2.040   0.254  13.271  0.6435  0.2616 -2.4567
 5567SOL    HW228161   2.062   0.371  13.200  0.6432  1.0177 -0.2435
 5568SOL     OW28162   1.244   2.573   7.486  0.0453  0.2454  0.3779
 5568SOL    HW128163   1.223   2.512   7.557  0.0911  0.5772  0.6738
 5568SOL    HW228164   1.203   2.654   7.516 -1.6679 -0.5584  0.2040
 5569SOL     OW28165   4.190   2.941   7.723  0.1606 -0.5784 -0.3402
 5569SOL    HW128166   4.132   2.954   7.798  0.9975 -0.6503  0.3149
 5569SOL    HW228167   4.269   2.990   7.747  1.0342 -1.4585 -1.3742
 5570SOL     OW28168   0.558   1.946   5.255  0.5028  0.0043 -0.0553
 5570SOL    HW128169   0.583   2.033   5.284 -0.8543  0.5077 -0.3723
 5570SOL    HW228170   0.555   1.960   5.161  1.0210 -0.5111 -0.1466
 5571SOL     OW28171   2.854   3.585   6.456 -0.1601  0.5738  0.1695
 5571SOL    HW128172   2.820   3.495   6.462  1.3815 -0.0917 -1.0096
 5571SOL    HW228173   2.801   3.610   6.380  0.3963 -0.6136 -0.6032
 5572SOL     OW28174   4.075   3.352  13.522 -0.2009  0.1161 -0.3844
 5572SOL    HW128175   4.028   3.367  13.440 -2.4262 -2.0504  0.4665
 5572SOL    HW228176   4.169   3.366  13.506  0.2596 -1.3106  1.0387
 5573SOL     OW28177   0.693   2.824   0.422 -0.3799  0.4947 -0.0062
 5573SOL    HW128178   0.640   2.778   0.487  1.0887 -1.7808 -0.4198
 5573SOL    HW228179   0.745   2.882   0.478 -1.0528  1.4652 -0.3860
 5574SOL     OW28180   3.503   0.910   8.948 -0.0033 -0.8180  0.1737
 5574SOL    HW128181   3.563   0.984   8.937 -2.7676  1.7059  2.0104
 5574SOL    HW228182   3.476   0.934   9.036  1.2514  0.6358  0.1749
 5575SOL     OW28183   4.274   2.077   8.765  0.4790 -0.6111  0.2708
 5575SOL    HW128184   4.235   2.021   8.833 -2.8876 -0.6781 -1.7417
 5575SOL    HW228185   4.369   2.070   8.768  0.4372 -1.4033 -0.1368
 5576SOL     OW28186   2.462   3.963   6.878 -0.4678  0.0098 -0.2039
 5576SOL    HW128187   2.459   3.942   6.785 -1.8884  2.4346 -0.7076
 5576SOL    HW228188   2.557   3.952   6.890 -0.3984 -0.6909 -1.4450
 5577SOL     OW28189   1.684   0.287  10.995 -0.0461 -0.5423  0.3287
 5577SOL    HW128190   1.631   0.208  11.006  0.0040 -0.5784  0.3080
 5577SOL    HW228191   1.753   0.244  10.945 -1.7723 -1.4192 -1.3120
 5578SOL     OW28192   3.463   2.865   0.900 -0.1896 -0.4955  0.4727
 5578SOL    HW128193   3.457   2.814   0.981  0.5295 -4.5201 -2.0053
 5578SOL    HW228194   3.557   2.858   0.885 -0.5452 -2.9389 -0.6900
 5579SOL     OW28195   3.282   2.013   7.618  0.0143  0.1985 -1.0794
 5579SOL    HW128196   3.262   1.982   7.706 -0.9913  1.7921 -0.7320
 5579SOL    HW228197   3.351   1.950   7.598 -1.3068 -2.0170  1.4393
 5580SOL     OW28198   0.952   3.048   6.831  0.8149 -0.1102 -0.2620
 5580SOL    HW128199   0.860   3.063   6.853  0.8529 -1.5009  0.8094
 5580SOL    HW228200   0.973   2.977   6.891  3.4520 -0.6458 -1.7554
 5581SOL     OW28201   3.374   4.469  14.304 -0.4345  0.1023 -0.1225
 5581SOL    HW128202   3.446   4.494  14.362 -2.2928  1.6658  1.5152
 5581SOL    HW228203   3.309   4.540  14.306  0.9074  1.3024  1.3311
 5582SOL     OW28204   3.545   2.526  15.227  0.1807  0.0104  0.2189
 5582SOL    HW128205   3.474   2.463  15.225  1.2730 -1.1699 -1.2120
 5582SOL    HW228206   3.498   2.585  15.286 -2.3139 -0.9301 -0.8330
 5583SOL     OW28207   3.764   0.188   9.778  0.2347 -0.2686  0.1223
 5583SOL    HW128208   3.773   0.168   9.872  2.0356  0.9626  0.1908
 5583SOL    HW228209   3.789   0.280   9.782  0.1635 -0.3075  1.7917
 5584SOL     OW28210   2.398   1.033   4.676  0.5476  0.0705 -0.2096
 5584SOL    HW128211   2.425   1.122   4.698 -1.9025  0.5941  0.6243
 5584SOL    HW228212   2.363   1.041   4.587  0.0863 -2.0412 -0.2150
 5585SOL     OW28213   2.926   3.507   6.725 -0.4972  0.2424 -0.4299
 5585SOL    HW128214   2.885   3.467   6.649 -0.9477 -1.2035  0.5694
 5585SOL    HW228215   2.875   3.468   6.796 -1.4061  0.4716 -0.9508
 5586SOL     OW28216   0.769   0.641   7.092  0.1281 -0.1335 -0.3963
 5586SOL    HW128217   0.842   0.659   7.032  0.0071 -3.3413 -1.5297
 5586SOL    HW228218   0.788   0.554   7.125  1.1805 -0.3283 -1.5123
 5587SOL     OW28219   1.384   1.983   2.649 -0.2152  0.1075  0.0434
 5587SOL    HW128220   1.429   1.945   2.574  0.7440  0.7861  0.2733
 5587SOL    HW228221   1.335   1.908   2.684  0.7865 -0.7324 -0.3623
 5588SOL     OW28222   2.129   3.643   6.481  0.0391  0.4133 -0.0361
 5588SOL    HW128223   2.186   3.579   6.438  0.2564 -1.4694  3.0369
 5588SOL    HW228224   2.160   3.620   6.568  0.8744  2.9185  0.3381
 5589SOL     OW28225   1.016   0.207   3.268 -0.4404  0.4142 -0.6139
 5589SOL    HW128226   1.038   0.122   3.229 -0.0087 -0.4455  1.5346
 5589SOL    HW228227   0.923   0.208   3.246 -0.1920 -2.0555 -1.8484
 5590SOL     OW28228   1.782   0.003   9.447  0.1820  0.3062  0.0094
 5590SOL    HW128229   1.709   4.670   9.426 -1.1039  1.7862  0.3906
 5590SOL    HW228230   1.849   4.667   9.416  1.1185  0.9209  0.8316
 5591SOL     OW28231   1.106   4.675   6.171  0.3896 -0.4817  0.3013
 5591SOL    HW128232   1.194   4.638   6.178  0.2499 -0.6610  1.0776
 5591SOL    HW228233   1.103   4.702   6.079 -1.0182 -1.4085  0.0828
 5592SOL     OW28234   2.979   4.701   5.044 -0.0036  0.2786  0.4276
 5592SOL    HW128235   3.050   4.716   4.981  0.6362 -0.1505  1.0388
 5592SOL    HW228236   2.945   4.621   5.006 -0.9585  0.3278  1.2007
 5593SOL     OW28237   0.399   3.248   7.067  0.6666 -0.5989  0.6989
 5593SOL    HW128238   0.451   3.297   7.131  0.4115  1.6388 -0.7918
 5593SOL    HW228239   0.448   3.280   6.991 -0.2356  0.2059  0.4535
 5594SOL     OW28240   3.776   2.698   9.204  0.2842  0.3953 -0.3045
 5594SOL    HW128241   3.804   2.788   9.217  0.9212  0.5187 -2.4427
 5594SOL    HW228242   3.812   2.694   9.115  0.6481 -1.2838 -0.0902
 5595SOL     OW28243   0.293   0.392  16.266  0.4386  0.4329  0.4761
 5595SOL    HW128244   0.304   0.360  16.355  2.7464 -0.2231 -0.0503
 5595SOL    HW228245   0.375   0.438  16.251  0.3722 -0.1279 -1.6690
 5596SOL     OW28246   4.134   4.300   8.923  0.3640 -0.4446  0.0418
 5596SOL    HW128247   4.048   4.263   8.904  0.0840  0.3933 -0.3061
 5596SOL    HW228248   4.134   4.338   9.011  2.8553  0.4943 -0.3595
 5597SOL     OW28249   0.225   4.357   7.913 -0.2858 -0.2190  0.4478
 5597SOL    HW128250   0.132   4.346   7.933 -0.3274  0.6384  0.7119
 5597SOL    HW228251   0.256   4.363   8.003 -0.0479 -0.0051  0.3508
 5598SOL     OW28252   2.200   1.667   5.820  0.3653  0.1591  0.2475
 5598SOL    HW128253   2.204   1.584   5.772 -1.8136 -0.0015  0.3286
 5598SOL    HW228254   2.106   1.672   5.836  0.0639 -0.0377 -1.4235
 5599SOL     OW28255   4.568   2.923   2.942 -0.6353  0.2605 -0.2310
 5599SOL    HW128256   4.555   2.855   3.008 -1.7489 -0.2400 -0.9866
 5599SOL    HW228257   4.477   2.925   2.915 -1.4577 -1.7048  2.3615
 5600SOL     OW28258   0.502   2.308  13.367  0.0267  0.3253 -0.4747
 5600SOL    HW128259   0.540   2.271  13.288  0.0715 -0.6450  0.0024
 5600SOL    HW228260   0.531   2.238  13.426 -0.6849 -2.0092 -2.8677
 5601SOL     OW28261   4.268   0.000   7.593 -0.3505 -0.4695  0.5662
 5601SOL    HW128262   4.175   0.016   7.581 -0.5660  0.7470  3.8611
 5601SOL    HW228263   4.285   0.049   7.674  1.6834 -0.9718  0.4536
 5602SOL     OW28264   0.469   0.243   8.948  0.5706 -0.2240  0.2574
 5602SOL    HW128265   0.389   0.195   8.928  1.4912 -1.7511  0.2520
 5602SOL    HW228266   0.459   0.261   9.042  1.2606  3.5298 -0.3758
 5603SOL     OW28267   3.714   4.169  17.461  0.0082 -0.4830  0.1186
 5603SOL    HW128268   3.747   4.257  17.442  0.0384 -0.4467  0.3412
 5603SOL    HW228269   3.713   4.129  17.374 -1.5459  0.4221 -0.2966
 5604SOL     OW28270   4.287   1.954   5.601 -0.0143 -0.5362  0.2534
 5604SOL    HW128271   4.240   2.013   5.542 -1.0384 -1.5359  0.0471
 5604SOL    HW228272   4.254   1.976   5.688 -1.2939  0.6520 -0.5420
 5605SOL     OW28273   1.410   0.081   4.622 -0.2326  0.5766 -0.4672
 5605SOL    HW128274   1.445   4.718   4.619  1.2245  1.1842 -2.3526
 5605SOL    HW228275   1.358   0.084   4.541  0.0429  0.9479 -0.6344
 5606SOL     OW28276   4.275   4.559  11.615 -0.1066 -0.1805  0.4779
 5606SOL    HW128277   4.355   4.508  11.631  1.2151  2.5315  2.5174
 5606SOL    HW228278   4.223   4.483  11.590  0.5042 -0.0513 -1.1985
 5607SOL     OW28279   1.438   1.813  13.672 -0.1513 -0.0817  0.2829
 5607SOL    HW128280   1.352   1.789  13.707 -0.4766 -0.7688 -0.9703
 5607SOL    HW228281   1.434   1.800  13.577 -1.4616 -2.9535  0.7151
 5608SOL     OW28282   0.230   3.935  12.077  0.2801 -0.1259 -0.3551
 5608SOL    HW128283   0.292   3.865  12.058  0.5078 -1.1258  4.1126
 5608SOL    HW228284   0.268   3.999  12.017 -0.4031 -1.9527 -2.7182
 5609SOL     OW28285   0.424   4.009  10.425 -0.1726 -0.0967  0.1260
 5609SOL    HW128286   0.329   4.004  10.436 -0.2302 -0.1409 -0.4044
 5609SOL    HW228287   0.433   4.104  10.435 -0.1971  0.2118 -2.6271
 5610SOL     OW28288   0.726   2.711   4.285  0.0207  0.1818 -0.0652
 5610SOL    HW128289   0.821   2.721   4.286 -0.0324  0.9424 -3.5537
 5610SOL    HW228290   0.712   2.675   4.197 -0.2264 -0.2654  0.1570
 5611SOL     OW28291   0.975   1.630   7.515 -0.3633  0.0605 -0.0764
 5611SOL    HW128292   0.968   1.719   7.482  3.1909  0.4507  0.1846
 5611SOL    HW228293   0.963   1.572   7.440 -0.7380  1.5144 -1.1150
 5612SOL     OW28294   3.191   4.224   9.010 -0.3295  0.5412  0.5412
 5612SOL    HW128295   3.178   4.190   9.098 -1.2271 -2.0610 -0.5961
 5612SOL    HW228296   3.245   4.157   8.967 -2.5292 -0.0358 -1.2814
 5613SOL     OW28297   0.254   3.904   2.385  0.0497 -0.1560 -0.4885
 5613SOL    HW128298   0.262   3.987   2.339 -2.2047  0.9243  1.0882
 5613SOL    HW228299   0.254   3.840   2.313  0.4859  1.4190 -1.8925
 5614SOL     OW28300   2.946   2.130  13.702  0.0670 -0.3207  0.1767
 5614SOL    HW128301   2.954   2.092  13.789 -2.0228 -0.2797  0.4016
 5614SOL    HW228302   2.969   2.062  13.639  2.0966  1.1737 -0.6986
 5615SOL     OW28303   4.413   0.913  13.371 -0.2353  0.7715  0.0010
 5615SOL    HW128304   4.477   0.921  13.442 -0.5117  3.6547 -0.1095
 5615SOL    HW228305   4.337   0.946  13.417 -0.6679 -0.1514 -0.0512
 5616SOL     OW28306   0.712   3.431   4.787 -0.1256 -0.6799 -0.1886
 5616SOL    HW128307   0.789   3.381   4.762  0.6730 -0.2377  1.3819
 5616SOL    HW228308   0.693   3.470   4.702 -0.0825  1.6595  0.8736
 5617SOL     OW28309   1.473   0.639  15.315 -0.6631 -0.2955 -0.1054
 5617SOL    HW128310   1.384   0.614  15.289 -1.2390  2.3059 -0.6370
 5617SOL    HW228311   1.491   0.694  15.239 -0.5906 -0.1610  0.0099
 5618SOL     OW28312   3.711   1.003   1.540 -0.1732 -0.5106  0.0914
 5618SOL    HW128313   3.745   0.925   1.496  0.0409 -0.9033  0.9347
 5618SOL    HW228314   3.655   0.956   1.603 -1.4005 -0.3146 -0.8568
 5619SOL     OW28315   1.063   0.055   5.022  0.0026 -1.0066 -0.3483
 5619SOL    HW128316   0.983   0.015   4.988  1.1514 -0.9963 -3.0568
 5619SOL    HW228317   1.108   0.067   4.938 -4.0155  0.8410 -2.2199
 5620SOL     OW28318   2.599   1.208  16.977  0.2452 -0.1343 -0.0655
 5620SOL    HW128319   2.603   1.129  16.923  0.9758  0.0554 -0.3027
 5620SOL    HW228320   2.643   1.269  16.916  1.3195  0.6689  1.5098
 5621SOL     OW28321   0.538   4.069   1.299  0.7300 -0.3684  0.2024
 5621SOL    HW128322   0.579   4.024   1.225  0.0188 -1.6921  0.6150
 5621SOL    HW228323   0.527   3.997   1.361 -2.1780 -1.6725 -1.8195
 5622SOL     OW28324   1.006   3.868   6.379  0.1589  0.0292 -0.2219
 5622SOL    HW128325   1.004   3.805   6.307  1.6147  0.8606 -0.9931
 5622SOL    HW228326   0.991   3.950   6.333 -0.9712 -0.0402  0.0417
 5623SOL     OW28327   3.106   1.729  12.103  0.1360 -0.2238 -0.3385
 5623SOL    HW128328   3.050   1.786  12.156  1.1596  2.2176 -1.9152
 5623SOL    HW228329   3.151   1.668  12.162 -1.2238 -1.7535 -0.8773
 5624SOL     OW28330   1.437   4.385   7.454  0.0650 -0.4791 -0.2709
 5624SOL    HW128331   1.451   4.428   7.369  0.0315 -1.5213 -0.7964
 5624SOL    HW228332   1.346   4.409   7.471 -0.1109 -0.0919 -1.7944
 5625SOL     OW28333   3.850   3.299   4.462  0.6009  0.1781 -0.0283
 5625SOL    HW128334   3.833   3.384   4.503 -2.2080 -0.0437 -0.7327
 5625SOL    HW228335   3.779   3.300   4.398  1.4712 -1.1801 -1.0162
 5626SOL     OW28336   2.233   0.965  13.058 -0.3644  0.6575 -0.5758
 5626SOL    HW128337   2.289   0.925  13.124 -1.3689  1.5912  0.8244
 5626SOL    HW228338   2.253   1.057  13.074 -2.0350  1.0467 -0.8263
 5627SOL     OW28339   2.084   1.789   3.178 -0.1457  0.2111  0.4903
 5627SOL    HW128340   2.045   1.774   3.092 -0.1104 -1.1025  0.7094
 5627SOL    HW228341   2.036   1.728   3.234  1.1317  0.0538  1.4091
 5628SOL     OW28342   1.407   2.612   8.754  0.2373  0.1266 -0.4478
 5628SOL    HW128343   1.365   2.682   8.804  0.9986 -0.5698  1.1796
 5628SOL    HW228344   1.478   2.582   8.812 -0.0606  3.2233  1.5113
 5629SOL     OW28345   1.336   2.610   0.668  0.5477  0.2036 -0.4497
 5629SOL    HW128346   1.385   2.564   0.736 -2.8734 -1.0200  1.2021
 5629SOL    HW228347   1.366   2.566   0.588  1.8826  1.6027 -0.7194
 5630SOL     OW28348   0.464   3.423  12.534  0.0156 -0.1126  0.1069
 5630SOL    HW128349   0.537   3.375  12.495  0.3707  0.2674  0.3136
 5630SOL    HW228350   0.493   3.512  12.513  0.2081 -0.6609 -1.9437
 5631SOL     OW28351   3.633   2.036  16.930 -0.3124 -0.2285 -0.2276
 5631SOL    HW128352   3.648   1.950  16.968 -0.2504 -0.2782 -0.3634
 5631SOL    HW228353   3.597   2.004  16.847  1.1355 -0.2119 -0.8808
 5632SOL     OW28354   3.926   2.588  12.757  0.5386 -0.3795 -0.2170
 5632SOL    HW128355   3.991   2.652  12.727  0.9849 -0.5081  0.4742
 5632SOL    HW228356   3.930   2.515  12.696  0.3076 -0.4799 -0.1129
 5633SOL     OW28357   1.862   4.373   9.137 -0.0864 -0.4758 -0.3807
 5633SOL    HW128358   1.804   4.410   9.070 -0.4468  3.2741  1.9824
 5633SOL    HW228359   1.855   4.290   9.089  1.4016  0.1263 -1.6465
 5634SOL     OW28360   3.358   1.212   1.230 -0.4138 -0.1282  0.0163
 5634SOL    HW128361   3.414   1.141   1.261 -2.1500 -0.1034  3.2287
 5634SOL    HW228362   3.391   1.278   1.290  1.0834  0.4460 -1.4370
 5635SOL     OW28363   1.715   4.155  17.014  0.1708 -0.0520  0.5902
 5635SOL    HW128364   1.680   4.084  17.068  2.7604 -1.0448  0.9732
 5635SOL    HW228365   1.810   4.141  17.005 -0.2026 -1.1140 -1.7327
 5636SOL     OW28366   4.419   1.089   3.012  0.0210 -0.6672 -0.0238
 5636SOL    HW128367   4.345   1.088   2.952 -0.7472  2.2682  0.8956
 5636SOL    HW228368   4.462   1.012   2.974  1.3762 -0.4557  1.0610
 5637SOL     OW28369   2.609   3.064   7.077  0.1528  0.3891  0.4959
 5637SOL    HW128370   2.587   3.075   7.169 -1.1975 -2.1466  0.4995
 5637SOL    HW228371   2.528   3.064   7.026  1.2456  0.2547 -1.2479
 5638SOL     OW28372   0.306   1.901  16.951  0.3766  0.2721  0.3160
 5638SOL    HW128373   0.327   1.843  16.878  1.0423  1.1015 -0.1501
 5638SOL    HW228374   0.212   1.884  16.956  0.0952  1.7618  0.1131
 5639SOL     OW28375   4.115   4.098   0.459  0.1933  0.1266 -0.2831
 5639SOL    HW128376   4.052   4.135   0.521  0.9959 -1.9414  1.7373
 5639SOL    HW228377   4.049   4.090   0.390  1.4495 -0.3847 -1.4359
 5640SOL     OW28378   1.029   0.116   7.724 -0.0525 -0.4821 -0.0739
 5640SOL    HW128379   1.110   0.077   7.758  1.3343  1.1530 -1.5096
 5640SOL    HW228380   0.963   0.096   7.790 -0.2527 -1.4627 -0.5751
 5641SOL     OW28381   3.264   1.599   9.022  0.1193  0.5181 -0.4190
 5641SOL    HW128382   3.280   1.691   8.999  2.7656  0.2520  0.3895
 5641SOL    HW228383   3.341   1.568   9.069  1.0094 -0.2311 -2.3652
 5642SOL     OW28384   4.526   2.974   3.316  0.1396 -0.0670 -0.3155
 5642SOL    HW128385   4.442   3.004   3.280  0.7334  3.1714  1.0268
 5642SOL    HW228386   4.550   3.051   3.367 -0.1672  1.2098 -2.1054
 5643SOL     OW28387   3.789   2.031  16.624 -0.1933 -0.2773  0.0509
 5643SOL    HW128388   3.815   1.966  16.689 -2.2411 -1.7019 -0.5789
 5643SOL    HW228389   3.694   2.037  16.638 -0.2208  0.2568 -0.3669
 5644SOL     OW28390   2.191   2.142  14.079 -0.6549  0.3326  0.5498
 5644SOL    HW128391   2.260   2.199  14.045 -0.5727  0.1037  0.3371
 5644SOL    HW228392   2.191   2.157  14.174 -0.1281  1.6867  0.3363
 5645SOL     OW28393   1.370   0.197  16.752 -0.2872 -0.2971  0.2971
 5645SOL    HW128394   1.406   0.186  16.664  1.6960 -1.4712  1.2587
 5645SOL    HW228395   1.445   0.169  16.805 -1.3514 -0.8248  1.5112
 5646SOL     OW28396   1.458   2.706   9.082 -0.0857  0.0126 -0.0713
 5646SOL    HW128397   1.550   2.688   9.099  0.8869  2.3761 -2.7299
 5646SOL    HW228398   1.421   2.643   9.143  0.7901  0.4358  0.8899
 5647SOL     OW28399   3.906   3.575   4.588 -0.1212 -0.0310  0.3163
 5647SOL    HW128400   3.966   3.582   4.514  1.8494  1.7246  2.0915
 5647SOL    HW228401   3.951   3.635   4.648 -0.6631  0.4684  0.2297
 5648SOL     OW28402   2.814   1.811  13.395  0.7395  0.0705  0.0288
 5648SOL    HW128403   2.879   1.879  13.415  0.8135 -0.3553  1.2133
 5648SOL    HW228404   2.837   1.750  13.465 -0.1649 -0.2693  0.0245
 5649SOL     OW28405   0.742   2.359   7.169 -0.2115 -0.1315  0.4072
 5649SOL    HW128406   0.790   2.381   7.089  0.2273  0.0410  0.7169
 5649SOL    HW228407   0.653   2.333   7.145 -0.1685  0.3021 -0.2211
 5650SOL     OW28408   0.841   0.585   7.637  0.3388 -0.1766  0.2305
 5650SOL    HW128409   0.769   0.621   7.687 -1.2026 -1.1465 -1.2850
 5650SOL    HW228410   0.836   0.501   7.683 -1.7166 -0.8555 -1.2009
 5651SOL     OW28411   1.100   0.126  15.809  0.1221 -0.1540 -0.0895
 5651SOL    HW128412   1.052   0.203  15.778 -0.4206 -0.3025  0.3910
 5651SOL    HW228413   1.031   0.075  15.850  0.6246  1.9330  3.4021
 5652SOL     OW28414   3.635   0.158   3.436  0.1520  0.7583  0.5625
 5652SOL    HW128415   3.541   0.162   3.417  0.3368  3.3736  0.2776
 5652SOL    HW228416   3.666   0.119   3.354  0.6392  2.0459  0.1356
 5653SOL     OW28417   3.993   2.147  16.511 -0.0512 -0.1501  0.2690
 5653SOL    HW128418   3.920   2.116  16.564 -1.6319  0.5179 -1.5269
 5653SOL    HW228419   4.068   2.109  16.557 -0.1024  0.7298  1.0705
 5654SOL     OW28420   4.394   1.310   1.679  0.0823  0.0507  0.5127
 5654SOL    HW128421   4.418   1.275   1.594 -3.9357 -0.0683 -0.5792
 5654SOL    HW228422   4.327   1.375   1.656 -0.7426 -1.1986 -0.5598
 5655SOL     OW28423   1.765   2.248  10.803 -0.3115 -0.0243  0.0964
 5655SOL    HW128424   1.730   2.330  10.838  0.7791  0.4708  0.0381
 5655SOL    HW228425   1.859   2.253  10.786 -0.5370 -0.6364 -1.3137
 5656SOL     OW28426   3.668   4.165   9.166  0.5671 -0.1850  0.1621
 5656SOL    HW128427   3.666   4.225   9.092  1.9789 -0.0105  0.2778
 5656SOL    HW228428   3.628   4.089   9.123 -1.8346  1.8100 -1.1337
 5657SOL     OW28429   2.700   1.393  14.139 -0.7163  0.0459 -0.2923
 5657SOL    HW128430   2.685   1.454  14.067  1.0464  2.7559  1.6245
 5657SOL    HW228431   2.794   1.387  14.128 -0.5326 -1.2078  1.8881
 5658SOL     OW28432   3.242   2.038   5.335  0.3253 -0.5717 -0.0812
 5658SOL    HW128433   3.326   2.059   5.294  0.1215  0.6064  0.1112
 5658SOL    HW228434   3.211   1.966   5.280 -2.8034  0.3720  0.4845
 5659SOL     OW28435   4.542   3.628   7.488  0.1320 -0.2730  0.1344
 5659SOL    HW128436   4.594   3.565   7.439 -1.1143 -1.4569  0.3222
 5659SOL    HW228437   4.465   3.572   7.500  0.1715 -0.0085  1.5738
 5660SOL     OW28438   4.482   4.221  17.492 -0.5553 -0.1090 -0.6832
 5660SOL    HW128439   4.494   4.313  17.513 -1.8774 -0.0103 -0.3916
 5660SOL    HW228440   4.405   4.207  17.546 -1.1322 -1.4617 -1.8551
 5661SOL     OW28441   1.238   0.337   7.340  0.1360  0.7870 -0.3058
 5661SOL    HW128442   1.198   0.406   7.288 -1.0499  0.4870  0.2161
 5661SOL    HW228443   1.161   0.326   7.395  0.3308  2.3390  0.3008
 5662SOL     OW28444   0.813   1.539   9.700  0.1503  0.5163 -0.0623
 5662SOL    HW128445   0.792   1.589   9.622 -2.5324  2.0066  1.6024
 5662SOL    HW228446   0.726   1.525   9.737  0.2632  1.5366  0.5914
 5663SOL     OW28447   2.978   1.489   7.608  0.0787 -0.1450  0.5437
 5663SOL    HW128448   2.965   1.422   7.540 -1.8953  0.3307  0.4462
 5663SOL    HW228449   2.930   1.567   7.580 -0.6111 -1.3042 -1.5842
 5664SOL     OW28450   2.043   2.166   7.463 -0.0576  0.2432  0.0241
 5664SOL    HW128451   2.126   2.183   7.419 -0.8676  0.6072 -1.3584
 5664SOL    HW228452   1.974   2.204   7.407  0.4132 -1.5314 -1.7350
 5665SOL     OW28453   3.418   2.564   4.957  0.3923 -0.0070 -0.3970
 5665SOL    HW128454   3.430   2.629   5.026  0.5242  0.1656 -0.5818
 5665SOL    HW228455   3.354   2.515   5.009  0.6696  0.8514  0.7589
 5666SOL     OW28456   3.521   4.027   0.315 -0.1446  0.0923 -0.2944
 5666SOL    HW128457   3.568   4.003   0.236  2.0405  1.6765  0.5334
 5666SOL    HW228458   3.508   3.939   0.349  3.0187 -0.5021 -0.6819
 5667SOL     OW28459   0.851   3.585   3.210 -0.1278 -0.3569  0.3682
 5667SOL    HW128460   0.920   3.588   3.144 -1.1274  2.0992 -0.5731
 5667SOL    HW228461   0.772   3.593   3.158 -0.3689 -1.4009  0.5744
 5668SOL     OW28462   4.116   0.314   6.840  0.0317 -0.0490 -0.3229
 5668SOL    HW128463   4.115   0.288   6.748 -1.7234 -1.2833  0.0356
 5668SOL    HW228464   4.161   0.241   6.884  1.7168  1.0770 -0.1858
 5669SOL     OW28465   1.551   1.037   2.953  0.0537 -0.6873  0.5307
 5669SOL    HW128466   1.480   0.974   2.966 -0.0469 -0.5732  0.5421
 5669SOL    HW228467   1.521   1.087   2.877  0.4637  1.2064  1.6077
 5670SOL     OW28468   1.092   2.761   4.662  0.1157  0.1374 -0.0376
 5670SOL    HW128469   1.010   2.713   4.672  0.2229  0.5945  2.8907
 5670SOL    HW228470   1.137   2.690   4.616  0.1202  1.0267 -1.4160
 5671SOL     OW28471   0.927   4.066   2.251 -0.0386  0.2697  0.2961
 5671SOL    HW128472   0.917   4.120   2.329 -3.0216  0.4824 -0.2034
 5671SOL    HW228473   0.934   4.139   2.189  0.0852  0.6817  0.8016
 5672SOL     OW28474   0.613   3.158   3.180 -0.3179  0.2647  0.2651
 5672SOL    HW128475   0.532   3.164   3.230 -0.8324  1.6517 -0.7106
 5672SOL    HW228476   0.580   3.170   3.091 -0.6121 -1.3307  0.1600
 5673SOL     OW28477   2.486   4.110   2.443  0.3116 -0.1374 -0.3106
 5673SOL    HW128478   2.564   4.108   2.498 -0.2847 -0.2684  0.5275
 5673SOL    HW228479   2.441   4.193   2.460  1.7945  0.7082 -0.5106
 5674SOL     OW28480   1.546   2.396   7.017  0.8126 -0.1782  0.3016
 5674SOL    HW128481   1.483   2.380   6.946  0.3951 -0.8569  0.8315
 5674SOL    HW228482   1.493   2.431   7.088 -0.9820 -0.1488 -1.0630
 5675SOL     OW28483   0.131   1.525   1.124  0.4473  0.0535 -0.2634
 5675SOL    HW128484   0.167   1.446   1.083 -1.5462 -0.6127 -0.7325
 5675SOL    HW228485   0.182   1.531   1.205  0.7397 -0.3336 -0.4155
 5676SOL     OW28486   3.139   3.887   3.112  0.1300 -0.1717 -0.0551
 5676SOL    HW128487   3.047   3.907   3.094  0.0077 -0.7252 -0.0559
 5676SOL    HW228488   3.164   3.839   3.033  1.8674 -0.6177  0.7849
 5677SOL     OW28489   1.049   3.311  15.008  0.2423 -0.6611  0.0378
 5677SOL    HW128490   1.031   3.319  15.101  0.2620  1.7426 -0.1705
 5677SOL    HW228491   1.144   3.299  15.009  0.3183  0.0606  0.7480
 5678SOL     OW28492   0.963   3.383  15.273  0.0706  0.1385  0.2862
 5678SOL    HW128493   1.007   3.412  15.352 -0.5021  1.6480  0.0446
 5678SOL    HW228494   0.879   3.426  15.288 -0.1580 -0.0071 -0.5513
 5679SOL     OW28495   3.046   0.770   8.773  0.1533 -0.3540 -0.6524
 5679SOL    HW128496   2.982   0.716   8.728 -0.8301  0.2423  0.0385
 5679SOL    HW228497   3.130   0.723   8.768 -0.7828 -2.1114  0.3202
 5680SOL     OW28498   1.883   0.300  12.749  0.3016  0.4438 -0.0690
 5680SOL    HW128499   1.975   0.287  12.724  1.1316 -0.0969  3.2511
 5680SOL    HW228500   1.836   0.222  12.720  0.0929  0.5319  0.0293
 5681SOL     OW28501   0.637   4.013   5.800  0.2616  0.5019 -0.0115
 5681SOL    HW128502   0.569   4.067   5.841 -0.0381 -0.9573  1.3968
 5681SOL    HW228503   0.625   4.016   5.705 -0.1205  0.6071  0.0425
 5682SOL     OW28504   4.178   2.132  16.729 -0.4155 -0.3346 -0.2648
 5682SOL    HW128505   4.247   2.132  16.795 -0.2356  0.5836 -0.4495
 5682SOL    HW228506   4.108   2.145  16.793  1.4269  1.2516  1.4231
 5683SOL     OW28507   3.840   3.720  13.557 -0.0807 -0.3546  0.5417
 5683SOL    HW128508   3.864   3.751  13.470  1.1012  1.0582  1.3818
 5683SOL    HW228509   3.745   3.733  13.555  0.0969  1.1690  1.9845
 5684SOL     OW28510   4.511   3.602  15.901  0.2253  0.0086  0.4518
 5684SOL    HW128511   4.524   3.589  15.807  0.3960 -0.0863  0.4889
 5684SOL    HW228512   4.419   3.578  15.909  0.7212 -1.2993  2.2317
 5685SOL     OW28513   1.837   3.339   4.132 -0.5108  0.6579  0.0646
 5685SOL    HW128514   1.879   3.319   4.215 -0.5208  0.1374 -0.0568
 5685SOL    HW228515   1.892   3.285   4.076 -0.6070  0.0454  0.5606
 5686SOL     OW28516   4.055   2.485  14.039  0.4413 -0.6035 -0.3835
 5686SOL    HW128517   4.131   2.523  14.084 -0.4671 -0.7900  1.3200
 5686SOL    HW228518   4.021   2.556  13.984  0.7379 -1.2577 -1.4132
 5687SOL     OW28519   1.075   1.756   5.698  0.1426  0.2828 -0.9136
 5687SOL    HW128520   1.017   1.691   5.657  0.5548 -0.4437 -0.3604
 5687SOL    HW228521   1.107   1.793   5.616  2.2963  2.7810  1.0649
 5688SOL     OW28522   4.578   4.382   4.606 -0.2457 -0.2578 -0.1869
 5688SOL    HW128523   4.628   4.403   4.527 -1.0196 -1.4320 -0.9818
 5688SOL    HW228524   4.517   4.316   4.573 -0.8001 -0.2761  0.8769
 5689SOL     OW28525   1.759   1.072   4.224 -0.4210 -0.6180  0.8006
 5689SOL    HW128526   1.758   1.120   4.306 -1.2985  0.2712  0.2723
 5689SOL    HW228527   1.852   1.053   4.214 -0.1727  1.4426 -0.9215
 5690SOL     OW28528   0.156   4.213   7.226  1.3751  0.1319 -0.5051
 5690SOL    HW128529   0.172   4.282   7.291  0.7786 -0.0792 -0.1409
 5690SOL    HW228530   0.200   4.251   7.150  0.7270  0.2191 -0.8385
 5691SOL     OW28531   1.252   4.676  15.583  0.1245 -0.0258  0.1306
 5691SOL    HW128532   1.179   0.009  15.602  1.2677  1.8019 -1.0998
 5691SOL    HW228533   1.315   0.004  15.535  1.3631 -0.2713  1.4742
 5692SOL     OW28534   1.599   3.526   9.008 -0.1353 -0.2378 -0.6248
 5692SOL    HW128535   1.603   3.621   9.018 -0.7718 -0.1669 -1.0088
 5692SOL    HW228536   1.636   3.489   9.088 -1.4860 -0.7373 -0.2263
 5693SOL     OW28537   3.202   2.532  12.818 -0.0316  0.1809  0.0252
 5693SOL    HW128538   3.189   2.462  12.754  0.7256 -0.7446  0.8864
 5693SOL    HW228539   3.214   2.486  12.901  0.8392 -2.1053 -1.3864
 5694SOL     OW28540   1.647   3.543   6.721  0.2433  0.2507 -0.3412
 5694SOL    HW128541   1.645   3.636   6.742  0.6949  0.1308  0.2190
 5694SOL    HW228542   1.614   3.503   6.801  0.9530  0.6302  0.1355
 5695SOL     OW28543   1.188   3.991   8.465 -0.6255 -0.1593  0.1754
 5695SOL    HW128544   1.193   4.054   8.394 -0.0383 -1.0807 -0.6120
 5695SOL    HW228545   1.247   4.028   8.531 -0.5693  0.7823 -0.4029
 5696SOL     OW28546   4.541   0.536   6.107 -0.0027 -0.6168  0.1045
 5696SOL    HW128547   4.593   0.582   6.042 -0.2582 -0.6138 -0.0984
 5696SOL    HW228548   4.474   0.603   6.123  0.2012 -0.4542  0.2660
 5697SOL     OW28549   2.079   0.972  15.390 -0.7719 -0.2832 -0.2568
 5697SOL    HW128550   2.076   0.981  15.485 -1.5289 -0.0269 -0.3061
 5697SOL    HW228551   1.997   0.934  15.362  0.4528 -2.1782 -1.2245
 5698SOL     OW28552   2.079   4.464   2.541 -0.5337  0.0824 -0.4408
 5698SOL    HW128553   1.997   4.426   2.573  0.4889 -0.3334  1.6786
 5698SOL    HW228554   2.135   4.464   2.618 -1.2995 -2.0525  0.1261
 5699SOL     OW28555   0.923   2.620  11.037  0.7631  0.0349  0.2428
 5699SOL    HW128556   0.893   2.594  10.950 -0.5781 -0.2679  0.8029
 5699SOL    HW228557   0.992   2.558  11.060  0.6954  0.1011  0.6211
 5700SOL     OW28558   3.161   2.743  12.550 -0.7458  0.4446  0.3212
 5700SOL    HW128559   3.137   2.719  12.461 -0.1714  1.9768 -0.2511
 5700SOL    HW228560   3.172   2.659  12.595 -1.0243  0.0099 -0.4371
 5701SOL     OW28561   2.767   3.762   2.154  0.3400 -0.2094 -0.2530
 5701SOL    HW128562   2.690   3.704   2.158  0.7242 -0.7831 -1.0190
 5701SOL    HW228563   2.721   3.845   2.165 -0.1724 -0.4223 -0.7948
 5702SOL     OW28564   4.178   0.549   3.882 -0.2238  0.1210  0.4046
 5702SOL    HW128565   4.147   0.464   3.852 -0.7902 -0.1516  1.7629
 5702SOL    HW228566   4.099   0.603   3.887 -1.4266 -1.7198  1.0259
 5703SOL     OW28567   3.610   2.332   4.907 -0.1146 -0.1371 -0.4240
 5703SOL    HW128568   3.596   2.425   4.891  3.5304  0.4683 -0.1960
 5703SOL    HW228569   3.525   2.294   4.928  0.2560 -0.0040  1.3712
 5704SOL     OW28570   4.666   4.701  15.626  0.2405 -0.4639  0.4166
 5704SOL    HW128571   4.709   0.038  15.568 -1.1894  0.9785  0.8931
 5704SOL    HW228572   4.675   4.624  15.571 -1.8933  1.0239 -1.9900
 5705SOL     OW28573   0.952   0.787   4.393 -0.0945 -0.0213  0.0861
 5705SOL    HW128574   0.866   0.823   4.415  1.6886  2.4520  3.0043
 5705SOL    HW228575   1.003   0.866   4.372 -0.8231  0.7544  1.2298
 5706SOL     OW28576   3.841   2.119   4.924 -0.4575  1.1896 -0.4992
 5706SOL    HW128577   3.773   2.180   4.896 -0.3985  3.1754  3.7126
 5706SOL    HW228578   3.889   2.182   4.977  1.2743 -0.2025 -0.4313
 5707SOL     OW28579   4.165   1.453  16.064 -0.2414 -0.0857 -0.4326
 5707SOL    HW128580   4.160   1.548  16.052  1.0890  0.1434  0.9041
 5707SOL    HW228581   4.193   1.417  15.980  0.5755  3.1903 -1.5715
 5708SOL     OW28582   3.032   2.121   6.350  0.4844 -0.1822 -0.1241
 5708SOL    HW128583   3.101   2.066   6.388 -1.8568 -1.3383  2.4300
 5708SOL    HW228584   3.064   2.129   6.260  2.5710 -0.7025  0.5749
 5709SOL     OW28585   2.765   0.035   9.805  0.0135  0.1317  0.3976
 5709SOL    HW128586   2.837   4.699   9.809  1.1382  1.3451 -1.4698
 5709SOL    HW228587   2.688   4.704   9.802  0.9729 -1.0739 -1.3075
 5710SOL     OW28588   1.373   0.075   7.386 -0.5253 -0.5425 -0.1857
 5710SOL    HW128589   1.371   0.041   7.476  2.3624  0.8606  0.3837
 5710SOL    HW228590   1.352   0.168   7.390 -0.1720 -0.5734  2.3080
 5711SOL     OW28591   4.401   3.394   2.184 -0.1990  0.5554  0.2670
 5711SOL    HW128592   4.321   3.367   2.139 -0.8567  0.6101  1.3910
 5711SOL    HW228593   4.393   3.337   2.261 -0.4533 -1.1392 -1.0268
 5712SOL     OW28594   4.503   4.626   2.191 -0.0199  0.1482 -0.3276
 5712SOL    HW128595   4.438   4.666   2.134  1.3253  0.1220 -1.8887
 5712SOL    HW228596   4.572   4.690   2.174  1.9895 -1.3140  2.1940
 5713SOL     OW28597   3.508   0.005   6.370 -0.1470  0.0495  0.6111
 5713SOL    HW128598   3.449   0.059   6.423  1.6854  2.2752  0.3970
 5713SOL    HW228599   3.556   0.071   6.321 -0.6650  1.5106  2.0459
 5714SOL     OW28600   2.476   0.461  13.438 -0.6296  0.1087  0.3360
 5714SOL    HW128601   2.474   0.413  13.521  0.6731  0.2589  0.4541
 5714SOL    HW228602   2.391   0.504  13.454 -1.3434 -0.7700 -1.1347
 5715SOL     OW28603   2.742   3.965   1.823  0.4732 -0.4482  0.4663
 5715SOL    HW128604   2.743   3.990   1.730  0.5974  1.3355  0.9592
 5715SOL    HW228605   2.757   4.049   1.865  2.9122 -0.8407  0.3758
 5716SOL     OW28606   2.183   3.261   7.267  0.2539 -0.0503  0.7953
 5716SOL    HW128607   2.216   3.174   7.242 -0.2210  0.1361 -0.4760
 5716SOL    HW228608   2.090   3.248   7.248  0.1211  1.3464  0.5424
 5717SOL     OW28609   1.370   2.565   2.106  0.1833 -0.6403  0.0098
 5717SOL    HW128610   1.436   2.623   2.142  1.3538 -0.0173 -3.0813
 5717SOL    HW228611   1.425   2.487   2.093 -0.4468 -1.4095  1.9553
 5718SOL     OW28612   2.388   2.593  17.612 -0.4697  0.2518  0.4431
 5718SOL    HW128613   2.335   2.672  17.600 -0.1252  0.3058 -0.7446
 5718SOL    HW228614   2.360   2.562  17.698  1.3586  1.0960  1.3536
 5719SOL     OW28615   4.053   2.820   2.868  0.3402 -0.1254 -0.3773
 5719SOL    HW128616   3.997   2.894   2.846 -0.3927 -0.9987 -1.4426
 5719SOL    HW228617   4.004   2.746   2.832 -1.3572  1.2564 -0.9094
 5720SOL     OW28618   4.142   3.982   3.595 -0.0249 -0.3411  0.0282
 5720SOL    HW128619   4.094   4.034   3.531 -0.9855 -0.6050  0.5264
 5720SOL    HW228620   4.212   3.936   3.549  1.0729  1.9070 -0.5596
 5721SOL     OW28621   4.577   3.964  13.020  0.2050 -0.1130 -0.0479
 5721SOL    HW128622   4.634   3.912  12.964  0.3787 -1.3544  1.2694
 5721SOL    HW228623   4.632   3.963  13.099 -0.3108 -3.6125  0.2827
 5722SOL     OW28624   0.865   3.884   2.906  0.2308  0.9727  0.1801
 5722SOL    HW128625   0.914   3.950   2.956  1.5171  1.5818 -1.9084
 5722SOL    HW228626   0.931   3.867   2.839 -0.1818  0.2113 -0.0222
 5723SOL     OW28627   3.305   2.644   3.268  0.2271 -0.2410 -0.0282
 5723SOL    HW128628   3.357   2.694   3.204 -1.3918  0.5514 -0.7264
 5723SOL    HW228629   3.325   2.692   3.348 -1.4735  1.1963 -0.4547
 5724SOL     OW28630   3.686   0.885  10.548  0.0636  0.7144 -0.8064
 5724SOL    HW128631   3.747   0.917  10.482 -0.6604  1.2169 -1.2305
 5724SOL    HW228632   3.731   0.809  10.586 -1.9864  0.0778  0.3634
 5725SOL     OW28633   3.537   1.888   3.781 -0.0047 -0.7009 -0.1178
 5725SOL    HW128634   3.498   1.815   3.828  0.9670  0.1947  2.1190
 5725SOL    HW228635   3.620   1.856   3.745 -0.3003 -0.8024 -0.6966
 5726SOL     OW28636   2.312   2.840   1.387 -0.6689 -0.6994  0.0074
 5726SOL    HW128637   2.258   2.904   1.340 -0.7231  0.1974  1.2734
 5726SOL    HW228638   2.398   2.881   1.385 -1.6419  1.3374 -0.2138
 5727SOL     OW28639   2.997   0.285   5.622  0.5945  0.1877  0.0853
 5727SOL    HW128640   2.908   0.315   5.642  0.6365  0.3631  0.0138
 5727SOL    HW228641   3.008   0.231   5.700  0.5516  0.2138  0.1095
 5728SOL     OW28642   2.187   1.191   3.235  0.1229 -0.8984  0.1531
 5728SOL    HW128643   2.165   1.258   3.169 -0.0243 -0.7191  0.3861
 5728SOL    HW228644   2.239   1.143   3.170  1.0914 -0.7963  0.8530
 5729SOL     OW28645   1.978   1.695  12.569 -0.0716  0.2980  0.5898
 5729SOL    HW128646   1.957   1.776  12.523  1.6544  0.6955  0.5022
 5729SOL    HW228647   1.907   1.706  12.632 -2.2682 -1.0706 -1.6437
 5730SOL     OW28648   4.080   2.703   6.413 -0.5874 -0.1852  0.4378
 5730SOL    HW128649   4.046   2.774   6.468 -2.6668 -0.6543 -0.2665
 5730SOL    HW228650   4.156   2.666   6.459 -1.2214  0.0859  1.7164
 5731SOL     OW28651   1.800   0.334  17.520  0.1993 -0.4371  0.0406
 5731SOL    HW128652   1.719   0.288  17.499  0.6948 -0.3116 -2.1436
 5731SOL    HW228653   1.818   0.290  17.603  2.1030  2.3185  1.0794
 5732SOL     OW28654   1.193   2.571   3.303  0.4126 -0.4686  0.3047
 5732SOL    HW128655   1.114   2.517   3.308 -0.4805  0.6653 -1.4766
 5732SOL    HW228656   1.158   2.659   3.294 -0.2861 -0.8413 -0.6544
 5733SOL     OW28657   0.690   3.409   2.028  0.3561 -0.2044  0.0672
 5733SOL    HW128658   0.744   3.357   2.087  0.3874  1.4101  1.4797
 5733SOL    HW228659   0.626   3.340   2.011 -1.1766  1.4573 -1.0062
 5734SOL     OW28660   2.011   4.243   0.931  0.3387 -0.0666  0.3552
 5734SOL    HW128661   1.985   4.306   0.999  0.6760 -0.3591  0.7504
 5734SOL    HW228662   2.090   4.201   0.965 -0.0020 -1.3286 -0.4269
 5735SOL     OW28663   0.233   3.498   3.932 -0.6415  0.3036  0.1517
 5735SOL    HW128664   0.178   3.483   4.009  0.9849  0.8081  1.4251
 5735SOL    HW228665   0.222   3.593   3.926  0.6458  0.2486 -2.8297
 5736SOL     OW28666   4.096   4.676  11.809  0.0206  0.3757  0.2577
 5736SOL    HW128667   4.059   4.591  11.783 -0.5126  0.3637  1.0501
 5736SOL    HW228668   4.188   4.650  11.814  0.1007  0.3773 -1.1536
 5737SOL     OW28669   2.060   3.247   5.891  0.4064  0.0065  0.0887
 5737SOL    HW128670   2.100   3.258   5.977 -3.2356 -1.4499  1.9502
 5737SOL    HW228671   2.106   3.308   5.832 -1.2253  0.0687 -1.1268
 5738SOL     OW28672   1.098   2.906  15.729 -0.0448 -0.0290  0.1817
 5738SOL    HW128673   1.026   2.962  15.760  0.4906  0.5300  0.4153
 5738SOL    HW228674   1.112   2.950  15.645 -0.8396  0.8590  0.5130
 5739SOL     OW28675   3.898   3.968   6.525 -0.1150 -0.2259 -0.3493
 5739SOL    HW128676   3.906   3.889   6.579  0.2191  0.2398  0.2891
 5739SOL    HW228677   3.981   3.961   6.477 -0.3594  1.4535 -1.0211
 5740SOL     OW28678   2.430   2.649   8.768  0.5885  0.3367  0.2858
 5740SOL    HW128679   2.360   2.584   8.778 -0.6282  1.4064 -1.4132
 5740SOL    HW228680   2.506   2.593   8.751  0.6295  0.7684 -0.8920
 5741SOL     OW28681   3.270   1.195   6.321  0.3339 -0.6368 -0.2399
 5741SOL    HW128682   3.185   1.231   6.348  0.3055 -0.2738 -0.8062
 5741SOL    HW228683   3.286   1.256   6.249 -0.0306  0.6049  0.7089
 5742SOL     OW28684   3.376   0.619   5.200 -0.2581  0.4536  0.3098
 5742SOL    HW128685   3.346   0.529   5.198 -0.7232  0.5544  3.2963
 5742SOL    HW228686   3.427   0.624   5.119 -1.8628  0.9287 -0.6874
 5743SOL     OW28687   2.627   3.951   7.554  0.1470  0.3356 -0.1135
 5743SOL    HW128688   2.707   3.899   7.553 -0.3804 -0.4416 -2.5047
 5743SOL    HW228689   2.651   4.018   7.490 -1.5473 -0.3296 -1.4542
 5744SOL     OW28690   1.377   1.252   5.579  0.0864 -0.1773  0.0445
 5744SOL    HW128691   1.411   1.341   5.575 -0.8370  0.2698  2.0920
 5744SOL    HW228692   1.313   1.257   5.650  0.6413 -5.3283  0.8787
 5745SOL     OW28693   0.460   2.299  10.794 -0.0054  0.5731  0.2635
 5745SOL    HW128694   0.430   2.388  10.815  2.5208  1.5179 -0.1002
 5745SOL    HW228695   0.374   2.270  10.763  0.4335  0.0642 -0.4816
 5746SOL     OW28696   1.662   3.438   3.602 -0.0106  0.0428 -0.2131
 5746SOL    HW128697   1.662   3.347   3.631  0.5407  0.2251  0.3640
 5746SOL    HW228698   1.579   3.460   3.643 -0.1072 -2.6280  0.9928
 5747SOL     OW28699   3.341   3.240   8.827 -0.1174  0.3321  0.2394
 5747SOL    HW128700   3.272   3.227   8.762  0.4039 -3.2323  0.3715
 5747SOL    HW228701   3.290   3.228   8.907 -0.1411 -1.5131 -0.0442
 5748SOL     OW28702   0.845   3.384  12.020  0.4553  0.3402 -0.2535
 5748SOL    HW128703   0.827   3.310  11.962 -2.5540 -0.0673  1.2134
 5748SOL    HW228704   0.922   3.424  11.978  0.7464 -0.8950 -0.9008
 5749SOL     OW28705   2.169   1.467   6.549  0.2233  0.5591 -0.0219
 5749SOL    HW128706   2.195   1.376   6.540 -1.6790  0.0729 -0.6454
 5749SOL    HW228707   2.211   1.512   6.476  0.2998 -0.1193 -0.3893
 5750SOL     OW28708   0.500   0.367   2.959 -0.4217  0.1912 -0.1511
 5750SOL    HW128709   0.541   0.322   3.033  0.1909  1.9035  0.5445
 5750SOL    HW228710   0.452   0.293   2.921  1.1952  0.1689 -2.1895
 5751SOL     OW28711   3.427   0.361  10.831 -0.5610 -0.0173 -0.0072
 5751SOL    HW128712   3.427   0.453  10.804 -1.7526  0.1883  0.6832
 5751SOL    HW228713   3.418   0.333  10.740 -1.0603 -0.4704  0.1826
 5752SOL     OW28714   0.153   2.573  17.529  0.7486 -0.0396  0.2273
 5752SOL    HW128715   0.146   2.540  17.439  2.2099  0.0680  0.0668
 5752SOL    HW228716   0.125   2.664  17.524  1.6978  0.2819  0.7478
 5753SOL     OW28717   1.029   0.544   3.462  0.0765  0.3108  0.3890
 5753SOL    HW128718   0.968   0.521   3.533  0.0427 -2.2909 -0.4662
 5753SOL    HW228719   1.111   0.504   3.491 -0.3711 -2.7346 -2.4590
 5754SOL     OW28720   1.050   0.859   8.759  0.3499  0.0522  0.1234
 5754SOL    HW128721   1.093   0.881   8.676 -0.6819 -2.0842 -0.9883
 5754SOL    HW228722   1.125   0.841   8.816 -0.0461 -0.9476  0.3281
 5755SOL     OW28723   3.811   3.533   0.173 -0.1031 -0.5306 -0.0550
 5755SOL    HW128724   3.846   3.620   0.155 -0.2292 -0.0978  1.7879
 5755SOL    HW228725   3.844   3.470   0.110 -0.5024 -1.0903  0.2930
 5756SOL     OW28726   0.103   3.391   5.288 -0.6082  0.3697  0.3045
 5756SOL    HW128727   0.012   3.420   5.299 -1.3312 -2.7220  2.6927
 5756SOL    HW228728   0.146   3.473   5.266 -0.7385  0.5801  0.8307
 5757SOL     OW28729   0.240   0.055   6.807 -0.1339 -0.0972  0.3054
 5757SOL    HW128730   0.235   0.089   6.718 -1.3543 -1.0906 -0.0153
 5757SOL    HW228731   0.261   0.137   6.851 -1.2611 -0.0699  0.7978
 5758SOL     OW28732   4.384   1.110   6.250 -0.8282 -0.1208 -0.2429
 5758SOL    HW128733   4.391   1.172   6.177 -2.0426  1.2470  0.8076
 5758SOL    HW228734   4.414   1.036   6.197  1.6263  0.3011  0.5661
 5759SOL     OW28735   3.646   0.790   1.926  0.2430 -0.6441 -0.1991
 5759SOL    HW128736   3.722   0.769   1.872  0.5861 -0.2020  0.1117
 5759SOL    HW228737   3.646   0.886   1.920  1.0751 -0.8064 -3.0106
 5760SOL     OW28738   3.991   3.520   1.774  0.1189  0.2023  0.7495
 5760SOL    HW128739   3.961   3.466   1.847 -1.5599  0.6300  0.3714
 5760SOL    HW228740   3.926   3.589   1.765  1.5174  1.2231 -1.5694
 5761SOL     OW28741   1.074   3.404   8.147  0.4419 -0.6209 -0.0249
 5761SOL    HW128742   1.141   3.370   8.088 -0.0706  0.5722 -1.2950
 5761SOL    HW228743   1.043   3.322   8.187 -0.1803 -0.7161 -0.7103
 5762SOL     OW28744   2.022   2.269   0.875 -0.2011  0.4811  0.5453
 5762SOL    HW128745   1.963   2.344   0.883  0.0622  0.5397  1.8098
 5762SOL    HW228746   2.097   2.309   0.831  0.2915 -1.2826 -0.2279
 5763SOL     OW28747   0.265   4.660  13.020  0.3320  0.7932  0.3452
 5763SOL    HW128748   0.324   4.697  12.954  3.4210 -1.3541  1.9315
 5763SOL    HW228749   0.187   4.713  13.000 -1.2067 -0.3505  3.3374
 5764SOL     OW28750   3.736   4.067   4.591  0.3859  0.0504  0.6345
 5764SOL    HW128751   3.720   3.977   4.618 -1.5129 -0.1496 -1.1531
 5764SOL    HW228752   3.777   4.054   4.506 -2.1658  1.0485 -0.7424
 5765SOL     OW28753   4.199   0.075  10.962  0.4307  0.3268 -0.3417
 5765SOL    HW128754   4.225   0.058  11.053  0.0716 -1.3648 -0.5593
 5765SOL    HW228755   4.161   0.163  10.961  0.7070  0.4748  2.3522
 5766SOL     OW28756   3.997   1.466   8.227  0.3335 -0.1783  0.0073
 5766SOL    HW128757   3.985   1.397   8.292  4.6801 -0.2470  0.7470
 5766SOL    HW228758   3.914   1.512   8.220  0.1179 -0.3864  1.3307
 5767SOL     OW28759   0.190   1.197   5.125 -0.1232  0.3318  0.2489
 5767SOL    HW128760   0.188   1.151   5.041  0.5952 -0.8561  0.8823
 5767SOL    HW228761   0.133   1.136   5.171  0.9893 -1.9215 -1.3846
 5768SOL     OW28762   2.756   1.470   0.946  0.2620  0.1812  0.8182
 5768SOL    HW128763   2.702   1.465   0.867  2.4741 -0.1714 -0.6578
 5768SOL    HW228764   2.820   1.540   0.932 -0.2832  0.3358 -0.9570
 5769SOL     OW28765   3.515   1.483   4.668 -0.5340  0.0602  0.9218
 5769SOL    HW128766   3.421   1.479   4.682 -0.5993  1.1648  0.7976
 5769SOL    HW228767   3.537   1.399   4.629  0.0524 -0.0241  1.4182
 5770SOL     OW28768   3.598   2.577   0.238 -0.6789  0.1722  0.0899
 5770SOL    HW128769   3.675   2.598   0.291  0.9138  0.9549 -2.5218
 5770SOL    HW228770   3.538   2.642   0.275 -0.4389  1.4323 -1.7341
 5771SOL     OW28771   4.127   1.536   6.465  0.2153 -0.0625 -0.0488
 5771SOL    HW128772   4.092   1.625   6.459  0.3486  0.0546  0.8274
 5771SOL    HW228773   4.075   1.487   6.401  1.0451 -1.1045  0.0828
 5772SOL     OW28774   1.489   3.617   4.832  0.4883  0.1238  0.6615
 5772SOL    HW128775   1.576   3.644   4.804 -1.1029  3.2929 -1.2645
 5772SOL    HW228776   1.448   3.703   4.839  0.3313  0.0898  0.1823
 5773SOL     OW28777   4.642   0.115   3.060  0.1102  0.9879 -0.5531
 5773SOL    HW128778   4.561   0.063   3.059  0.4218  0.4774  0.9739
 5773SOL    HW228779   4.624   0.205   3.086 -2.4385  0.1492  0.6720
 5774SOL     OW28780   0.006   3.567   4.389 -0.1618  0.4655  0.1515
 5774SOL    HW128781   4.708   3.621   4.465 -0.7640  0.2806  0.0918
 5774SOL    HW228782   0.044   3.495   4.439  2.5348  1.5258 -0.3736
 5775SOL     OW28783   2.994   0.810   7.460 -0.5967 -0.2180 -0.3002
 5775SOL    HW128784   3.013   0.790   7.551 -1.7421  0.0848  0.0136
 5775SOL    HW228785   2.898   0.809   7.466 -0.6111 -0.6299 -0.6125
 5776SOL     OW28786   1.562   2.481  11.825  0.0798  0.2896  0.0702
 5776SOL    HW128787   1.518   2.465  11.908 -1.7870 -0.2882 -1.0326
 5776SOL    HW228788   1.602   2.394  11.820  1.8185  1.2395 -2.6495
 5777SOL     OW28789   1.536   0.359   5.303 -0.0134  0.1215  0.4452
 5777SOL    HW128790   1.607   0.299   5.327 -0.8286 -1.4193 -0.9636
 5777SOL    HW228791   1.489   0.359   5.386  0.0614 -0.5190  0.4864
 5778SOL     OW28792   2.437   3.395   5.151  0.0634  0.2040 -0.7314
 5778SOL    HW128793   2.407   3.353   5.070 -0.6054  1.5962 -1.2082
 5778SOL    HW228794   2.423   3.490   5.155  0.6945  0.2842 -0.4745
 5779SOL     OW28795   2.715   4.038   6.689 -0.5602  0.4177 -0.0865
 5779SOL    HW128796   2.723   3.950   6.727  2.0915  0.6213 -0.1956
 5779SOL    HW228797   2.777   4.029   6.617 -1.0285 -2.5674 -0.1314
 5780SOL     OW28798   4.167   3.837   0.249 -0.7299  0.4497 -0.3747
 5780SOL    HW128799   4.227   3.903   0.282 -0.1801  0.2309 -0.9312
 5780SOL    HW228800   4.168   3.860   0.156 -1.9562  1.6759 -0.0890
 5781SOL     OW28801   2.961   1.424   9.144 -0.5138  0.4577 -0.0666
 5781SOL    HW128802   2.872   1.451   9.121 -0.1790  2.2555  0.7972
 5781SOL    HW228803   2.938   1.340   9.184  2.7345 -0.5747 -0.4147
 5782SOL     OW28804   4.478   4.260   5.471 -0.4199  0.9357  0.1086
 5782SOL    HW128805   4.508   4.184   5.420 -1.2869 -0.2709  1.4020
 5782SOL    HW228806   4.516   4.335   5.426  1.2448  0.3868  0.5885
 5783SOL     OW28807   2.927   4.611   1.053 -0.0491 -0.3668 -0.2339
 5783SOL    HW128808   2.914   4.571   0.967  0.0573  0.1570 -0.4973
 5783SOL    HW228809   2.837   4.632   1.075 -0.4613 -0.2359 -2.0655
 5784SOL     OW28810   2.015   2.125   6.552 -0.0622  0.5280 -0.4376
 5784SOL    HW128811   2.053   2.211   6.568 -1.9668  1.3710 -0.4737
 5784SOL    HW228812   2.088   2.072   6.520  0.4724 -0.4702  2.3910
 5785SOL     OW28813   0.315   2.199   5.244  0.5428 -0.2636 -0.6122
 5785SOL    HW128814   0.411   2.200   5.242  0.5327  2.5471 -0.0233
 5785SOL    HW228815   0.298   2.242   5.160  1.2768 -0.5446 -0.9099
 5786SOL     OW28816   1.070   3.456   6.089 -0.4409  0.5915 -0.6928
 5786SOL    HW128817   1.109   3.519   6.149 -0.6532 -1.4079  1.5514
 5786SOL    HW228818   1.144   3.398   6.070 -0.5328  1.0296 -2.3656
 5787SOL     OW28819   4.621   0.592   5.233 -0.1213 -0.7415  0.1735
 5787SOL    HW128820   4.659   0.659   5.289 -0.9598 -0.2640  0.1720
 5787SOL    HW228821   4.562   0.633   5.170  0.5394 -1.1445 -0.7105
 5788SOL     OW28822   0.555   0.242   7.362 -0.2193 -0.4538 -0.1133
 5788SOL    HW128823   0.591   0.329   7.376  4.5937 -2.6143  0.7198
 5788SOL    HW228824   0.462   0.255   7.382 -0.1049 -0.4625  0.4069
 5789SOL     OW28825   2.654   1.430   5.303 -0.0923  0.2710 -0.2707
 5789SOL    HW128826   2.697   1.354   5.342  0.3341  0.6083 -0.0794
 5789SOL    HW228827   2.589   1.392   5.244 -1.6925  0.0569  1.6401
 5790SOL     OW28828   3.904   0.288  17.344 -0.3647  0.4859 -0.4802
 5790SOL    HW128829   3.991   0.252  17.363 -0.6083  0.8324  1.2865
 5790SOL    HW228830   3.909   0.297  17.248 -0.6916 -0.6254 -0.5950
 5791SOL     OW28831   1.346   1.332  11.099  0.2772  0.2985 -0.6938
 5791SOL    HW128832   1.255   1.304  11.096  0.1929  0.5711 -0.6502
 5791SOL    HW228833   1.339   1.414  11.147  2.0624  0.3798 -0.5832
 5792SOL     OW28834   0.412   0.119   4.513  0.0428 -0.4079  0.1486
 5792SOL    HW128835   0.439   0.167   4.592 -0.1246  1.1627 -0.7559
 5792SOL    HW228836   0.319   0.130   4.532  0.5515  1.8007  1.4431
 5793SOL     OW28837   0.856   1.681   6.104  0.2246 -0.0542  0.4756
 5793SOL    HW128838   0.856   1.656   6.011 -2.8430 -1.7690  0.9105
 5793SOL    HW228839   0.871   1.597   6.149  2.6302 -0.1584 -0.5529
 5794SOL     OW28840   1.830   0.747   4.976 -0.3479 -0.1900  0.3307
 5794SOL    HW128841   1.841   0.697   5.057 -1.4163 -1.8445 -0.5430
 5794SOL    HW228842   1.763   0.805   5.013 -0.1557 -1.1243  2.1465
 5795SOL     OW28843   2.978   2.981   7.479 -0.2989 -0.3392  0.1022
 5795SOL    HW128844   3.008   2.927   7.407  0.8004 -0.1492  0.4161
 5795SOL    HW228845   2.883   2.973   7.474 -0.2319 -1.0068 -0.1324
 5796SOL     OW28846   1.552   2.710  14.012 -0.1682 -0.0586 -0.3972
 5796SOL    HW128847   1.557   2.806  14.017 -2.1026  0.0187 -0.2891
 5796SOL    HW228848   1.645   2.687  14.006  0.0493  1.1929 -2.0237
 5797SOL     OW28849   1.374   3.550   5.299  0.3099  0.2106  0.2017
 5797SOL    HW128850   1.402   3.630   5.344  2.6966 -1.2778  1.3953
 5797SOL    HW228851   1.449   3.542   5.239  0.3906  1.0813  0.1898
 5798SOL     OW28852   1.759   0.999   5.791 -0.2835 -0.3993 -0.2500
 5798SOL    HW128853   1.761   1.083   5.837  0.5459 -1.8206  2.2864
 5798SOL    HW228854   1.803   0.939   5.852  1.6043  2.8987  1.6550
 5799SOL     OW28855   3.113   4.496   7.972  0.0534  0.5951  0.2766
 5799SOL    HW128856   3.097   4.445   8.051  0.3564  2.1800  1.3694
 5799SOL    HW228857   3.201   4.466   7.948 -1.0490 -1.2569 -1.3636
 5800SOL     OW28858   0.945   4.196   5.981  0.4064 -0.8037  0.7881
 5800SOL    HW128859   0.977   4.252   5.911 -1.2239  0.5144  1.1215
 5800SOL    HW228860   1.015   4.214   6.044  0.2297 -2.1908  1.3910
 5801SOL     OW28861   2.800   3.619   3.181 -0.3015  0.5891  0.3686
 5801SOL    HW128862   2.872   3.643   3.239 -1.8547  2.1372  1.6379
 5801SOL    HW228863   2.838   3.660   3.103 -0.1178 -0.2249  0.0258
 5802SOL     OW28864   0.591   4.186   2.548  0.6962 -0.1453 -0.5095
 5802SOL    HW128865   0.650   4.261   2.537  0.3983  0.4591  2.0576
 5802SOL    HW228866   0.548   4.207   2.631  0.3453  1.1682 -1.0231
 5803SOL     OW28867   4.019   3.647   0.751  0.4563 -0.3713  0.6294
 5803SOL    HW128868   4.001   3.636   0.658  1.8257  2.5277  0.0412
 5803SOL    HW228869   4.105   3.689   0.751  0.2382  0.0625  5.4053
 5804SOL     OW28870   4.234   1.479   7.110  0.2093  0.0590 -0.4111
 5804SOL    HW128871   4.206   1.513   7.025 -0.1780  0.5653 -0.0816
 5804SOL    HW228872   4.253   1.560   7.158  1.9971 -0.8446  0.3855
 5805SOL     OW28873   1.122   2.980   2.202  0.0441 -0.4819  0.5400
 5805SOL    HW128874   1.113   2.899   2.153  0.4096 -0.4264  0.3805
 5805SOL    HW228875   1.198   2.940   2.244  2.3576  2.2787 -0.9807
 5806SOL     OW28876   3.966   2.261  16.285  0.1927 -0.1021  0.1067
 5806SOL    HW128877   3.986   2.238  16.375  2.7681 -1.8354 -0.9212
 5806SOL    HW228878   4.039   2.217  16.241  1.0378 -0.0812  1.4920
 5807SOL     OW28879   0.853   1.297   5.421 -0.4346 -0.0468  0.2071
 5807SOL    HW128880   0.853   1.382   5.376  2.3182  0.0384  0.4081
 5807SOL    HW228881   0.771   1.259   5.390  1.4910 -2.4427 -1.9281
 5808SOL     OW28882   3.311   1.806   8.158  0.5193  0.4337  0.5711
 5808SOL    HW128883   3.238   1.806   8.095  0.7529  2.3317  0.2805
 5808SOL    HW228884   3.342   1.716   8.162 -0.6107 -0.1411 -3.5446
 5809SOL     OW28885   3.445   1.098   9.209 -0.1515 -0.4157 -0.3500
 5809SOL    HW128886   3.534   1.069   9.230 -0.8083 -0.3088  2.6414
 5809SOL    HW228887   3.409   1.135   9.289  0.9213  0.2566 -0.1688
 5810SOL     OW28888   1.736   1.113  11.134 -0.2601 -0.1201 -0.9388
 5810SOL    HW128889   1.642   1.105  11.150 -0.0301 -0.8791  0.0137
 5810SOL    HW228890   1.726   1.169  11.057  0.7164  1.3756  0.0524
 5811SOL     OW28891   3.615   0.135  15.372  0.0976 -0.1008 -0.4511
 5811SOL    HW128892   3.643   0.184  15.295 -1.6027  1.2152 -0.2269
 5811SOL    HW228893   3.687   0.072  15.380 -0.2229 -0.4587 -0.3593
 5812SOL     OW28894   0.486   3.665   7.556  0.4423 -0.2175  0.4685
 5812SOL    HW128895   0.514   3.697   7.470  0.5889 -0.0100  0.5964
 5812SOL    HW228896   0.464   3.575   7.529  0.3055  0.0190 -0.2193
 5813SOL     OW28897   2.233   0.115   3.741  0.0876  0.1575  0.1014
 5813SOL    HW128898   2.268   0.202   3.722 -3.2389  1.4381 -0.2227
 5813SOL    HW228899   2.156   0.111   3.684  0.3940 -1.5918 -0.1738
 5814SOL     OW28900   2.081   3.589  15.471 -0.7107  0.0078  0.6149
 5814SOL    HW128901   2.161   3.562  15.425 -1.6054 -0.8745 -0.4335
 5814SOL    HW228902   2.114   3.664  15.521 -1.6366  1.2541 -0.6673
 5815SOL     OW28903   3.720   2.009   7.624  0.5300  0.3042  0.5003
 5815SOL    HW128904   3.672   1.947   7.679 -1.1117 -0.7704 -2.1012
 5815SOL    HW228905   3.658   2.019   7.551  0.3021  3.1312  1.0929
 5816SOL     OW28906   3.344   1.944   4.617 -0.0343 -0.4275  0.3885
 5816SOL    HW128907   3.412   2.010   4.631  0.7907 -0.8807 -1.4784
 5816SOL    HW228908   3.384   1.858   4.630 -0.1351 -0.1566  2.4672
 5817SOL     OW28909   4.429   2.543   2.411  0.1700  0.1547 -0.0973
 5817SOL    HW128910   4.384   2.469   2.452  0.1123  0.6218  0.6789
 5817SOL    HW228911   4.429   2.517   2.319 -0.8977  1.5568 -0.4937
 5818SOL     OW28912   4.494   2.594   7.917  0.1070  0.0451 -0.1664
 5818SOL    HW128913   4.497   2.652   7.841  0.8911 -0.5262 -0.5734
 5818SOL    HW228914   4.429   2.530   7.888  1.2675 -0.3615 -1.8791
 5819SOL     OW28915   1.557   1.950   6.727  0.0840  0.2319  0.0200
 5819SOL    HW128916   1.562   1.952   6.823 -0.8948  0.3913  0.0654
 5819SOL    HW228917   1.646   1.919   6.710 -0.4166 -0.7695 -0.7145
 5820SOL     OW28918   4.650   0.116  17.504  1.2113 -0.0110 -0.2312
 5820SOL    HW128919   4.607   0.174  17.442  0.3399 -0.6695 -0.2540
 5820SOL    HW228920   4.574   0.059  17.516  0.7394  0.6953  0.1418
 5821SOL     OW28921   2.499   0.695   1.231 -0.1879 -0.1289 -0.9261
 5821SOL    HW128922   2.523   0.648   1.151 -0.3208 -1.1395 -0.3709
 5821SOL    HW228923   2.407   0.668   1.242 -0.7725  2.2563 -0.0600
 5822SOL     OW28924   3.734   0.934  11.482 -0.7932 -0.2590  0.4740
 5822SOL    HW128925   3.663   0.895  11.431 -0.1677  0.2871 -0.8046
 5822SOL    HW228926   3.721   1.019  11.439  0.3204 -0.4353 -0.1982
 5823SOL     OW28927   2.741   1.690   5.892  0.1215  0.1578  0.4969
 5823SOL    HW128928   2.703   1.687   5.980  2.1860  2.4337  1.4493
 5823SOL    HW228929   2.699   1.760   5.841  1.1692 -1.3517 -2.4403
 5824SOL     OW28930   1.738   2.649   6.177 -0.1772 -0.1521  0.1456
 5824SOL    HW128931   1.818   2.694   6.205  1.1843 -1.4513 -1.5901
 5824SOL    HW228932   1.767   2.557   6.175  1.6137  0.4201 -0.7067
 5825SOL     OW28933   3.540   0.526   1.878  0.2998  0.2486  0.4000
 5825SOL    HW128934   3.615   0.510   1.820  0.3187  0.7472  0.2910
 5825SOL    HW228935   3.562   0.619   1.882 -3.6533  1.1154  1.2885
 5826SOL     OW28936   0.934   4.230   7.463  0.0441  0.1068  0.1946
 5826SOL    HW128937   0.871   4.197   7.527 -0.1244 -0.9524 -0.5314
 5826SOL    HW228938   1.018   4.236   7.509 -0.7544  2.6223  1.3059
 5827SOL     OW28939   0.260   1.764   0.866  0.2340 -0.1793 -0.1141
 5827SOL    HW128940   0.340   1.815   0.874  1.0457 -1.2522 -1.3216
 5827SOL    HW228941   0.223   1.764   0.954 -2.2317 -0.8687 -1.1324
 5828SOL     OW28942   2.376   4.234   3.497 -0.3239 -0.2837 -0.4028
 5828SOL    HW128943   2.354   4.308   3.439 -1.0342 -1.3483 -1.4889
 5828SOL    HW228944   2.353   4.172   3.428  0.3049  0.8246 -1.6254
 5829SOL     OW28945   2.158   1.411   8.225  0.1684  0.3194  0.4540
 5829SOL    HW128946   2.090   1.475   8.205 -0.4829 -1.5792 -3.5478
 5829SOL    HW228947   2.186   1.429   8.314  2.5602 -0.0989 -0.2147
 5830SOL     OW28948   3.485   3.765   6.868  0.1427 -0.5635  0.0063
 5830SOL    HW128949   3.455   3.823   6.797 -3.6039 -1.9082  0.5015
 5830SOL    HW228950   3.572   3.747   6.834  0.5197  3.4191 -1.1751
 5831SOL     OW28951   2.332   0.706   7.183 -0.4154  0.1800 -0.3041
 5831SOL    HW128952   2.273   0.698   7.107  0.6580 -0.9053 -1.0393
 5831SOL    HW228953   2.375   0.622   7.168 -0.0229  0.2012  0.7553
 5832SOL     OW28954   1.621   0.062   1.876  0.4379  0.6343  0.4528
 5832SOL    HW128955   1.686   0.031   1.813 -2.1667 -0.0803 -1.8847
 5832SOL    HW228956   1.667   0.134   1.919  1.6622  0.8034 -1.1551
 5833SOL     OW28957   0.507   2.297   3.244 -0.3763  0.1786  0.3229
 5833SOL    HW128958   0.484   2.340   3.327  0.4686 -1.0531  1.1984
 5833SOL    HW228959   0.426   2.247   3.238  0.3145 -0.7279 -1.3775
 5834SOL     OW28960   1.406   2.671   4.667  0.4167  0.7634  0.3471
 5834SOL    HW128961   1.401   2.741   4.732  0.8613  0.7171  0.4294
 5834SOL    HW228962   1.450   2.604   4.720 -2.0149 -1.1396  0.0026
 5835SOL     OW28963   1.641   1.033   3.658 -0.0002  0.1089 -0.5401
 5835SOL    HW128964   1.619   1.114   3.703  0.7393  1.4689 -2.6090
 5835SOL    HW228965   1.732   1.022   3.686 -0.7974 -1.9427  1.1840
 5836SOL     OW28966   3.236   2.978  13.221 -0.0725  0.0535 -0.2547
 5836SOL    HW128967   3.238   3.056  13.166  0.9053  0.7411  0.7451
 5836SOL    HW228968   3.158   2.994  13.273  0.1101 -1.9742  0.6626
 5837SOL     OW28969   0.876   1.981  10.666  0.4952  0.2254  0.0952
 5837SOL    HW128970   0.883   2.045  10.595  1.9696  1.1715  1.1056
 5837SOL    HW228971   0.963   1.944  10.655  0.2763 -0.0656 -0.7020
 5838SOL     OW28972   0.911   4.676  15.902  0.2334 -0.0915  0.4874
 5838SOL    HW128973   0.948   4.613  15.840 -1.0751  0.5656 -0.9523
 5838SOL    HW228974   0.850   4.624  15.954  1.1294 -1.3465  0.2907
 5839SOL     OW28975   4.645   3.116   5.118  0.4421 -0.5212  0.0141
 5839SOL    HW128976   4.648   3.033   5.164 -1.5046 -1.0141 -0.7700
 5839SOL    HW228977   4.597   3.162   5.187  2.6381  0.0628  1.1614
 5840SOL     OW28978   2.006   2.533   2.501 -0.7182  0.0529  0.5184
 5840SOL    HW128979   1.946   2.590   2.549 -1.3379  0.2521 -0.5023
 5840SOL    HW228980   2.077   2.596   2.484 -1.0060  0.0993 -0.5298
 5841SOL     OW28981   1.671   3.032   0.210  0.5821  0.0058 -0.5467
 5841SOL    HW128982   1.672   3.011   0.116 -1.8732 -0.7542 -0.3893
 5841SOL    HW228983   1.657   3.126   0.200 -0.2845 -0.0729 -0.0258
 5842SOL     OW28984   0.015   0.304  15.175  0.2113  0.3300 -0.2574
 5842SOL    HW128985   0.109   0.293  15.185 -0.0207 -0.0717  1.3528
 5842SOL    HW228986   4.722   0.217  15.140 -0.6677  0.4152  0.0116
 5843SOL     OW28987   1.642   0.594  10.960  0.4331 -0.2967 -0.2323
 5843SOL    HW128988   1.565   0.545  10.986  1.6749 -2.9911 -1.6399
 5843SOL    HW228989   1.611   0.683  10.939 -0.5902 -0.8155 -0.9379
 5844SOL     OW28990   1.908   0.570  14.822  0.5861  0.0522 -0.4256
 5844SOL    HW128991   2.000   0.573  14.850  0.7875  0.6148 -1.1673
 5844SOL    HW228992   1.913   0.508  14.750 -1.6843 -0.6154 -0.0146
 5845SOL     OW28993   0.711   4.177  14.583 -0.0053  0.2674 -0.2030
 5845SOL    HW128994   0.662   4.216  14.510 -0.5969  0.4205  0.2743
 5845SOL    HW228995   0.733   4.088  14.555  1.7709  0.6249  0.1007
 5846SOL     OW28996   1.481   3.028   4.716  0.4604  0.0433  0.1748
 5846SOL    HW128997   1.528   3.111   4.724  1.2060 -0.5751  2.1716
 5846SOL    HW228998   1.555   2.968   4.706  1.2032  0.6250  2.1783
 5847SOL     OW28999   1.558   2.622   7.276 -0.2769  0.3193  0.4948
 5847SOL    HW129000   1.506   2.541   7.278 -2.8071  1.9273 -0.0376
 5847SOL    HW229001   1.516   2.673   7.207  1.8115 -0.1351 -1.1085
 5848SOL     OW29002   0.953   2.576  10.124 -0.5453  0.1898  0.0410
 5848SOL    HW129003   0.966   2.626  10.044 -0.2982  0.2639  0.1291
 5848SOL    HW229004   1.043   2.546  10.134  0.0856  1.9189 -0.5936
 5849SOL     OW29005   0.440   4.128  14.305  0.3617 -0.2683 -0.1812
 5849SOL    HW129006   0.381   4.137  14.231 -1.0601 -2.0655  0.7270
 5849SOL    HW229007   0.378   4.159  14.371  2.0904 -0.4732  1.5315
 5850SOL     OW29008   0.974   0.065   5.650  0.3283 -0.1471  0.3664
 5850SOL    HW129009   0.936   0.019   5.576 -0.2567  0.1711  0.4693
 5850SOL    HW229010   1.026   0.131   5.604 -1.5374 -0.7951 -2.6684
 5851SOL     OW29011   2.423   2.295   5.031 -0.1364  0.1529 -0.7081
 5851SOL    HW129012   2.518   2.293   5.044 -0.1249 -1.3757 -1.0596
 5851SOL    HW229013   2.393   2.364   5.090 -0.6511 -1.9071  1.3896
 5852SOL     OW29014   3.625   4.686  13.979 -0.0043 -0.2813 -0.6890
 5852SOL    HW129015   3.547   4.655  13.933 -2.1301  3.4699  0.4166
 5852SOL    HW229016   3.653   4.607  14.026  1.6445  0.7224  0.0269
 5853SOL     OW29017   4.668   4.501   5.495 -0.1706  0.6085  0.2239
 5853SOL    HW129018   4.670   4.445   5.418 -1.6404 -0.2127  0.7968
 5853SOL    HW229019   4.626   4.455   5.568  0.5166  1.1288  0.9507
 5854SOL     OW29020   4.493   3.227   6.617  0.1634 -0.0852 -0.2782
 5854SOL    HW129021   4.560   3.171   6.578  0.2439  0.1853 -0.5381
 5854SOL    HW229022   4.533   3.247   6.702 -0.6606  0.7909 -0.0934
 5855SOL     OW29023   3.787   1.168  16.176  0.0693  0.1962 -0.5771
 5855SOL    HW129024   3.758   1.139  16.263 -2.4200  2.4312 -0.6627
 5855SOL    HW229025   3.723   1.114  16.130  2.0851 -1.2186 -1.7186
 5856SOL     OW29026   1.261   4.256   8.560  0.5788  0.4883  0.3148
 5856SOL    HW129027   1.302   4.208   8.632 -0.1706 -0.5115  0.0716
 5856SOL    HW229028   1.336   4.259   8.501  0.8928  0.8707  0.7250
 5857SOL     OW29029   1.903   2.996   1.757 -0.4897  0.2037  0.0524
 5857SOL    HW129030   1.864   3.063   1.814  1.2170  0.4066  0.9823
 5857SOL    HW229031   1.823   2.949   1.734  0.0422 -1.6381  2.0577
 5858SOL     OW29032   3.445   2.826   9.526  0.8896  0.2818 -0.3743
 5858SOL    HW129033   3.366   2.881   9.529 -0.4963 -1.6890 -0.8659
 5858SOL    HW229034   3.503   2.878   9.469  1.5940  0.7292  0.7552
 5859SOL     OW29035   1.124   0.769  10.258 -0.7705 -0.7229  0.7843
 5859SOL    HW129036   1.212   0.760  10.292  0.5187  0.4444 -2.2550
 5859SOL    HW229037   1.106   0.856  10.294 -0.0761  0.0470 -0.7285
 5860SOL     OW29038   3.196   2.623   5.315  0.0368 -0.7444 -0.3617
 5860SOL    HW129039   3.281   2.580   5.303  0.3434 -0.3391  0.3742
 5860SOL    HW229040   3.206   2.647   5.407 -0.4419 -0.9014 -0.2704
 5861SOL     OW29041   2.659   4.213   5.600  0.3919 -0.7768  0.2283
 5861SOL    HW129042   2.710   4.206   5.519  1.9489  1.3808  1.0174
 5861SOL    HW229043   2.587   4.155   5.577 -1.0059  2.1550 -2.8217
 5862SOL     OW29044   3.593   0.052   8.697  0.3242 -0.5118  0.1990
 5862SOL    HW129045   3.585   4.720   8.621 -0.7362 -1.1829  0.8198
 5862SOL    HW229046   3.664   0.113   8.676  0.7799 -0.5242  1.6860
 5863SOL     OW29047   3.298   0.446   7.195 -0.1028 -0.5091  0.0492
 5863SOL    HW129048   3.211   0.478   7.171 -0.6586 -2.2812 -0.2945
 5863SOL    HW229049   3.279   0.370   7.250  0.1890 -0.9910 -0.5084
 5864SOL     OW29050   0.406   3.195   4.189 -0.1513  0.3946  0.2576
 5864SOL    HW129051   0.461   3.273   4.197 -0.1441  0.4411 -0.2325
 5864SOL    HW229052   0.452   3.137   4.250  0.0912 -0.1247 -0.4105
 5865SOL     OW29053   3.895   0.753  16.155 -0.0993 -0.1196  0.4613
 5865SOL    HW129054   3.882   0.828  16.098  1.4348  0.7814  1.3000
 5865SOL    HW229055   3.951   0.796  16.219  0.7969  1.0123 -1.0840
 5866SOL     OW29056   1.466   2.018   7.936 -0.0773 -0.0019 -0.1165
 5866SOL    HW129057   1.388   1.963   7.930 -0.4257  0.5804 -0.9222
 5866SOL    HW229058   1.515   1.978   8.008 -1.4126 -1.1560  0.1513
 5867SOL     OW29059   3.006   2.199  11.541 -0.3386 -0.4769  0.0896
 5867SOL    HW129060   3.029   2.199  11.448 -0.0804 -2.7449  0.1549
 5867SOL    HW229061   2.938   2.267  11.545 -1.7243 -1.6964 -2.7430
 5868SOL     OW29062   1.699   3.770   4.756 -0.0428 -0.5301  0.2541
 5868SOL    HW129063   1.780   3.807   4.793  1.3184 -0.0204 -3.2640
 5868SOL    HW229064   1.696   3.803   4.666  0.8996 -1.0829  0.0108
 5869SOL     OW29065   1.625   0.701   2.309  0.3159 -0.1171 -0.5885
 5869SOL    HW129066   1.664   0.721   2.394 -2.5567  3.7889 -0.2181
 5869SOL    HW229067   1.579   0.618   2.321 -0.5196  0.6072  1.1561
 5870SOL     OW29068   1.573   3.341   4.031 -0.1607 -0.8929  0.3189
 5870SOL    HW129069   1.665   3.325   4.054 -0.1655 -4.1712 -1.9429
 5870SOL    HW229070   1.590   3.415   3.972 -2.7606  0.2845  1.0432
 5871SOL     OW29071   1.935   0.599   2.408  0.2402  0.0562 -0.1434
 5871SOL    HW129072   1.873   0.591   2.481 -0.8139  0.5464 -0.9954
 5871SOL    HW229073   1.982   0.680   2.426 -0.0202  0.0448  0.5923
 5872SOL     OW29074   3.728   2.899   4.226 -0.0981 -0.2958 -0.0507
 5872SOL    HW129075   3.749   2.891   4.319 -0.1033 -0.7532 -0.0911
 5872SOL    HW229076   3.633   2.889   4.229 -0.0887 -0.3650  0.0066
 5873SOL     OW29077   1.036   1.505  15.623  0.0687  0.4071  0.1410
 5873SOL    HW129078   1.074   1.585  15.587  1.8737 -0.3088  0.4787
 5873SOL    HW229079   0.960   1.512  15.565  0.6611 -1.5418 -0.8590
 5874SOL     OW29080   4.437   2.924   8.094 -0.1266 -0.1803 -0.5737
 5874SOL    HW129081   4.519   2.916   8.045  1.2006 -0.2352  1.6350
 5874SOL    HW229082   4.448   3.016   8.120 -1.2687 -0.6647  1.6171
 5875SOL     OW29083   1.950   2.526   7.509  0.3376  0.4460 -0.1710
 5875SOL    HW129084   2.045   2.533   7.518  0.3958 -0.6919  0.0791
 5875SOL    HW229085   1.955   2.466   7.434  2.2262  0.2667  0.1037
 5876SOL     OW29086   1.018   3.385  16.274  0.0976  0.2348  0.0802
 5876SOL    HW129087   1.096   3.383  16.329  0.2263 -0.8441 -0.1479
 5876SOL    HW229088   0.978   3.470  16.296  2.1415  1.1188  0.3981
 5877SOL     OW29089   0.119   4.624  12.422  0.3557  0.0079 -0.1200
 5877SOL    HW129090   0.152   4.713  12.424 -2.2452  1.0224 -1.9885
 5877SOL    HW229091   0.189   4.575  12.465  2.3048  1.3146 -1.8052
 5878SOL     OW29092   1.662   3.444  13.781 -0.0027 -0.7195 -0.1710
 5878SOL    HW129093   1.690   3.520  13.831  1.5738 -1.3082 -0.1344
 5878SOL    HW229094   1.652   3.387  13.857 -0.7459 -0.0372  0.2280
 5879SOL     OW29095   4.148   4.644   2.124 -0.0522 -0.3417 -0.2070
 5879SOL    HW129096   4.116   4.647   2.034 -0.0044  1.5564 -0.1553
 5879SOL    HW229097   4.130   4.553   2.148 -2.9125  0.3996  0.4643
 5880SOL     OW29098   3.982   3.173   8.221  0.2940  0.4052 -0.3572
 5880SOL    HW129099   3.918   3.188   8.290 -1.2746 -2.1133 -1.2808
 5880SOL    HW229100   4.063   3.211   8.255  0.8433  0.7993 -2.0755
 5881SOL     OW29101   1.204   3.980  15.800  0.1207 -0.5524  0.2525
 5881SOL    HW129102   1.135   4.047  15.797  1.3715  0.7952  1.4822
 5881SOL    HW229103   1.286   4.030  15.801 -0.6803  0.7330  4.2450
 5882SOL     OW29104   2.132   3.813   1.921 -0.3333 -0.0448 -0.3003
 5882SOL    HW129105   2.052   3.765   1.896 -1.5494  1.4876  0.6225
 5882SOL    HW229106   2.103   3.858   2.001 -2.5471 -0.2292 -0.9982
 5883SOL     OW29107   1.716   0.879   3.418 -0.1042  0.3040  0.6401
 5883SOL    HW129108   1.668   0.942   3.472  2.4127  1.2257  1.8362
 5883SOL    HW229109   1.691   0.797   3.461  1.9480 -1.5528 -1.7276
 5884SOL     OW29110   3.465   2.135   4.389 -0.6465 -0.6773 -0.5190
 5884SOL    HW129111   3.530   2.067   4.405  0.3014 -0.2144 -2.3416
 5884SOL    HW229112   3.398   2.120   4.455 -1.1932 -1.1696 -1.1905
 5885SOL     OW29113   3.330   4.225   2.198  0.5134  0.1183 -0.3096
 5885SOL    HW129114   3.235   4.221   2.205  0.7791 -4.0650  0.7100
 5885SOL    HW229115   3.355   4.146   2.245 -0.5126 -1.1393 -1.9148
 5886SOL     OW29116   1.533   0.247  10.428  0.1564 -0.4839 -0.2310
 5886SOL    HW129117   1.621   0.242  10.464 -0.9778  1.9953  2.8780
 5886SOL    HW229118   1.532   0.162  10.384 -0.4610 -1.8236  2.3550
 5887SOL     OW29119   2.355   3.921   7.613  0.2936  0.0840 -0.0974
 5887SOL    HW129120   2.362   3.998   7.669  1.3984 -1.6767  2.2049
 5887SOL    HW229121   2.447   3.916   7.584  0.4369 -1.5547  0.5947
 5888SOL     OW29122   3.102   3.949   0.177  0.1399 -0.1642  0.4803
 5888SOL    HW129123   3.063   4.024   0.223 -0.9288  0.0376 -0.7752
 5888SOL    HW229124   3.025   3.901   0.147  0.9895 -1.6955  0.7293
 5889SOL     OW29125   1.399   3.814  10.844  0.0936  0.1002 -0.2668
 5889SOL    HW129126   1.304   3.815  10.848  0.1037 -2.4703  0.5102
 5889SOL    HW229127   1.404   3.825  10.939 -1.1951  5.3518 -0.8381
 5890SOL     OW29128   2.200   1.454   8.533 -0.1431  0.5425  0.1508
 5890SOL    HW129129   2.127   1.413   8.580 -1.2177  2.1162 -0.1394
 5890SOL    HW229130   2.210   1.533   8.587 -1.5731 -0.1194  1.4111
 5891SOL     OW29131   2.443   0.439   2.354 -0.3514  0.0845  0.2677
 5891SOL    HW129132   2.500   0.370   2.318 -0.3705  1.5110 -2.5293
 5891SOL    HW229133   2.373   0.392   2.400 -0.7728 -0.8574 -1.3355
 5892SOL     OW29134   0.847   4.357   9.871 -0.1622 -0.0977  0.8228
 5892SOL    HW129135   0.833   4.364   9.966  3.6819 -0.4132  1.4273
 5892SOL    HW229136   0.895   4.274   9.877 -0.0520 -0.1279 -0.5497
 5893SOL     OW29137   0.528   0.940   8.837  0.1324 -0.0766 -0.0429
 5893SOL    HW129138   0.568   0.874   8.781  0.0134  0.3510 -0.6321
 5893SOL    HW229139   0.464   0.985   8.782  2.3679 -1.5953 -3.8355
 5894SOL     OW29140   3.919   1.905   5.552  0.0879 -0.4031  0.8067
 5894SOL    HW129141   3.881   1.978   5.600 -0.6791  0.4830 -1.1565
 5894SOL    HW229142   3.959   1.855   5.624  2.8937 -1.1430 -1.2638
 5895SOL     OW29143   3.523   4.338   7.088  0.2257 -0.4117 -0.4813
 5895SOL    HW129144   3.471   4.419   7.088 -0.4388 -0.8385 -0.9682
 5895SOL    HW229145   3.450   4.280   7.108  0.9849 -0.7092  1.4210
 5896SOL     OW29146   3.445   1.928   3.523  0.3908 -0.2876  0.0269
 5896SOL    HW129147   3.464   1.956   3.612  1.2608 -1.4207  0.1949
 5896SOL    HW229148   3.395   1.847   3.535  0.5786 -0.6327 -1.5132
 5897SOL     OW29149   2.335   0.863   8.038  0.1692 -0.4584  0.9490
 5897SOL    HW129150   2.251   0.846   8.080 -0.8755 -0.4939 -1.1116
 5897SOL    HW229151   2.343   0.809   7.959  3.0644 -1.5678  1.9826
 5898SOL     OW29152   2.662   1.870   7.621 -0.3904  0.1989  0.2901
 5898SOL    HW129153   2.617   1.912   7.694 -1.6796 -0.8113  0.0708
 5898SOL    HW229154   2.626   1.781   7.624 -1.6416  0.5954 -2.8765
 5899SOL     OW29155   2.769   2.415  15.091 -0.1493 -0.3077  0.1788
 5899SOL    HW129156   2.800   2.414  15.000 -0.7060  0.7273 -0.0332
 5899SOL    HW229157   2.685   2.461  15.083  0.2667  0.4119 -0.0539
 5900SOL     OW29158   1.302   0.172   8.714 -0.6812 -0.2108 -0.1413
 5900SOL    HW129159   1.302   0.091   8.663  2.0526 -0.9666  1.0760
 5900SOL    HW229160   1.281   0.135   8.799 -0.4957  1.2888  0.5527
 5901SOL     OW29161   4.668   2.301   7.388  0.1676  0.0487  0.0624
 5901SOL    HW129162   4.628   2.358   7.323 -1.3011 -1.5488 -0.4328
 5901SOL    HW229163   4.627   2.332   7.469  0.3756  0.1464  0.1315
 5902SOL     OW29164   4.053   2.580   7.367 -0.3499  0.1437  0.2003
 5902SOL    HW129165   4.074   2.639   7.440  0.2542 -1.1830  1.1004
 5902SOL    HW229166   4.060   2.493   7.406  0.7736 -0.7511 -1.9974
 5903SOL     OW29167   0.572   3.018   2.775 -0.0775  0.0575 -0.0483
 5903SOL    HW129168   0.582   3.015   2.679  1.0038 -2.1991  0.1517
 5903SOL    HW229169   0.574   2.927   2.802  0.8891 -0.1034 -0.6694
 5904SOL     OW29170   1.212   3.544   9.113 -0.1123  0.2748 -0.1922
 5904SOL    HW129171   1.209   3.546   9.208  1.4528  1.1253 -0.1580
 5904SOL    HW229172   1.214   3.639   9.096 -0.5877  0.2238 -0.5194
 5905SOL     OW29173   3.363   3.743  10.577  0.3609 -0.5966 -0.0922
 5905SOL    HW129174   3.309   3.821  10.562 -1.1662 -1.9781 -1.7283
 5905SOL    HW229175   3.336   3.717  10.665  1.8990 -2.8777 -0.3083
 5906SOL     OW29176   3.308   1.178   7.587  0.0781  0.1729 -0.2287
 5906SOL    HW129177   3.296   1.268   7.618  0.4068 -1.4195  4.5548
 5906SOL    HW229178   3.377   1.151   7.647  1.1972  3.4327 -0.0535
 5907SOL     OW29179   1.513   2.619  13.570  0.0021 -0.3807  0.1665
 5907SOL    HW129180   1.431   2.660  13.599 -0.8078 -1.1295 -1.0545
 5907SOL    HW229181   1.541   2.686  13.508  0.5949 -0.0899  0.7446
 5908SOL     OW29182   0.649   2.784   4.568  0.6083 -0.2184 -1.0055
 5908SOL    HW129183   0.567   2.808   4.524  0.5452  0.2671 -0.6214
 5908SOL    HW229184   0.684   2.707   4.523  3.0482  0.2288  0.1661
 5909SOL     OW29185   0.782   1.934  16.207 -0.6631 -0.9796 -0.1157
 5909SOL    HW129186   0.876   1.950  16.197 -0.9936  2.0277  1.5098
 5909SOL    HW229187   0.772   1.942  16.302  0.8462  0.6293 -0.0790
 5910SOL     OW29188   1.081   4.142  12.003 -0.6109 -0.4957  0.4095
 5910SOL    HW129189   1.158   4.174  11.956 -2.0726 -0.6999 -2.1547
 5910SOL    HW229190   1.076   4.221  12.057 -0.6385 -1.9585  2.5399
 5911SOL     OW29191   1.888   2.397   5.034  0.3300 -0.7106 -0.4040
 5911SOL    HW129192   1.795   2.388   5.053 -0.1404  2.7912 -1.0401
 5911SOL    HW229193   1.883   2.418   4.941 -1.4455  1.5471  0.2066
 5912SOL     OW29194   4.184   4.020   3.873  0.1256 -0.6752  0.3221
 5912SOL    HW129195   4.201   3.926   3.875 -0.3687 -0.7794 -0.7584
 5912SOL    HW229196   4.162   4.026   3.780  1.2798  0.4723  0.1300
 5913SOL     OW29197   0.449   0.453   7.118  0.1882 -0.3417  0.2119
 5913SOL    HW129198   0.528   0.457   7.173  1.4178 -1.7674 -1.4649
 5913SOL    HW229199   0.387   0.477   7.187 -2.0142  0.5665 -2.0879
 5914SOL     OW29200   1.815   4.258   1.151 -0.1949  0.2453  0.3687
 5914SOL    HW129201   1.895   4.207   1.167 -0.0620  0.2453 -0.2630
 5914SOL    HW229202   1.767   4.237   1.231 -0.9822 -1.2842 -0.5149
 5915SOL     OW29203   0.664   1.453   0.270  0.4831  0.1536  0.0035
 5915SOL    HW129204   0.734   1.397   0.237 -0.3278 -1.3861  0.9061
 5915SOL    HW229205   0.688   1.537   0.232 -0.6537 -0.7872 -2.7953
 5916SOL     OW29206   3.508   3.962  13.771 -0.2959  0.0080 -0.3046
 5916SOL    HW129207   3.419   3.927  13.774 -1.1634  2.0652 -1.8988
 5916SOL    HW229208   3.500   4.046  13.816  1.8899  0.3525 -0.5336
 5917SOL     OW29209   2.177   1.894   8.895 -0.0464  0.2767  0.4388
 5917SOL    HW129210   2.114   1.863   8.960 -0.4634  0.0698 -0.0598
 5917SOL    HW229211   2.256   1.902   8.947  1.0302 -1.9964 -0.8322
 5918SOL     OW29212   3.684   2.612   0.721  0.2539  0.0416  0.6312
 5918SOL    HW129213   3.717   2.579   0.638  0.2723 -1.6298  1.3029
 5918SOL    HW229214   3.700   2.706   0.715  4.5204 -0.6824  0.4404
 5919SOL     OW29215   0.537   3.308  14.873 -0.3462 -0.7091 -0.2500
 5919SOL    HW129216   0.518   3.287  14.781 -1.1342  0.7983 -0.4336
 5919SOL    HW229217   0.632   3.306  14.861 -0.0754 -0.2059  1.8904
 5920SOL     OW29218   0.625   1.519   2.896 -0.3641 -0.4081  0.5445
 5920SOL    HW129219   0.600   1.438   2.940 -0.1662 -2.2352 -2.7230
 5920SOL    HW229220   0.543   1.569   2.891 -2.1474 -3.1501  2.6523
 5921SOL     OW29221   3.134   2.089   2.078  0.0057  0.1512  0.1581
 5921SOL    HW129222   3.110   2.063   2.167  0.6970  1.5538  0.7419
 5921SOL    HW229223   3.084   2.170   2.067 -1.9300 -0.9832  0.5513
 5922SOL     OW29224   2.882   4.132   4.085 -0.2870 -0.3568 -0.4742
 5922SOL    HW129225   2.897   4.149   4.178 -3.6983 -0.9028  0.1793
 5922SOL    HW229226   2.789   4.108   4.085 -0.3741 -0.0165  0.6332
 5923SOL     OW29227   3.208   0.293  15.735 -0.2612 -0.4274 -0.2467
 5923SOL    HW129228   3.120   0.261  15.751 -0.8887  1.2849 -0.3106
 5923SOL    HW229229   3.246   0.217  15.689 -1.9229 -1.3226 -0.1233
 5924SOL     OW29230   4.465   3.062  10.729  0.6090 -0.5073  0.0018
 5924SOL    HW129231   4.525   2.990  10.705 -0.5760 -1.4643 -0.0971
 5924SOL    HW229232   4.442   3.044  10.821 -1.1561 -1.4153 -0.6195
 5925SOL     OW29233   1.407   1.913   1.625  0.3478  0.2907  0.5480
 5925SOL    HW129234   1.424   1.979   1.693  1.9281 -1.0888  1.4813
 5925SOL    HW229235   1.420   1.831   1.672  2.4781  0.0400 -0.5252
 5926SOL     OW29236   1.335   1.220   0.585 -0.0979 -0.7976 -0.0307
 5926SOL    HW129237   1.358   1.311   0.568 -0.6269 -0.7671 -0.5640
 5926SOL    HW229238   1.363   1.200   0.674  0.2650  0.6657  0.1766
 5927SOL     OW29239   2.029   3.651   0.077  0.1068  0.3596  0.1345
 5927SOL    HW129240   2.060   3.713   0.011 -1.8040 -0.0263 -1.1311
 5927SOL    HW229241   2.036   3.705   0.156  1.7638  0.9171 -0.3888
 5928SOL     OW29242   4.716   1.879   5.286  0.3887  0.1157  0.0722
 5928SOL    HW129243   4.694   1.945   5.220  0.7486  0.5087  0.3432
 5928SOL    HW229244   4.632   1.855   5.325  1.8649 -0.9261  2.6403
 5929SOL     OW29245   4.351   0.078   3.718  0.8205 -0.4625  0.2787
 5929SOL    HW129246   4.285   0.142   3.745  1.7895  0.4654  0.4770
 5929SOL    HW229247   4.400   0.068   3.800 -1.1674 -1.9870  1.2657
 5930SOL     OW29248   0.890   0.446  12.531  0.0015  0.3242 -0.2798
 5930SOL    HW129249   0.965   0.433  12.473 -0.1939 -0.3943 -0.3812
 5930SOL    HW229250   0.858   0.523  12.485 -0.0621  0.5097  0.0749
 5931SOL     OW29251   3.636   4.106  14.505 -0.4000  0.4992  0.2761
 5931SOL    HW129252   3.703   4.109  14.437 -1.0301 -1.2740 -0.4360
 5931SOL    HW229253   3.620   4.198  14.524  0.7193  0.8322 -0.3859
 5932SOL     OW29254   0.342   4.611   2.698  0.1732  0.0357 -0.0515
 5932SOL    HW129255   0.413   4.648   2.750  0.2687  0.3433 -0.3968
 5932SOL    HW229256   0.313   4.540   2.755  0.6690  1.4751  1.9759
 5933SOL     OW29257   4.617   4.157  11.376 -0.0992 -0.0333  0.1484
 5933SOL    HW129258   4.526   4.182  11.366 -0.2488 -0.3306  0.7542
 5933SOL    HW229259   4.619   4.100  11.299 -0.8296 -1.4132  1.1545
 5934SOL     OW29260   0.938   3.855   9.117  0.3364 -0.1971 -0.2232
 5934SOL    HW129261   0.960   3.947   9.103  0.8642 -0.7112 -2.6228
 5934SOL    HW229262   0.991   3.832   9.194 -2.0953 -1.6065  1.0270
 5935SOL     OW29263   1.647   1.436   3.456 -0.4310  0.4145  0.4635
 5935SOL    HW129264   1.626   1.468   3.368  0.5168  0.4656  0.2648
 5935SOL    HW229265   1.575   1.376   3.477 -1.7968  1.9577  0.2553
 5936SOL     OW29266   1.657   4.039   3.527  0.1282 -0.1248  0.2853
 5936SOL    HW129267   1.624   3.954   3.498 -0.1906  0.1989 -0.3117
 5936SOL    HW229268   1.699   4.013   3.608  0.7500 -2.3406 -0.7531
 5937SOL     OW29269   4.258   2.175  13.593 -0.2184  0.0859 -0.0594
 5937SOL    HW129270   4.290   2.218  13.672 -1.1789  1.3767 -0.3793
 5937SOL    HW229271   4.337   2.141  13.552 -0.3075 -0.9089  0.5876
 5938SOL     OW29272   0.582   1.355   3.820  0.9750  0.6552  0.4617
 5938SOL    HW129273   0.541   1.441   3.824  0.4273  0.3717  1.0934
 5938SOL    HW229274   0.530   1.322   3.747 -1.0531  3.3664  0.6916
 5939SOL     OW29275   4.548   1.881   7.524  0.1997  0.5253  0.3371
 5939SOL    HW129276   4.497   1.928   7.458 -0.0186 -0.8964 -0.5131
 5939SOL    HW229277   4.587   1.809   7.473 -0.8899 -0.2237  0.5670
 5940SOL     OW29278   4.529   0.113  12.321  0.0933 -0.4858  0.2402
 5940SOL    HW129279   4.531   0.186  12.259 -0.5009  0.8362  1.7861
 5940SOL    HW229280   4.525   0.163  12.402  1.9681 -1.4528  0.9220
 5941SOL     OW29281   0.829   3.425   4.173 -0.7035  0.3845  0.1497
 5941SOL    HW129282   0.886   3.439   4.098 -0.4690  1.7661  0.5970
 5941SOL    HW229283   0.795   3.513   4.189  0.8040  0.1957  4.4529
 5942SOL     OW29284   4.517   1.401   8.759  0.1924  0.5593 -0.4199
 5942SOL    HW129285   4.572   1.411   8.681 -1.1279 -0.6228 -1.5016
 5942SOL    HW229286   4.584   1.424   8.823 -1.2185  0.1211  1.2244
 5943SOL     OW29287   0.347   1.347  15.207 -0.3450 -0.2148 -0.0240
 5943SOL    HW129288   0.364   1.435  15.172  1.0541  0.9906  3.6320
 5943SOL    HW229289   0.340   1.372  15.299  1.7718 -1.8106  0.5769
 5944SOL     OW29290   0.053   0.640   8.553  0.3637  0.6998  0.7613
 5944SOL    HW129291   0.079   0.676   8.637  0.4807  0.1413  0.9631
 5944SOL    HW229292   0.045   0.722   8.504 -1.2975 -0.4964 -1.0289
 5945SOL     OW29293   0.105   2.554  12.539  0.0803 -0.1481 -0.1507
 5945SOL    HW129294   0.128   2.466  12.508 -0.3745  0.5153 -2.4255
 5945SOL    HW229295   0.018   2.570  12.501 -0.2781 -1.3297  0.1788
 5946SOL     OW29296   2.856   4.137   3.733 -0.6362  0.5566  0.5614
 5946SOL    HW129297   2.859   4.065   3.670 -1.3524  0.5152  0.5766
 5946SOL    HW229298   2.911   4.208   3.698  0.5965 -1.7600 -2.2079
 5947SOL     OW29299   3.552   1.298   6.903  0.3395 -0.1339 -0.1771
 5947SOL    HW129300   3.580   1.210   6.927  0.5766  0.0989  0.4145
 5947SOL    HW229301   3.638   1.325   6.872  0.0245 -0.5429 -1.3998
 5948SOL     OW29302   3.437   2.623   4.703  0.0094  0.5800 -0.0061
 5948SOL    HW129303   3.528   2.653   4.703 -0.2254  1.2981  1.3979
 5948SOL    HW229304   3.429   2.591   4.792  1.2085  1.4414  0.4175
 5949SOL     OW29305   1.708   0.545  13.467  0.2583 -0.0021  0.9616
 5949SOL    HW129306   1.719   0.577  13.556 -0.5190  0.8475  0.7465
 5949SOL    HW229307   1.778   0.591  13.419  0.1242 -0.5471  0.2366
 5950SOL     OW29308   2.839   3.479   5.473  0.2034  0.1585  0.4202
 5950SOL    HW129309   2.800   3.564   5.492  0.6785  0.7463 -1.1447
 5950SOL    HW229310   2.852   3.444   5.561  1.2059 -3.0330 -1.0002
 5951SOL     OW29311   1.038   3.826   7.632  0.3326  0.5372 -0.0891
 5951SOL    HW129312   1.087   3.756   7.588  0.2172  1.6266 -1.9805
 5951SOL    HW229313   1.110   3.884   7.656  0.5602  0.4631 -0.5895
 5952SOL     OW29314   1.332   2.069   6.904  0.4512  0.9222 -0.0959
 5952SOL    HW129315   1.368   2.023   6.829  0.0561  0.8386 -0.2347
 5952SOL    HW229316   1.241   2.040   6.908  1.4617 -2.3277 -0.8406
 5953SOL     OW29317   0.829   2.938   3.326  0.7558 -0.2461  0.0270
 5953SOL    HW129318   0.768   2.903   3.261 -1.2362 -0.7864  2.2093
 5953SOL    HW229319   0.770   2.996   3.375  1.9817  1.0162  0.0105
 5954SOL     OW29320   3.225   0.907   3.439  0.1573 -0.0794 -0.2809
 5954SOL    HW129321   3.262   0.823   3.465 -0.0846 -0.2853 -0.5967
 5954SOL    HW229322   3.132   0.902   3.464 -0.0653  0.3644 -1.0495
 5955SOL     OW29323   0.265   1.045   5.637  0.3333 -0.1242  0.3464
 5955SOL    HW129324   0.273   1.095   5.718  0.7316  1.2589 -0.5298
 5955SOL    HW229325   0.302   1.102   5.568 -1.3219  1.8538  1.1131
 5956SOL     OW29326   3.634   1.498   0.066  0.2791  0.3355 -0.2642
 5956SOL    HW129327   3.637   1.445  17.690 -2.6521  1.2916 -1.0032
 5956SOL    HW229328   3.664   1.438   0.135 -0.9056  0.8596  0.7140
 5957SOL     OW29329   4.399   4.615   8.979  0.3738  0.2663  0.1044
 5957SOL    HW129330   4.412   4.562   8.901  2.5667  0.4521  0.3642
 5957SOL    HW229331   4.340   4.561   9.031 -0.0044  1.5165  0.9911
 5958SOL     OW29332   3.433   3.939   2.760 -0.3976 -0.1992 -0.1780
 5958SOL    HW129333   3.486   3.952   2.839 -0.1915 -0.8612 -0.2117
 5958SOL    HW229334   3.449   4.024   2.719  0.6042 -0.5032 -0.4117
 5959SOL     OW29335   3.070   2.633   9.955  0.4603 -0.2155 -0.0323
 5959SOL    HW129336   3.057   2.641   9.861  0.0282 -0.3800  0.0143
 5959SOL    HW229337   3.157   2.594   9.955  1.8351  2.9134 -2.0269
 5960SOL     OW29338   0.354   1.607  15.120  0.3304 -0.1123 -0.8709
 5960SOL    HW129339   0.372   1.700  15.108 -3.7709  0.5445 -1.7582
 5960SOL    HW229340   0.317   1.575  15.038 -2.0718 -0.7001  0.4635
 5961SOL     OW29341   0.776   0.124   7.448  0.0301 -0.2207 -0.1184
 5961SOL    HW129342   0.762   0.032   7.471 -0.5972  0.0492  0.5436
 5961SOL    HW229343   0.699   0.144   7.394  0.8133  3.5933  0.1812
 5962SOL     OW29344   2.975   0.149   6.276  0.0535  0.1576 -0.5993
 5962SOL    HW129345   3.028   0.118   6.202  0.5558  0.0448 -0.1874
 5962SOL    HW229346   2.899   0.092   6.261  0.5165 -0.9837  1.4240
 5963SOL     OW29347   0.456   2.691   0.533 -0.4744  0.4758 -0.2999
 5963SOL    HW129348   0.437   2.769   0.585 -1.2915 -0.8990  1.4690
 5963SOL    HW229349   0.386   2.699   0.468  0.7101 -1.7551 -1.8532
 5964SOL     OW29350   1.724   4.566  16.795  0.1856  0.2403 -0.0406
 5964SOL    HW129351   1.770   4.643  16.764 -0.2013 -0.3471 -2.1211
 5964SOL    HW229352   1.793   4.501  16.806  1.4701  1.7061  0.4058
 5965SOL     OW29353   0.153   2.723   7.083 -0.5746 -0.3413  0.1439
 5965SOL    HW129354   0.240   2.762   7.081 -0.2564 -1.0634  0.0330
 5965SOL    HW229355   0.120   2.696   6.997  0.9908  1.2543 -0.9624
 5966SOL     OW29356   2.230   3.904  14.474 -0.4150  0.2464  0.2424
 5966SOL    HW129357   2.267   3.961  14.407  0.1499  0.0370  0.3772
 5966SOL    HW229358   2.162   3.864  14.420  1.3398 -0.0615 -1.7199
 5967SOL     OW29359   2.796   0.017   8.664  0.3522  0.5575 -0.5901
 5967SOL    HW129360   2.726   4.684   8.636 -0.7125  0.4215  2.4050
 5967SOL    HW229361   2.860   4.680   8.697  0.3832  1.9975  2.0566
 5968SOL     OW29362   1.726   2.096   3.271 -0.6301 -1.0113  0.0366
 5968SOL    HW129363   1.701   2.152   3.344  0.8073  1.1369 -1.1275
 5968SOL    HW229364   1.811   2.064   3.300  0.9399  2.6209 -0.6392
 5969SOL     OW29365   2.142   2.892   3.108 -0.3762 -0.3055 -0.1821
 5969SOL    HW129366   2.118   2.922   3.020 -0.1759  0.2145 -0.0563
 5969SOL    HW229367   2.190   2.963   3.149 -0.6062  0.6407 -1.5616
 5970SOL     OW29368   4.284   3.191   7.513  0.4823  0.3122 -0.2808
 5970SOL    HW129369   4.252   3.128   7.449  0.3999  1.8190 -1.7125
 5970SOL    HW229370   4.214   3.185   7.578 -1.2277 -1.3336 -2.3147
 5971SOL     OW29371   4.552   2.573   2.781  0.4102  0.2872  0.5098
 5971SOL    HW129372   4.581   2.485   2.758  0.1781 -0.3193  2.4868
 5971SOL    HW229373   4.517   2.560   2.870 -2.0814 -1.4902 -0.7295
 5972SOL     OW29374   3.824   2.744   2.195  0.1543 -1.1116  0.2945
 5972SOL    HW129375   3.876   2.800   2.137 -0.9131 -1.0280 -0.5938
 5972SOL    HW229376   3.741   2.737   2.147  0.8613  0.7785 -1.2110
 5973SOL     OW29377   3.306   3.036   7.255 -0.1319  0.4609 -0.2856
 5973SOL    HW129378   3.234   3.052   7.316 -1.0065  1.7591 -1.6541
 5973SOL    HW229379   3.359   3.116   7.255  2.3832 -1.2009  0.3188
 5974SOL     OW29380   4.045   2.830  11.624 -0.3330 -0.1968  0.1912
 5974SOL    HW129381   3.957   2.796  11.609 -1.1737  1.5663  1.1769
 5974SOL    HW229382   4.030   2.920  11.597 -0.9386 -0.6587 -1.0122
 5975SOL     OW29383   4.683   2.939   7.413 -0.7304 -0.0198 -0.3619
 5975SOL    HW129384   0.036   2.954   7.360 -0.9528  1.2384 -0.3509
 5975SOL    HW229385   4.690   2.845   7.429 -3.0215 -0.3002 -0.8890
 5976SOL     OW29386   3.010   1.115   8.208  0.2253  0.4355  0.6363
 5976SOL    HW129387   2.919   1.109   8.236 -0.8797  3.0986 -2.4752
 5976SOL    HW229388   3.026   1.208   8.222 -0.3068  0.6082  0.1294
 5977SOL     OW29389   3.884   4.616   6.593  0.2785  0.1322  0.2179
 5977SOL    HW129390   3.975   4.640   6.572 -0.2543  1.1535 -0.9388
 5977SOL    HW229391   3.861   4.655   6.677 -2.2996 -0.8492 -0.0574
 5978SOL     OW29392   0.722   3.527   0.291 -0.3330  0.7310  0.0390
 5978SOL    HW129393   0.799   3.541   0.347  1.1537 -0.4385 -1.7358
 5978SOL    HW229394   0.693   3.441   0.321  1.9887  0.1322  0.5670
 5979SOL     OW29395   2.714   1.177   8.952  0.0153  0.3152  0.6568
 5979SOL    HW129396   2.775   1.242   8.918  1.5462 -0.6825  1.4776
 5979SOL    HW229397   2.692   1.131   8.871 -1.7177  3.0478 -0.4116
 5980SOL     OW29398   4.250   3.573   0.518  0.5000  0.1485  0.3757
 5980SOL    HW129399   4.176   3.518   0.494  1.7807 -0.6886 -1.7096
 5980SOL    HW229400   4.272   3.524   0.597  2.1496  0.6658  0.2446
 5981SOL     OW29401   2.074   4.696   6.800 -0.3022 -0.6105  0.1043
 5981SOL    HW129402   2.059   0.064   6.788 -0.9777 -0.9433 -1.5443
 5981SOL    HW229403   1.990   4.669   6.836  0.5846 -0.1730  2.5395
 5982SOL     OW29404   3.543   3.143   1.627  0.5802 -0.3476 -0.2039
 5982SOL    HW129405   3.601   3.177   1.558  3.1045 -2.0904  1.0426
 5982SOL    HW229406   3.586   3.074   1.678  2.3200  0.5225 -0.4727
 5983SOL     OW29407   3.180   3.910   3.651  0.5393  0.3869  0.3993
 5983SOL    HW129408   3.250   3.965   3.615 -0.6574 -0.1996 -2.8287
 5983SOL    HW229409   3.209   3.929   3.740  0.2813  0.3424  0.4929
 5984SOL     OW29410   0.775   1.386   0.669 -0.1303  0.1051 -0.0448
 5984SOL    HW129411   0.795   1.459   0.610  0.9195  0.1857  0.4011
 5984SOL    HW229412   0.849   1.325   0.666  1.5811  2.2610 -1.6478
 5985SOL     OW29413   4.183   1.962   6.564  0.0940 -0.0908 -0.3971
 5985SOL    HW129414   4.113   1.910   6.526 -0.8274  0.2324  0.8672
 5985SOL    HW229415   4.237   1.899   6.611  0.4913  0.0051 -0.7290
 5986SOL     OW29416   3.367   1.110   7.246 -0.2458 -0.3975  0.5075
 5986SOL    HW129417   3.334   1.021   7.257  0.3110 -0.5771  0.7202
 5986SOL    HW229418   3.460   1.100   7.265 -0.4447 -1.3765  0.9805
 5987SOL     OW29419   1.112   1.692   4.988  0.0115  0.1364  0.2147
 5987SOL    HW129420   1.207   1.690   4.991 -0.0038  0.7419  1.4067
 5987SOL    HW229421   1.099   1.749   4.912  0.4619 -1.7255 -1.2493
 5988SOL     OW29422   4.541   0.652   4.172 -0.1432  0.2479  0.1851
 5988SOL    HW129423   4.563   0.601   4.251 -0.3020 -0.0850  0.0114
 5988SOL    HW229424   4.488   0.725   4.202  2.1718  0.9336  2.6206
 5989SOL     OW29425   0.106   0.578  13.380  0.0617  0.0053 -0.2839
 5989SOL    HW129426   0.061   0.502  13.416 -1.1595  1.8028  2.0282
 5989SOL    HW229427   0.039   0.613  13.322 -0.7629 -2.0671 -0.5608
 5990SOL     OW29428   3.483   1.034   5.468  0.6662  0.2298 -0.0603
 5990SOL    HW129429   3.478   0.988   5.384 -0.0899 -0.0664  0.1492
 5990SOL    HW229430   3.536   0.975   5.521  1.2906  0.5508 -0.3326
 5991SOL     OW29431   3.431   2.848  13.389  0.4536  0.6908  0.0654
 5991SOL    HW129432   3.509   2.800  13.415 -0.5247 -0.6808  0.4764
 5991SOL    HW229433   3.463   2.937  13.376  2.7145  0.2654  2.6840
 5992SOL     OW29434   1.228   3.373  12.207 -0.7257 -0.4023 -0.1703
 5992SOL    HW129435   1.185   3.384  12.292  2.4940  0.5180  1.3634
 5992SOL    HW229436   1.167   3.324  12.152 -0.0858  0.4268 -1.6038
 5993SOL     OW29437   1.485   0.035  15.404 -0.5112 -0.1596  0.3538
 5993SOL    HW129438   1.473   0.100  15.335  1.1384 -0.5755 -0.3312
 5993SOL    HW229439   1.465   4.682  15.352 -0.2529 -0.2106  0.3293
 5994SOL     OW29440   1.421   1.703  14.784 -0.3764  0.4105  0.1681
 5994SOL    HW129441   1.380   1.684  14.700  2.2420  2.2936 -1.5253
 5994SOL    HW229442   1.356   1.739  14.843  0.0129 -0.1479  0.9501
 5995SOL     OW29443   1.982   4.370  16.834  0.2880  0.3787 -0.1000
 5995SOL    HW129444   1.933   4.314  16.774  2.9541  0.5967 -2.4588
 5995SOL    HW229445   2.017   4.300  16.889  1.0248  0.6038 -0.2868
 5996SOL     OW29446   0.041   0.476  16.275 -0.0431 -0.4202  0.3588
 5996SOL    HW129447   0.009   0.418  16.344 -0.1506 -0.9334 -0.1155
 5996SOL    HW229448   0.133   0.449  16.265 -0.0181 -0.0457 -0.4172
 5997SOL     OW29449   2.887   2.835   3.938 -0.0963  0.2462  0.0853
 5997SOL    HW129450   2.900   2.752   3.894  2.9424 -0.0236  1.4751
 5997SOL    HW229451   2.875   2.900   3.869  1.8889 -1.1047 -1.5125
 5998SOL     OW29452   3.593   4.032   7.951  0.0914 -0.1566 -0.2160
 5998SOL    HW129453   3.649   3.991   7.886  1.8273 -0.3084  1.3828
 5998SOL    HW229454   3.640   4.009   8.031  0.4830  0.1345 -0.3641
 5999SOL     OW29455   2.326   0.781   7.740  0.4040  0.2173  0.2700
 5999SOL    HW129456   2.346   0.794   7.648  1.3585 -2.8336  0.0355
 5999SOL    HW229457   2.236   0.750   7.752  0.7416 -1.1414 -0.6909
 6000SOL     OW29458   1.241   3.000   6.822  0.1791  0.0298 -0.3967
 6000SOL    HW129459   1.233   2.910   6.854 -0.6497  0.1359 -0.2880
 6000SOL    HW229460   1.149   3.021   6.804  0.5311  1.9808  0.1351
 6001SOL     OW29461   4.408   4.511   6.786  0.4124  0.5177 -0.1688
 6001SOL    HW129462   4.377   4.543   6.871 -2.8267 -0.9188 -0.7988
 6001SOL    HW229463   4.397   4.417   6.796  0.2843  0.6173  0.5848
 6002SOL     OW29464   2.767   1.434   4.345 -0.2923 -0.1303 -0.0990
 6002SOL    HW129465   2.723   1.481   4.275  1.6288  0.4159 -0.9269
 6002SOL    HW229466   2.804   1.356   4.303 -1.8027 -0.5379 -0.6617
 6003SOL     OW29467   1.372   3.724  13.291  0.3836 -0.0175 -0.0782
 6003SOL    HW129468   1.356   3.816  13.272  0.8539  0.1519  0.3384
 6003SOL    HW229469   1.325   3.730  13.375  0.3313 -0.1318 -0.0994
 6004SOL     OW29470   0.204   1.152   2.922 -0.2252  0.1744  0.0189
 6004SOL    HW129471   0.264   1.150   2.847 -0.3164  0.1516 -0.0534
 6004SOL    HW229472   0.224   1.235   2.965 -1.3863 -0.5348  1.9000
 6005SOL     OW29473   1.215   4.509  16.573  0.3226 -0.6730  0.2317
 6005SOL    HW129474   1.283   4.522  16.639  0.2399  1.4419 -0.1178
 6005SOL    HW229475   1.177   4.423  16.593 -0.9494 -0.0458  0.5225
 6006SOL     OW29476   0.407   0.074   7.103 -0.3389 -0.3380  0.0512
 6006SOL    HW129477   0.481   0.017   7.125 -1.0125 -1.0209  0.5653
 6006SOL    HW229478   0.371   0.099   7.189  1.0192  1.5337  0.0582
 6007SOL     OW29479   2.685   4.252  14.628  0.0362 -0.0567  0.0745
 6007SOL    HW129480   2.632   4.172  14.622  0.5774 -0.5493  1.7415
 6007SOL    HW229481   2.616   4.315  14.610  0.3305  0.4490  0.7022
 6008SOL     OW29482   1.190   0.762   4.721 -0.3851  0.1452 -0.0150
 6008SOL    HW129483   1.281   0.733   4.717 -0.3045  0.1166  1.8673
 6008SOL    HW229484   1.194   0.796   4.810 -0.2258  2.7298 -1.0099
 6009SOL     OW29485   4.131   3.387  10.022  0.0123 -0.2574 -0.3157
 6009SOL    HW129486   4.091   3.322  10.079  0.5381 -0.2857  0.0212
 6009SOL    HW229487   4.221   3.357  10.029 -0.4683 -1.3423  1.1615
 6010SOL     OW29488   1.909   3.112   5.725 -0.3451  0.0887  0.4423
 6010SOL    HW129489   1.950   3.171   5.787  0.6279 -1.9631  1.7614
 6010SOL    HW229490   1.819   3.127   5.751 -0.9135 -1.6080 -0.5107
 6011SOL     OW29491   1.612   1.483   7.612  0.5327 -0.2408  0.1228
 6011SOL    HW129492   1.646   1.447   7.694 -1.1866  1.5245  1.6014
 6011SOL    HW229493   1.535   1.426   7.606  0.4834 -0.1693  0.0844
 6012SOL     OW29494   3.222   0.225  13.785  0.4814  0.2794 -0.7648
 6012SOL    HW129495   3.236   0.273  13.703 -0.5970 -0.6031 -1.4684
 6012SOL    HW229496   3.190   0.141  13.753 -1.9713  0.5741  0.9519
 6013SOL     OW29497   1.158   0.389   0.900 -0.1098  0.0673  0.3562
 6013SOL    HW129498   1.094   0.383   0.829  1.8150 -2.0648 -1.1998
 6013SOL    HW229499   1.191   0.478   0.887  0.9511 -0.5147 -0.9320
 6014SOL     OW29500   0.686   3.038   6.915  0.2186 -0.9261 -0.0302
 6014SOL    HW129501   0.650   3.020   7.002 -3.0453 -0.6857 -1.3154
 6014SOL    HW229502   0.664   3.132   6.915  2.0959 -0.4841  0.0765
 6015SOL     OW29503   3.307   3.239   5.968 -0.2657 -0.1956 -0.3345
 6015SOL    HW129504   3.218   3.228   5.934 -0.1626  1.3041 -1.0713
 6015SOL    HW229505   3.314   3.333   5.955 -0.0948 -0.0442  0.8828
 6016SOL     OW29506   0.123   0.301   3.574 -0.5834  0.4300  0.4479
 6016SOL    HW129507   0.044   0.273   3.619  0.8010 -2.9103  0.7688
 6016SOL    HW229508   0.195   0.288   3.635  0.6179  0.4880 -0.9538
 6017SOL     OW29509   3.776   0.454   1.746 -0.2560  0.0025 -0.1527
 6017SOL    HW129510   3.751   0.364   1.771 -0.1551  0.9512  3.3449
 6017SOL    HW229511   3.832   0.436   1.671  1.6864 -1.3918  1.6331
 6018SOL     OW29512   4.685   1.079   7.543  0.1410 -0.3059 -0.5622
 6018SOL    HW129513   4.693   1.013   7.612 -1.0714  0.2167  0.0805
 6018SOL    HW229514   0.017   1.144   7.581 -0.0030 -0.5097  0.0005
 6019SOL     OW29515   3.844   1.138  13.171  0.4464 -0.0793  0.1256
 6019SOL    HW129516   3.925   1.185  13.153  0.5834  0.2138  1.5102
 6019SOL    HW229517   3.809   1.131  13.082  0.8985 -1.8691  0.0891
 6020SOL     OW29518   1.933   2.389  11.597  0.4577 -0.2947 -0.3676
 6020SOL    HW129519   1.896   2.464  11.549 -1.2635 -0.9413 -0.0663
 6020SOL    HW229520   1.939   2.431  11.683  0.6662  0.3703 -0.7020
 6021SOL     OW29521   0.225   2.272   0.552 -0.4639 -0.5122  0.5287
 6021SOL    HW129522   0.166   2.313   0.488 -0.3726 -0.9758  0.1432
 6021SOL    HW229523   0.310   2.303   0.521 -0.3114  0.1747  1.6591
 6022SOL     OW29524   1.196   3.746   4.992 -0.1454 -0.0054 -0.1182
 6022SOL    HW129525   1.265   3.795   4.948 -0.2744 -0.1371 -0.4696
 6022SOL    HW229526   1.159   3.823   5.036 -2.7085 -1.0327 -0.4981
 6023SOL     OW29527   0.058   2.786   2.592  0.1465 -0.2377  0.2334
 6023SOL    HW129528   4.710   2.807   2.534  1.4213  0.5580 -1.1179
 6023SOL    HW229529   0.080   2.704   2.548 -2.3024 -0.5350 -0.4246
 6024SOL     OW29530   1.125   1.566   6.856  0.4180 -0.1939  0.4841
 6024SOL    HW129531   1.134   1.550   6.762 -1.4927 -0.1080  0.2831
 6024SOL    HW229532   1.212   1.602   6.871 -0.4741  2.4751 -0.7330
 6025SOL     OW29533   4.371   1.547   7.823 -0.5941  0.3107  0.1025
 6025SOL    HW129534   4.390   1.617   7.886  0.0478  0.2754 -0.0549
 6025SOL    HW229535   4.326   1.600   7.758 -0.5808  1.0509  0.6837
 6026SOL     OW29536   4.169   4.362   1.755 -1.1842 -0.2457  0.3473
 6026SOL    HW129537   4.123   4.442   1.783  0.1883  0.6159  0.1142
 6026SOL    HW229538   4.131   4.359   1.667  2.2892  0.0894 -1.1618
 6027SOL     OW29539   4.151   4.393   1.486  0.0581  0.0208 -0.5156
 6027SOL    HW129540   4.079   4.353   1.437  2.0978 -1.6068 -2.2228
 6027SOL    HW229541   4.141   4.485   1.461 -1.2399  0.8979  3.2412
 6028SOL     OW29542   1.442   2.300   8.210 -0.1664  0.2717  0.3715
 6028SOL    HW129543   1.407   2.384   8.241 -0.3617  0.1554  0.4687
 6028SOL    HW229544   1.535   2.320   8.203 -0.3748  1.9766  2.4913
 6029SOL     OW29545   0.282   1.833  16.695  1.0768  0.1995 -0.1882
 6029SOL    HW129546   0.205   1.824  16.639  0.9168 -2.7436  0.5032
 6029SOL    HW229547   0.336   1.887  16.637  0.7435  1.1187  0.3490
 6030SOL     OW29548   1.271   1.891  16.982  0.4308 -0.2724  0.2458
 6030SOL    HW129549   1.217   1.827  16.936 -0.5784  0.5770  0.2546
 6030SOL    HW229550   1.202   1.936  17.029  0.7329 -1.2500  1.6294
 6031SOL     OW29551   2.892   4.316  11.294  0.3072 -0.4245 -0.4467
 6031SOL    HW129552   2.802   4.329  11.324  0.7148  2.1871 -0.3839
 6031SOL    HW229553   2.946   4.362  11.358  0.8231 -0.1299 -1.0971
 6032SOL     OW29554   0.839   0.527  16.869 -0.1506 -0.8673  0.4686
 6032SOL    HW129555   0.844   0.487  16.783 -0.9752  0.1801 -0.0654
 6032SOL    HW229556   0.806   0.449  16.914  1.5221 -1.4185  0.7579
 6033SOL     OW29557   3.340   2.350  15.191 -0.8918  0.6428  0.2224
 6033SOL    HW129558   3.257   2.396  15.179 -0.7725  0.8872  0.3395
 6033SOL    HW229559   3.319   2.257  15.202  1.6369  0.1575  0.8402
 6034SOL     OW29560   1.978   0.255   5.240  0.1208  0.2957 -0.2678
 6034SOL    HW129561   2.064   0.266   5.201 -0.6213  0.9682 -1.7258
 6034SOL    HW229562   1.922   0.290   5.170  1.0541 -1.7704 -2.0769
 6035SOL     OW29563   0.643   0.344   5.862 -0.4048  0.5097 -0.3113
 6035SOL    HW129564   0.641   0.440   5.861  1.6826  0.5415 -1.3413
 6035SOL    HW229565   0.574   0.322   5.924  1.9542  0.2852  2.2693
 6036SOL     OW29566   4.602   3.719   1.891 -0.1474 -0.1088  0.2280
 6036SOL    HW129567   4.513   3.729   1.924  0.8491 -0.6213  3.0140
 6036SOL    HW229568   4.627   3.812   1.886 -2.3103  0.4585 -0.1536
 6037SOL     OW29569   3.319   2.401   2.912 -0.6717 -0.2837 -0.4357
 6037SOL    HW129570   3.240   2.362   2.948  0.5704  1.0973  3.8457
 6037SOL    HW229571   3.293   2.394   2.820  0.5376  0.0049 -0.8018
 6038SOL     OW29572   3.775   3.663  16.641  0.0850 -0.5470  0.2827
 6038SOL    HW129573   3.800   3.590  16.585  0.1556 -0.5867  0.3649
 6038SOL    HW229574   3.861   3.700  16.660 -0.4249 -0.2456  1.9969
 6039SOL     OW29575   2.595   2.284  15.573 -0.2184 -0.6789  0.1432
 6039SOL    HW129576   2.676   2.260  15.529 -0.5289 -2.7625  0.7045
 6039SOL    HW229577   2.554   2.325  15.496  2.6764  1.4875 -0.2300
 6040SOL     OW29578   1.734   2.539   8.346  0.0978  0.1786 -0.5710
 6040SOL    HW129579   1.745   2.613   8.286  3.4944  0.2775  0.1707
 6040SOL    HW229580   1.677   2.571   8.416 -1.8274 -1.3723 -1.4374
 6041SOL     OW29581   2.048   0.791   9.004 -0.4552 -0.0102  0.0078
 6041SOL    HW129582   1.969   0.802   8.951  0.1072  0.4501 -0.7284
 6041SOL    HW229583   2.111   0.822   8.939 -1.1653  0.8843 -0.2611
 6042SOL     OW29584   3.762   4.487  11.907  0.1166 -0.5235  0.2882
 6042SOL    HW129585   3.733   4.527  11.989 -3.1816  0.0996 -1.2015
 6042SOL    HW229586   3.677   4.464  11.869 -0.6868  0.8827  1.2308
 6043SOL     OW29587   3.497   4.668   9.846  0.2732  0.0855 -0.2865
 6043SOL    HW129588   3.567   4.661   9.911  0.4565 -2.2601 -0.7379
 6043SOL    HW229589   3.439   0.005   9.889  0.5466 -0.2090  0.5007
 6044SOL     OW29590   3.998   0.927   2.587 -0.2648  0.2614 -0.0768
 6044SOL    HW129591   3.997   0.863   2.658  1.1930 -0.9621 -1.1696
 6044SOL    HW229592   3.949   0.878   2.521 -0.2103 -0.4529  0.4119
 6045SOL     OW29593   3.969   1.530  11.253  0.4953  0.3985 -1.0111
 6045SOL    HW129594   4.055   1.489  11.247  0.2088 -0.2814 -0.4693
 6045SOL    HW229595   3.991   1.620  11.230  0.9580  0.5031 -0.1796
 6046SOL     OW29596   4.634   0.177   4.163  0.5984  0.4254  0.3028
 6046SOL    HW129597   4.698   0.225   4.216 -0.1268  1.9107 -0.1596
 6046SOL    HW229598   4.627   0.096   4.213 -0.7321  1.3630  1.6089
 6047SOL     OW29599   4.300   2.608   1.928 -0.1214 -0.6379 -0.0593
 6047SOL    HW129600   4.231   2.652   1.878 -0.5678 -0.1380  1.0073
 6047SOL    HW229601   4.362   2.581   1.860 -1.1264  1.9320 -2.0196
 6048SOL     OW29602   2.614   1.419   2.518  0.3091  0.0971 -0.2183
 6048SOL    HW129603   2.542   1.480   2.537  0.2532  0.7499 -2.5283
 6048SOL    HW229604   2.583   1.331   2.539  1.9218 -0.2774  0.5774
 6049SOL     OW29605   3.100   2.703  13.117 -0.8574 -0.3408 -0.5836
 6049SOL    HW129606   3.036   2.638  13.090  0.2701 -1.4594 -0.5664
 6049SOL    HW229607   3.141   2.721  13.032 -3.1387  3.1595 -0.9474
 6050SOL     OW29608   3.730   3.282   2.889  0.0106  0.0165  0.1517
 6050SOL    HW129609   3.703   3.353   2.830 -0.6900 -1.2126 -1.0135
 6050SOL    HW229610   3.663   3.276   2.956 -1.3230  2.3850 -0.9800
 6051SOL     OW29611   0.133   4.279  10.259 -0.2605 -0.0597  0.1471
 6051SOL    HW129612   0.065   4.317  10.205  0.1745  1.2885  0.5394
 6051SOL    HW229613   0.205   4.273  10.196  0.4371 -1.0702  1.0430
 6052SOL     OW29614   2.951   0.990   8.622 -0.0989  0.3835 -0.1366
 6052SOL    HW129615   2.905   0.944   8.551 -0.0263  0.0481  0.0332
 6052SOL    HW229616   2.968   0.922   8.688 -0.6048 -0.9087 -1.3425
 6053SOL     OW29617   0.443   2.707  11.174 -0.5828  0.0163 -0.0234
 6053SOL    HW129618   0.533   2.725  11.150 -1.2741  2.4751 -0.7180
 6053SOL    HW229619   0.409   2.796  11.186 -0.4811 -0.1636  1.6071
 6054SOL     OW29620   2.647   1.361   0.028  0.1561 -0.4638 -0.0653
 6054SOL    HW129621   2.599   1.428  17.682  0.0474  1.0173  2.0180
 6054SOL    HW229622   2.687   1.301  17.670  2.3889 -0.4053  1.3193
 6055SOL     OW29623   1.784   2.093   0.015 -0.2059  0.1668 -0.4316
 6055SOL    HW129624   1.811   2.027  17.655 -0.1224 -1.9356  1.7860
 6055SOL    HW229625   1.822   2.170  17.677 -1.8656  0.1149 -2.0121
 6056SOL     OW29626   3.874   2.068   6.838  0.6942  0.0715  0.2497
 6056SOL    HW129627   3.839   2.155   6.820 -0.7946 -0.4859  0.4513
 6056SOL    HW229628   3.968   2.086   6.840  0.3046  2.2208 -1.3195
 6057SOL     OW29629   0.246   0.896   2.553 -0.0857  0.0301  0.2094
 6057SOL    HW129630   0.177   0.942   2.603 -0.6322  0.3008 -0.8004
 6057SOL    HW229631   0.284   0.850   2.628  0.4277 -1.7069 -1.1433
 6058SOL     OW29632   0.968   3.298   9.691 -0.5535  0.4517 -0.2098
 6058SOL    HW129633   0.930   3.335   9.771  1.5445  0.8525  0.5922
 6058SOL    HW229634   0.973   3.371   9.629 -0.4973  1.1926  0.6689
 6059SOL     OW29635   0.823   3.516   2.670  0.4483 -0.1165  0.0713
 6059SOL    HW129636   0.746   3.569   2.692 -1.1086 -1.8414 -1.2539
 6059SOL    HW229637   0.793   3.452   2.605  0.1743  0.6798 -0.5831
 6060SOL     OW29638   2.248   0.794   9.998 -0.2777 -0.7003 -0.3626
 6060SOL    HW129639   2.302   0.724  10.034  1.3679  1.8231  2.1218
 6060SOL    HW229640   2.288   0.800   9.911 -0.7005 -0.0157 -0.5117
 6061SOL     OW29641   3.020   0.903  16.142  0.1819  1.1420 -0.3144
 6061SOL    HW129642   2.968   0.824  16.128 -2.0395  2.6125 -0.3197
 6061SOL    HW229643   2.954   0.966  16.112 -1.1257  0.7104  1.6402
 6062SOL     OW29644   0.415   3.617   3.140 -0.4992 -0.3855  0.5531
 6062SOL    HW129645   0.415   3.540   3.196  1.2394 -2.0883 -1.7881
 6062SOL    HW229646   0.406   3.677   3.215  1.3231  2.3639 -1.4130
 6063SOL     OW29647   4.363   1.503   7.485  0.1274 -0.2676  0.5653
 6063SOL    HW129648   4.367   1.557   7.406 -0.8681 -0.7739  0.1685
 6063SOL    HW229649   4.301   1.552   7.540 -0.4657  0.9116 -1.1467
 6064SOL     OW29650   0.018   3.832   0.886 -0.4077 -0.2683  0.0243
 6064SOL    HW129651   0.100   3.809   0.842  0.9282  0.1177  2.3536
 6064SOL    HW229652   0.033   3.777   0.963 -0.0272  0.9814  0.8369
 6065SOL     OW29653   0.727   1.502   8.811 -0.3552 -0.4684  0.5518
 6065SOL    HW129654   0.717   1.481   8.904 -0.9208 -1.1102  0.3471
 6065SOL    HW229655   0.644   1.468   8.776 -0.5302 -1.2172  1.6935
 6066SOL     OW29656   1.156   2.923   4.258  0.1216  0.5374 -0.1813
 6066SOL    HW129657   1.223   2.889   4.318 -0.6034  1.2318  1.0172
 6066SOL    HW229658   1.113   2.990   4.311 -2.0171 -0.9030 -0.1119
 6067SOL     OW29659   0.059   3.797   8.543 -0.1561  0.0703  0.2271
 6067SOL    HW129660   0.067   3.723   8.603 -1.0282 -0.7766 -0.6826
 6067SOL    HW229661   0.061   3.865   8.609 -0.2542 -0.0418  0.3462
 6068SOL     OW29662   3.043   2.201   5.702  0.1969 -0.1588 -0.5525
 6068SOL    HW129663   3.115   2.263   5.690 -0.1535  0.8115  2.3990
 6068SOL    HW229664   3.012   2.233   5.786 -0.3679  0.4913 -1.0074
 6069SOL     OW29665   4.478   1.107   7.341  0.3203  0.4035  0.0220
 6069SOL    HW129666   4.548   1.102   7.406  0.1843  0.3946  0.1664
 6069SOL    HW229667   4.417   1.156   7.396  0.1228 -1.0495  1.1112
 6070SOL     OW29668   3.275   2.968   5.730  0.2090 -0.0196  0.1292
 6070SOL    HW129669   3.336   2.925   5.670 -0.1008  1.3577 -1.1893
 6070SOL    HW229670   3.332   2.946   5.803  0.1030 -2.8740 -0.6786
 6071SOL     OW29671   0.969   3.049  10.580 -0.1312 -0.3626 -0.0012
 6071SOL    HW129672   0.999   3.052  10.489 -0.8401  1.1960 -0.1740
 6071SOL    HW229673   1.060   3.045  10.610  0.6370  1.5104 -2.0417
 6072SOL     OW29674   3.351   1.076  11.260 -0.6694  0.3515  0.1265
 6072SOL    HW129675   3.382   0.991  11.291  0.0779  0.6611  0.2358
 6072SOL    HW229676   3.356   1.060  11.166 -2.0081  0.2223  0.0763
 6073SOL     OW29677   0.222   4.338   2.138  0.1206  0.2475 -0.7728
 6073SOL    HW129678   0.147   4.392   2.113 -1.2251 -0.6700  1.3017
 6073SOL    HW229679   0.288   4.405   2.153  0.1230  0.0812 -0.0199
 6074SOL     OW29680   0.797   0.975   1.878  0.4616  0.2509  0.5502
 6074SOL    HW129681   0.721   1.031   1.865  0.8068  0.5322 -0.2410
 6074SOL    HW229682   0.796   0.967   1.974 -0.6645 -0.4968  0.4715
 6075SOL     OW29683   3.352   3.582   4.346 -0.2720 -0.3767  0.2590
 6075SOL    HW129684   3.426   3.570   4.406 -0.9044  1.1062  1.3243
 6075SOL    HW229685   3.361   3.511   4.282  0.8863 -0.5406  0.5974
 6076SOL     OW29686   3.386   1.109   8.539  0.1552  0.2125 -1.1409
 6076SOL    HW129687   3.346   1.168   8.602 -2.2815 -4.0851  1.3907
 6076SOL    HW229688   3.375   1.028   8.589  1.9142  1.2824  1.0017
 6077SOL     OW29689   2.756   4.626   2.133  0.4036 -0.1349  0.0832
 6077SOL    HW129690   2.709   4.567   2.192  1.6887  0.8912  2.1025
 6077SOL    HW229691   2.795   4.567   2.069 -0.0662  0.5062 -0.8073
 6078SOL     OW29692   0.541   2.767   7.220  0.4830  0.4867  0.5100
 6078SOL    HW129693   0.525   2.861   7.228  1.0767  0.5879  0.4844
 6078SOL    HW229694   0.525   2.732   7.308 -1.6161 -0.2532 -0.1653
 6079SOL     OW29695   3.732   0.114  10.133 -0.1345 -0.3138  0.0556
 6079SOL    HW129696   3.748   0.022  10.110 -2.2669 -1.2942  2.4902
 6079SOL    HW229697   3.689   0.085  10.213 -0.0312 -2.0070 -0.4989
 6080SOL     OW29698   3.584   0.245   0.386 -0.0876  0.5746 -0.8497
 6080SOL    HW129699   3.540   0.257   0.470  1.7789  3.6976 -0.3387
 6080SOL    HW229700   3.668   0.210   0.415 -0.8616 -1.5716 -1.1475
 6081SOL     OW29701   3.432   1.662   3.907  0.6042 -0.2542  0.0278
 6081SOL    HW129702   3.418   1.652   4.002  1.2992 -2.2608 -0.0837
 6081SOL    HW229703   3.339   1.661   3.884 -0.2184  0.6249  3.2142
 6082SOL     OW29704   2.608   2.353   6.291  0.1631  0.1713  0.7479
 6082SOL    HW129705   2.693   2.379   6.325  0.3559 -0.8226  1.0323
 6082SOL    HW229706   2.599   2.420   6.222  2.7244 -1.9943 -1.6809
 6083SOL     OW29707   2.464   4.675   0.263  0.1925 -0.6805 -0.0251
 6083SOL    HW129708   2.493   0.011   0.196 -0.3370 -0.4113 -0.0113
 6083SOL    HW229709   2.440   4.599   0.210 -1.5484  0.2452 -0.5471
 6084SOL     OW29710   1.905   0.451  13.097 -0.2732  0.3087  1.1257
 6084SOL    HW129711   1.866   0.455  13.010  1.7244  0.2116  0.2115
 6084SOL    HW229712   1.895   0.538  13.135 -0.3035  0.3027  1.1315
 6085SOL     OW29713   2.215   0.546   0.704  0.1835  0.5032 -0.4223
 6085SOL    HW129714   2.302   0.539   0.742 -0.3135  2.9728  1.1466
 6085SOL    HW229715   2.186   0.632   0.736  0.0372  0.4981 -0.5368
 6086SOL     OW29716   1.004   1.158   2.573  0.1246  0.1147 -0.7737
 6086SOL    HW129717   0.937   1.120   2.517 -0.0487  1.1467 -1.2583
 6086SOL    HW229718   1.085   1.137   2.526 -1.6679 -3.1906 -2.4235
 6087SOL     OW29719   0.784   1.635   1.798 -0.0028 -0.1953 -0.2291
 6087SOL    HW129720   0.787   1.728   1.776 -0.3784  0.0275  0.6378
 6087SOL    HW229721   0.852   1.626   1.864  0.3050  0.8098 -0.4171
 6088SOL     OW29722   0.135   3.877   8.032 -0.0167  0.1205 -0.0351
 6088SOL    HW129723   0.220   3.900   7.995  0.2153 -0.4121  0.1778
 6088SOL    HW229724   0.149   3.862   8.126  0.5133 -2.5496 -0.5546
 6089SOL     OW29725   0.868   4.250  17.158 -0.1388 -0.2865 -0.0650
 6089SOL    HW129726   0.822   4.219  17.237  0.6269  0.1050  0.5375
 6089SOL    HW229727   0.808   4.318  17.128 -3.0700 -0.4797  5.2689
 6090SOL     OW29728   0.683   4.238   4.619  0.4716 -0.3162 -0.0158
 6090SOL    HW129729   0.750   4.295   4.656 -0.3737 -0.7195  2.1329
 6090SOL    HW229730   0.644   4.291   4.549  2.8739  0.0575 -1.0532
 6091SOL     OW29731   0.298   4.018   6.634  0.0736 -0.4776  0.3315
 6091SOL    HW129732   0.334   4.063   6.557 -3.0549 -0.4105 -1.0742
 6091SOL    HW229733   0.380   3.978   6.663  0.7392 -0.4920 -1.5765
 6092SOL     OW29734   4.622   2.133   1.553  0.5968 -0.1986  0.3566
 6092SOL    HW129735   4.661   2.052   1.586  0.1996 -0.3638  0.4175
 6092SOL    HW229736   4.690   2.170   1.497  0.0532  1.2940  0.6856
 6093SOL     OW29737   4.333   4.420   8.792  0.3420 -0.1653  0.2339
 6093SOL    HW129738   4.263   4.383   8.845  1.5231 -1.2904  1.0135
 6093SOL    HW229739   4.290   4.421   8.707  0.2197  0.9080  0.3040
 6094SOL     OW29740   2.908   2.419   7.554  1.0411 -0.2522 -0.1711
 6094SOL    HW129741   2.900   2.333   7.512 -1.3900 -0.1499  0.1318
 6094SOL    HW229742   2.834   2.402   7.611  1.4493 -0.0696  0.4118
 6095SOL     OW29743   0.850   1.438   4.782 -0.7241 -0.3647 -0.3809
 6095SOL    HW129744   0.760   1.409   4.796 -0.5732  0.3369  2.1086
 6095SOL    HW229745   0.873   1.427   4.690  1.5690  2.0776 -0.1003
 6096SOL     OW29746   0.063   0.422  13.606  1.0806 -0.4026 -0.2731
 6096SOL    HW129747   4.703   0.410  13.646  1.1572 -1.0475 -0.3054
 6096SOL    HW229748   0.098   0.334  13.592  1.8734 -0.3189  1.1543
 6097SOL     OW29749   1.075   1.344  15.839 -0.2788 -0.1373  0.5176
 6097SOL    HW129750   0.998   1.381  15.883  0.5769  0.2825  1.6772
 6097SOL    HW229751   1.082   1.402  15.763  2.7966  0.8622  1.5807
 6098SOL     OW29752   0.299   2.133   3.278 -0.3570  0.1363 -0.3531
 6098SOL    HW129753   0.205   2.144   3.294 -0.4902  1.3008 -1.9735
 6098SOL    HW229754   0.327   2.098   3.363  0.9767  2.2867  0.1034
 6099SOL     OW29755   0.751   1.966   8.701  0.4972 -0.1561  0.4591
 6099SOL    HW129756   0.754   2.023   8.624  0.0769 -0.0717  0.5053
 6099SOL    HW229757   0.835   1.921   8.705  0.3224 -0.8856 -4.0143
 6100SOL     OW29758   4.617   2.851   4.653  0.2049  0.4139  0.5516
 6100SOL    HW129759   4.605   2.775   4.711 -0.1521  2.3300  3.0104
 6100SOL    HW229760   4.692   2.821   4.602 -0.9216  1.1457 -1.5257
 6101SOL     OW29761   1.365   0.629   5.570 -0.2519 -0.0910  0.0685
 6101SOL    HW129762   1.429   0.685   5.613 -0.7469  0.3918  0.1767
 6101SOL    HW229763   1.286   0.646   5.621 -0.1751 -0.1513  0.2055
 6102SOL     OW29764   4.351   1.970   7.714  0.4078  0.1150 -0.0962
 6102SOL    HW129765   4.322   2.050   7.670  0.9307  0.4272  0.1281
 6102SOL    HW229766   4.394   1.930   7.639 -1.1924 -1.4272 -0.1915
 6103SOL     OW29767   4.377   0.508   8.042 -0.0553  0.6107 -0.2012
 6103SOL    HW129768   4.453   0.498   7.984 -0.2191  0.5633 -0.4054
 6103SOL    HW229769   4.398   0.594   8.079 -0.7103  0.4697  0.4836
 6104SOL     OW29770   1.742   2.553   4.649  0.6301  0.1774  0.6175
 6104SOL    HW129771   1.690   2.481   4.684  1.2224 -2.3542 -3.6877
 6104SOL    HW229772   1.764   2.516   4.564 -1.1811  1.1199 -0.2614
 6105SOL     OW29773   3.134   3.474   2.810 -0.3692 -0.1527  0.0971
 6105SOL    HW129774   3.170   3.450   2.895 -0.8763 -0.9637  0.0837
 6105SOL    HW229775   3.111   3.566   2.823 -1.1127 -0.4097  0.6048
 6106SOL     OW29776   3.569   4.439  16.676 -0.3413  0.6005  0.6352
 6106SOL    HW129777   3.485   4.394  16.666 -0.0539  0.2078 -0.0169
 6106SOL    HW229778   3.543   4.530  16.694  2.3613  1.1544  1.8428
 6107SOL     OW29779   3.020   2.478   2.538 -0.1908 -0.0498  0.6727
 6107SOL    HW129780   2.957   2.498   2.608 -1.7012 -2.1410 -0.0761
 6107SOL    HW229781   2.966   2.420   2.484  0.8218  0.7359 -1.1900
 6108SOL     OW29782   3.658   0.692  15.304  0.0080  0.2947 -0.1071
 6108SOL    HW129783   3.701   0.638  15.238 -0.2810 -0.0143 -0.0450
 6108SOL    HW229784   3.580   0.637  15.316  0.0491 -0.1526 -1.8781
 6109SOL     OW29785   0.109   4.334   3.232 -0.2126 -0.6659 -0.4060
 6109SOL    HW129786   0.195   4.343   3.192  0.1411 -2.3252 -0.0215
 6109SOL    HW229787   0.096   4.424   3.262  0.8256 -0.1298 -1.5809
 6110SOL     OW29788   4.131   2.959   3.831 -0.1425  0.4084  0.2652
 6110SOL    HW129789   4.068   2.979   3.762  2.5201 -1.0909 -2.6021
 6110SOL    HW229790   4.183   3.039   3.819  1.3157 -0.2286  2.2004
 6111SOL     OW29791   4.336   1.206   5.767  0.1606  0.1067  0.1123
 6111SOL    HW129792   4.341   1.110   5.762  1.1530  0.2189 -1.2514
 6111SOL    HW229793   4.289   1.222   5.685  0.3332 -1.2161 -0.2590
 6112SOL     OW29794   0.571   4.715  12.595  0.3876  0.5024 -0.3149
 6112SOL    HW129795   0.550   4.641  12.652 -0.6448  0.7428 -0.3806
 6112SOL    HW229796   0.607   0.047  12.663 -2.9593  2.2817 -0.0529
 6113SOL     OW29797   1.429   3.199  11.497  0.2759  0.2381 -0.0081
 6113SOL    HW129798   1.371   3.226  11.568 -0.0446  1.6971 -0.8449
 6113SOL    HW229799   1.509   3.166  11.539  1.1981  2.5012 -0.0294
 6114SOL     OW29800   4.298   2.633   5.969 -0.2358  0.1512  0.3742
 6114SOL    HW129801   4.301   2.713   6.022 -0.8885  0.5259 -0.1587
 6114SOL    HW229802   4.345   2.568   6.021  0.2085  1.4351  1.5948
 6115SOL     OW29803   2.746   1.455   2.286  0.3370 -0.8193 -0.0576
 6115SOL    HW129804   2.691   1.466   2.364 -0.5476 -0.3784 -0.7416
 6115SOL    HW229805   2.684   1.395   2.244 -1.7849  0.0091  1.9013
 6116SOL     OW29806   0.560   0.051   6.556  0.5410 -0.2567 -0.2264
 6116SOL    HW129807   0.597   4.690   6.537 -0.6675 -0.8051 -0.1054
 6116SOL    HW229808   0.479   0.046   6.505  0.7288 -0.8602 -0.4719
 6117SOL     OW29809   4.485   2.707   8.631  0.8243  0.9359  0.1382
 6117SOL    HW129810   4.523   2.755   8.557  1.8265 -0.1813 -0.0867
 6117SOL    HW229811   4.553   2.640   8.643 -0.1060 -0.1379 -0.5990
 6118SOL     OW29812   1.603   2.404   4.251  0.0332 -0.1566 -0.7044
 6118SOL    HW129813   1.567   2.471   4.309  2.2198  0.5275 -0.1425
 6118SOL    HW229814   1.603   2.443   4.164  1.6782  1.0118 -0.2010
 6119SOL     OW29815   0.546   0.432   6.424  0.2303 -0.1330 -0.3726
 6119SOL    HW129816   0.512   0.397   6.507 -1.6145  2.4116 -0.0558
 6119SOL    HW229817   0.561   0.522   6.453  0.9592 -0.5277  0.4830
 6120SOL     OW29818   2.576   2.480   4.792 -0.1374  0.2279 -0.0815
 6120SOL    HW129819   2.572   2.385   4.801  1.9270  0.1957  0.4421
 6120SOL    HW229820   2.604   2.477   4.701  0.3437 -1.8901  0.1428
 6121SOL     OW29821   1.927   2.806   6.324 -0.3810 -0.2324  0.3265
 6121SOL    HW129822   1.940   2.849   6.408 -2.5835 -1.2540  1.2043
 6121SOL    HW229823   1.926   2.886   6.271 -1.2367  0.0449  0.7522
 6122SOL     OW29824   0.069   2.399   2.223 -0.2376  0.6276 -0.6856
 6122SOL    HW129825   0.134   2.387   2.154  1.0217  1.1354  0.4095
 6122SOL    HW229826   4.707   2.403   2.184 -0.4805  1.1267 -0.0850
 6123SOL     OW29827   0.592   0.847   7.088  0.3420  0.2937 -0.2600
 6123SOL    HW129828   0.511   0.804   7.118  0.0026  1.4537  0.4843
 6123SOL    HW229829   0.655   0.776   7.091 -1.0483 -0.9580 -0.5330
 6124SOL     OW29830   3.690   3.655   7.097  0.0853 -0.1410 -0.3085
 6124SOL    HW129831   3.665   3.745   7.078 -1.0577 -0.2745  0.5872
 6124SOL    HW229832   3.782   3.653   7.070  0.4321 -4.0383  1.1906
 6125SOL     OW29833   3.523   1.195  12.908  0.4170 -0.2032 -0.6258
 6125SOL    HW129834   3.575   1.220  12.831 -1.5764 -0.7828 -2.1487
 6125SOL    HW229835   3.512   1.285  12.939 -0.4004 -1.4002  2.5789
 6126SOL     OW29836   1.895   4.152  11.555 -0.1313 -0.1931 -0.5114
 6126SOL    HW129837   1.843   4.231  11.543 -1.3155 -0.9269 -0.1960
 6126SOL    HW229838   1.926   4.130  11.467  2.1717  0.3714  0.1619
 6127SOL     OW29839   3.226   3.884   5.885 -0.5235  0.2318 -0.3676
 6127SOL    HW129840   3.254   3.812   5.829 -2.2237 -1.5309  1.0590
 6127SOL    HW229841   3.313   3.924   5.893 -0.6291  0.5625 -0.8981
 6128SOL     OW29842   3.279   3.231   6.501 -0.1242  0.4610  0.2951
 6128SOL    HW129843   3.269   3.140   6.528 -3.5686  0.5915 -0.5509
 6128SOL    HW229844   3.336   3.270   6.568  0.0129 -2.2853  1.7745
 6129SOL     OW29845   4.671   3.623   5.827  0.3867 -0.0522  0.3127
 6129SOL    HW129846   4.614   3.584   5.893  0.3945 -2.7984 -1.2966
 6129SOL    HW229847   4.621   3.685   5.773  0.7063 -0.3954 -0.3816
 6130SOL     OW29848   2.280   2.778  11.385 -0.3691  0.1331 -0.2749
 6130SOL    HW129849   2.233   2.696  11.398 -0.2502  0.3216  1.3878
 6130SOL    HW229850   2.214   2.841  11.416 -0.5224 -0.3541  0.3867
 6131SOL     OW29851   1.313   4.628  16.335 -0.3184 -0.0737  0.2253
 6131SOL    HW129852   1.261   4.583  16.402  0.7724  0.5929  1.5080
 6131SOL    HW229853   1.244   4.687  16.304 -0.7801  0.2958  1.9050
 6132SOL     OW29854   4.082   0.108  16.701  0.7974 -0.0022 -0.0166
 6132SOL    HW129855   4.167   0.086  16.739  0.6592 -0.7123 -0.1063
 6132SOL    HW229856   4.049   0.028  16.660  1.4356 -0.8501  1.1211
 6133SOL     OW29857   1.008   4.465   7.970  0.0055  0.0434 -0.5461
 6133SOL    HW129858   1.038   4.375   7.978  2.2837  0.7618 -0.9489
 6133SOL    HW229859   0.949   4.464   8.045  1.4469  0.1961  0.5741
 6134SOL     OW29860   1.676   0.562   1.559  0.7375  0.3754  0.1830
 6134SOL    HW129861   1.657   0.648   1.596  0.2487  0.2982  0.1046
 6134SOL    HW229862   1.754   0.567   1.503 -1.2312  0.2743 -2.5839
 6135SOL     OW29863   1.144   1.254   4.178  0.3303 -0.3886 -0.0977
 6135SOL    HW129864   1.148   1.197   4.101  1.6994 -0.0524 -0.2898
 6135SOL    HW229865   1.228   1.222   4.211 -0.3962 -2.7599 -0.5211
 6136SOL     OW29866   3.798   3.364  13.085  0.8920  0.4717 -0.3196
 6136SOL    HW129867   3.813   3.452  13.052  2.6802 -0.3883 -1.8018
 6136SOL    HW229868   3.727   3.336  13.027  1.8598 -0.3098 -1.1322
 6137SOL     OW29869   0.068   2.035   3.610  0.2339  0.7050 -0.0406
 6137SOL    HW129870   0.063   2.040   3.514  2.1797 -0.3672 -0.1991
 6137SOL    HW229871   4.708   2.000   3.632  0.7207 -1.2418 -1.2355
 6138SOL     OW29872   0.950   0.067   7.024  0.1233 -0.2278 -0.1029
 6138SOL    HW129873   0.923   4.703   7.005  2.2167 -1.0118  0.6253
 6138SOL    HW229874   0.976   0.065   7.116 -1.0640 -1.7864  0.2091
 6139SOL     OW29875   0.777   2.724   9.242  0.0556 -0.1521  0.0326
 6139SOL    HW129876   0.859   2.676   9.236 -0.7150 -1.4185 -0.5525
 6139SOL    HW229877   0.789   2.782   9.317 -1.8893  0.6348 -0.2475
 6140SOL     OW29878   3.775   2.109   5.713  0.0848  0.2727 -0.9261
 6140SOL    HW129879   3.797   2.066   5.796  0.8446  0.4614 -1.0301
 6140SOL    HW229880   3.681   2.124   5.720  0.0177  0.2095 -1.7355
 6141SOL     OW29881   2.248   0.924   3.627 -0.4148  0.8687 -0.2965
 6141SOL    HW129882   2.164   0.909   3.585 -0.1422 -0.7351 -0.2643
 6141SOL    HW229883   2.218   0.937   3.717  1.7687 -0.2404  0.6152
 6142SOL     OW29884   4.491   2.255   3.443  0.0791 -0.3218 -0.6010
 6142SOL    HW129885   4.519   2.275   3.533 -0.0540  1.7652 -1.0137
 6142SOL    HW229886   4.447   2.173   3.465  1.4911 -0.7632  0.5624
 6143SOL     OW29887   0.638   0.227   1.664  0.7651 -0.2837  0.4826
 6143SOL    HW129888   0.654   0.175   1.586  2.8845  2.5128 -0.9529
 6143SOL    HW229889   0.617   0.168   1.736 -2.6128  1.5230  0.9876
 6144SOL     OW29890   1.583   1.301  10.993 -0.1379  0.0086  0.5703
 6144SOL    HW129891   1.619   1.374  11.043  2.8162 -0.8710 -0.2952
 6144SOL    HW229892   1.495   1.294  11.030  0.1913  1.3650  1.5988
 6145SOL     OW29893   2.094   2.035  15.925  0.3640  0.5444  0.0566
 6145SOL    HW129894   2.166   1.997  15.975  0.4228 -0.6537 -0.9405
 6145SOL    HW229895   2.042   1.955  15.915 -1.1482  1.5836 -0.3142
 6146SOL     OW29896   2.122   1.167   9.241  0.0018 -0.4386 -0.1852
 6146SOL    HW129897   2.209   1.151   9.277 -1.1834 -2.6861  1.6601
 6146SOL    HW229898   2.094   1.076   9.230 -1.4478  0.0196 -0.2147
 6147SOL     OW29899   1.744   4.475   6.655  0.4993  0.1633  0.2929
 6147SOL    HW129900   1.740   4.415   6.730  1.3406 -2.0157 -1.3804
 6147SOL    HW229901   1.788   4.550   6.694 -0.3941  1.2840 -0.8600
 6148SOL     OW29902   0.505   0.380   5.027 -0.2780  0.3867 -0.3251
 6148SOL    HW129903   0.525   0.467   4.990  0.1109  0.8099  0.8762
 6148SOL    HW229904   0.470   0.408   5.112  3.1320 -1.7542  1.7703
 6149SOL     OW29905   4.619   1.742  13.638  0.1310 -1.2278  0.1684
 6149SOL    HW129906   4.691   1.678  13.634  1.9438  0.5738  4.0011
 6149SOL    HW229907   4.568   1.720  13.560  0.3735 -1.6275  0.1207
 6150SOL     OW29908   2.735   1.559   8.403 -0.0856  0.1139 -0.2819
 6150SOL    HW129909   2.812   1.604   8.369 -0.6262  1.9646  1.0051
 6150SOL    HW229910   2.661   1.604   8.362  1.0780  2.3932  0.1749
 6151SOL     OW29911   0.499   1.074   1.750 -0.3407  0.6319  0.2791
 6151SOL    HW129912   0.430   1.035   1.696 -1.7179 -0.0679  2.5660
 6151SOL    HW229913   0.568   1.058   1.685 -2.1719  0.9610 -1.7661
 6152SOL     OW29914   1.378   0.393  17.647  0.0672 -0.0529  0.2218
 6152SOL    HW129915   1.412   0.474  17.609  2.4965 -1.3442 -0.3709
 6152SOL    HW229916   1.381   0.342  17.566  1.1330 -0.9699  0.8341
 6153SOL     OW29917   0.894   1.056   0.132  0.1636 -0.1113 -0.1736
 6153SOL    HW129918   0.833   0.983   0.140 -1.0731  0.7285 -2.0448
 6153SOL    HW229919   0.881   1.088   0.043  0.5950  3.0968  0.9115
 6154SOL     OW29920   1.272   2.430  11.023 -0.8537  0.3173 -0.3815
 6154SOL    HW129921   1.254   2.521  10.999 -3.3372 -0.1515 -0.3227
 6154SOL    HW229922   1.208   2.416  11.093 -0.3742  0.4028  0.0802
 6155SOL     OW29923   0.560   2.788   8.199  0.4331 -0.0641  0.3008
 6155SOL    HW129924   0.639   2.838   8.219 -0.6585  0.4978  3.2727
 6155SOL    HW229925   0.502   2.844   8.147 -1.6132 -0.0363  2.5844
 6156SOL     OW29926   3.734   2.290   8.244  0.2098 -0.1873  0.1186
 6156SOL    HW129927   3.734   2.195   8.230 -1.6788 -0.7093  3.8794
 6156SOL    HW229928   3.720   2.295   8.338  2.4607  1.5880  0.3551
 6157SOL     OW29929   0.810   2.915   8.226 -0.2990 -0.2129  0.5490
 6157SOL    HW129930   0.859   2.979   8.279  1.9288 -0.2868 -1.4127
 6157SOL    HW229931   0.814   2.948   8.136  0.8217  0.6999  0.9289
 6158SOL     OW29932   2.054   2.710   5.363 -0.0967 -0.8267 -0.8644
 6158SOL    HW129933   2.037   2.792   5.409 -0.4822 -2.2030  1.4466
 6158SOL    HW229934   2.088   2.657   5.435 -0.8340  2.2606  1.7477
 6159SOL     OW29935   0.130   0.108   6.195  0.2373  0.2258  0.4145
 6159SOL    HW129936   0.086   0.053   6.260 -0.9595  1.1758  0.4233
 6159SOL    HW229937   0.072   0.183   6.179  0.1484 -0.1931 -1.1308
 6160SOL     OW29938   0.992   1.802   2.612  0.3286  0.0014 -0.4626
 6160SOL    HW129939   0.909   1.770   2.649  1.0549 -1.8591 -0.4007
 6160SOL    HW229940   0.997   1.884   2.661  1.8002 -2.1987  3.1218
 6161SOL     OW29941   4.037   2.703   5.035 -0.5944 -0.0229  0.2085
 6161SOL    HW129942   4.034   2.718   5.129  1.5285 -0.7830  0.3755
 6161SOL    HW229943   4.112   2.645   5.025 -1.4677 -0.7065 -2.5117
 6162SOL     OW29944   0.723   2.408   5.485  0.2174  0.0679  0.3630
 6162SOL    HW129945   0.792   2.474   5.497  1.2353 -0.9665  0.2520
 6162SOL    HW229946   0.723   2.366   5.571 -0.8699  0.2877  0.4691
 6163SOL     OW29947   3.261   1.982   6.425  0.3160 -0.5022 -0.5308
 6163SOL    HW129948   3.347   1.941   6.415  0.3878 -0.0869 -1.5649
 6163SOL    HW229949   3.207   1.909   6.456  0.9007 -0.5020  0.5180
 6164SOL     OW29950   4.710   3.538  12.828 -0.0634 -0.1445  0.4599
 6164SOL    HW129951   4.668   3.513  12.911 -0.0141  1.1407  0.8729
 6164SOL    HW229952   0.073   3.506  12.846  0.2561 -0.7216 -2.1675
 6165SOL     OW29953   1.125   2.321   3.906 -0.4265  0.4661 -0.1897
 6165SOL    HW129954   1.161   2.308   3.994 -1.8726  0.7024  0.4387
 6165SOL    HW229955   1.067   2.246   3.892  0.5978 -0.3047 -0.3561
 6166SOL     OW29956   1.011   0.252  15.004  0.1707  0.2777  0.3290
 6166SOL    HW129957   0.928   0.288  14.974  0.5624  1.3806  0.5620
 6166SOL    HW229958   0.977   0.169  15.037 -2.4952  2.0343  1.9971
 6167SOL     OW29959   2.599   4.349  16.312  0.3029  0.5126 -0.2089
 6167SOL    HW129960   2.567   4.358  16.221 -2.5442 -0.3286  0.6935
 6167SOL    HW229961   2.648   4.268  16.302  0.6866  0.5362  1.5970
 6168SOL     OW29962   0.178   2.657   6.801  0.1540  0.1612 -0.3431
 6168SOL    HW129963   0.212   2.577   6.840  0.1999  0.1989 -0.3063
 6168SOL    HW229964   0.146   2.625   6.716  1.0260  2.8734 -1.6918
 6169SOL     OW29965   2.535   4.683  11.751 -0.0334 -0.5448  0.3244
 6169SOL    HW129966   2.587   4.642  11.681  1.2832  0.9721  0.4157
 6169SOL    HW229967   2.495   0.019  11.690  0.4747  1.0609  1.6140
 6170SOL     OW29968   0.494   3.007   7.831 -0.4127 -0.4961  0.0651
 6170SOL    HW129969   0.489   2.988   7.737  1.4919 -0.8696  0.0312
 6170SOL    HW229970   0.452   3.093   7.839 -1.4129 -0.9733 -0.0415
 6171SOL     OW29971   3.673   0.745  11.069 -0.3669  0.5853 -0.3856
 6171SOL    HW129972   3.765   0.768  11.084 -0.4884  1.1906 -0.5627
 6171SOL    HW229973   3.667   0.653  11.095  2.5780  0.1895 -1.0860
 6172SOL     OW29974   2.125   0.771   5.287 -0.1626 -0.2904  0.0685
 6172SOL    HW129975   2.069   0.849   5.288 -1.1738 -0.9913 -2.2230
 6172SOL    HW229976   2.124   0.758   5.192 -3.5658  0.6914 -0.0460
 6173SOL     OW29977   0.329   2.680   5.238 -0.1804  0.3298  0.2039
 6173SOL    HW129978   0.364   2.769   5.235 -3.3466  1.5830  0.1537
 6173SOL    HW229979   0.295   2.680   5.327 -0.7971 -0.8795 -0.0206
 6174SOL     OW29980   0.717   0.753  14.554  0.0729 -0.4454  0.2554
 6174SOL    HW129981   0.702   0.737  14.460  2.5741  2.2055 -0.5823
 6174SOL    HW229982   0.705   0.665  14.591 -0.5209 -0.4386  0.0716
 6175SOL     OW29983   4.384   0.459   5.372 -0.4080  0.1028  0.1696
 6175SOL    HW129984   4.409   0.516   5.445  0.8799  0.0066 -0.1809
 6175SOL    HW229985   4.448   0.493   5.309  0.2272  0.2699  0.9090
 6176SOL     OW29986   4.295   0.329   1.434 -0.6038 -0.4218  1.3040
 6176SOL    HW129987   4.321   0.269   1.505  0.3683 -3.1238 -1.3232
 6176SOL    HW229988   4.262   0.266   1.371  1.5961 -1.4661  1.1921
 6177SOL     OW29989   1.376   3.937   3.330  0.2330  0.0760  0.3870
 6177SOL    HW129990   1.395   3.888   3.250 -0.5803 -0.3119  0.4328
 6177SOL    HW229991   1.314   3.877   3.372  2.2632 -1.2033  1.5407
 6178SOL     OW29992   3.466   4.313  10.629  0.1446  0.0730 -0.6333
 6178SOL    HW129993   3.467   4.314  10.725 -0.8601 -1.8741 -0.5984
 6178SOL    HW229994   3.505   4.228  10.609 -1.5397 -0.6206 -0.9727
 6179SOL     OW29995   3.691   1.158   7.287  0.0730  0.5692 -0.2641
 6179SOL    HW129996   3.672   1.156   7.381  1.6787 -1.1618  0.0166
 6179SOL    HW229997   3.683   1.065   7.268  1.1247  0.3783  0.1850
 6180SOL     OW29998   2.702   0.609   9.624  0.3104 -0.3613 -0.5345
 6180SOL    HW129999   2.719   0.703   9.625 -1.6226 -0.0072 -1.3531
 6180SOL    HW230000   2.788   0.576   9.650 -0.0022 -1.2691 -0.6333
 6181SOL     OW30001   4.036   4.410   3.864 -0.6551 -0.7752  0.1670
 6181SOL    HW130002   4.126   4.427   3.838 -1.4425 -0.6318 -2.5181
 6181SOL    HW230003   4.048   4.379   3.953 -0.3313  2.6095  1.2949
 6182SOL     OW30004   2.713   4.591  11.584 -0.1440 -0.0360  0.0471
 6182SOL    HW130005   2.660   4.563  11.510  0.9250 -1.8964 -0.0030
 6182SOL    HW230006   2.793   4.614  11.536 -0.1869  0.1576  0.0685
 6183SOL     OW30007   1.107   2.424   7.309  0.0585  0.3083 -0.0139
 6183SOL    HW130008   1.044   2.475   7.257 -1.1248 -0.3519  0.7879
 6183SOL    HW230009   1.144   2.491   7.366  0.2848 -0.5218  0.8168
 6184SOL     OW30010   1.358   0.002   5.390 -0.0090  0.0088 -0.0414
 6184SOL    HW130011   1.324   0.072   5.335 -0.3578 -0.9619 -1.0611
 6184SOL    HW230012   1.335   4.649   5.341  1.3621 -0.9017  0.7570
 6185SOL     OW30013   1.184   1.008   4.549  0.8409  0.5891 -0.3071
 6185SOL    HW130014   1.236   0.956   4.488 -0.2756 -0.7316 -0.1568
 6185SOL    HW230015   1.171   0.943   4.619 -3.8815 -0.1987 -1.8965
 6186SOL     OW30016   3.987   4.603   6.894 -0.4715 -0.0418  0.7871
 6186SOL    HW130017   4.011   4.520   6.852  3.1112  1.7792 -0.7382
 6186SOL    HW230018   3.906   4.570   6.934  0.2553 -0.2650  2.0647
 6187SOL     OW30019   1.140   2.722   4.969 -0.1990  0.2824 -0.6160
 6187SOL    HW130020   1.148   2.697   4.877  1.2505  0.4857 -0.5378
 6187SOL    HW230021   1.234   2.736   4.976  0.0233 -2.0938  0.9090
 6188SOL     OW30022   4.101   4.126  11.695  0.2074  0.0674  0.1797
 6188SOL    HW130023   4.028   4.154  11.750  1.4208  0.1260  1.7569
 6188SOL    HW230024   4.078   4.037  11.668  0.8193  0.2431 -0.9260
 6189SOL     OW30025   0.233   0.401  15.490 -0.1358 -0.7812  0.6638
 6189SOL    HW130026   0.314   0.401  15.542 -0.8383 -0.8181  1.7521
 6189SOL    HW230027   0.240   0.475  15.429 -1.6366 -3.1803 -2.4388
 6190SOL     OW30028   1.892   0.711   7.931 -0.3105 -0.0424 -0.3309
 6190SOL    HW130029   1.826   0.769   7.967  1.7406  0.4720  2.6709
 6190SOL    HW230030   1.957   0.709   8.001 -1.1784 -1.1559  0.4430
 6191SOL     OW30031   4.420   1.153  15.644 -0.3271  0.0192  0.1045
 6191SOL    HW130032   4.385   1.080  15.594  1.9706 -1.2979  0.4551
 6191SOL    HW230033   4.484   1.106  15.698 -1.8356  0.3640  2.2119
 6192SOL     OW30034   2.734   2.288   8.140  0.2457 -0.3975  0.2218
 6192SOL    HW130035   2.667   2.349   8.110 -2.1062 -2.1948  1.7614
 6192SOL    HW230036   2.704   2.254   8.224 -2.3195 -0.8374 -0.8635
 6193SOL     OW30037   2.946   4.350   7.102 -0.6707  0.6876 -0.3001
 6193SOL    HW130038   2.900   4.274   7.068 -0.5555  1.0740 -1.3283
 6193SOL    HW230039   2.954   4.337   7.196 -0.2457 -1.5550 -0.6511
 6194SOL     OW30040   4.257   2.131   9.114  0.2860  0.3015  0.4226
 6194SOL    HW130041   4.309   2.096   9.187  1.7829  0.0914 -0.7429
 6194SOL    HW230042   4.222   2.058   9.063  1.6524 -0.1995  0.1957
 6195SOL     OW30043   2.867   1.596   2.505 -0.4500  0.3201  0.7982
 6195SOL    HW130044   2.832   1.522   2.554  0.2337 -0.6938 -0.2308
 6195SOL    HW230045   2.843   1.578   2.413 -0.4085  0.4558  0.7607
 6196SOL     OW30046   0.600   0.631   1.955  0.4024 -0.0117 -0.1450
 6196SOL    HW130047   0.515   0.668   1.932  0.1376 -0.3716  0.2532
 6196SOL    HW230048   0.583   0.536   1.951  0.9513 -0.1178  0.1091
 6197SOL     OW30049   2.660   2.571   6.802  0.1694 -0.0920  0.1300
 6197SOL    HW130050   2.703   2.487   6.815  2.1507  0.7179 -1.1318
 6197SOL    HW230051   2.681   2.593   6.711  0.6044  0.8364  0.4599
 6198SOL     OW30052   1.758   2.185  13.189  0.0007  0.4106  0.2707
 6198SOL    HW130053   1.724   2.180  13.099  1.2685  0.2977 -0.2066
 6198SOL    HW230054   1.853   2.180  13.177  0.0668  0.5285  0.7476
 6199SOL     OW30055   4.622   2.420   9.624  0.0329 -0.5273  0.2207
 6199SOL    HW130056   4.712   2.431   9.595  0.3266  1.1692  1.7885
 6199SOL    HW230057   4.585   2.497   9.581  0.1792 -0.4988  0.1484
 6200SOL     OW30058   4.438   3.672   3.299  0.7411 -0.2656  0.8791
 6200SOL    HW130059   4.468   3.754   3.260 -1.3357  0.2793  0.4512
 6200SOL    HW230060   4.511   3.614   3.276 -0.3080 -1.9036  1.6786
 6201SOL     OW30061   3.129   0.637   9.528 -0.1313 -0.2740 -0.5908
 6201SOL    HW130062   3.087   0.704   9.582 -1.0679 -0.1326 -1.4799
 6201SOL    HW230063   3.086   0.561   9.568 -0.9537  0.5637  0.1352
 6202SOL     OW30064   0.180   4.243   6.767  0.4068  0.1740 -0.1379
 6202SOL    HW130065   0.193   4.150   6.748  1.0328  0.1916  0.2311
 6202SOL    HW230066   0.228   4.275   6.691 -1.3124 -2.3616 -2.3114
 6203SOL     OW30067   3.188   4.690   5.504  0.5891  0.2240 -0.3364
 6203SOL    HW130068   3.159   0.054   5.485 -1.0741 -0.0857  0.6845
 6203SOL    HW230069   3.109   4.652   5.466  0.8009 -0.5753  0.0267
 6204SOL     OW30070   2.300   1.117  10.063  0.1187 -0.4518  0.7412
 6204SOL    HW130071   2.251   1.038  10.042 -0.9439  0.4998 -0.3495
 6204SOL    HW230072   2.264   1.181  10.002 -0.0309 -1.3428 -0.1064
 6205SOL     OW30073   3.597   1.716   3.374 -0.3536 -0.4701  0.6180
 6205SOL    HW130074   3.587   1.811   3.367  1.1180 -0.4989 -1.8855
 6205SOL    HW230075   3.529   1.677   3.317  0.3218 -0.1089 -0.4355
 6206SOL     OW30076   3.113   2.119  12.370  0.4534  0.2095 -0.3778
 6206SOL    HW130077   3.154   2.177  12.433 -0.9783 -0.3852  1.1274
 6206SOL    HW230078   3.101   2.177  12.295 -1.3996  0.6712  0.2654
 6207SOL     OW30079   3.906   2.537   3.203 -0.1228  0.2063  0.0783
 6207SOL    HW130080   3.842   2.484   3.249  0.0319 -0.8831 -0.9614
 6207SOL    HW230081   3.855   2.611   3.171 -0.7700 -0.6083 -0.7720
 6208SOL     OW30082   0.165   1.031   7.787  0.1350  0.0643 -0.5108
 6208SOL    HW130083   0.179   1.110   7.839 -1.1883 -0.6442  0.9264
 6208SOL    HW230084   0.213   0.964   7.835 -3.4151 -2.4194 -0.4468
 6209SOL     OW30085   2.589   4.280   8.433 -0.6825  0.0143 -0.1229
 6209SOL    HW130086   2.660   4.342   8.415 -0.6418  0.6704  2.3435
 6209SOL    HW230087   2.542   4.275   8.349 -1.3634  1.5911  0.1658
 6210SOL     OW30088   0.725   0.510   4.263 -0.2628  0.1654 -0.1898
 6210SOL    HW130089   0.771   0.470   4.338 -1.5977  3.2805  2.2837
 6210SOL    HW230090   0.663   0.570   4.304 -1.4826  0.6003 -2.7236
 6211SOL     OW30091   4.575   2.612   3.852 -0.3332 -0.3322 -0.3220
 6211SOL    HW130092   4.499   2.669   3.868 -0.0577  0.0950 -0.5415
 6211SOL    HW230093   4.621   2.621   3.935  2.3399 -0.6662 -1.7810
 6212SOL     OW30094   0.372   0.125   5.591  0.5347 -0.2061  0.1139
 6212SOL    HW130095   0.410   0.075   5.518  0.4335  0.9227 -0.7163
 6212SOL    HW230096   0.298   0.067   5.609 -0.7797  1.5353  0.2596
 6213SOL     OW30097   3.842   1.320   7.143  0.4987  0.2888  0.0090
 6213SOL    HW130098   3.803   1.257   7.203 -1.7435  0.3900 -1.3619
 6213SOL    HW230099   3.920   1.274   7.112  0.9029  0.5764  0.5805
 6214SOL     OW30100   2.690   2.314   4.164  0.5683  0.3231  0.1954
 6214SOL    HW130101   2.608   2.362   4.148  1.8320  1.7858 -1.8922
 6214SOL    HW230102   2.742   2.383   4.206 -0.5791  1.5197 -0.3350
 6215SOL     OW30103   4.027   1.062   5.582  0.3039  0.0692  0.2660
 6215SOL    HW130104   4.069   0.978   5.601  0.7072  0.1580 -0.2247
 6215SOL    HW230105   4.063   1.084   5.496 -0.8286  0.3498 -0.1383
 6216SOL     OW30106   3.522   2.349   2.073 -0.0579  0.3579  0.0555
 6216SOL    HW130107   3.569   2.414   2.125  0.4784 -0.1891  0.2467
 6216SOL    HW230108   3.437   2.389   2.056  0.1243  1.1472  0.9622
 6217SOL     OW30109   2.693   0.535   4.239 -0.5664  0.7326  0.3443
 6217SOL    HW130110   2.695   0.494   4.325  0.9228  3.2321  1.5238
 6217SOL    HW230111   2.768   0.596   4.237 -0.3212  0.4499  1.1335
 6218SOL     OW30112   0.564   4.032   8.124  0.0404 -0.1876 -0.1486
 6218SOL    HW130113   0.652   4.014   8.157 -0.2757 -0.8682  0.3343
 6218SOL    HW230114   0.572   4.125   8.106 -1.1243  0.0519  0.6045
 6219SOL     OW30115   2.186   2.927  17.341  0.0629  0.1463 -0.1596
 6219SOL    HW130116   2.280   2.939  17.329  0.1748 -0.7034 -0.1280
 6219SOL    HW230117   2.146   2.935  17.255  3.4313 -0.7883 -1.8033
 6220SOL     OW30118   1.485   0.970  16.929 -0.7741  0.4425  0.1621
 6220SOL    HW130119   1.503   0.945  16.839  1.2956  1.1735  0.3809
 6220SOL    HW230120   1.560   0.923  16.965  0.1227  0.6180 -1.4841
 6221SOL     OW30121   4.371   0.906   5.828  0.0873 -0.0224  0.2208
 6221SOL    HW130122   4.385   0.812   5.822  0.7117  0.2897 -3.6574
 6221SOL    HW230123   4.277   0.898   5.811  0.3443  0.9995 -1.7707
 6222SOL     OW30124   0.220   0.376   3.822 -0.4699 -0.4237  0.6593
 6222SOL    HW130125   0.153   0.357   3.887 -0.5045  1.9846  1.3549
 6222SOL    HW230126   0.249   0.463   3.851 -0.6931  0.2871 -1.2380
 6223SOL     OW30127   4.499   0.066  14.833 -0.2893  0.2838  0.4184
 6223SOL    HW130128   4.413   0.103  14.853 -0.8731 -0.1699 -1.2595
 6223SOL    HW230129   4.482   0.089  14.741  3.0183 -1.3216 -0.5685
 6224SOL     OW30130   1.798   0.921   3.062  0.5854  0.1834 -0.4120
 6224SOL    HW130131   1.817   0.992   3.123  0.2064 -0.3745  0.3513
 6224SOL    HW230132   1.716   0.949   3.020 -0.4719 -1.4069  0.5701
 6225SOL     OW30133   2.305   3.060   3.243 -0.0959 -0.1877  0.7379
 6225SOL    HW130134   2.400   3.053   3.233 -0.0508  1.9274 -0.2259
 6225SOL    HW230135   2.289   3.014   3.325 -0.4281 -1.1554  0.1325
 6226SOL     OW30136   1.850   1.680   1.213 -0.3228  0.1554 -0.5797
 6226SOL    HW130137   1.850   1.775   1.228 -0.9469 -0.3744  2.7386
 6226SOL    HW230138   1.894   1.674   1.128  2.2861  2.5950  0.5861
 6227SOL     OW30139   1.058   0.472   5.703 -0.0414  0.3858 -0.0527
 6227SOL    HW130140   1.094   0.524   5.776  0.2602 -1.3705  1.0376
 6227SOL    HW230141   1.128   0.408   5.693 -1.9739 -1.2339 -2.8952
 6228SOL     OW30142   3.534   2.964   9.045  0.5171 -0.0560  0.1085
 6228SOL    HW130143   3.561   3.026   8.976  1.2846  0.1223  0.5615
 6228SOL    HW230144   3.586   2.892   9.010  0.4303  0.6462 -1.4952
 6229SOL     OW30145   1.391   2.513   0.932 -0.1109 -0.2528  0.3646
 6229SOL    HW130146   1.433   2.567   0.999  0.9054 -0.8900  0.2379
 6229SOL    HW230147   1.389   2.425   0.969  1.6342 -0.4006  0.1121
 6230SOL     OW30148   0.851   0.503   5.549  0.1160 -0.3284  0.3449
 6230SOL    HW130149   0.839   0.408   5.541  0.3466 -0.5162  2.2558
 6230SOL    HW230150   0.929   0.493   5.604 -0.6051 -0.5035  1.3287
 6231SOL     OW30151   4.669   1.046  11.263  0.0254  0.6122 -0.7793
 6231SOL    HW130152   4.722   1.109  11.312  0.3503  1.0381 -1.6914
 6231SOL    HW230153   4.715   0.967  11.292 -0.3893  0.1981 -1.2524
 6232SOL     OW30154   2.423   1.381  10.886 -0.3412  0.5377 -0.2840
 6232SOL    HW130155   2.490   1.313  10.894 -0.1677  0.5163 -1.8884
 6232SOL    HW230156   2.472   1.461  10.907 -1.1240  0.7668  0.6649
 6233SOL     OW30157   2.170   4.105  14.875 -0.2704 -0.2009 -0.5024
 6233SOL    HW130158   2.154   4.186  14.925  0.2816  1.0593 -2.3491
 6233SOL    HW230159   2.230   4.132  14.806  0.6635  2.5327  1.3712
 6234SOL     OW30160   3.902   0.321  16.801  0.0271  0.0906  0.2509
 6234SOL    HW130161   3.947   0.345  16.720 -1.0221 -2.2283 -1.0366
 6234SOL    HW230162   3.904   0.225  16.796  0.8439  0.1960 -1.6227
 6235SOL     OW30163   3.418   2.739   6.266  0.2243  0.1801  0.3484
 6235SOL    HW130164   3.399   2.831   6.244  1.1851  0.6043  1.3142
 6235SOL    HW230165   3.359   2.696   6.205  1.2673 -1.7257  0.6748
 6236SOL     OW30166   1.623   4.156   4.330 -0.0476  0.2178 -0.2422
 6236SOL    HW130167   1.632   4.228   4.393  0.3818 -0.7526  0.8107
 6236SOL    HW230168   1.713   4.124   4.336 -0.2229 -0.2286  0.0097
 6237SOL     OW30169   4.062   1.359   3.654  0.1744  0.6361  0.2391
 6237SOL    HW130170   4.118   1.284   3.674  0.6616  1.4289  1.9103
 6237SOL    HW230171   3.989   1.308   3.620  0.4248  0.9271 -0.7401
 6238SOL     OW30172   3.365   1.172   5.976  0.0675 -0.1176  0.1359
 6238SOL    HW130173   3.342   1.080   5.968 -0.1513 -0.1151  0.7061
 6238SOL    HW230174   3.390   1.198   5.887  0.7473  0.1315  0.4038
 6239SOL     OW30175   2.078   2.842   7.594 -0.2696 -0.3256 -0.3102
 6239SOL    HW130176   2.086   2.800   7.509 -1.2213 -1.5205  0.1943
 6239SOL    HW230177   2.030   2.920   7.566 -0.6248  0.1913  1.7074
 6240SOL     OW30178   1.308   4.136   5.450 -0.1166  0.0159  0.0995
 6240SOL    HW130179   1.216   4.149   5.473  0.0622  1.0896  0.1970
 6240SOL    HW230180   1.297   4.072   5.379 -0.0017 -1.8370  1.7538
 6241SOL     OW30181   4.290   1.887   8.295 -0.0237  0.1036 -0.3371
 6241SOL    HW130182   4.278   1.953   8.227 -0.8866 -0.2136 -0.4898
 6241SOL    HW230183   4.240   1.817   8.255  0.3578 -0.4569  0.1692
 6242SOL     OW30184   0.892   2.983  11.026  0.5033  0.1806 -0.3464
 6242SOL    HW130185   0.885   3.075  11.000 -1.8836  0.5966  1.8178
 6242SOL    HW230186   0.972   2.959  10.980  0.2261 -0.5114 -0.4636
 6243SOL     OW30187   1.731   1.513  11.124  0.0610  0.1965 -0.5027
 6243SOL    HW130188   1.732   1.599  11.082 -0.5718  0.1828 -0.5475
 6243SOL    HW230189   1.660   1.526  11.187 -0.5365 -1.9437 -0.7619
 6244SOL     OW30190   0.123   2.518   3.462  0.0373 -0.1403  0.3346
 6244SOL    HW130191   0.205   2.496   3.417  0.4462 -1.0594  1.5142
 6244SOL    HW230192   0.159   2.520   3.551 -1.4734 -0.7297  0.9621
 6245SOL     OW30193   3.933   0.254   7.719 -0.4325  0.7232 -0.0084
 6245SOL    HW130194   3.903   0.332   7.766  4.2064  2.1949  0.5486
 6245SOL    HW230195   3.926   0.280   7.627  1.9204  0.1511 -0.3340
 6246SOL     OW30196   1.840   4.587   4.150  0.4218 -0.2392 -0.7077
 6246SOL    HW130197   1.866   4.547   4.233  0.4459  3.5405  1.1477
 6246SOL    HW230198   1.824   4.678   4.177  1.4200 -0.9404  2.2942
 6247SOL     OW30199   1.256   2.102   8.227 -0.2343  0.6183 -0.0742
 6247SOL    HW130200   1.331   2.043   8.230 -1.1838 -0.4857  1.4744
 6247SOL    HW230201   1.306   2.184   8.226 -3.5040  2.6197  0.4913
 6248SOL     OW30202   4.000   0.018   3.467  0.4609  0.2571 -0.0560
 6248SOL    HW130203   4.006   4.689   3.389 -0.3497 -1.3471  1.0058
 6248SOL    HW230204   4.064   4.694   3.519 -0.7860 -2.9382 -1.5350
 6249SOL     OW30205   0.583   2.700   3.517 -0.2678  0.6828 -0.5621
 6249SOL    HW130206   0.633   2.703   3.598 -0.3285  0.2164 -0.5115
 6249SOL    HW230207   0.537   2.783   3.530 -3.4669 -0.8845 -1.8310
 6250SOL     OW30208   2.683   1.866  13.701 -0.3486  0.1363 -0.4183
 6250SOL    HW130209   2.641   1.830  13.779 -0.6331  1.4391  0.0177
 6250SOL    HW230210   2.750   1.800  13.684 -0.3404  0.9030 -3.3376
 6251SOL     OW30211   2.151   3.158   4.321  0.1976 -0.0158 -0.0529
 6251SOL    HW130212   2.222   3.201   4.275 -0.0617  1.4125  0.8688
 6251SOL    HW230213   2.159   3.080   4.266  0.2642 -1.6669  2.2826
 6252SOL     OW30214   3.701   3.483   1.729 -0.3439 -0.6140 -0.3805
 6252SOL    HW130215   3.702   3.576   1.707  3.2419 -0.4424  0.4161
 6252SOL    HW230216   3.628   3.445   1.680 -1.6807 -0.6629  1.6135
 6253SOL     OW30217   4.172   3.292   4.668  0.3291 -0.0798 -0.1260
 6253SOL    HW130218   4.089   3.326   4.700 -2.1586 -3.9624 -2.4699
 6253SOL    HW230219   4.145   3.244   4.590 -0.4107 -2.3003  1.4861
 6254SOL     OW30220   4.067   4.082   7.100  0.0002  0.1366  0.2670
 6254SOL    HW130221   4.011   4.091   7.023  0.7466 -1.6986 -0.4797
 6254SOL    HW230222   4.124   4.012   7.070  0.5093  0.9787 -0.7281
 6255SOL     OW30223   4.643   4.137   3.221  0.6996 -0.0567 -0.3624
 6255SOL    HW130224   4.595   4.161   3.142  1.1795 -0.1416 -0.6781
 6255SOL    HW230225   4.708   4.207   3.223 -0.0321  0.6107  0.1782
 6256SOL     OW30226   1.689   0.950  11.397  0.2276  0.6233  0.3408
 6256SOL    HW130227   1.661   1.013  11.464 -0.0508 -0.7116  1.4861
 6256SOL    HW230228   1.631   0.974  11.325 -0.3063  1.1711  0.9447
 6257SOL     OW30229   0.621   1.083   7.211 -0.8496 -0.0992  0.0938
 6257SOL    HW130230   0.590   0.996   7.186  0.7709  0.2677 -3.2990
 6257SOL    HW230231   0.576   1.128   7.139  1.4081 -2.2113 -2.6187
 6258SOL     OW30232   3.667   0.569  13.473  0.1918 -0.3878 -0.6645
 6258SOL    HW130233   3.710   0.635  13.527  0.6359  0.0092 -1.4919
 6258SOL    HW230234   3.689   0.497  13.532 -1.1212  1.4531  2.0279
 6259SOL     OW30235   1.248   2.063   2.989  0.1921 -0.0556  0.0002
 6259SOL    HW130236   1.201   2.146   3.003  0.3330  0.0390 -0.0967
 6259SOL    HW230237   1.174   2.002   2.985  0.6777 -0.4202 -2.9228
 6260SOL     OW30238   2.811   1.810   4.010  0.0502  0.3710  0.7711
 6260SOL    HW130239   2.794   1.735   4.068  2.9020 -1.3186 -0.5460
 6260SOL    HW230240   2.824   1.889   4.063  0.8782 -0.9723  2.5818
 6261SOL     OW30241   2.594   2.184  15.154  0.2094  0.0984  0.2388
 6261SOL    HW130242   2.581   2.106  15.101 -0.9480  0.4742 -0.0271
 6261SOL    HW230243   2.624   2.249  15.092 -0.3110  0.0599 -0.0534
 6262SOL     OW30244   0.078   4.648   6.478  0.3682 -0.0795  0.2321
 6262SOL    HW130245   0.028   4.672   6.556  0.5177  2.9252 -0.5845
 6262SOL    HW230246   0.024   4.582   6.435 -0.6503  1.6344 -1.1241
 6263SOL     OW30247   2.326   2.312  11.434 -0.1998  0.4571  0.2301
 6263SOL    HW130248   2.381   2.368  11.489 -0.6834  0.4909  0.6752
 6263SOL    HW230249   2.286   2.268  11.509  0.1739  1.7572  1.2004
 6264SOL     OW30250   2.417   1.480   8.089 -0.2900  0.3042  0.2579
 6264SOL    HW130251   2.323   1.464   8.098 -0.0251 -1.0441  0.6982
 6264SOL    HW230252   2.424   1.481   7.994 -3.3771  1.0252  0.0406
 6265SOL     OW30253   1.500   1.129  11.275  0.2763  0.4926 -0.3224
 6265SOL    HW130254   1.471   1.220  11.272 -3.6849 -0.7106  1.6837
 6265SOL    HW230255   1.445   1.083  11.338  0.9426 -1.1438 -0.9210
 6266SOL     OW30256   2.540   3.571  14.250  0.0075 -0.6156 -0.0362
 6266SOL    HW130257   2.607   3.509  14.277  1.0798  0.8188  0.6438
 6266SOL    HW230258   2.584   3.617  14.178 -1.3114  3.7002  1.9335
 6267SOL     OW30259   2.541   4.528   6.325 -0.1424  0.0543 -0.2129
 6267SOL    HW130260   2.446   4.538   6.320 -0.2144 -0.5355  0.0696
 6267SOL    HW230261   2.556   4.434   6.336  1.0896  0.2098 -0.5889
 6268SOL     OW30262   0.325   1.764   2.167  0.5656 -0.2981 -0.3227
 6268SOL    HW130263   0.278   1.771   2.084  0.3222 -2.2075 -0.3614
 6268SOL    HW230264   0.331   1.855   2.194  2.2634 -0.3335 -0.5446
 6269SOL     OW30265   2.404   2.075   2.302  0.2670  0.0647  0.1332
 6269SOL    HW130266   2.314   2.062   2.273  0.0129  1.3018  0.3710
 6269SOL    HW230267   2.418   2.170   2.296 -2.0876  0.3633 -0.4971
 6270SOL     OW30268   4.177   3.095  11.917  0.2738 -0.3856  0.1393
 6270SOL    HW130269   4.139   3.139  11.841  0.6358 -2.1739 -1.0819
 6270SOL    HW230270   4.163   3.161  11.984  3.0930  0.2605  0.0832
 6271SOL     OW30271   4.492   4.036   6.153  0.1380 -0.3025  0.1738
 6271SOL    HW130272   4.549   3.966   6.123  1.2683  0.1718  1.2468
 6271SOL    HW230273   4.529   4.059   6.237  0.0843 -0.7326  0.3174
 6272SOL     OW30274   3.121   1.038   6.059 -0.1585  0.4046  0.0777
 6272SOL    HW130275   3.184   1.094   6.105 -0.8780  0.0809  1.4457
 6272SOL    HW230276   3.176   1.003   5.988  0.5209  0.1242  0.7336
 6273SOL     OW30277   0.640   1.789   8.361 -0.4807 -0.0680 -0.2873
 6273SOL    HW130278   0.585   1.777   8.283 -0.4534 -0.5145 -0.2347
 6273SOL    HW230279   0.581   1.762   8.431  0.6416 -2.7693 -0.3769
 6274SOL     OW30280   0.219   0.667  10.657 -0.5761  0.1535  0.0879
 6274SOL    HW130281   0.291   0.711  10.611 -1.5975  1.6550 -0.0865
 6274SOL    HW230282   0.213   0.581  10.616  1.4453  1.4577 -2.9186
 6275SOL     OW30283   3.530   0.997   1.334  0.3127  0.2714 -0.4185
 6275SOL    HW130284   3.459   0.951   1.378 -0.5351  1.0330 -1.0088
 6275SOL    HW230285   3.592   1.011   1.405 -0.0027  1.5497 -0.4019
 6276SOL     OW30286   3.277   4.432  16.482  0.4670  0.1561 -0.1079
 6276SOL    HW130287   3.317   4.364  16.428 -0.6408  0.8774 -1.8498
 6276SOL    HW230288   3.300   4.508  16.428 -0.7230 -0.6533 -1.7454
 6277SOL     OW30289   2.972   2.316   1.101 -0.9556 -0.5236 -0.0482
 6277SOL    HW130290   2.976   2.221   1.112 -1.7209 -0.4566  0.8458
 6277SOL    HW230291   2.981   2.314   1.005  0.7145 -1.0099  0.1128
 6278SOL     OW30292   3.017   2.855   7.714  0.7415  0.2981 -0.0147
 6278SOL    HW130293   2.942   2.801   7.741  1.1558  0.5896  1.7411
 6278SOL    HW230294   2.987   2.893   7.631  2.5870 -0.8348 -1.2056
 6279SOL     OW30295   3.005   3.400   4.241  0.7194  0.2464  0.1866
 6279SOL    HW130296   3.010   3.441   4.155 -0.5783 -1.3136 -0.6475
 6279SOL    HW230297   2.963   3.468   4.294 -1.2666 -0.4789 -0.4468
 6280SOL     OW30298   3.947   1.486   0.312  0.3643 -0.5110 -0.0901
 6280SOL    HW130299   3.936   1.581   0.317 -2.1985 -0.8493  0.8614
 6280SOL    HW230300   4.027   1.474   0.363  0.7375  2.1794 -0.0422
 6281SOL     OW30301   4.109   2.799   3.289  0.1060 -0.0377  0.3138
 6281SOL    HW130302   4.122   2.860   3.362 -1.5053 -0.5565  1.0348
 6281SOL    HW230303   4.043   2.854   3.246  2.2800 -0.0001 -2.9853
 6282SOL     OW30304   1.870   3.963  13.221  0.3027 -0.5161  0.2717
 6282SOL    HW130305   1.860   4.009  13.305 -1.1314  1.0030 -0.7229
 6282SOL    HW230306   1.806   3.891  13.225 -1.5281  1.1811  1.7788
 6283SOL     OW30307   0.196   2.836   2.253  0.0947  0.4874  0.3600
 6283SOL    HW130308   0.169   2.781   2.326  0.1158 -1.4464 -1.1147
 6283SOL    HW230309   0.291   2.835   2.266  0.1900  0.6924 -0.2780
 6284SOL     OW30310   0.640   2.083   3.427 -0.7239 -0.1992 -0.0503
 6284SOL    HW130311   0.729   2.054   3.447  0.4008  4.2890  1.4678
 6284SOL    HW230312   0.650   2.104   3.334  0.1316  0.6597  0.2305
 6285SOL     OW30313   1.416   4.069   3.015  0.5329  0.1928  0.4656
 6285SOL    HW130314   1.415   4.137   3.082 -1.3417 -0.4299  1.0670
 6285SOL    HW230315   1.494   4.019   3.041  0.4975 -1.4119 -2.4908
 6286SOL     OW30316   2.656   1.442   2.841  0.4330 -0.2093 -0.1560
 6286SOL    HW130317   2.645   1.532   2.813  3.2066 -0.6775 -2.6938
 6286SOL    HW230318   2.577   1.452   2.895 -0.5800 -1.9427 -1.3202
 6287SOL     OW30319   2.591   3.965   6.310 -0.0542 -0.4384  0.1631
 6287SOL    HW130320   2.646   4.005   6.243 -0.6872 -0.3329 -0.2904
 6287SOL    HW230321   2.504   3.992   6.279  0.4024 -0.1410 -0.8572
 6288SOL     OW30322   1.576   2.708   2.167  0.2918  0.6560 -0.7131
 6288SOL    HW130323   1.652   2.707   2.225  0.3436  0.1886 -0.7893
 6288SOL    HW230324   1.614   2.776   2.111  0.8597 -0.3569 -1.5545
 6289SOL     OW30325   1.403   4.005   1.463  0.1104  0.3157  0.7090
 6289SOL    HW130326   1.454   4.013   1.543  1.8780 -1.5718 -0.2394
 6289SOL    HW230327   1.341   4.077   1.475  1.1755  1.2383  0.6356
 6290SOL     OW30328   2.503   4.710  11.337 -0.2799  0.0557  0.0048
 6290SOL    HW130329   2.431   4.656  11.369 -0.0262  0.2372  0.8786
 6290SOL    HW230330   2.442   0.045  11.295  0.2718  1.1061  0.7343
 6291SOL     OW30331   4.181   1.589  14.183  0.0399  0.2845  0.7547
 6291SOL    HW130332   4.100   1.624  14.220  0.3488  1.5812  0.1918
 6291SOL    HW230333   4.175   1.629  14.096 -1.2130 -0.6266  0.4215
 6292SOL     OW30334   2.352   4.243   4.994  0.0523  0.2476 -0.3999
 6292SOL    HW130335   2.414   4.194   5.047 -0.4979 -1.0831 -0.9929
 6292SOL    HW230336   2.315   4.295   5.065 -0.2588  0.5545 -0.7815
 6293SOL     OW30337   1.071   1.581   2.446  0.2628 -0.4191  0.1038
 6293SOL    HW130338   1.051   1.647   2.512 -0.3570 -0.8715  0.3733
 6293SOL    HW230339   0.996   1.582   2.386  0.2305  2.4517  0.2090
 6294SOL     OW30340   2.474   1.047   3.459  0.2914 -0.4007  0.3921
 6294SOL    HW130341   2.431   1.004   3.386 -0.8922  0.1011  0.7952
 6294SOL    HW230342   2.410   1.023   3.525 -0.6736 -1.3397 -0.8982
 6295SOL     OW30343   4.545   2.690   5.060  0.4522  0.0586 -0.2460
 6295SOL    HW130344   4.614   2.748   5.092 -0.0757  0.5078  0.0680
 6295SOL    HW230345   4.581   2.605   5.086 -1.3653 -0.7510 -0.3680
 6296SOL     OW30346   1.414   0.143   9.525  0.0490  0.2579  0.1451
 6296SOL    HW130347   1.443   0.100   9.444 -1.0277  0.1979 -0.2097
 6296SOL    HW230348   1.339   0.190   9.489  0.3684  1.4882  1.1105
 6297SOL     OW30349   3.915   0.134   1.100  0.1256 -0.1768 -0.3997
 6297SOL    HW130350   3.865   0.173   1.029  0.5257  1.9594  0.4797
 6297SOL    HW230351   3.885   0.044   1.100  1.5098 -0.6396  1.8226
 6298SOL     OW30352   0.073   3.949   5.193  0.0792  0.6813 -0.7040
 6298SOL    HW130353   0.135   3.955   5.121 -1.7563 -1.6478 -2.4605
 6298SOL    HW230354   0.104   4.017   5.253 -0.8575  0.9444 -0.5073
 6299SOL     OW30355   1.933   4.053   5.373  0.0634 -0.1760  0.5807
 6299SOL    HW130356   2.004   4.004   5.416  2.2733  3.1376  0.6930
 6299SOL    HW230357   1.883   3.980   5.336  2.6051 -1.3702 -0.5328
 6300SOL     OW30358   4.323   0.604   5.070 -0.0526  0.2177  0.4171
 6300SOL    HW130359   4.297   0.515   5.047  2.1405  0.1991 -1.9087
 6300SOL    HW230360   4.237   0.647   5.069 -0.9472 -1.6111 -1.4483
 6301SOL     OW30361   0.626   0.739   5.155  0.1570 -0.1235 -0.3823
 6301SOL    HW130362   0.659   0.660   5.199  0.5109 -0.5122 -1.3400
 6301SOL    HW230363   0.570   0.708   5.085 -0.5724 -1.3810  0.7566
 6302SOL     OW30364   0.675   4.605   7.521  0.5410 -0.0694 -0.0154
 6302SOL    HW130365   0.592   4.567   7.551  1.0158 -1.1245 -0.0167
 6302SOL    HW230366   0.715   4.584   7.605  2.8882 -0.3162 -1.2050
 6303SOL     OW30367   2.191   2.721  12.447 -0.2931  0.1086 -0.3276
 6303SOL    HW130368   2.242   2.745  12.524  0.5233  1.9838 -1.4463
 6303SOL    HW230369   2.183   2.805  12.403 -1.7371 -1.0615 -2.3128
 6304SOL     OW30370   1.743   1.524   8.633 -0.6798  0.3074  0.7972
 6304SOL    HW130371   1.668   1.467   8.617  0.4718 -0.6839 -1.0618
 6304SOL    HW230372   1.771   1.493   8.719 -0.9493 -0.5024  0.5916
 6305SOL     OW30373   0.945   1.203   5.668 -0.2299  0.1179 -0.1907
 6305SOL    HW130374   0.905   1.127   5.626 -0.2757 -0.9031  1.6938
 6305SOL    HW230375   0.920   1.261   5.596 -1.0841  0.9899  0.8038
 6306SOL     OW30376   3.741   4.511  16.491 -0.2410 -0.2059  0.0268
 6306SOL    HW130377   3.666   4.534  16.437 -0.0453  0.7310  0.1523
 6306SOL    HW230378   3.690   4.476  16.564  0.9876  1.5290  1.7311
 6307SOL     OW30379   4.445   0.081  16.847 -0.0394  0.7676  0.1150
 6307SOL    HW130380   4.516   0.028  16.884 -2.0519 -1.1639  1.1969
 6307SOL    HW230381   4.398   0.020  16.790 -1.4604  1.8096  0.1876
 6308SOL     OW30382   0.933   3.772   2.171  0.2046  0.5688 -0.1202
 6308SOL    HW130383   0.935   3.769   2.075  0.5939  0.8688 -0.1229
 6308SOL    HW230384   1.012   3.721   2.192  1.2123  2.3677  0.5219
 6309SOL     OW30385   2.007   0.406   5.664 -0.6603 -0.2129  0.6229
 6309SOL    HW130386   1.929   0.424   5.716 -0.9743 -1.9939  0.7827
 6309SOL    HW230387   1.991   0.465   5.590 -1.6825 -1.5624 -0.2414
 6310SOL     OW30388   1.645   4.320   7.625 -0.0774 -1.0389 -0.1293
 6310SOL    HW130389   1.569   4.333   7.567  1.5235  1.2853 -1.7532
 6310SOL    HW230390   1.673   4.405   7.590 -0.8720 -1.0123 -0.7071
 6311SOL     OW30391   0.966   1.898   7.408 -0.2030 -0.1917 -0.3054
 6311SOL    HW130392   0.978   1.982   7.452 -0.0552 -1.2626  1.7035
 6311SOL    HW230393   1.001   1.933   7.326 -3.1676 -2.3766 -2.5267
 6312SOL     OW30394   4.023   0.800   6.202 -0.4289 -0.1949  0.1532
 6312SOL    HW130395   3.928   0.804   6.218 -0.1578  3.9862  0.5874
 6312SOL    HW230396   4.051   0.866   6.265  0.0689  1.4821 -1.8574
 6313SOL     OW30397   4.181   2.206  12.630  0.2314 -0.5331  0.4230
 6313SOL    HW130398   4.190   2.122  12.676 -2.6745 -1.2283 -0.2801
 6313SOL    HW230399   4.205   2.262  12.704  0.7838 -1.1013  0.6812
 6314SOL     OW30400   2.188   4.378  14.930 -0.4878 -0.0892  0.0261
 6314SOL    HW130401   2.111   4.361  14.984 -1.7720  0.0998 -1.7554
 6314SOL    HW230402   2.179   4.473  14.923 -1.7041 -0.1380  0.9883
 6315SOL     OW30403   3.869   2.391  12.577  0.3768 -0.2888 -0.0730
 6315SOL    HW130404   3.804   2.427  12.517  1.5124 -0.0517 -1.1692
 6315SOL    HW230405   3.921   2.342  12.513  0.7379  0.8801 -0.6747
 6316SOL     OW30406   4.196   1.340  17.088 -0.2845  0.3214 -0.2601
 6316SOL    HW130407   4.131   1.396  17.045  0.5704  0.1932 -1.7247
 6316SOL    HW230408   4.209   1.276  17.018 -3.6946 -0.5500 -0.1413
 6317SOL     OW30409   2.426   4.673   3.525 -0.6831  0.2563  0.0986
 6317SOL    HW130410   2.444   0.024   3.579 -0.3216  0.4896 -0.3619
 6317SOL    HW230411   2.338   4.663   3.561 -0.2021  0.2542  1.2901
 6318SOL     OW30412   3.667   3.053  11.628 -0.3277 -0.1603  0.6971
 6318SOL    HW130413   3.688   3.032  11.537 -1.6860  1.8375 -0.0750
 6318SOL    HW230414   3.599   3.121  11.629 -1.8361 -1.6449 -0.7456
 6319SOL     OW30415   1.443   3.702   2.632 -0.6126 -0.1151  0.3996
 6319SOL    HW130416   1.416   3.794   2.634 -3.0164 -0.8531  1.1587
 6319SOL    HW230417   1.359   3.662   2.610  0.4161 -0.6664 -2.5463
 6320SOL     OW30418   3.926   2.081   9.010  0.0874  0.2003 -0.4881
 6320SOL    HW130419   3.897   1.990   9.012 -1.5380  0.6752 -2.3209
 6320SOL    HW230420   4.008   2.077   8.960  0.7774 -2.7424  0.8684
 6321SOL     OW30421   3.095   0.421   5.272 -0.3485  0.4539  0.0582
 6321SOL    HW130422   3.020   0.452   5.220 -1.5530 -1.8571  0.4518
 6321SOL    HW230423   3.105   0.505   5.317  1.0698  0.6101 -0.5417
 6322SOL     OW30424   3.482   3.751   1.586 -0.4790  0.6208 -0.6736
 6322SOL    HW130425   3.511   3.822   1.529 -0.2814  0.8876 -0.2390
 6322SOL    HW230426   3.483   3.671   1.533  0.4811  0.2471 -0.0872
 6323SOL     OW30427   2.371   0.691   3.592 -0.3313  0.1262  0.5291
 6323SOL    HW130428   2.338   0.781   3.598 -0.0422  0.1514  1.7219
 6323SOL    HW230429   2.462   0.702   3.623 -0.6491  0.2702  1.4150
 6324SOL     OW30430   2.435   3.928   2.009  0.4424 -0.2057 -0.3384
 6324SOL    HW130431   2.491   3.885   1.944  1.6365  1.8887 -0.6837
 6324SOL    HW230432   2.351   3.900   1.972 -0.2517 -1.7092  2.3767
 6325SOL     OW30433   1.857   3.707   6.510 -0.5532 -0.1960  0.1856
 6325SOL    HW130434   1.952   3.696   6.513 -0.4348  0.1207 -2.7130
 6325SOL    HW230435   1.842   3.754   6.592 -0.2202  1.1500 -0.5240
 6326SOL     OW30436   4.314   3.081  13.712  0.8060 -0.1242  0.2269
 6326SOL    HW130437   4.371   3.138  13.763 -0.1071  0.1754  0.9167
 6326SOL    HW230438   4.297   3.013  13.778  1.3881 -2.1542 -1.6953
 6327SOL     OW30439   3.172   4.252   3.506  0.1658  0.5400 -0.5352
 6327SOL    HW130440   3.238   4.202   3.553  0.0012 -0.8357 -1.7619
 6327SOL    HW230441   3.117   4.289   3.574  2.1358  3.8750 -0.7405
 6328SOL     OW30442   1.305   2.026   2.283  0.2098 -0.2572  0.0762
 6328SOL    HW130443   1.325   1.956   2.345  0.7586  0.2489  0.4704
 6328SOL    HW230444   1.233   1.978   2.244  1.1320 -2.3206  0.9294
 6329SOL     OW30445   1.084   1.891   2.247  0.5288  0.2036  0.0506
 6329SOL    HW130446   1.033   1.913   2.168  0.8981  1.0536  0.0477
 6329SOL    HW230447   1.035   1.811   2.266  1.2388 -0.5656 -1.3256
 6330SOL     OW30448   4.423   3.340  10.737  0.4512  0.0610  1.0204
 6330SOL    HW130449   4.362   3.348  10.664  1.3865 -0.4202  0.1827
 6330SOL    HW230450   4.450   3.249  10.723  0.3584  0.4579 -1.7205
 6331SOL     OW30451   4.702   2.670   7.487 -0.2581 -0.0529  0.2377
 6331SOL    HW130452   0.053   2.613   7.485 -0.8033 -0.8019  1.1252
 6331SOL    HW230453   4.625   2.614   7.498  1.3261 -1.9809  1.4279
 6332SOL     OW30454   1.579   2.657  15.051 -0.5275  0.0223  0.3925
 6332SOL    HW130455   1.513   2.726  15.056 -1.5357 -1.0698  2.1637
 6332SOL    HW230456   1.647   2.708  15.008  1.4403 -0.4332  2.9461
 6333SOL     OW30457   3.311   4.617   6.593 -0.1102 -0.2804  0.0021
 6333SOL    HW130458   3.235   4.637   6.538 -1.0833  1.3680  1.9091
 6333SOL    HW230459   3.272   4.565   6.664 -0.8255  0.3389  0.0711
 6334SOL     OW30460   1.032   0.272   7.490 -0.0202 -0.0083 -0.1308
 6334SOL    HW130461   1.035   0.236   7.578 -3.3535  0.6503  0.2566
 6334SOL    HW230462   0.937   0.270   7.478  0.0185 -0.3439 -0.3614
 6335SOL     OW30463   0.124   1.441   5.259 -0.0457 -0.4491 -0.6225
 6335SOL    HW130464   0.133   1.347   5.245 -2.5135 -0.8638  0.4412
 6335SOL    HW230465   0.184   1.460   5.188  2.3349 -1.2546  1.1882
 6336SOL     OW30466   3.480   0.913   5.220 -0.2076  1.1781  0.4670
 6336SOL    HW130467   3.425   0.865   5.158  0.2132  1.2207  0.0652
 6336SOL    HW230468   3.467   0.999   5.179  0.3233  2.1581  2.3241
 6337SOL     OW30469   0.224   0.494   2.677  0.1035 -0.5919 -0.0437
 6337SOL    HW130470   0.194   0.413   2.719  0.3699  0.0939  1.4800
 6337SOL    HW230471   0.275   0.469   2.600  0.6190 -1.6033  0.6336
 6338SOL     OW30472   3.475   1.795   2.782 -0.3157  0.2650 -0.3925
 6338SOL    HW130473   3.412   1.785   2.711 -0.8944 -0.5918  0.2493
 6338SOL    HW230474   3.520   1.872   2.746 -2.9953  0.8314 -2.5316
 6339SOL     OW30475   2.728   0.160   8.396 -0.3180 -0.1333  0.2526
 6339SOL    HW130476   2.747   0.140   8.488 -0.9030 -1.0661  0.1714
 6339SOL    HW230477   2.717   0.255   8.402  1.5725  0.1736 -1.4331
 6340SOL     OW30478   1.722   0.188   6.638  0.6840  0.2156 -0.1733
 6340SOL    HW130479   1.657   0.117   6.630  0.2990  0.6610 -1.0364
 6340SOL    HW230480   1.753   0.173   6.727 -0.1395  1.8461  0.3700
 6341SOL     OW30481   2.577   3.622   7.252 -1.0844  0.5378 -0.0386
 6341SOL    HW130482   2.581   3.603   7.159 -0.6802  0.2868  0.0301
 6341SOL    HW230483   2.484   3.646   7.258 -0.4892  2.6451  0.8572
 6342SOL     OW30484   2.706   1.225  17.250 -0.5341 -0.1563 -0.3738
 6342SOL    HW130485   2.651   1.226  17.172  0.9444  0.0984 -1.4334
 6342SOL    HW230486   2.690   1.133  17.271  0.0999 -0.4412 -1.1403
 6343SOL     OW30487   2.634   1.171   3.281  0.4191 -0.4188  0.9070
 6343SOL    HW130488   2.723   1.195   3.306 -0.0526  0.6601  1.5134
 6343SOL    HW230489   2.598   1.125   3.357 -3.3932  1.6338  0.3582
 6344SOL     OW30490   2.879   0.761   1.736 -0.5402  0.5190 -0.3474
 6344SOL    HW130491   2.815   0.691   1.727  2.7287 -2.4556 -0.4357
 6344SOL    HW230492   2.876   0.768   1.831  1.2686  3.2251 -0.4662
 6345SOL     OW30493   1.313   3.149   3.205  0.5411  0.7426  0.3328
 6345SOL    HW130494   1.241   3.200   3.242 -0.2254  1.3971 -2.0736
 6345SOL    HW230495   1.290   3.063   3.240  0.3093  1.3318  1.6532
 6346SOL     OW30496   0.361   0.425  13.961 -0.1972 -0.0181  0.7116
 6346SOL    HW130497   0.438   0.433  14.017 -1.5282  0.5578  2.4427
 6346SOL    HW230498   0.398   0.378  13.886  0.0255  2.5289 -0.7978
 6347SOL     OW30499   4.003   3.030   7.990  0.2365  0.2332 -0.1263
 6347SOL    HW130500   4.005   3.073   8.076  1.2409  0.1044 -0.0825
 6347SOL    HW230501   4.000   2.938   8.017  4.2661  0.2280  0.2262
 6348SOL     OW30502   3.227   3.969  13.747  0.2391  1.0550 -0.5312
 6348SOL    HW130503   3.184   3.894  13.708 -0.1799  1.5449 -0.9991
 6348SOL    HW230504   3.239   4.026  13.672  0.7650  0.6217 -0.7798
 6349SOL     OW30505   3.995   0.331   6.542 -0.2137 -0.6612  0.4198
 6349SOL    HW130506   4.032   0.309   6.456 -0.8970  0.9649 -0.3047
 6349SOL    HW230507   3.983   0.245   6.582  0.9243  0.1883  2.5792
 6350SOL     OW30508   2.316   1.628   4.695 -0.3101  0.0824  0.3516
 6350SOL    HW130509   2.397   1.578   4.690  0.0885  0.6341  1.3628
 6350SOL    HW230510   2.313   1.661   4.785  2.6215  0.6523  0.2572
 6351SOL     OW30511   1.471   0.183  16.465  0.1330 -0.1183  0.2436
 6351SOL    HW130512   1.497   0.097  16.497 -1.2942 -0.3885  0.6784
 6351SOL    HW230513   1.399   0.160  16.406  0.1648  1.1401 -0.2808
 6352SOL     OW30514   0.338   0.374   7.470  0.3883 -0.6199 -0.1970
 6352SOL    HW130515   0.304   0.361   7.559  0.2014 -0.7928 -0.2924
 6352SOL    HW230516   0.279   0.446   7.447 -0.5555 -1.0942  0.7138
 6353SOL     OW30517   2.814   0.771   3.911 -0.1816 -0.1846  0.6352
 6353SOL    HW130518   2.825   0.676   3.906  2.1199  0.3248 -3.9385
 6353SOL    HW230519   2.719   0.784   3.906  0.4208  3.7508 -0.2787
 6354SOL     OW30520   3.778   4.490  15.725 -0.1075  0.0271 -0.3265
 6354SOL    HW130521   3.686   4.515  15.710  0.3618  1.8029 -0.3417
 6354SOL    HW230522   3.820   4.576  15.720  0.6262 -0.2752  0.7567
 6355SOL     OW30523   1.754   2.645   8.747 -0.1421 -0.2751 -0.4190
 6355SOL    HW130524   1.686   2.667   8.683  0.3167  0.3895 -0.6863
 6355SOL    HW230525   1.798   2.730   8.742 -3.1327  1.2619 -1.3739
 6356SOL     OW30526   3.325   0.860   2.646  0.1210 -0.0511  0.1621
 6356SOL    HW130527   3.303   0.768   2.658 -0.7939 -0.0550 -1.6473
 6356SOL    HW230528   3.409   0.849   2.691  0.2275 -0.9349 -0.2605
 6357SOL     OW30529   0.127   2.031   5.109 -0.1213 -0.1873  0.4311
 6357SOL    HW130530   0.157   1.983   5.032 -3.7203 -0.5054 -0.7650
 6357SOL    HW230531   0.210   2.036   5.158 -0.0930 -3.3879  0.6993
 6358SOL     OW30532   4.570   3.135   3.553 -0.3777  0.0181 -0.0708
 6358SOL    HW130533   4.570   3.092   3.639 -2.6725 -0.1874 -0.1777
 6358SOL    HW230534   4.637   3.204   3.556 -0.9227  0.5813 -0.8061
 6359SOL     OW30535   2.634   2.988  15.926  0.3099  0.3212 -0.2995
 6359SOL    HW130536   2.724   3.020  15.920  0.6590 -0.5145  0.4489
 6359SOL    HW230537   2.625   2.927  15.853 -0.5850  0.3387 -0.1974
 6360SOL     OW30538   2.827   2.560   2.699 -0.7238 -0.0285 -0.2786
 6360SOL    HW130539   2.798   2.647   2.725  0.7780  1.0633 -2.2198
 6360SOL    HW230540   2.744   2.515   2.714 -1.0585  0.9194  0.7287
 6361SOL     OW30541   3.653   2.995   9.720 -0.2705 -0.2656  0.3636
 6361SOL    HW130542   3.610   2.930   9.664  0.1195 -1.4258  1.4224
 6361SOL    HW230543   3.639   2.959   9.807  2.3340 -0.4542  0.7191
 6362SOL     OW30544   0.683   2.627   5.753 -0.1716 -0.4701 -0.2450
 6362SOL    HW130545   0.622   2.661   5.688  1.2053  0.1035 -1.2333
 6362SOL    HW230546   0.706   2.544   5.712 -1.5507 -1.5827  1.2383
 6363SOL     OW30547   0.396   1.756   1.802  0.0176  0.3835  1.2339
 6363SOL    HW130548   0.312   1.767   1.847 -1.1327  1.4454 -1.1799
 6363SOL    HW230549   0.457   1.812   1.850  1.1181  0.6479 -0.4676
 6364SOL     OW30550   0.690   0.574  10.209  0.4378 -0.5157 -0.1848
 6364SOL    HW130551   0.781   0.547  10.223  0.5247  0.4339  1.1192
 6364SOL    HW230552   0.690   0.589  10.115 -0.8993 -2.7740 -0.5366
 6365SOL     OW30553   0.901   4.459   2.743 -0.3217 -0.4527 -0.1057
 6365SOL    HW130554   0.943   4.430   2.824  0.8063  2.5637  0.3964
 6365SOL    HW230555   0.922   4.551   2.758 -2.1921 -0.1208  0.4564
 6366SOL     OW30556   0.881   4.417   5.641  0.0673  0.6810 -0.1100
 6366SOL    HW130557   0.969   4.454   5.627  0.7420 -0.7262  0.4367
 6366SOL    HW230558   0.904   4.382   5.727 -2.0079  0.6080  0.3993
 6367SOL     OW30559   2.449   4.079   1.520 -0.5004 -0.7545 -0.1113
 6367SOL    HW130560   2.427   4.121   1.604  0.2357 -2.1968  0.7953
 6367SOL    HW230561   2.372   4.033   1.489 -1.1689  1.6695 -2.0908
 6368SOL     OW30562   3.753   3.169   1.475 -0.6511  0.7651 -0.0893
 6368SOL    HW130563   3.806   3.092   1.453  0.9757  1.8280  0.0446
 6368SOL    HW230564   3.816   3.231   1.512 -0.6205  1.3287 -1.0905
 6369SOL     OW30565   0.153   4.557   9.301  0.1875 -0.0322  0.0006
 6369SOL    HW130566   0.178   4.609   9.377  1.5367 -0.8987  0.1585
 6369SOL    HW230567   0.170   4.464   9.318  1.9072  0.1631 -0.6375
 6370SOL     OW30568   2.206   0.022   5.846 -0.3353 -0.0538 -0.5221
 6370SOL    HW130569   2.226   0.110   5.814 -1.0575 -0.6642 -2.6732
 6370SOL    HW230570   2.238   4.688   5.778 -1.6045 -1.7780  0.4048
 6371SOL     OW30571   0.790   1.586   1.215 -0.5914 -0.2080 -0.0329
 6371SOL    HW130572   0.851   1.618   1.149  0.2546 -0.2258  0.7548
 6371SOL    HW230573   0.759   1.664   1.260  1.1564  1.1568 -1.2178
 6372SOL     OW30574   1.109   4.618   0.024 -0.0040  0.0506 -0.2195
 6372SOL    HW130575   1.068   4.695  17.687  1.1359  0.5634 -0.3952
 6372SOL    HW230576   1.069   4.631   0.111 -2.0841  1.6205 -1.3878
 6373SOL     OW30577   2.971   3.933   5.500  0.1528 -0.2685  0.0501
 6373SOL    HW130578   2.985   4.008   5.557 -1.1061 -0.3234  0.4256
 6373SOL    HW230579   2.887   3.902   5.534 -0.8001  0.2514 -1.8376
 6374SOL     OW30580   2.355   1.477   0.887 -0.1095  0.2232  0.1629
 6374SOL    HW130581   2.403   1.431   0.955 -0.1214 -0.0620 -0.0238
 6374SOL    HW230582   2.423   1.494   0.821  0.5329 -1.2906  0.4484
 6375SOL     OW30583   1.000   3.159   9.421 -0.3865 -0.1101  0.2407
 6375SOL    HW130584   0.965   3.191   9.503  0.5666  3.8382 -0.9136
 6375SOL    HW230585   0.978   3.235   9.367  0.6010 -0.4287 -0.6164
 6376SOL     OW30586   1.822   0.846  15.429  0.0670 -0.1613  0.2821
 6376SOL    HW130587   1.773   0.857  15.347 -1.7456 -1.5441  1.1836
 6376SOL    HW230588   1.798   0.928  15.471 -0.9599  0.0440 -0.7163
 6377SOL     OW30589   2.587   1.436   5.722  0.1610 -0.0203 -0.1381
 6377SOL    HW130590   2.653   1.503   5.740 -0.2387  0.1421  0.7273
 6377SOL    HW230591   2.511   1.467   5.770 -0.1150  0.8276 -1.1062
 6378SOL     OW30592   0.877   1.087   8.750  0.0963  0.0523 -0.0145
 6378SOL    HW130593   0.809   1.074   8.816 -0.5187  0.9792 -0.4731
 6378SOL    HW230594   0.934   1.014   8.774 -0.2134 -0.3918 -0.6434
 6379SOL     OW30595   0.348   3.946   5.787 -0.3766  0.1968  0.2432
 6379SOL    HW130596   0.314   3.994   5.862  0.2405  1.4586 -0.2702
 6379SOL    HW230597   0.369   3.863   5.831  1.4279 -0.2958 -1.5396
 6380SOL     OW30598   1.184   2.050   1.529 -0.1558  0.8324  0.7294
 6380SOL    HW130599   1.264   2.018   1.573 -1.6868 -2.0848  1.4218
 6380SOL    HW230600   1.139   1.966   1.537 -1.0711  1.2258 -0.2902
 6381SOL     OW30601   2.371   2.720   3.005 -0.4849  0.3888 -0.2331
 6381SOL    HW130602   2.386   2.760   2.920  2.0859 -0.3486 -0.1485
 6381SOL    HW230603   2.282   2.752   3.014 -0.2408  1.1674 -0.5854
 6382SOL     OW30604   4.306   1.803  11.791  0.4034  0.3407  0.0872
 6382SOL    HW130605   4.273   1.877  11.740 -0.4984  0.1490  0.3993
 6382SOL    HW230606   4.260   1.732  11.745 -0.8259  1.3721 -0.2554
 6383SOL     OW30607   0.925   2.633   5.555  0.7248  0.0950 -0.3243
 6383SOL    HW130608   0.878   2.716   5.558 -0.4812 -0.5375 -2.1119
 6383SOL    HW230609   0.967   2.630   5.641  0.0410 -0.2038  0.0052
 6384SOL     OW30610   1.523   2.248   9.086  0.6669  0.2229  0.5841
 6384SOL    HW130611   1.458   2.299   9.038  2.6956  0.4505 -1.9820
 6384SOL    HW230612   1.481   2.162   9.089  2.1637 -0.5451 -0.3947
 6385SOL     OW30613   2.712   0.135   5.421  0.4479  0.2369 -0.2633
 6385SOL    HW130614   2.787   0.091   5.381 -0.7227 -0.5345 -1.5766
 6385SOL    HW230615   2.656   0.126   5.345  0.3857 -0.5639 -0.1247
 6386SOL     OW30616   1.112   2.088  13.741  0.5237 -0.1271  0.3305
 6386SOL    HW130617   1.080   2.036  13.668  0.0860  1.1983 -0.4309
 6386SOL    HW230618   1.048   2.059  13.806 -0.0095  0.5055  0.0903
 6387SOL     OW30619   2.181   3.445   5.748 -0.4102  0.5944  0.1248
 6387SOL    HW130620   2.198   3.538   5.734 -0.4347  0.5172 -0.4137
 6387SOL    HW230621   2.241   3.430   5.822  0.7127 -0.1925 -0.9483
 6388SOL     OW30622   4.457   4.586   4.755  0.1892 -0.0794 -0.2311
 6388SOL    HW130623   4.516   4.521   4.717  1.8996  1.6144 -0.4706
 6388SOL    HW230624   4.482   4.663   4.703 -1.7958  1.5794  1.2569
 6389SOL     OW30625   3.489   3.871  11.023  0.3078 -0.0213  0.3785
 6389SOL    HW130626   3.501   3.805  10.955 -2.2087  1.7404 -1.7574
 6389SOL    HW230627   3.572   3.865  11.070  0.2112  0.2002  0.5763
 6390SOL     OW30628   3.778   4.570   3.546  0.3864 -0.4216  0.0431
 6390SOL    HW130629   3.785   4.545   3.454  1.0553 -0.5496  0.1244
 6390SOL    HW230630   3.860   4.618   3.559  0.2237 -0.2964  0.5890
 6391SOL     OW30631   2.266   1.671  15.879  0.0171 -0.4501  0.2557
 6391SOL    HW130632   2.181   1.706  15.904 -0.2339  0.8010 -2.3957
 6391SOL    HW230633   2.323   1.736  15.921 -0.9815  0.8095 -0.3597
 6392SOL     OW30634   1.885   4.493   5.537 -0.3050  0.2368 -0.0521
 6392SOL    HW130635   1.906   4.523   5.626  0.9936  1.5281 -0.7911
 6392SOL    HW230636   1.846   4.573   5.501 -0.5178 -0.5516 -1.5791
 6393SOL     OW30637   0.558   2.086   5.003  0.4402  0.2889 -0.5592
 6393SOL    HW130638   0.612   2.126   4.934 -0.3495  1.6974 -0.3584
 6393SOL    HW230639   0.569   1.997   4.970 -1.0703 -0.1552  0.1404
 6394SOL     OW30640   1.892   0.988   8.440  0.5489 -1.0698  0.3131
 6394SOL    HW130641   1.936   1.040   8.372  0.3452 -0.9818  0.2507
 6394SOL    HW230642   1.940   1.019   8.517 -0.8274 -0.3517  0.8619
 6395SOL     OW30643   2.867   0.578   3.472 -0.0168  0.4367 -0.1328
 6395SOL    HW130644   2.882   0.537   3.387 -0.3321 -0.2473  0.1363
 6395SOL    HW230645   2.918   0.518   3.527 -0.9414  1.7281  2.1479
 6396SOL     OW30646   2.424   2.460   8.472 -0.4146  0.0251  0.3541
 6396SOL    HW130647   2.353   2.421   8.421 -0.3572 -1.2538  1.2646
 6396SOL    HW230648   2.460   2.375   8.497 -0.1507 -0.0335 -0.2246
 6397SOL     OW30649   3.416   0.225   2.571 -0.2532  0.1045 -0.8128
 6397SOL    HW130650   3.457   0.309   2.593  2.7309 -1.3236 -0.8930
 6397SOL    HW230651   3.442   0.217   2.480  0.8514 -0.1657 -0.4771
 6398SOL     OW30652   2.721   0.065  11.199 -0.1541 -0.7995 -0.8182
 6398SOL    HW130653   2.776   4.721  11.235  0.9199  0.6213  0.2991
 6398SOL    HW230654   2.639   0.056  11.248 -0.9643 -0.6035 -2.1185
 6399SOL     OW30655   0.350   4.655   0.480 -0.1635 -0.3042  0.6268
 6399SOL    HW130656   0.419   4.695   0.533  0.1121  2.2324 -1.6975
 6399SOL    HW230657   0.279   4.717   0.500 -1.0611 -0.9354 -0.6027
 6400SOL     OW30658   4.388   0.255   8.806  0.4629  0.1467 -0.0280
 6400SOL    HW130659   4.298   0.285   8.822  0.0910 -1.0553  0.1059
 6400SOL    HW230660   4.387   0.226   8.715  2.1295 -1.3863  0.4557
 6401SOL     OW30661   3.306   3.458   7.359  0.3335 -0.3910  0.6093
 6401SOL    HW130662   3.259   3.502   7.430  0.0341  0.8014 -0.3313
 6401SOL    HW230663   3.386   3.510   7.359 -0.9530  1.6375 -1.4905
 6402SOL     OW30664   0.632   0.552   9.218  0.1364  0.0808  0.3505
 6402SOL    HW130665   0.577   0.474   9.214  1.2642 -0.5768 -2.6652
 6402SOL    HW230666   0.579   0.607   9.160  1.0237 -1.1072 -1.5702
 6403SOL     OW30667   3.445   3.734   0.301  0.0266  0.3278 -0.1103
 6403SOL    HW130668   3.373   3.682   0.338  0.0461  0.1691 -0.2927
 6403SOL    HW230669   3.519   3.675   0.316  1.0062  1.7188  0.4491
 6404SOL     OW30670   2.420   3.822  14.677  0.9577  0.1733  0.3143
 6404SOL    HW130671   2.368   3.856  14.604 -0.3440 -1.4284  0.4889
 6404SOL    HW230672   2.347   3.774  14.717  0.2079  0.7103 -0.4011
 6405SOL     OW30673   0.006   2.729   8.265 -0.4555 -0.3020  0.6561
 6405SOL    HW130674   4.704   2.654   8.213  1.2720  0.9054 -2.0260
 6405SOL    HW230675   0.093   2.748   8.231 -0.5040 -2.0176 -0.4059
 6406SOL     OW30676   4.527   3.566  17.447 -0.3859  0.0735  0.0186
 6406SOL    HW130677   4.604   3.609  17.484  0.3419 -0.8702 -0.3790
 6406SOL    HW230678   4.474   3.538  17.521 -0.2230 -0.0119  0.1041
 6407SOL     OW30679   1.358   1.306   1.708  0.3370  0.4475 -0.3817
 6407SOL    HW130680   1.410   1.226   1.694  0.4955  1.1095 -3.5065
 6407SOL    HW230681   1.381   1.329   1.797  1.3311  0.8441 -0.7500
 6408SOL     OW30682   4.003   0.229   2.721  0.0300  0.9448 -0.0396
 6408SOL    HW130683   4.029   0.243   2.630 -1.1646 -1.3884 -0.7505
 6408SOL    HW230684   3.911   0.213   2.701  0.3833  0.3501 -1.2025
 6409SOL     OW30685   0.833   0.761  17.271 -0.2599 -0.0229 -0.0285
 6409SOL    HW130686   0.777   0.838  17.285  2.0642  1.5477  0.5629
 6409SOL    HW230687   0.847   0.773  17.177 -0.7656  1.5896  0.1048
 6410SOL     OW30688   1.802   0.790   2.795 -0.0933 -0.0826 -0.5766
 6410SOL    HW130689   1.807   0.832   2.881  2.5523  0.9033 -1.2232
 6410SOL    HW230690   1.892   0.761   2.782 -0.2696 -1.0499  0.4120
 6411SOL     OW30691   4.272   0.608  11.136 -0.6299  0.1930 -0.1528
 6411SOL    HW130692   4.348   0.617  11.079 -2.5208  0.9885 -2.5493
 6411SOL    HW230693   4.303   0.539  11.195  1.5107  1.6171  0.4086
 6412SOL     OW30694   0.003   1.673   0.785 -0.2302 -0.2149 -0.0397
 6412SOL    HW130695   0.089   1.705   0.812  0.2357 -0.1745 -1.5925
 6412SOL    HW230696   4.701   1.727   0.711  0.5435 -0.9065 -0.8417
 6413SOL     OW30697   1.169   3.112  11.348  0.3086 -0.7910 -0.0133
 6413SOL    HW130698   1.245   3.142  11.397  1.8141 -0.7893 -2.3561
 6413SOL    HW230699   1.170   3.175  11.276 -1.8530  0.3289  0.9375
 6414SOL     OW30700   0.901   0.584   6.553  0.3982  0.1771  0.2588
 6414SOL    HW130701   0.836   0.652   6.534 -0.1400  0.2688  2.3678
 6414SOL    HW230702   0.926   0.539   6.472 -1.5717  0.6129 -0.5858
 6415SOL     OW30703   3.168   4.170   5.110 -0.1145 -0.0393 -0.0909
 6415SOL    HW130704   3.134   4.081   5.120 -1.3390  0.7431  2.7394
 6415SOL    HW230705   3.210   4.187   5.194  2.6768 -1.5299 -1.1858
 6416SOL     OW30706   3.298   0.777   1.229  0.2545  0.1340 -0.0665
 6416SOL    HW130707   3.233   0.709   1.213 -0.5552  0.9891 -0.4505
 6416SOL    HW230708   3.258   0.832   1.296 -0.1203 -0.1690 -0.0427
 6417SOL     OW30709   3.563   0.426  10.360 -0.3329 -0.0403 -0.3472
 6417SOL    HW130710   3.599   0.392  10.278 -1.6693 -2.0492 -0.1092
 6417SOL    HW230711   3.631   0.486  10.389 -0.5751  0.2240 -0.3292
 6418SOL     OW30712   0.938   0.215   0.652  0.5116  0.2328 -0.4597
 6418SOL    HW130713   0.844   0.210   0.634  0.3035 -2.3321  1.2135
 6418SOL    HW230714   0.937   0.159   0.730 -3.3654 -2.2631 -2.2860
 6419SOL     OW30715   3.898   0.406   5.197  0.2774  0.2614  0.1943
 6419SOL    HW130716   3.982   0.385   5.238  0.0676 -0.0702  0.4552
 6419SOL    HW230717   3.844   0.329   5.220  0.6292  0.4298  1.6136
 6420SOL     OW30718   0.616   2.368   6.732  0.6318 -0.3110 -0.0029
 6420SOL    HW130719   0.571   2.347   6.651 -0.9884 -1.8666  1.2962
 6420SOL    HW230720   0.695   2.314   6.726  1.3266  0.5256  1.6617
 6421SOL     OW30721   4.622   1.256   6.457 -0.2497 -0.4087  0.0236
 6421SOL    HW130722   4.529   1.265   6.475 -0.8148 -2.8135 -1.7039
 6421SOL    HW230723   4.657   1.220   6.538  2.4271  1.6635 -0.1989
 6422SOL     OW30724   3.996   0.471   9.256  0.0709 -0.1482 -0.5512
 6422SOL    HW130725   4.041   0.553   9.235 -0.7862  0.5050  0.1425
 6422SOL    HW230726   3.914   0.476   9.208 -1.5655  0.1008  2.3005
 6423SOL     OW30727   0.110   2.607   4.058 -0.0734  0.6876  0.0651
 6423SOL    HW130728   0.084   2.618   4.150 -1.3841  0.0540 -0.2365
 6423SOL    HW230729   0.129   2.699   4.038  0.0410  0.5797 -0.3121
 6424SOL     OW30730   0.002   1.200  15.755  0.0229  0.0753 -0.2690
 6424SOL    HW130731   4.695   1.110  15.752  0.1119  0.1168 -2.3490
 6424SOL    HW230732   0.039   1.211  15.667  1.2423  3.1013  0.6185
 6425SOL     OW30733   2.972   0.731   7.733  0.0732 -0.3130 -0.4062
 6425SOL    HW130734   3.053   0.740   7.782 -0.2802 -2.1330  0.4909
 6425SOL    HW230735   2.927   0.807   7.771  3.0551  2.0415 -1.5148
 6426SOL     OW30736   0.936   3.722   3.890  0.3346  0.2700 -0.1078
 6426SOL    HW130737   0.845   3.694   3.887  0.7271 -1.0711  0.4170
 6426SOL    HW230738   0.921   3.817   3.889 -1.6832 -0.0546 -0.5351
 6427SOL     OW30739   1.113   2.206   1.735 -0.5030  0.0279 -0.5048
 6427SOL    HW130740   1.184   2.265   1.759 -0.1818 -1.0665  1.2394
 6427SOL    HW230741   1.149   2.156   1.662  1.0024 -0.3573  0.5069
 6428SOL     OW30742   2.604   3.691   7.740  0.0196  0.4961  0.1936
 6428SOL    HW130743   2.609   3.609   7.690 -3.9146 -0.0612  0.7027
 6428SOL    HW230744   2.626   3.758   7.675  1.0367 -1.0473 -1.0575
 6429SOL     OW30745   0.268   2.947   4.390  0.1332 -0.4659 -0.0200
 6429SOL    HW130746   0.296   2.933   4.299 -0.8728 -0.1036 -0.3865
 6429SOL    HW230747   0.340   2.999   4.424  0.7264 -0.5957 -1.0596
 6430SOL     OW30748   4.325   3.256  15.162  0.0405 -0.0609  0.0878
 6430SOL    HW130749   4.409   3.214  15.144 -0.1273 -0.3019 -0.1440
 6430SOL    HW230750   4.331   3.303  15.245 -1.3483  1.6153 -0.7446
 6431SOL     OW30751   1.072   3.319  10.234 -0.0517  0.6417  0.7622
 6431SOL    HW130752   1.027   3.395  10.198 -1.1244 -0.4806 -0.2706
 6431SOL    HW230753   1.047   3.336  10.325 -2.9131  1.6910 -0.2343
 6432SOL     OW30754   2.561   1.477   3.330  0.0821 -1.3904 -0.2225
 6432SOL    HW130755   2.524   1.565   3.333  0.1135 -1.3024 -2.0929
 6432SOL    HW230756   2.513   1.445   3.406 -0.0556  0.0097  0.2821
 6433SOL     OW30757   1.248   3.755  13.563  0.1696 -0.4213 -0.1106
 6433SOL    HW130758   1.282   3.685  13.619 -0.1744  0.1263  0.7860
 6433SOL    HW230759   1.156   3.756  13.589  0.0372  0.3640 -0.6193
 6434SOL     OW30760   3.640   1.419  10.582 -0.8831 -0.8254 -0.0186
 6434SOL    HW130761   3.545   1.422  10.570 -0.9405  0.6943  0.8424
 6434SOL    HW230762   3.655   1.333  10.621 -2.0454  0.0512  2.3377
 6435SOL     OW30763   4.322   3.708  17.298 -0.1972  0.9238 -0.2319
 6435SOL    HW130764   4.293   3.721  17.388  0.5283 -0.8172  0.2573
 6435SOL    HW230765   4.391   3.643  17.311 -0.2337  0.7815 -0.7371
 6436SOL     OW30766   3.347   0.122  10.891  0.5394  0.0300 -0.4410
 6436SOL    HW130767   3.337   0.135  10.797  1.2099 -1.9093 -0.7866
 6436SOL    HW230768   3.358   0.213  10.919 -1.1419  0.1381 -0.1198
 6437SOL     OW30769   4.278   4.517  12.927  0.3757 -0.3920  0.2811
 6437SOL    HW130770   4.306   4.459  12.856 -1.4538 -0.3002 -0.5019
 6437SOL    HW230771   4.188   4.541  12.908  1.1083  1.6847 -0.5387
 6438SOL     OW30772   2.752   0.674   8.042 -0.6747  0.2886 -0.0651
 6438SOL    HW130773   2.744   0.753   8.096  0.2899  0.9409 -0.8940
 6438SOL    HW230774   2.699   0.700   7.967 -2.9663 -0.2545  1.3629
 6439SOL     OW30775   1.751   1.775   0.501 -0.0162 -0.2303  0.0393
 6439SOL    HW130776   1.824   1.737   0.452  0.9005  0.7724  0.6049
 6439SOL    HW230777   1.697   1.697   0.510  0.6407 -0.4227  2.4016
 6440SOL     OW30778   1.155   4.077   7.150  0.2164  0.8845  0.0003
 6440SOL    HW130779   1.103   4.134   7.092  0.6219 -0.2321 -1.4388
 6440SOL    HW230780   1.241   4.115   7.133  0.7305 -0.5113 -0.4701
 6441SOL     OW30781   1.778   4.432  13.836 -0.2817  0.0801  0.7379
 6441SOL    HW130782   1.683   4.446  13.830 -0.0269  0.6144 -2.1247
 6441SOL    HW230783   1.790   4.382  13.755 -3.2422 -0.5256  0.6634
 6442SOL     OW30784   3.176   2.243  12.114 -0.2653 -0.6863 -0.8086
 6442SOL    HW130785   3.145   2.246  12.023  1.1045  0.0231 -1.2467
 6442SOL    HW230786   3.258   2.195  12.107 -0.1521 -0.5415 -0.4847
 6443SOL     OW30787   0.298   4.539   6.171 -0.3431 -0.3418 -0.2704
 6443SOL    HW130788   0.203   4.547   6.179 -0.2486  1.9709 -1.4361
 6443SOL    HW230789   0.316   4.601   6.100 -0.1599  0.9814  0.9347
 6444SOL     OW30790   1.652   0.214   4.182  0.4709 -0.2478  0.1820
 6444SOL    HW130791   1.680   0.202   4.091  2.4356  0.8469  0.6506
 6444SOL    HW230792   1.660   0.307   4.199 -1.5361  0.2420 -1.4737
 6445SOL     OW30793   0.794   1.405   8.446  0.2094  0.0129  0.2452
 6445SOL    HW130794   0.847   1.414   8.526 -0.4076 -0.6491  0.7286
 6445SOL    HW230795   0.725   1.347   8.479  1.4927 -1.8489 -0.3021
 6446SOL     OW30796   2.135   0.359   2.398 -0.6576 -0.1451  0.2174
 6446SOL    HW130797   2.052   0.314   2.381  0.1934 -1.3453 -0.7616
 6446SOL    HW230798   2.117   0.450   2.372 -1.0785 -0.0072  0.9768
 6447SOL     OW30799   3.376   0.584  14.504 -0.1855 -0.1268  0.2852
 6447SOL    HW130800   3.332   0.644  14.565  1.6779  1.1628  0.3700
 6447SOL    HW230801   3.327   0.502  14.511 -0.5067  0.0280 -0.1377
 6448SOL     OW30802   0.187   3.074   0.500  0.2362  0.3481  0.3611
 6448SOL    HW130803   0.152   2.992   0.534  0.2043  0.3978  0.4497
 6448SOL    HW230804   0.105   3.119   0.481 -0.9168 -1.8690  0.1278
 6449SOL     OW30805   2.571   0.543   6.822  0.1065 -0.5513 -0.4839
 6449SOL    HW130806   2.574   0.502   6.736  0.7000 -2.6502  0.5547
 6449SOL    HW230807   2.650   0.596   6.810  1.3862 -1.6284  3.0270
 6450SOL     OW30808   0.076   4.521  12.848 -0.2468 -0.2724  0.1492
 6450SOL    HW130809   0.126   4.542  12.926  0.5488  1.2675 -0.7738
 6450SOL    HW230810   0.061   4.609  12.815  0.2554  0.1333  1.0166
 6451SOL     OW30811   1.831   3.454   6.527  0.0216  0.1215 -0.1727
 6451SOL    HW130812   1.748   3.473   6.572  1.1256  0.1969  1.7983
 6451SOL    HW230813   1.857   3.544   6.506 -2.0688  0.8042  0.1542
 6452SOL     OW30814   0.336   2.892  13.676 -0.6604  0.3164 -0.2472
 6452SOL    HW130815   0.375   2.907  13.590  0.7723  0.3430  0.4186
 6452SOL    HW230816   0.329   2.986  13.694  3.2578  0.6516 -0.5187
 6453SOL     OW30817   3.158   0.421   3.386  0.1374 -0.0385 -0.0279
 6453SOL    HW130818   3.154   0.451   3.295 -2.4630  1.2576  0.5290
 6453SOL    HW230819   3.066   0.396   3.382 -0.0212  0.5108  0.1611
 6454SOL     OW30820   4.214   1.658   4.169  0.7005 -0.6716 -0.3905
 6454SOL    HW130821   4.214   1.607   4.250 -3.2081  1.2586  0.8318
 6454SOL    HW230822   4.290   1.715   4.174  1.0842 -1.2451  0.3798
 6455SOL     OW30823   0.400   0.096   8.707  0.0140 -0.3700 -0.5219
 6455SOL    HW130824   0.485   0.135   8.687  0.5996 -2.2718 -1.7340
 6455SOL    HW230825   0.433   0.036   8.774 -0.5750 -1.0047 -0.8011
 6456SOL     OW30826   4.224   1.130  16.893  0.0354 -0.6950  0.3334
 6456SOL    HW130827   4.267   1.176  16.821 -1.4956  1.3548  0.7291
 6456SOL    HW230828   4.254   1.041  16.877 -1.6394 -1.0141 -1.1213
 6457SOL     OW30829   1.094   4.351   0.114 -0.4923 -0.2751 -0.1993
 6457SOL    HW130830   1.049   4.295   0.051 -1.6809  5.1460 -4.2018
 6457SOL    HW230831   1.070   4.440   0.088 -2.1790 -0.4161  0.8645
 6458SOL     OW30832   1.379   0.491   5.085  0.3896  0.4197  0.1292
 6458SOL    HW130833   1.285   0.477   5.090  0.7105 -1.1929  1.5929
 6458SOL    HW230834   1.390   0.563   5.147  3.3696 -0.0962  0.2093
 6459SOL     OW30835   0.735   0.285   6.264 -0.2218  0.6807 -0.0693
 6459SOL    HW130836   0.702   0.345   6.198 -0.3693  0.1694 -0.4558
 6459SOL    HW230837   0.686   0.317   6.340 -0.3367 -2.1984  1.0525
 6460SOL     OW30838   3.649   1.633   2.232  0.0157  0.5504  0.1113
 6460SOL    HW130839   3.644   1.682   2.150  0.9589  0.6670  0.1215
 6460SOL    HW230840   3.591   1.560   2.211  0.1971  1.1147 -2.4227
 6461SOL     OW30841   0.404   4.310   1.779 -0.3879  0.0322 -0.0543
 6461SOL    HW130842   0.318   4.333   1.746 -0.1190  0.5320 -0.4092
 6461SOL    HW230843   0.419   4.221   1.747 -0.5769 -0.1476  0.3620
 6462SOL     OW30844   1.148   4.337  11.704 -0.2853  0.1247 -0.3109
 6462SOL    HW130845   1.214   4.381  11.652  0.1765 -0.7486 -0.4690
 6462SOL    HW230846   1.201   4.305  11.777 -1.1741 -2.2750 -0.7082
 6463SOL     OW30847   0.512   2.195   8.766  0.3263  0.3206 -0.3547
 6463SOL    HW130848   0.590   2.142   8.781 -1.1478 -1.4174  1.1924
 6463SOL    HW230849   0.505   2.191   8.670  1.1652  2.8486 -0.5267
 6464SOL     OW30850   3.968   2.846   6.710 -0.1263 -0.0440 -0.8390
 6464SOL    HW130851   3.926   2.932   6.712  1.5723  0.7033  2.1364
 6464SOL    HW230852   4.002   2.839   6.799 -1.2052  0.2209 -0.4067
 6465SOL     OW30853   2.913   2.570   4.563 -0.3301  0.0290  0.0706
 6465SOL    HW130854   2.981   2.516   4.603  1.6691  1.6344 -1.1183
 6465SOL    HW230855   2.835   2.515   4.570 -1.3494  1.3767 -0.5849
 6466SOL     OW30856   1.246   1.316   6.426  0.5083 -0.1828  0.3253
 6466SOL    HW130857   1.212   1.403   6.451  1.7775  0.2309  0.6008
 6466SOL    HW230858   1.338   1.338   6.419  0.0727  1.2331 -0.9541
 6467SOL     OW30859   1.816   1.103   3.270 -0.1063  0.3624 -0.1534
 6467SOL    HW130860   1.905   1.119   3.301 -0.3201 -0.2558  0.7675
 6467SOL    HW230861   1.780   1.038   3.329  1.6429 -1.4020 -1.0408
 6468SOL     OW30862   3.017   4.379  12.778 -0.7246 -0.2898  0.0292
 6468SOL    HW130863   3.063   4.325  12.842  0.3485  1.0334  0.3649
 6468SOL    HW230864   3.087   4.373  12.713  0.1723 -0.1419  0.9820
 6469SOL     OW30865   1.394   2.728   6.335  0.3344 -0.2103  0.2284
 6469SOL    HW130866   1.386   2.817   6.369 -2.6139 -0.1145 -0.6572
 6469SOL    HW230867   1.466   2.688   6.383  0.3362 -0.5154 -0.0311
 6470SOL     OW30868   0.308   4.643   4.143  0.4926  0.1723 -0.4161
 6470SOL    HW130869   0.265   4.669   4.061 -1.1244 -0.5007  0.2079
 6470SOL    HW230870   0.313   0.002   4.186  3.4042  0.4279 -1.2836
 6471SOL     OW30871   2.176   2.421   2.120  0.6221 -0.2692 -0.2363
 6471SOL    HW130872   2.234   2.490   2.089  1.5005 -1.4091 -1.1813
 6471SOL    HW230873   2.167   2.364   2.043 -0.3833 -0.2047 -0.1682
 6472SOL     OW30874   3.506   2.130   5.806 -0.1663 -0.0672 -0.3189
 6472SOL    HW130875   3.416   2.131   5.776  0.2935 -2.0369 -1.7297
 6472SOL    HW230876   3.513   2.036   5.825  0.7393 -0.3291 -1.9532
 6473SOL     OW30877   3.226   1.538   9.340 -0.4069  0.0155  0.3908
 6473SOL    HW130878   3.187   1.454   9.361  0.2698 -0.9241 -2.1015
 6473SOL    HW230879   3.302   1.536   9.399  1.0842  0.0516 -1.5463
 6474SOL     OW30880   2.226   0.354   6.535 -0.3465  0.2093  0.9066
 6474SOL    HW130881   2.304   0.396   6.499  0.1533 -1.8555 -0.4061
 6474SOL    HW230882   2.263   0.333   6.620  0.2940 -2.1200  0.0543
 6475SOL     OW30883   4.287   1.611  11.612  0.2602  0.0648 -0.2341
 6475SOL    HW130884   4.298   1.520  11.639 -1.7238  0.2428  1.1038
 6475SOL    HW230885   4.371   1.631  11.569  0.1161  1.0571 -0.0469
 6476SOL     OW30886   0.371   1.290   0.572  0.2126  0.3188 -0.0083
 6476SOL    HW130887   0.283   1.282   0.609  1.6100  2.0593  3.6630
 6476SOL    HW230888   0.407   1.206   0.601  1.2492  0.3501 -1.1819
 6477SOL     OW30889   3.556   0.288   7.589 -0.1945 -0.4124  0.3032
 6477SOL    HW130890   3.490   0.220   7.580  0.1485 -0.5822 -0.8727
 6477SOL    HW230891   3.633   0.234   7.569 -0.1196  0.1951 -1.0638
 6478SOL     OW30892   1.374   0.774   3.425  0.1534  0.1158 -0.1247
 6478SOL    HW130893   1.320   0.847   3.396  0.0779  0.2385  0.3327
 6478SOL    HW230894   1.384   0.788   3.519  0.5922  1.1952 -0.3317
 6479SOL     OW30895   4.304   3.816  14.512 -0.1616  0.0033 -0.3039
 6479SOL    HW130896   4.323   3.753  14.443  1.4598 -2.1988  2.1467
 6479SOL    HW230897   4.209   3.818  14.507 -0.0226  1.6510 -2.1487
 6480SOL     OW30898   1.602   0.671  10.536 -0.3485 -0.7072  0.0608
 6480SOL    HW130899   1.645   0.595  10.574  0.7814 -0.6232 -1.0709
 6480SOL    HW230900   1.528   0.674  10.597  2.4210 -0.2581  3.3841
 6481SOL     OW30901   0.665   0.997   0.522 -0.7531 -0.6568  0.2274
 6481SOL    HW130902   0.589   0.980   0.578 -0.8940  0.8042  0.4938
 6481SOL    HW230903   0.666   0.914   0.475 -4.4054 -0.9107  0.5754
 6482SOL     OW30904   0.197   1.599   0.229 -0.2473  0.0875  0.2387
 6482SOL    HW130905   0.261   1.537   0.264 -0.0131  0.0594 -0.2415
 6482SOL    HW230906   0.222   1.680   0.274 -2.0646  1.5174 -1.3230
 6483SOL     OW30907   4.041   1.213   7.477 -0.1425  0.0823  0.0687
 6483SOL    HW130908   4.125   1.237   7.516 -0.6589 -0.6469  1.6021
 6483SOL    HW230909   4.075   1.213   7.387  0.6215 -1.8901  0.3546
 6484SOL     OW30910   3.523   2.620   6.032  0.4020 -0.4376  0.0679
 6484SOL    HW130911   3.617   2.629   6.047  0.3732  1.2463 -0.7096
 6484SOL    HW230912   3.507   2.712   6.010 -0.3878 -0.3670  0.9416
 6485SOL     OW30913   0.706   3.548   4.526  0.5448  0.1907 -0.2305
 6485SOL    HW130914   0.795   3.579   4.538  1.1304 -1.9240  0.8837
 6485SOL    HW230915   0.689   3.597   4.446 -0.8796  0.9015  0.5041
 6486SOL     OW30916   2.159   4.229   4.262 -0.5656  0.2197  0.0314
 6486SOL    HW130917   2.249   4.255   4.244 -0.7997 -0.3983 -2.0171
 6486SOL    HW230918   2.128   4.221   4.172  1.5107  0.0173 -0.6629
 6487SOL     OW30919   2.075   2.077  14.557 -0.4015  0.3954  0.4656
 6487SOL    HW130920   2.125   1.996  14.551 -0.2568  0.4009  1.5795
 6487SOL    HW230921   2.090   2.100  14.648  1.4073 -0.2454  0.3282
 6488SOL     OW30922   0.923   1.648  12.095  0.0506 -0.6414 -0.0572
 6488SOL    HW130923   1.003   1.639  12.042 -0.8213 -2.0198 -1.1375
 6488SOL    HW230924   0.896   1.556  12.097  0.1303 -0.7417 -2.8650
 6489SOL     OW30925   1.857   0.773   8.782  0.0116  0.6416  0.0860
 6489SOL    HW130926   1.788   0.759   8.846 -0.2762 -1.5684 -0.7240
 6489SOL    HW230927   1.808   0.776   8.700 -1.4780  1.8607  1.0158
 6490SOL     OW30928   2.055   1.524   9.092  0.0268  0.1523  0.2623
 6490SOL    HW130929   2.006   1.589   9.142  0.4113 -1.7409  3.0641
 6490SOL    HW230930   2.031   1.532   8.999  1.8331  0.8945 -0.1404
 6491SOL     OW30931   4.659   0.348   6.678 -0.2196 -0.3623  0.3036
 6491SOL    HW130932   0.027   0.350   6.700  0.1106 -0.3979 -1.0805
 6491SOL    HW230933   4.644   0.254   6.687  0.7441 -0.8376 -2.8590
 6492SOL     OW30934   0.096   1.827  17.518  0.7905 -0.0724 -1.0559
 6492SOL    HW130935   0.091   1.768  17.593 -2.5623  0.6769 -0.6855
 6492SOL    HW230936   0.181   1.809  17.477  1.8648  2.8455 -0.1727
 6493SOL     OW30937   0.074   1.162   7.017 -0.3467  0.0809  0.0664
 6493SOL    HW130938   0.122   1.174   7.099 -0.7208 -1.1673  0.4660
 6493SOL    HW230939   4.711   1.131   7.033  0.2990 -1.3215  0.9716
 6494SOL     OW30940   4.504   3.925   8.724 -0.2843  0.2008 -0.2864
 6494SOL    HW130941   4.594   3.954   8.736 -0.2995  0.3305 -0.4908
 6494SOL    HW230942   4.471   3.958   8.808  0.7718  3.7383 -1.2541
 6495SOL     OW30943   0.535   0.988   7.489  0.1020  0.3056  0.3319
 6495SOL    HW130944   0.560   1.037   7.412  1.1376  1.6452  1.5300
 6495SOL    HW230945   0.473   1.045   7.535 -0.3996 -0.5415  0.7057
 6496SOL     OW30946   0.878   3.179   5.165  0.2408  0.0114 -0.0916
 6496SOL    HW130947   0.927   3.118   5.110  0.1678  1.4810 -1.7861
 6496SOL    HW230948   0.942   3.197   5.233  1.2470 -0.3347 -0.9448
 6497SOL     OW30949   3.815   0.347  16.292 -0.0457  0.0617  0.6757
 6497SOL    HW130950   3.783   0.258  16.277 -0.1566 -0.0058  1.3022
 6497SOL    HW230951   3.901   0.355  16.250 -0.9546  1.2983 -0.9192
 6498SOL     OW30952   1.943   0.218   2.635  0.1127 -0.1745 -0.6888
 6498SOL    HW130953   2.002   0.160   2.586 -0.5108 -0.7765 -0.7253
 6498SOL    HW230954   1.861   0.172   2.618 -1.7258  2.4763  1.0545
 6499SOL     OW30955   2.875   4.142  14.435 -0.1541 -0.2916  0.1262
 6499SOL    HW130956   2.851   4.070  14.493 -0.8993 -0.1371  0.0110
 6499SOL    HW230957   2.798   4.199  14.431  0.4961  0.5153 -0.8646
 6500SOL     OW30958   0.520   1.090   1.419 -0.2257  0.6087 -0.3235
 6500SOL    HW130959   0.565   1.025   1.472 -1.4022  0.2070  0.1878
 6500SOL    HW230960   0.572   1.104   1.340  2.2238  2.4411  1.6492
 6501SOL     OW30961   0.262   4.669   2.445  0.2902 -0.0627  0.4851
 6501SOL    HW130962   0.307   0.027   2.435  2.2331 -1.1341  0.2986
 6501SOL    HW230963   0.281   4.649   2.536 -0.4483 -0.0629  0.6384
 6502SOL     OW30964   0.657   2.211   2.819 -0.2405 -0.0822 -0.1501
 6502SOL    HW130965   0.619   2.146   2.759  2.0922 -3.1127  1.6704
 6502SOL    HW230966   0.679   2.286   2.764 -1.6089  1.3329  1.2518
 6503SOL     OW30967   0.414   1.225  11.841  0.1475  0.5490 -0.1454
 6503SOL    HW130968   0.389   1.314  11.814  2.5174  1.2405 -0.1043
 6503SOL    HW230969   0.343   1.166  11.816  0.7185 -0.1270 -0.1783
 6504SOL     OW30970   1.923   4.644  13.873  0.3936  0.4311  0.0417
 6504SOL    HW130971   1.875   4.562  13.858  0.5582  0.1622  0.9860
 6504SOL    HW230972   2.004   4.626  13.825  0.4288  1.6080 -0.3433
 6505SOL     OW30973   1.040   3.098   2.826 -0.4124  0.4295  0.2305
 6505SOL    HW130974   0.993   3.073   2.906  0.5591 -1.2016  0.2996
 6505SOL    HW230975   0.980   3.163   2.790  1.6068  0.7381 -2.5359
 6506SOL     OW30976   1.280   3.840   2.910  0.3934  0.4289 -0.5344
 6506SOL    HW130977   1.309   3.926   2.940  1.4212 -0.5443  1.2964
 6506SOL    HW230978   1.214   3.868   2.847 -1.3401  0.8233  1.4402
 6507SOL     OW30979   4.686   1.865   0.528 -0.0935  0.2442  0.3043
 6507SOL    HW130980   4.622   1.902   0.467 -0.5039  0.2756  0.7536
 6507SOL    HW230981   4.715   1.943   0.576  2.6843  0.2050 -1.3486
 6508SOL     OW30982   2.638   1.013   1.848 -0.2375  0.3736 -0.7344
 6508SOL    HW130983   2.616   0.948   1.780  1.8897 -0.0052 -1.0479
 6508SOL    HW230984   2.607   0.955   1.918  0.2693  3.1280  1.7330
 6509SOL     OW30985   0.967   1.117   4.705  0.1905 -0.5663  0.1656
 6509SOL    HW130986   1.010   1.075   4.630  1.0375  0.9984 -0.2162
 6509SOL    HW230987   0.965   1.207   4.674 -0.4261 -0.9197 -0.8186
 6510SOL     OW30988   3.846   2.238   7.878  0.7212 -0.5733 -0.2866
 6510SOL    HW130989   3.760   2.230   7.837  0.3307 -0.3711  0.4853
 6510SOL    HW230990   3.849   2.156   7.927 -0.3071 -0.1514  0.5066
 6511SOL     OW30991   2.859   3.149   8.042  0.1131  0.3289 -0.2632
 6511SOL    HW130992   2.772   3.171   8.075 -0.2722  0.6204 -1.4439
 6511SOL    HW230993   2.894   3.084   8.102 -0.5980  0.5479  0.3828
 6512SOL     OW30994   1.644   0.111   8.548 -0.3466 -0.1037 -0.0576
 6512SOL    HW130995   1.624   0.030   8.596 -2.0211  0.2281 -0.2257
 6512SOL    HW230996   1.560   0.133   8.510 -0.4001  0.8187  0.5959
 6513SOL     OW30997   2.717   2.789   0.345 -0.0290  0.0525  0.1798
 6513SOL    HW130998   2.769   2.859   0.305 -1.6568  0.7677 -0.6981
 6513SOL    HW230999   2.753   2.713   0.298  0.4467  0.6036 -0.3595
 6514SOL     OW31000   4.426   0.458   6.897 -0.3242 -0.0856  0.3676
 6514SOL    HW131001   4.469   0.399   6.836  1.3072 -1.0209  2.4156
 6514SOL    HW231002   4.355   0.488   6.840 -0.0210  3.3148  1.7460
 6515SOL     OW31003   0.840   2.143   1.853  0.1649 -0.4421  0.1152
 6515SOL    HW131004   0.924   2.183   1.831  0.1419  0.1441  1.0890
 6515SOL    HW231005   0.823   2.104   1.767 -1.1862  1.3425 -0.4280
 6516SOL     OW31006   0.693   3.662   8.872  0.2714 -0.5326  0.8089
 6516SOL    HW131007   0.772   3.632   8.917  1.1440  0.9365  0.2825
 6516SOL    HW231008   0.626   3.676   8.939 -0.1366  1.4247  0.0060
 6517SOL     OW31009   1.658   0.032   1.214  0.5261  0.4837  0.2433
 6517SOL    HW131010   1.675   0.005   1.124 -0.6938 -1.7387  0.6895
 6517SOL    HW231011   1.709   0.113   1.222  0.6002  0.4445  0.1577
 6518SOL     OW31012   2.845   4.181   4.718 -0.1501  0.2320 -0.3159
 6518SOL    HW131013   2.774   4.206   4.777  0.6179  0.6590  0.4145
 6518SOL    HW231014   2.903   4.142   4.783 -1.2231  1.3711  1.3062
 6519SOL     OW31015   2.252   0.739  15.447 -0.2925 -0.6675 -0.0990
 6519SOL    HW131016   2.164   0.709  15.426 -0.0468 -1.4347 -0.0227
 6519SOL    HW231017   2.240   0.833  15.434  0.7882 -0.3609  1.1276
 6520SOL     OW31018   1.069   1.751  10.495  0.0624 -0.5486  0.2120
 6520SOL    HW131019   1.118   1.802  10.560 -0.0636 -0.4279  0.2141
 6520SOL    HW231020   1.100   1.775  10.408  0.4528 -0.6964  0.3119
 6521SOL     OW31021   0.335   1.178  13.924 -0.0555  0.1378  0.0806
 6521SOL    HW131022   0.376   1.178  13.837 -0.0984 -0.0168  0.0607
 6521SOL    HW231023   0.323   1.083  13.924 -2.5038  0.4351  2.3592
 6522SOL     OW31024   2.718   0.037   7.933  0.1121 -0.1661 -0.1774
 6522SOL    HW131025   2.812   0.054   7.942 -0.0012  0.8722 -0.9571
 6522SOL    HW231026   2.684   0.025   8.021  0.5627 -0.6668 -0.0718
 6523SOL     OW31027   3.505   0.620   4.627  0.0309  0.0131  0.4864
 6523SOL    HW131028   3.532   0.706   4.596 -0.9864 -0.2090 -1.0234
 6523SOL    HW231029   3.578   0.561   4.610 -0.3046 -0.1242 -0.5045
 6524SOL     OW31030   1.112   2.429   1.220 -0.0776 -0.3971 -0.0950
 6524SOL    HW131031   1.131   2.340   1.250  0.3568 -0.4115 -0.4034
 6524SOL    HW231032   1.074   2.406   1.135 -0.6709  1.6827 -0.3970
 6525SOL     OW31033   0.681   2.169   6.374  0.0860  0.2974 -0.1894
 6525SOL    HW131034   0.747   2.203   6.435 -0.4724  0.1316  0.5034
 6525SOL    HW231035   0.679   2.076   6.397 -0.0514  0.1529 -0.8020
 6526SOL     OW31036   0.357   4.359   3.131 -0.3287  0.7177 -0.0340
 6526SOL    HW131037   0.438   4.313   3.107  0.6587  2.6553 -0.4774
 6526SOL    HW231038   0.385   4.417   3.202  2.9743 -0.2417 -0.5627
 6527SOL     OW31039   4.575   0.863   2.947 -0.1686 -0.4778 -0.4807
 6527SOL    HW131040   4.659   0.828   2.977 -0.0416 -0.4185 -0.7627
 6527SOL    HW231041   4.567   0.821   2.861 -0.0937 -0.2063 -0.6218
 6528SOL     OW31042   3.698   0.212   1.867 -0.6914 -0.0115  0.2143
 6528SOL    HW131043   3.730   0.139   1.813  1.4657  0.9987  0.1107
 6528SOL    HW231044   3.608   0.181   1.879 -0.2867 -1.1486  0.3629
 6529SOL     OW31045   1.580   0.943  10.130  0.2155  0.0528 -0.4727
 6529SOL    HW131046   1.603   0.937  10.037  2.0475  1.0344 -0.0965
 6529SOL    HW231047   1.665   0.949  10.175  0.5423 -1.2319 -0.9120
 6530SOL     OW31048   0.078   2.910   8.555 -0.2313  0.4794 -0.2931
 6530SOL    HW131049   0.081   2.862   8.638  1.8841 -0.0567 -0.6902
 6530SOL    HW231050   0.161   2.872   8.525  0.2478  2.0909 -0.9722
 6531SOL     OW31051   3.188   3.994  13.293 -0.1753 -0.5026  0.1860
 6531SOL    HW131052   3.239   3.916  13.310  1.8609  0.8868  0.4332
 6531SOL    HW231053   3.207   4.047  13.370 -0.8204 -1.2737  0.8665
 6532SOL     OW31054   4.484   0.958   4.630 -0.3931  0.5892  0.3530
 6532SOL    HW131055   4.398   0.934   4.667  0.4619 -0.7231  1.5111
 6532SOL    HW231056   4.467   1.017   4.557 -1.0053 -0.1577 -0.1106
 6533SOL     OW31057   1.132   3.024  15.497  0.0164  0.6446  0.1102
 6533SOL    HW131058   1.044   3.028  15.460 -0.1437  0.6689  0.4952
 6533SOL    HW231059   1.177   2.963  15.438 -0.8398 -0.6751  0.8393
 6534SOL     OW31060   3.406   0.492   2.923  0.3546 -0.4546 -0.3143
 6534SOL    HW131061   3.372   0.582   2.930  2.8112  0.4921 -0.3995
 6534SOL    HW231062   3.496   0.514   2.900 -0.1453  0.5858 -1.2805
 6535SOL     OW31063   4.240   2.231   5.140 -0.1142 -0.1300  0.0727
 6535SOL    HW131064   4.308   2.212   5.075  0.5764 -1.1873  1.1114
 6535SOL    HW231065   4.265   2.170   5.210  0.1125  0.3676  0.4206
 6536SOL     OW31066   1.868   1.237   4.769  0.0374 -0.1354  0.1237
 6536SOL    HW131067   1.862   1.286   4.851  0.2455 -0.0815  0.1058
 6536SOL    HW231068   1.869   1.147   4.803 -0.7744 -0.8684 -1.7960
 6537SOL     OW31069   1.221   3.334   2.953 -0.4371 -0.3440  0.4033
 6537SOL    HW131070   1.149   3.287   2.911 -0.1927  0.3744 -0.8173
 6537SOL    HW231071   1.207   3.428   2.940 -0.1661 -0.4358 -0.5384
 6538SOL     OW31072   0.787   1.868   5.396  0.0871 -0.4161 -0.1583
 6538SOL    HW131073   0.721   1.876   5.327 -1.8230 -0.9289  1.6253
 6538SOL    HW231074   0.864   1.844   5.343 -0.6595 -0.8546 -1.0520
 6539SOL     OW31075   1.163   1.673   9.571  0.0668 -0.2081  0.0894
 6539SOL    HW131076   1.148   1.578   9.563  0.7267 -0.1876 -1.3087
 6539SOL    HW231077   1.144   1.700   9.481  2.7372 -1.0041 -0.7133
 6540SOL     OW31078   0.899   2.668   7.407 -0.1026 -0.1903 -0.0216
 6540SOL    HW131079   0.882   2.707   7.493  0.8331 -3.5032  1.6241
 6540SOL    HW231080   0.940   2.741   7.359  2.6164 -2.7646 -1.6046
 6541SOL     OW31081   3.930   0.506   3.440  0.8282 -0.3030  0.2148
 6541SOL    HW131082   3.860   0.512   3.376  0.4597 -0.6094  0.5850
 6541SOL    HW231083   3.961   0.416   3.430  1.8694 -0.2098  2.5233
 6542SOL     OW31084   3.769   3.942  13.866  0.0589 -0.1644  0.0457
 6542SOL    HW131085   3.751   3.981  13.952 -0.6969 -0.7285  0.1430
 6542SOL    HW231086   3.680   3.948  13.833  0.0615  0.2152  0.1133
 6543SOL     OW31087   0.834   1.526   4.484  0.6184  0.0061 -0.0024
 6543SOL    HW131088   0.749   1.569   4.498 -0.0014 -0.9339 -0.8363
 6543SOL    HW231089   0.895   1.600   4.486  0.4443  0.1694 -0.5477
 6544SOL     OW31090   3.932   1.772   3.493  0.5915  0.0806  0.2792
 6544SOL    HW131091   3.992   1.702   3.521  0.4511  0.1504  0.7388
 6544SOL    HW231092   3.863   1.769   3.559  2.3647 -0.4470  2.0979
 6545SOL     OW31093   1.117   1.707  17.296  0.0051 -0.0345  0.3299
 6545SOL    HW131094   1.062   1.633  17.270  2.7581 -1.2237 -2.1673
 6545SOL    HW231095   1.206   1.672  17.285  0.9076  2.0876  0.9205
 6546SOL     OW31096   3.866   3.867   5.716  0.1348  0.0066  0.0939
 6546SOL    HW131097   3.852   3.828   5.802  1.1694  0.9521  0.6813
 6546SOL    HW231098   3.920   3.805   5.666  1.6103  1.5808 -0.2701
 6547SOL     OW31099   2.710   0.591  10.416 -0.9655 -0.2127 -0.3607
 6547SOL    HW131100   2.666   0.659  10.366  2.8846  1.3695 -1.6169
 6547SOL    HW231101   2.743   0.640  10.492 -1.7611 -0.1356 -0.0724
 6548SOL     OW31102   0.907   3.199   3.564 -0.4744  0.0784 -0.2978
 6548SOL    HW131103   0.840   3.151   3.515 -2.2736  2.3755 -0.0260
 6548SOL    HW231104   0.929   3.133   3.630 -0.5360  1.2236  0.8635
 6549SOL     OW31105   0.967   2.929  11.394  0.4333 -0.2984 -0.1953
 6549SOL    HW131106   1.024   3.002  11.370  0.2335  0.3101  1.1852
 6549SOL    HW231107   0.945   2.887  11.311  1.7200 -2.0037  0.3498
 6550SOL     OW31108   1.484   3.596   7.483 -0.0967  0.2401  0.0875
 6550SOL    HW131109   1.540   3.626   7.412  1.2655  0.5359  1.2861
 6550SOL    HW231110   1.473   3.504   7.459  0.1646  0.5601 -1.2186
 6551SOL     OW31111   0.485   0.359  16.948 -0.0329 -0.2624 -0.1019
 6551SOL    HW131112   0.398   0.328  16.973 -0.5122 -0.0847 -1.5368
 6551SOL    HW231113   0.474   0.372  16.854  2.7985  0.7667 -0.2872
 6552SOL     OW31114   0.289   4.072   4.257  0.0485  0.3554 -0.3829
 6552SOL    HW131115   0.345   4.145   4.232  0.8901 -0.8250 -1.9005
 6552SOL    HW231116   0.358   4.012   4.283  0.6716  1.1748 -0.1592
 6553SOL     OW31117   1.208   1.699   1.028 -0.1587  0.0756 -0.0323
 6553SOL    HW131118   1.271   1.630   1.051 -1.3355 -0.6775  0.8854
 6553SOL    HW231119   1.268   1.773   1.019 -1.1048  0.7371 -0.8223
 6554SOL     OW31120   1.615   3.608  15.074  0.1826  0.0764 -0.0873
 6554SOL    HW131121   1.586   3.655  14.996 -0.8649 -2.1923 -1.0599
 6554SOL    HW231122   1.700   3.576  15.043 -0.2316 -0.6637 -0.4370
 6555SOL     OW31123   1.940   4.024   2.642 -0.3123  0.2202  0.0728
 6555SOL    HW131124   2.022   4.064   2.671 -0.9019  0.4483  1.4479
 6555SOL    HW231125   1.881   4.062   2.707  2.6775  1.7004  1.9269
 6556SOL     OW31126   1.107   1.641   9.022 -0.1999 -0.4209  0.1013
 6556SOL    HW131127   1.090   1.690   8.941  0.2246  0.9850  0.8608
 6556SOL    HW231128   1.064   1.558   9.002  0.7712 -0.4603 -1.8200
 6557SOL     OW31129   2.822   1.232   3.718 -1.0611 -0.0793  0.1498
 6557SOL    HW131130   2.806   1.321   3.686 -0.7762 -0.2545 -0.4784
 6557SOL    HW231131   2.853   1.253   3.806 -1.4814  0.7844  0.0955
 6558SOL     OW31132   3.308   2.141  13.398 -0.5010  0.4318  0.0868
 6558SOL    HW131133   3.323   2.162  13.490  0.0396  0.0629  0.0772
 6558SOL    HW231134   3.389   2.170  13.357 -1.7208  2.4243 -0.9196
 6559SOL     OW31135   2.817   1.508   3.188 -0.4211 -0.6077 -0.4548
 6559SOL    HW131136   2.833   1.420   3.155  0.3579 -0.2956 -0.9278
 6559SOL    HW231137   2.723   1.507   3.207  0.0890 -1.9478  1.9876
 6560SOL     OW31138   4.105   0.780   5.604 -0.4813  0.2163  0.1414
 6560SOL    HW131139   4.049   0.703   5.609 -2.6886  1.9163  1.5690
 6560SOL    HW231140   4.139   0.770   5.515  2.6639 -1.9609  1.5848
 6561SOL     OW31141   4.082   3.065   6.300  0.1145 -0.0882 -0.5325
 6561SOL    HW131142   4.165   3.090   6.260  0.6228 -1.4775 -0.3416
 6561SOL    HW231143   4.077   3.126   6.374 -0.6818  0.7555 -1.2661
 6562SOL     OW31144   0.535   1.360   5.961  0.4030 -0.1504 -0.7516
 6562SOL    HW131145   0.509   1.379   6.051 -0.2703  1.5238 -1.2914
 6562SOL    HW231146   0.492   1.431   5.912  1.2378  1.4127  0.7986
 6563SOL     OW31147   0.245   3.767  13.744 -0.2882 -0.0943  0.1671
 6563SOL    HW131148   0.264   3.684  13.788  1.9601  0.8950  1.0733
 6563SOL    HW231149   0.257   3.823  13.821 -0.4324  0.6331 -0.3364
 6564SOL     OW31150   1.002   2.404   6.268 -0.3715  0.5404  0.0673
 6564SOL    HW131151   1.000   2.311   6.244  1.0530  0.7471 -0.8330
 6564SOL    HW231152   1.092   2.418   6.295 -0.4261  0.5697  0.2344
 6565SOL     OW31153   2.369   1.906  15.957  0.2590 -0.0480  0.4257
 6565SOL    HW131154   2.443   1.901  15.897 -1.9552  1.2320 -2.3709
 6565SOL    HW231155   2.403   1.965  16.024 -2.4963  0.9620  0.9576
 6566SOL     OW31156   3.311   0.754   5.449  0.8002  0.1872  0.2335
 6566SOL    HW131157   3.397   0.735   5.487  0.2221 -2.0426  0.4013
 6566SOL    HW231158   3.325   0.719   5.361 -1.6532  1.6274 -0.7239
 6567SOL     OW31159   0.224   0.292   8.763 -0.5998 -0.0704  0.1430
 6567SOL    HW131160   0.260   0.351   8.697  0.4021 -3.8898 -2.7152
 6567SOL    HW231161   0.280   0.217   8.744 -0.2795  0.3349 -0.5054
 6568SOL     OW31162   2.699   1.132   6.747 -0.9984 -0.0852  0.0828
 6568SOL    HW131163   2.610   1.111   6.720 -0.4068 -2.2009 -0.1765
 6568SOL    HW231164   2.749   1.059   6.712  0.4490  1.3302 -0.8182
 6569SOL     OW31165   2.064   3.836   6.286  0.5243  0.1853  0.8782
 6569SOL    HW131166   2.068   3.799   6.198 -0.2555  0.4066  0.7505
 6569SOL    HW231167   2.065   3.758   6.342  1.4653 -0.1255  0.4272
 6570SOL     OW31168   0.122   1.441   2.872  0.1811  0.4446  0.3172
 6570SOL    HW131169   0.174   1.495   2.812 -1.2718 -2.5195 -3.5467
 6570SOL    HW231170   0.078   1.397   2.799 -1.9641  0.1685  1.7753
 6571SOL     OW31171   1.831   3.096   6.044 -0.0886  0.7605 -0.0638
 6571SOL    HW131172   1.806   3.142   5.964  0.5017 -0.1258 -0.7543
 6571SOL    HW231173   1.817   3.166   6.108 -1.9454 -0.0891  0.4747
 6572SOL     OW31174   3.545   2.259  13.324  0.3129 -0.2304  0.3588
 6572SOL    HW131175   3.540   2.289  13.233 -0.6114  0.6413  0.7033
 6572SOL    HW231176   3.590   2.174  13.325 -0.5884 -0.6745  1.9979
 6573SOL     OW31177   1.460   3.892  16.101  0.5857 -0.2091 -0.1126
 6573SOL    HW131178   1.484   3.873  16.192  1.9841  0.0735 -0.4102
 6573SOL    HW231179   1.456   3.988  16.103 -1.0632 -0.2666 -1.0201
 6574SOL     OW31180   1.812   1.096   8.847  0.1369 -0.5160 -0.4099
 6574SOL    HW131181   1.734   1.052   8.812  0.6651 -2.4387  0.8101
 6574SOL    HW231182   1.869   1.083   8.771 -1.3471  0.4209 -1.6735
 6575SOL     OW31183   1.418   1.225   9.697 -0.1109 -0.2037  0.0373
 6575SOL    HW131184   1.452   1.311   9.675 -0.3720  0.3040  1.6346
 6575SOL    HW231185   1.455   1.158   9.639 -2.4685  0.3368 -2.1272
 6576SOL     OW31186   1.055   0.666   1.296 -0.4289 -0.0258  0.7810
 6576SOL    HW131187   0.967   0.701   1.312 -1.5070 -2.1420 -0.5006
 6576SOL    HW231188   1.106   0.735   1.338  0.5966 -0.1694 -0.2225
 6577SOL     OW31189   1.851   1.457  13.326  0.2917 -0.4285 -0.0880
 6577SOL    HW131190   1.783   1.393  13.348  0.3488  0.0324  1.4351
 6577SOL    HW231191   1.855   1.530  13.387 -0.3215 -0.8872  0.4916
 6578SOL     OW31192   0.644   2.088   3.909 -0.0459 -0.0725  0.2445
 6578SOL    HW131193   0.690   2.022   3.961 -2.1411 -0.9732  0.9534
 6578SOL    HW231194   0.671   2.052   3.824 -2.4575  0.7082 -0.8438
 6579SOL     OW31195   3.400   2.376   7.437 -0.0825  0.5234 -0.1071
 6579SOL    HW131196   3.439   2.345   7.519 -0.4299  2.4903  0.8008
 6579SOL    HW231197   3.451   2.452   7.410  0.8727 -0.6874 -1.7564
 6580SOL     OW31198   1.308   2.089   0.820  0.0247  0.2464  0.5137
 6580SOL    HW131199   1.233   2.068   0.764  0.0748 -1.8507  1.2441
 6580SOL    HW231200   1.384   2.058   0.770 -0.5485  0.7451 -0.6616
 6581SOL     OW31201   2.701   1.064   8.720 -0.4214  0.3985  0.4420
 6581SOL    HW131202   2.780   1.062   8.666 -0.4570 -1.0250  0.4430
 6581SOL    HW231203   2.625   1.090   8.667 -1.0076 -1.5322  0.3285
 6582SOL     OW31204   2.853   1.424   7.948 -0.1587  0.0527  0.6552
 6582SOL    HW131205   2.914   1.431   7.875  0.6862  3.4473  1.6911
 6582SOL    HW231206   2.915   1.377   8.004  0.2594 -2.6527 -2.0753
 6583SOL     OW31207   3.340   4.278   2.535 -0.3564  0.4479  0.0029
 6583SOL    HW131208   3.368   4.187   2.526  3.4110  1.3934  1.8082
 6583SOL    HW231209   3.306   4.276   2.625  0.3769  0.4050  0.2805
 6584SOL     OW31210   0.759   0.332   4.924  0.2013 -0.3115 -1.1058
 6584SOL    HW131211   0.776   0.423   4.948 -2.0376 -0.3257  0.5218
 6584SOL    HW231212   0.665   0.342   4.940  0.4594 -0.2093  0.3864
 6585SOL     OW31213   2.551   3.150   0.771  0.4889 -0.4428 -0.2980
 6585SOL    HW131214   2.597   3.155   0.855 -2.1255 -0.3968  1.1199
 6585SOL    HW231215   2.615   3.111   0.711  1.1925  0.1948  0.0359
 6586SOL     OW31216   1.523   3.727   3.176  0.4429 -0.2521  0.3536
 6586SOL    HW131217   1.545   3.661   3.242 -1.0754 -0.4829  0.6459
 6586SOL    HW231218   1.519   3.664   3.104  2.5810  0.2856 -0.2314
 6587SOL     OW31219   4.116   4.470   1.214 -0.9049 -0.2213 -0.4767
 6587SOL    HW131220   4.131   4.376   1.216 -1.8617 -0.4136 -2.9688
 6587SOL    HW231221   4.201   4.499   1.182 -0.4861 -0.6497  0.2567
 6588SOL     OW31222   2.582   4.198  13.402  0.6511  0.0795  0.4323
 6588SOL    HW131223   2.620   4.133  13.343 -0.3251 -0.8995  0.8831
 6588SOL    HW231224   2.520   4.147  13.454 -1.3438  1.8166 -0.2224
 6589SOL     OW31225   3.042   0.023   6.026  0.0424  0.1386 -0.2689
 6589SOL    HW131226   3.125   4.703   6.014  0.1658  0.3883 -0.3739
 6589SOL    HW231227   3.031   0.046   5.934 -1.6295  3.7154  0.8069
 6590SOL     OW31228   1.556   0.989   2.166 -0.1714  0.9050  0.4333
 6590SOL    HW131229   1.593   1.077   2.174  0.2879  0.7428  0.1199
 6590SOL    HW231230   1.612   0.940   2.226  0.4668  0.3556 -0.6089
 6591SOL     OW31231   3.389   1.894   9.335 -0.4311  0.2454 -0.1939
 6591SOL    HW131232   3.412   1.844   9.413  0.4098 -0.1958 -0.7247
 6591SOL    HW231233   3.451   1.860   9.271 -2.1612 -1.2752 -1.0849
 6592SOL     OW31234   1.596   0.257   0.045  0.2348 -0.0007  0.1518
 6592SOL    HW131235   1.501   0.248   0.053  0.0345  0.8927 -1.1468
 6592SOL    HW231236   1.608   0.351   0.060  2.0496  0.2112 -2.6366
 6593SOL     OW31237   1.143   4.564   7.232 -0.5288  1.2680 -0.0671
 6593SOL    HW131238   1.136   4.523   7.146 -2.4273 -1.5839  1.4214
 6593SOL    HW231239   1.080   4.521   7.291  0.7206 -1.2282 -0.5472
 6594SOL     OW31240   2.782   1.264  17.523 -0.2866  0.0352  0.3532
 6594SOL    HW131241   2.775   1.266  17.427 -0.0227 -1.3920  0.3145
 6594SOL    HW231242   2.847   1.334  17.535  0.2553 -0.8986  2.8714
 6595SOL     OW31243   4.304   2.593   7.167  0.1827 -0.1197  0.4038
 6595SOL    HW131244   4.218   2.577   7.207 -0.2791  1.0121 -0.1385
 6595SOL    HW231245   4.291   2.640   7.085  3.0453 -1.6124 -0.8791
 6596SOL     OW31246   4.720   4.475   2.103 -0.2276 -0.1380 -0.6803
 6596SOL    HW131247   4.645   4.534   2.117 -0.0014 -0.2628  1.0249
 6596SOL    HW231248   4.715   4.418   2.179  0.2329  0.9963  0.2092
 6597SOL     OW31249   3.204   2.860   4.349  0.8858 -0.2830  0.7488
 6597SOL    HW131250   3.286   2.868   4.300 -0.3333  1.1608 -1.0333
 6597SOL    HW231251   3.245   2.859   4.436 -0.1900 -0.5908  1.2475
 6598SOL     OW31252   3.359   4.332   6.460  0.0270  0.1036 -0.1096
 6598SOL    HW131253   3.420   4.368   6.524 -1.2744 -1.4708  2.0229
 6598SOL    HW231254   3.299   4.277   6.511 -0.2504  0.1801 -0.3547
 6599SOL     OW31255   4.484   0.322   1.795 -0.1268  0.4431  0.1970
 6599SOL    HW131256   4.571   0.293   1.767 -0.7120  0.5459 -1.6731
 6599SOL    HW231257   4.431   0.263   1.740  2.1231 -1.2698 -0.1431
 6600SOL     OW31258   0.608   1.805  16.630  0.0129  0.2749  0.1819
 6600SOL    HW131259   0.690   1.850  16.611 -1.4452  1.3741 -3.3599
 6600SOL    HW231260   0.550   1.832  16.559 -1.3284 -0.8647  0.8274
 6601SOL     OW31261   3.252   0.094   4.904 -0.2903 -0.1404  0.3961
 6601SOL    HW131262   3.343   0.074   4.927  0.0603  2.4111  1.2815
 6601SOL    HW231263   3.239   0.179   4.947 -2.0272 -1.3272  2.2556
 6602SOL     OW31264   1.998   3.712   5.490 -0.1219  0.2178 -0.3028
 6602SOL    HW131265   2.056   3.765   5.437  0.9664  1.7127  2.3867
 6602SOL    HW231266   1.992   3.768   5.568 -0.5340 -2.2489  1.4492
 6603SOL     OW31267   2.558   4.595   9.751  0.0689  0.1061 -0.0447
 6603SOL    HW131268   2.557   4.587   9.655 -0.5095 -0.3971  0.0094
 6603SOL    HW231269   2.516   4.513   9.776 -0.6803  0.6130  0.3548
 6604SOL     OW31270   0.083   1.345   4.873  0.1917  0.3642  0.9580
 6604SOL    HW131271   0.006   1.289   4.883 -0.3706  0.8237 -0.7809
 6604SOL    HW231272   0.048   1.423   4.915 -0.2611  0.2098  0.8650
 6605SOL     OW31273   0.703   0.181   4.508 -0.4788 -0.1474  0.2894
 6605SOL    HW131274   0.633   0.116   4.493 -1.1506  0.6527 -0.0143
 6605SOL    HW231275   0.715   0.179   4.603 -1.1871 -0.1310  0.3818
 6606SOL     OW31276   4.121   4.449   4.578 -0.1715  0.2442  0.1249
 6606SOL    HW131277   4.150   4.421   4.665 -1.8311  1.7809  1.1921
 6606SOL    HW231278   4.116   4.364   4.536 -3.4980 -0.2222  1.4198
 6607SOL     OW31279   2.911   3.561  13.168 -0.1246  0.7274 -0.2472
 6607SOL    HW131280   2.907   3.641  13.221 -0.6426 -1.5208  3.0824
 6607SOL    HW231281   2.947   3.602  13.089  0.1028 -0.3906 -0.7259
 6608SOL     OW31282   1.735   2.203   3.906  0.1119  0.3770  0.6799
 6608SOL    HW131283   1.756   2.112   3.887 -0.8773 -0.1722  2.1542
 6608SOL    HW231284   1.756   2.202   4.000 -1.6552  0.8515  1.0919
 6609SOL     OW31285   1.908   4.612   8.101 -0.3312 -0.2359 -0.3399
 6609SOL    HW131286   1.984   4.555   8.095 -0.7063 -0.4990 -2.9551
 6609SOL    HW231287   1.919   4.630   8.194  0.3501 -3.2280  0.1573
 6610SOL     OW31288   1.339   1.789   2.460 -0.2928  0.4481 -0.2995
 6610SOL    HW131289   1.244   1.802   2.469 -0.4429 -2.9429  3.2448
 6610SOL    HW231290   1.358   1.726   2.529  0.6653  1.9730  0.8084
 6611SOL     OW31291   3.827   4.388   9.446  0.0666  0.2729  0.2627
 6611SOL    HW131292   3.775   4.468   9.441  0.3138  0.4342  0.3018
 6611SOL    HW231293   3.888   4.391   9.519  1.0455 -0.7196 -0.5046
 6612SOL     OW31294   2.417   1.671   1.897  0.4055  0.0205  0.3769
 6612SOL    HW131295   2.391   1.634   1.981 -1.0089 -0.4680 -0.2867
 6612SOL    HW231296   2.436   1.755   1.939  0.4360  0.0664  0.2716
 6613SOL     OW31297   1.705   1.637   8.111 -0.4883  0.2041 -0.1150
 6613SOL    HW131298   1.727   1.643   8.018 -1.1192  1.5687 -0.1667
 6613SOL    HW231299   1.683   1.729   8.120 -1.0217  0.0361  0.3192
 6614SOL     OW31300   0.640   4.526  11.336  0.3249 -0.0812  0.9855
 6614SOL    HW131301   0.605   4.612  11.312 -0.6189  0.3626  3.9540
 6614SOL    HW231302   0.625   4.481  11.253  2.3477  0.1250  0.5039
 6615SOL     OW31303   3.597   0.180  14.234  0.1554  0.3149 -0.0585
 6615SOL    HW131304   3.612   0.107  14.174 -1.0490  0.5150 -0.6168
 6615SOL    HW231305   3.574   0.253  14.176  0.7326 -0.8325 -1.7357
 6616SOL     OW31306   0.026   1.681   0.031  0.0074 -0.0865 -0.5495
 6616SOL    HW131307   0.008   1.603  17.683 -2.0517  0.7121 -1.0323
 6616SOL    HW231308   0.085   1.650   0.099  0.0435 -0.2333 -0.6473
 6617SOL     OW31309   4.206   2.976   7.362  0.3284 -0.5002  0.1937
 6617SOL    HW131310   4.288   2.964   7.314  0.7012  2.9097 -0.0777
 6617SOL    HW231311   4.214   2.894   7.410  1.4386  0.0774  1.0106
 6618SOL     OW31312   0.579   2.850   9.117  0.1381  0.0053 -0.0578
 6618SOL    HW131313   0.631   2.779   9.156  1.5659  0.4410 -1.1840
 6618SOL    HW231314   0.606   2.932   9.157  0.7710  0.5365 -1.5843
 6619SOL     OW31315   0.467   1.798   7.655 -0.3632  0.3049  0.1892
 6619SOL    HW131316   0.555   1.762   7.670 -1.3111 -1.1044  2.4085
 6619SOL    HW231317   0.483   1.891   7.640  0.6251  0.1059  0.0031
 6620SOL     OW31318   2.405   3.110   4.707  0.1975 -0.3247  0.3376
 6620SOL    HW131319   2.471   3.091   4.640  0.5252 -1.8690  1.0963
 6620SOL    HW231320   2.330   3.075   4.659  1.3564 -1.1878 -0.8312
 6621SOL     OW31321   3.195   0.402  14.488  0.1768  0.1281 -0.0302
 6621SOL    HW131322   3.168   0.410  14.397 -0.3173  0.6807  0.1637
 6621SOL    HW231323   3.124   0.446  14.534  0.1634  1.0685 -0.9342
 6622SOL     OW31324   0.813   0.800  17.560  0.2615 -0.3763 -0.0839
 6622SOL    HW131325   0.787   0.753  17.481  0.9927  1.1120 -1.2271
 6622SOL    HW231326   0.909   0.794  17.553  0.0934 -2.9988 -0.1172
 6623SOL     OW31327   4.056   4.040   2.741  0.2913 -0.2713  0.2833
 6623SOL    HW131328   3.980   4.040   2.799  1.9094 -0.5897  2.4177
 6623SOL    HW231329   4.019   4.073   2.659 -0.4834 -0.5480  0.5213
 6624SOL     OW31330   4.565   1.118   5.409  0.0312 -0.4883  0.2710
 6624SOL    HW131331   4.642   1.160   5.449 -0.3109  1.0337 -0.6763
 6624SOL    HW231332   4.506   1.191   5.390  2.9328  1.4702 -1.2916
 6625SOL     OW31333   3.136   2.137  11.860  0.5034 -0.6271  0.2722
 6625SOL    HW131334   3.096   2.160  11.776  1.8331 -1.5545 -0.6242
 6625SOL    HW231335   3.107   2.048  11.881 -1.4284  0.2990  1.5141
 6626SOL     OW31336   2.349   4.053   5.919 -0.7610  0.2419  0.2646
 6626SOL    HW131337   2.276   4.026   5.975  0.7504 -0.1317  2.1026
 6626SOL    HW231338   2.410   4.092   5.982 -0.8174 -1.3012  1.2889
 6627SOL     OW31339   4.055   0.662  15.541  0.6050 -0.1668 -0.4308
 6627SOL    HW131340   4.024   0.573  15.521  0.5754  0.3702 -2.8075
 6627SOL    HW231341   4.120   0.649  15.610 -0.7353 -1.2986  0.6305
 6628SOL     OW31342   4.634   3.335   9.821  0.4628  0.9617  0.0100
 6628SOL    HW131343   4.688   3.403   9.861  0.2283  1.4395 -0.4870
 6628SOL    HW231344   4.623   3.375   9.735 -0.7978  2.7258  0.9857
 6629SOL     OW31345   2.515   2.923   3.939 -0.2643  0.1522  0.0864
 6629SOL    HW131346   2.569   2.999   3.919  1.9697 -1.1541  1.1113
 6629SOL    HW231347   2.452   2.938   3.868 -1.3916  1.9332  1.4782
 6630SOL     OW31348   1.994   4.657   5.047 -0.1576 -0.2315  0.8364
 6630SOL    HW131349   1.971   4.714   5.121 -0.7114 -0.3908  0.7860
 6630SOL    HW231350   2.029   4.712   4.978  2.1777  0.5123  2.6175
 6631SOL     OW31351   0.636   3.897   7.200 -0.0267 -0.0511  0.0217
 6631SOL    HW131352   0.725   3.922   7.224  0.1678  0.2769 -1.0254
 6631SOL    HW231353   0.650   3.871   7.109  0.1388  0.3249 -0.0620
 6632SOL     OW31354   1.755   2.242  11.862 -0.2089 -0.2177 -0.5329
 6632SOL    HW131355   1.805   2.194  11.928  2.2265  0.3180 -2.0037
 6632SOL    HW231356   1.818   2.304  11.824  1.8357 -3.1060 -1.8322
 6633SOL     OW31357   1.756   4.583   2.646  0.1074 -0.1188  0.1278
 6633SOL    HW131358   1.782   4.527   2.719  1.1196  0.4221  0.1733
 6633SOL    HW231359   1.660   4.577   2.651 -0.0739  4.0469  1.4337
 6634SOL     OW31360   1.256   1.051  12.793 -0.8835 -0.0601  0.0162
 6634SOL    HW131361   1.320   1.014  12.732 -0.6610  0.0097  0.2070
 6634SOL    HW231362   1.236   0.971  12.842 -0.9796 -0.5517 -0.8345
 6635SOL     OW31363   1.486   1.451   1.452  0.9385 -0.2780  0.5575
 6635SOL    HW131364   1.448   1.449   1.539  0.1746  0.7170  0.2438
 6635SOL    HW231365   1.564   1.502   1.472 -0.0627  2.5381 -2.6834
 6636SOL     OW31366   1.574   2.359  12.137 -0.5162 -0.3383 -0.2432
 6636SOL    HW131367   1.562   2.265  12.148  0.0887 -0.7021 -2.7464
 6636SOL    HW231368   1.669   2.372  12.131 -0.5942  0.5703  0.4749
 6637SOL     OW31369   2.183   1.894   6.489 -0.6237  0.4699  0.7626
 6637SOL    HW131370   2.278   1.893   6.475 -1.0164  2.9317 -2.0803
 6637SOL    HW231371   2.159   1.804   6.468  0.2776  0.6609 -1.1152
 6638SOL     OW31372   2.199   1.197  15.340 -0.0513 -0.1989 -0.2349
 6638SOL    HW131373   2.291   1.179  15.360 -0.0332  1.8494  1.5329
 6638SOL    HW231374   2.158   1.112  15.358 -1.1515  0.3715 -0.0039
 6639SOL     OW31375   3.353   3.147   1.357 -0.1545 -0.6361  0.2351
 6639SOL    HW131376   3.345   3.192   1.273  0.9358 -1.1988 -0.1663
 6639SOL    HW231377   3.444   3.119   1.365 -0.5897 -2.0490  0.0965
 6640SOL     OW31378   3.136   4.218  14.468  0.1194 -0.0016 -0.0129
 6640SOL    HW131379   3.052   4.173  14.480  0.1599  0.0022  0.2863
 6640SOL    HW231380   3.112   4.308  14.447 -2.5894 -1.0971 -1.7738
 6641SOL     OW31381   2.000   2.003   4.099  0.2523  0.5382 -0.2468
 6641SOL    HW131382   1.976   2.095   4.096  0.2575  0.5426 -0.1371
 6641SOL    HW231383   2.095   2.001   4.109  0.2229 -0.9513 -0.1437
 6642SOL     OW31384   2.005   1.744  13.908  0.4753  0.0691 -0.3494
 6642SOL    HW131385   2.001   1.811  13.976  1.2774 -1.6849  1.4250
 6642SOL    HW231386   1.917   1.757  13.874 -0.5116 -1.2792  1.6473
 6643SOL     OW31387   1.980   3.652   6.074  0.1715 -0.2428 -0.0991
 6643SOL    HW131388   1.933   3.600   6.009  1.4548 -1.7208  0.1642
 6643SOL    HW231389   1.907   3.689   6.123 -1.6677 -0.8548 -2.3634
 6644SOL     OW31390   1.113   1.626   2.920 -0.6123 -0.6920  0.4154
 6644SOL    HW131391   1.094   1.558   2.856 -1.2431 -0.3434  0.2287
 6644SOL    HW231392   1.029   1.673   2.923  0.1499  0.6896 -0.2140
 6645SOL     OW31393   1.159   0.006  14.107  0.2300 -0.9497  0.4113
 6645SOL    HW131394   1.163   0.102  14.103 -0.5636 -0.8560  1.9652
 6645SOL    HW231395   1.065   4.713  14.104 -0.1215  0.3693  3.2700
 6646SOL     OW31396   3.097   3.025   6.150 -0.7554  0.4340  0.0254
 6646SOL    HW131397   3.046   2.993   6.225 -1.3091  0.6578 -0.2571
 6646SOL    HW231398   3.183   3.038   6.192 -1.3066  0.8904  1.0255
 6647SOL     OW31399   1.355   4.417   4.495  0.0606  0.1092  0.1930
 6647SOL    HW131400   1.349   4.420   4.591 -1.2255  2.2761  0.0487
 6647SOL    HW231401   1.309   4.336   4.474  0.9308 -0.5153  0.7006
 6648SOL     OW31402   2.894   2.344  14.033 -0.1875 -0.0539  0.1271
 6648SOL    HW131403   2.855   2.276  14.088 -2.8783  0.8365 -0.6952
 6648SOL    HW231404   2.811   2.372  13.995 -0.4051 -2.3522 -1.1228
 6649SOL     OW31405   1.668   3.813  10.194 -0.0441 -0.1133 -0.2137
 6649SOL    HW131406   1.754   3.840  10.227 -0.3297 -0.4658  0.8337
 6649SOL    HW231407   1.619   3.827  10.275 -0.1498  2.0195 -0.6523
 6650SOL     OW31408   0.254   4.555   4.767  1.0575  0.3324 -0.0009
 6650SOL    HW131409   0.195   4.622   4.733 -0.9370  0.6542  4.0534
 6650SOL    HW231410   0.243   4.556   4.862 -1.5406 -0.6011 -0.2842
 6651SOL     OW31411   2.950   4.452   0.170  0.5158  0.1627 -0.1049
 6651SOL    HW131412   3.002   4.505   0.231  0.3573 -0.3405  0.4663
 6651SOL    HW231413   2.868   4.494   0.197 -0.8524 -2.6721  0.1211
 6652SOL     OW31414   2.852   1.480   1.342 -0.0650 -0.4443  0.1759
 6652SOL    HW131415   2.898   1.562   1.323 -1.6026 -0.2616 -2.7990
 6652SOL    HW231416   2.928   1.435   1.379  0.2597  1.0001  1.3008
 6653SOL     OW31417   1.396   1.716   4.953 -0.1784 -0.1912  0.2032
 6653SOL    HW131418   1.441   1.722   4.869  2.0416 -1.6742  1.2966
 6653SOL    HW231419   1.471   1.722   5.012 -0.7404 -0.1344  0.9115
 6654SOL     OW31420   3.364   1.219  11.553  0.5283 -0.4790 -0.5515
 6654SOL    HW131421   3.418   1.187  11.482  2.0726 -1.4521  1.0589
 6654SOL    HW231422   3.304   1.275  11.503  1.4416  1.1797  0.1836
 6655SOL     OW31423   1.962   2.394   7.272 -0.1867 -0.3332  0.3126
 6655SOL    HW131424   1.946   2.328   7.205  0.7125 -2.0242  1.7317
 6655SOL    HW231425   1.987   2.468   7.217  0.9782 -0.2501  0.9450
 6656SOL     OW31426   2.731   3.120   4.759 -0.0403  0.5988 -0.4558
 6656SOL    HW131427   2.687   3.037   4.741  2.4315 -0.5942 -0.9252
 6656SOL    HW231428   2.717   3.123   4.854  3.9426  4.7755  0.0005
 6657SOL     OW31429   1.348   3.187  12.856  0.4124  0.4416  0.3405
 6657SOL    HW131430   1.333   3.097  12.827  0.3540  0.9816 -1.2650
 6657SOL    HW231431   1.435   3.206  12.821  1.0246  0.2782  1.7459
 6658SOL     OW31432   3.028   2.353   2.986 -0.3122 -0.1920 -0.1244
 6658SOL    HW131433   3.040   2.416   3.057  1.1252  0.4432 -0.9346
 6658SOL    HW231434   3.038   2.266   3.024 -1.2061 -0.5164 -0.6264
 6659SOL     OW31435   3.775   3.846  15.917  0.6206  0.3251 -0.5006
 6659SOL    HW131436   3.796   3.893  15.836  0.9381  2.6399  0.9010
 6659SOL    HW231437   3.688   3.881  15.938  0.8998  0.9791 -0.4069
 6660SOL     OW31438   0.173   0.886   4.315  0.2509  0.2731 -0.2294
 6660SOL    HW131439   0.094   0.938   4.299 -1.0639 -1.6134  0.1290
 6660SOL    HW231440   0.138   0.797   4.307  1.0040  0.0701 -1.2618
 6661SOL     OW31441   1.007   3.604  11.922  0.0452 -0.4646  0.5188
 6661SOL    HW131442   1.017   3.699  11.918 -3.3435 -0.1678 -1.5121
 6661SOL    HW231443   1.097   3.574  11.932  0.7168  0.8271 -1.5971
 6662SOL     OW31444   3.615   3.630   2.504  0.1802  0.4682  0.4760
 6662SOL    HW131445   3.538   3.686   2.505 -0.6940 -0.7514  1.4647
 6662SOL    HW231446   3.658   3.628   2.418 -0.1840 -1.6712  0.3299
 6663SOL     OW31447   0.022   0.312   4.604  0.7656 -0.1130  0.0280
 6663SOL    HW131448   0.050   0.401   4.626 -1.1235  0.2539  0.9170
 6663SOL    HW231449   4.655   0.332   4.615  0.1126 -2.0310 -1.9376
 6664SOL     OW31450   0.451   4.571   4.593 -0.2949  0.2863 -0.1035
 6664SOL    HW131451   0.389   4.625   4.545 -0.2673 -0.2861 -0.7891
 6664SOL    HW231452   0.396   4.555   4.670  0.0107 -0.8133 -0.1048
 6665SOL     OW31453   2.045   2.746  10.883  0.3214 -0.1864 -0.6278
 6665SOL    HW131454   2.122   2.728  10.828  0.8351 -1.3748  0.4831
 6665SOL    HW231455   2.085   2.760  10.969  1.6779 -1.4964 -1.0465
 6666SOL     OW31456   3.591   3.946   4.271 -0.7248 -0.5577  0.5223
 6666SOL    HW131457   3.565   4.008   4.203  1.8945  0.3142  0.3380
 6666SOL    HW231458   3.512   3.892   4.267  0.5713 -2.3132 -0.8630
 6667SOL     OW31459   0.796   0.429   1.696  0.0646 -0.2125 -0.7262
 6667SOL    HW131460   0.715   0.380   1.688 -0.8717  1.4196 -1.3439
 6667SOL    HW231461   0.766   0.518   1.718  0.9341 -0.6239  2.1338
 6668SOL     OW31462   1.451   0.090   1.033  0.1619  0.4730 -0.1350
 6668SOL    HW131463   1.384   0.084   0.965 -3.0205  2.0630  2.8556
 6668SOL    HW231464   1.490   0.178   1.026 -0.3595  0.7729  0.7478
 6669SOL     OW31465   0.865   3.369   7.276  0.0780  0.3383  0.5032
 6669SOL    HW131466   0.888   3.277   7.261  1.4806  0.9061 -0.8884
 6669SOL    HW231467   0.927   3.387   7.346 -1.0055  0.5953  1.3882
 6670SOL     OW31468   0.203   4.436   2.924  0.1527  0.2505 -0.1333
 6670SOL    HW131469   0.201   4.529   2.948 -0.6588 -0.4192  2.4288
 6670SOL    HW231470   0.242   4.400   3.003  1.1719  0.3083 -0.6130
 6671SOL     OW31471   2.229   2.206  17.589 -0.1584  0.6549 -0.0729
 6671SOL    HW131472   2.223   2.112  17.572 -1.1432  0.1631  3.1093
 6671SOL    HW231473   2.175   2.240  17.518  0.2722  0.7516 -0.3597
 6672SOL     OW31474   4.133   1.743   4.554 -0.1107 -0.7339  0.3528
 6672SOL    HW131475   4.226   1.766   4.549 -0.7836  1.6449 -1.0237
 6672SOL    HW231476   4.089   1.820   4.517 -0.1218 -0.2567  1.3510
 6673SOL     OW31477   1.951   0.646   5.897 -0.0361 -0.1820 -0.3232
 6673SOL    HW131478   1.876   0.587   5.901 -1.4547  1.6080 -0.7286
 6673SOL    HW231479   1.920   0.705   5.966 -0.8480 -1.4716  0.4277
 6674SOL     OW31480   1.380   3.288   5.324 -0.1794  0.5557  0.0918
 6674SOL    HW131481   1.369   3.383   5.321  1.0337  0.6109 -2.0883
 6674SOL    HW231482   1.289   3.258   5.326  0.3521 -1.0789 -0.5684
 6675SOL     OW31483   2.963   3.245   4.797 -0.2879  0.2535 -0.4154
 6675SOL    HW131484   2.912   3.167   4.778 -0.5334  0.0391  1.0834
 6675SOL    HW231485   3.016   3.255   4.718  1.7878  1.8452  1.1580
 6676SOL     OW31486   3.544   3.200   4.969  0.7000 -0.5327 -0.4760
 6676SOL    HW131487   3.622   3.237   4.928  1.0050  0.5088  1.0497
 6676SOL    HW231488   3.470   3.239   4.922  0.0158 -2.4534 -0.9806
 6677SOL     OW31489   3.703   3.393   3.412  0.7453 -0.5386  0.3284
 6677SOL    HW131490   3.709   3.488   3.409 -0.3025 -0.5033 -0.8065
 6677SOL    HW231491   3.681   3.385   3.505  0.3664 -0.5372  0.2405
 6678SOL     OW31492   2.202   1.941  17.577  0.5209  0.1566 -0.5278
 6678SOL    HW131493   2.192   1.894  17.660 -1.9625  0.8990 -0.3870
 6678SOL    HW231494   2.177   1.870  17.518  0.1999 -0.7537  0.6923
 6679SOL     OW31495   1.828   0.348   2.317  0.3334  0.8367 -0.4862
 6679SOL    HW131496   1.859   0.428   2.358 -1.1970  2.3153 -2.1855
 6679SOL    HW231497   1.740   0.383   2.302 -0.1478 -0.9976 -2.0384
 6680SOL     OW31498   2.179   0.913   6.276  0.0862 -0.2022  0.2327
 6680SOL    HW131499   2.269   0.936   6.253 -0.1554 -0.3181 -0.8523
 6680SOL    HW231500   2.170   0.845   6.208  0.7027  0.5289 -0.5770
 6681SOL     OW31501   4.552   1.572   8.283 -0.0698 -0.4934  0.3597
 6681SOL    HW131502   4.464   1.545   8.257 -0.3796  0.4579  0.4061
 6681SOL    HW231503   4.606   1.507   8.237  1.8825  0.3480  1.4537
 6682SOL     OW31504   2.080   4.405   7.034 -0.0726  0.1749  0.5604
 6682SOL    HW131505   2.121   4.388   7.119 -0.3255 -2.0587  0.2523
 6682SOL    HW231506   2.151   4.432   6.977 -0.5773 -1.9316 -1.0666
 6683SOL     OW31507   4.053   0.135   8.509 -0.5047  0.1657 -0.3098
 6683SOL    HW131508   3.993   0.083   8.457 -1.3526  1.0335 -0.2022
 6683SOL    HW231509   4.096   0.068   8.562 -0.1871  1.7464  1.4466
 6684SOL     OW31510   2.809   2.377   2.010 -0.1676 -0.3943 -0.0097
 6684SOL    HW131511   2.814   2.376   1.915  1.0881 -3.3089  0.0864
 6684SOL    HW231512   2.887   2.336   2.049 -1.6894 -2.0023  1.3417
 6685SOL     OW31513   0.988   1.673  10.112 -0.4729  0.2367  0.2264
 6685SOL    HW131514   1.075   1.710  10.130  1.2344 -4.0788  0.9023
 6685SOL    HW231515   1.006   1.632  10.027 -0.0283 -0.0395  0.4525
 6686SOL     OW31516   3.181   1.995   2.881 -0.0538 -0.5605  0.1379
 6686SOL    HW131517   3.274   2.015   2.892 -0.3808  0.5106  0.9249
 6686SOL    HW231518   3.158   2.055   2.809 -1.9742 -2.2508 -0.6437
 6687SOL     OW31519   0.052   3.077   9.212 -0.4628  0.0420  0.0825
 6687SOL    HW131520   4.701   3.091   9.267  2.0694  0.9142  3.3704
 6687SOL    HW231521   0.116   3.067   9.282  0.6955 -2.1017 -1.2810
 6688SOL     OW31522   2.867   3.065   6.557  0.3601 -0.0163  0.1940
 6688SOL    HW131523   2.893   3.008   6.485  0.7892  2.4122 -1.5563
 6688SOL    HW231524   2.819   3.002   6.612  1.3342  0.3543  1.4796
 6689SOL     OW31525   1.554   3.682   6.469  0.1963  0.1456 -0.2645
 6689SOL    HW131526   1.553   3.591   6.439  0.0035  0.6012 -1.6481
 6689SOL    HW231527   1.614   3.680   6.543  0.5058  1.0360 -0.4877
 6690SOL     OW31528   3.669   0.360   8.431 -0.1551 -0.2687 -0.1955
 6690SOL    HW131529   3.639   0.328   8.346  1.0736 -0.3056 -0.6108
 6690SOL    HW231530   3.759   0.383   8.411 -0.2949 -0.5345 -1.1360
 6691SOL     OW31531   1.068   3.684   3.078 -0.3152 -0.7491  0.1831
 6691SOL    HW131532   1.088   3.653   2.990  1.4247 -0.2937  0.4129
 6691SOL    HW231533   1.156   3.673   3.113  0.2924 -1.5444 -1.5852
 6692SOL     OW31534   4.330   3.849   5.598  0.6067 -0.0395 -0.0037
 6692SOL    HW131535   4.346   3.760   5.566 -1.5224  0.1671 -1.5891
 6692SOL    HW231536   4.415   3.894   5.604  1.7776 -2.3069  0.5265
 6693SOL     OW31537   2.270   1.869  13.556  0.2623 -0.4883 -0.2466
 6693SOL    HW131538   2.289   1.887  13.648  1.9739 -0.3206 -0.6356
 6693SOL    HW231539   2.181   1.835  13.562  0.0434 -0.1822 -1.8724
 6694SOL     OW31540   2.485   2.054  11.244  0.3902 -0.0102 -0.0362
 6694SOL    HW131541   2.416   1.992  11.268 -2.2398  2.4183 -1.2848
 6694SOL    HW231542   2.509   2.032  11.154 -0.7116  0.6354 -0.4874
 6695SOL     OW31543   3.183   2.358   8.470  0.2072 -0.0623  0.2802
 6695SOL    HW131544   3.221   2.415   8.403  1.7783 -0.6320  0.6851
 6695SOL    HW231545   3.160   2.423   8.537 -2.9943 -1.8133  0.8789
 6696SOL     OW31546   1.412   1.289   1.245 -0.0777  0.1234  0.0431
 6696SOL    HW131547   1.435   1.343   1.321  0.2192 -0.4788  0.3741
 6696SOL    HW231548   1.437   1.206   1.284 -0.4598  0.3161  0.6891
 6697SOL     OW31549   3.769   3.791   1.755  0.2206  0.2969 -0.9046
 6697SOL    HW131550   3.864   3.783   1.747  0.5371  1.2246  2.1507
 6697SOL    HW231551   3.756   3.886   1.762  0.7177  0.3610 -0.8747
 6698SOL     OW31552   1.090   0.849  14.133  0.0576  0.3128  0.1229
 6698SOL    HW131553   1.153   0.916  14.162  0.7211 -0.4725  0.4862
 6698SOL    HW231554   1.015   0.871  14.188 -0.6493  0.1441 -0.7827
 6699SOL     OW31555   1.805   4.350  14.278  0.1739  0.6443 -0.0195
 6699SOL    HW131556   1.817   4.397  14.360  0.7556  0.5736 -0.0630
 6699SOL    HW231557   1.725   4.394  14.249  0.6424  1.3014 -0.2976
 6700SOL     OW31558   1.004   2.567   3.897 -0.3633  0.2240 -0.1028
 6700SOL    HW131559   1.026   2.473   3.890 -1.6029  0.0160 -1.1468
 6700SOL    HW231560   0.993   2.589   3.805 -0.1919  1.0924  0.0850
 6701SOL     OW31561   2.467   2.216  10.857  0.2025  0.0393  0.7044
 6701SOL    HW131562   2.391   2.213  10.799  1.3755 -1.5583 -0.7341
 6701SOL    HW231563   2.451   2.138  10.912 -2.4772 -0.7296 -1.1759
 6702SOL     OW31564   2.300   0.521   6.119 -0.1079  0.3499 -0.1151
 6702SOL    HW131565   2.270   0.453   6.179  1.0643  0.4830  0.6211
 6702SOL    HW231566   2.351   0.465   6.060  0.7418  1.6270 -0.6097
 6703SOL     OW31567   2.226   1.021   7.101  0.1593 -0.2370  0.3038
 6703SOL    HW131568   2.169   0.994   7.030  0.6403  1.6414 -0.7897
 6703SOL    HW231569   2.164   1.006   7.172 -0.3736  1.5222  0.1937
 6704SOL     OW31570   0.371   0.863   8.463  0.3941 -0.0311  0.1193
 6704SOL    HW131571   0.461   0.895   8.459  0.1943  0.9430  3.4434
 6704SOL    HW231572   0.336   0.905   8.541  1.5113 -0.7082  0.9911
 6705SOL     OW31573   3.153   3.194   7.534  0.2673  0.0196 -0.1071
 6705SOL    HW131574   3.112   3.270   7.494 -1.8001 -1.2893 -0.4742
 6705SOL    HW231575   3.084   3.130   7.522  1.5060 -1.7264  1.9410
 6706SOL     OW31576   3.145   3.604   5.473 -0.0049 -0.0354  0.0650
 6706SOL    HW131577   3.101   3.689   5.479  1.4158  0.6042  1.4161
 6706SOL    HW231578   3.076   3.561   5.423 -0.2786  0.9632 -0.4031
 6707SOL     OW31579   2.978   1.322   6.102  0.7599  0.6255 -0.5140
 6707SOL    HW131580   3.010   1.256   6.164 -1.1854  0.7983  0.6831
 6707SOL    HW231581   2.915   1.369   6.157  2.0723  0.0825  1.4777
 6708SOL     OW31582   3.558   3.898   5.998  0.0089  0.2014  0.6341
 6708SOL    HW131583   3.577   3.984   6.034 -0.8170  0.7858 -0.3277
 6708SOL    HW231584   3.645   3.862   6.015  1.2005  2.5563 -0.5607
 6709SOL     OW31585   0.500   1.654  16.815 -0.1772  0.2015 -0.3710
 6709SOL    HW131586   0.417   1.697  16.795 -0.1667  0.5973  0.4489
 6709SOL    HW231587   0.554   1.705  16.754 -0.5012  0.5250 -0.3900
 6710SOL     OW31588   2.024   3.409   4.410 -0.3346 -0.2743  0.2476
 6710SOL    HW131589   2.063   3.322   4.405  0.5160  0.1184 -0.0084
 6710SOL    HW231590   2.025   3.426   4.504  0.1682 -1.2975  0.4254
 6711SOL     OW31591   1.454   1.647   2.691  0.0650  0.5728  0.3766
 6711SOL    HW131592   1.445   1.677   2.781 -0.6726  1.7522 -0.0867
 6711SOL    HW231593   1.547   1.632   2.674 -0.0438 -0.7613  0.9725
 6712SOL     OW31594   0.105   0.782  11.165 -0.0173 -0.3532  0.5658
 6712SOL    HW131595   0.192   0.747  11.143 -0.4072 -0.8231 -0.2348
 6712SOL    HW231596   0.103   0.781  11.260  0.6147  0.4873  0.5921
 6713SOL     OW31597   3.907   2.372   2.095 -0.2959  0.3961 -0.3217
 6713SOL    HW131598   3.972   2.386   2.163 -1.3763 -2.1336  1.2472
 6713SOL    HW231599   3.925   2.454   2.050  1.8536 -0.6712 -1.4218
 6714SOL     OW31600   1.667   1.636   5.734 -0.1132  0.0963  0.1414
 6714SOL    HW131601   1.726   1.562   5.744  0.6717  0.6089 -0.6748
 6714SOL    HW231602   1.607   1.630   5.808 -1.1783  0.7701 -0.6552
 6715SOL     OW31603   3.972   4.299   3.018  0.5355 -0.0433 -0.2114
 6715SOL    HW131604   4.062   4.312   2.987  0.6408  0.2398  0.1995
 6715SOL    HW231605   3.939   4.224   2.970 -0.8866  0.1277  0.5055
 6716SOL     OW31606   0.019   0.907   8.491 -0.0088  0.7814  0.8874
 6716SOL    HW131607   0.044   0.976   8.430 -0.2927 -0.5740 -0.7846
 6716SOL    HW231608   0.032   0.940   8.580 -1.5608  1.8115  0.7187
 6717SOL     OW31609   3.115   1.841   6.099 -0.5751  0.2884  0.3575
 6717SOL    HW131610   3.118   1.779   6.026 -0.1090  0.6147  0.0910
 6717SOL    HW231611   3.174   1.807   6.166  0.0441  3.8508  1.6533
 6718SOL     OW31612   3.152   3.436   7.127  0.3200 -0.7709  0.0346
 6718SOL    HW131613   3.195   3.432   7.212  1.3881  1.3983 -0.3814
 6718SOL    HW231614   3.207   3.494   7.074 -0.5198 -1.5348 -1.6590
 6719SOL     OW31615   1.647   2.601   3.558 -0.3945 -0.3808  0.1077
 6719SOL    HW131616   1.555   2.597   3.531 -0.1942  0.3256 -0.6507
 6719SOL    HW231617   1.656   2.509   3.583  0.2109 -0.7083 -1.3551
 6720SOL     OW31618   1.392   0.554  11.071 -0.2708 -0.3025  0.0968
 6720SOL    HW131619   1.376   0.463  11.047  0.9670 -1.1565  2.4535
 6720SOL    HW231620   1.309   0.598  11.054  0.6067  1.4035  0.1092
 6721SOL     OW31621   3.554   1.932   8.833 -0.3850  0.1172 -0.4789
 6721SOL    HW131622   3.467   1.929   8.794 -0.5831 -1.6425  0.0908
 6721SOL    HW231623   3.604   1.984   8.771 -0.4866  0.7930  0.0001
 6722SOL     OW31624   0.384   0.255   6.276  0.1929 -0.8608  0.4692
 6722SOL    HW131625   0.355   0.165   6.287 -0.6714 -0.4164  1.8093
 6722SOL    HW231626   0.448   0.263   6.346  0.2963  0.1969  0.2600
 6723SOL     OW31627   4.169   2.283  17.590  0.0242 -0.5036 -0.5014
 6723SOL    HW131628   4.237   2.250  17.650 -0.6073 -0.8053  0.0476
 6723SOL    HW231629   4.091   2.283  17.646  0.9674  0.3605  0.8390
 6724SOL     OW31630   1.646   3.941   3.100  0.4879  0.3919  0.2934
 6724SOL    HW131631   1.596   3.861   3.115 -0.3911  0.6598 -1.1963
 6724SOL    HW231632   1.735   3.906   3.092  0.5624 -0.1495  3.5877
 6725SOL     OW31633   3.304   4.276   1.358 -0.2895 -0.0579  0.1568
 6725SOL    HW131634   3.339   4.228   1.434 -1.8490 -1.9714 -0.3573
 6725SOL    HW231635   3.355   4.241   1.285 -1.3339  0.9438 -1.0392
 6726SOL     OW31636   3.285   4.670   7.725  0.8537 -0.0933 -0.1884
 6726SOL    HW131637   3.225   4.698   7.656  0.0750 -0.0409  0.5041
 6726SOL    HW231638   3.275   4.575   7.727  0.1299 -0.0617 -3.2219
 6727SOL     OW31639   3.758   4.653   9.303 -0.0255  0.1055  0.1553
 6727SOL    HW131640   3.765   4.704   9.383  0.3078 -2.6131  1.8585
 6727SOL    HW231641   3.669   4.677   9.279  0.0884 -0.6722 -1.0482
 6728SOL     OW31642   1.424   1.299  13.510  0.7058 -0.3379  0.4319
 6728SOL    HW131643   1.432   1.281  13.417 -1.6764 -1.6135  0.4749
 6728SOL    HW231644   1.490   1.240  13.549  2.5807  1.4895 -0.0014
 6729SOL     OW31645   0.496   2.538   4.510 -0.5689  0.1805  0.5984
 6729SOL    HW131646   0.590   2.540   4.529 -0.4463 -1.7848  0.2313
 6729SOL    HW231647   0.486   2.579   4.424 -1.3985 -1.8031 -0.2413
 6730SOL     OW31648   2.537   0.616   9.025 -0.0123 -0.3213 -0.0896
 6730SOL    HW131649   2.564   0.707   9.013 -1.8932  0.2814  0.1871
 6730SOL    HW231650   2.583   0.600   9.107  0.0929  0.4763  0.0042
 6731SOL     OW31651   2.318   3.495   1.477  0.3636  0.8706 -0.0224
 6731SOL    HW131652   2.372   3.416   1.479 -0.3703  0.3797  1.0031
 6731SOL    HW231653   2.354   3.540   1.401 -0.0316  1.7040  0.2800
 6732SOL     OW31654   4.300   1.325  10.942  0.0769  0.3581 -0.0354
 6732SOL    HW131655   4.311   1.362  11.030 -0.3400  2.2503 -0.7770
 6732SOL    HW231656   4.351   1.383  10.885  0.9625 -0.9794 -0.6061
 6733SOL     OW31657   4.037   4.097   8.236  0.2100  0.4193 -0.2193
 6733SOL    HW131658   4.026   4.076   8.329  0.4781  0.0228 -0.2765
 6733SOL    HW231659   4.047   4.008   8.202  0.5641  0.6222 -0.6362
 6734SOL     OW31660   2.695   3.656   0.580  0.3025  0.0051 -0.5714
 6734SOL    HW131661   2.714   3.714   0.506 -0.2812  1.3010  0.2997
 6734SOL    HW231662   2.676   3.715   0.653 -1.7122 -2.5663  0.9748
 6735SOL     OW31663   4.522   0.845  11.822  0.9508 -0.2067 -0.2832
 6735SOL    HW131664   4.612   0.849  11.853  0.1476 -0.7485  2.0871
 6735SOL    HW231665   4.477   0.845  11.906 -1.4527 -2.1068 -1.5499
 6736SOL     OW31666   3.433   2.799   0.343  0.1361  0.1383 -0.1903
 6736SOL    HW131667   3.386   2.769   0.421 -0.1266  2.0502  0.3854
 6736SOL    HW231668   3.510   2.834   0.387  0.9741  0.2502 -1.7688
 6737SOL     OW31669   0.092   3.520  14.076  0.2802  0.3654  0.5172
 6737SOL    HW131670   0.104   3.591  14.140  0.5171  2.0965 -1.4447
 6737SOL    HW231671   0.027   3.565  14.021  1.9512  1.2354 -0.7290
 6738SOL     OW31672   0.690   2.299   3.586  0.7076 -0.2278 -0.0395
 6738SOL    HW131673   0.676   2.226   3.526 -1.6903 -0.7578  1.1777
 6738SOL    HW231674   0.749   2.354   3.534  0.3720  1.5127  1.4163
 6739SOL     OW31675   0.518   3.298  11.589  0.0312  0.5846 -0.1823
 6739SOL    HW131676   0.544   3.368  11.649  0.0966 -0.9478  1.5567
 6739SOL    HW231677   0.434   3.334  11.560  0.6985  0.9021 -1.7356
 6740SOL     OW31678   3.659   1.033  14.983 -0.0286 -0.4703  0.1205
 6740SOL    HW131679   3.648   1.122  15.016 -0.2048 -1.7441  3.4934
 6740SOL    HW231680   3.608   1.026  14.903 -0.4969  1.3027  0.2656
 6741SOL     OW31681   3.179   1.267  15.591  0.4573 -0.4148 -0.5868
 6741SOL    HW131682   3.263   1.222  15.582  1.2233  0.5185  1.7922
 6741SOL    HW231683   3.123   1.190  15.597 -2.1460  1.5639  0.3473
 6742SOL     OW31684   2.044   1.078   2.356 -0.3087  0.6677  0.6204
 6742SOL    HW131685   2.087   1.160   2.380  1.2762 -0.0752  0.3550
 6742SOL    HW231686   1.990   1.067   2.433  0.2586 -3.6518  0.4083
 6743SOL     OW31687   3.024   3.268   2.632 -0.3762 -0.6414  0.7120
 6743SOL    HW131688   3.103   3.233   2.590 -2.5426 -1.4091 -2.6771
 6743SOL    HW231689   3.053   3.323   2.704 -0.4747  0.3189  0.0113
 6744SOL     OW31690   1.265   2.008  14.829  0.0948  0.0131 -0.5605
 6744SOL    HW131691   1.320   2.063  14.884 -0.6112  0.9136 -0.7610
 6744SOL    HW231692   1.281   1.922  14.869 -0.8826 -0.7652 -1.8526
 6745SOL     OW31693   4.519   0.370   9.003  0.1082 -0.1764  0.5649
 6745SOL    HW131694   4.486   0.334   8.921  0.2978 -0.6009  0.6782
 6745SOL    HW231695   4.550   0.289   9.043 -1.6912  0.0839  2.4843
 6746SOL     OW31696   1.115   3.335  13.187 -0.3859 -0.3505  0.1007
 6746SOL    HW131697   1.207   3.328  13.165  0.1977 -0.7746  2.6000
 6746SOL    HW231698   1.082   3.389  13.115 -1.6759 -0.3562  0.6754
 6747SOL     OW31699   1.756   2.954   2.119 -0.2415  0.0498  0.1063
 6747SOL    HW131700   1.843   2.993   2.122 -0.5142  0.6942 -0.4876
 6747SOL    HW231701   1.699   3.020   2.157  1.0701  2.1062 -1.5430
 6748SOL     OW31702   3.978   1.767   6.462  0.0492 -0.4057  0.1031
 6748SOL    HW131703   3.904   1.796   6.409  1.3895  0.9580 -1.0233
 6748SOL    HW231704   3.937   1.763   6.548 -1.3336 -0.4337 -0.5605
 6749SOL     OW31705   4.506   1.940  17.399 -0.0995  0.4680 -0.1329
 6749SOL    HW131706   4.588   1.897  17.419 -0.4569 -0.7084 -1.1966
 6749SOL    HW231707   4.452   1.939  17.478 -1.9055  1.9635 -1.3297
 6750SOL     OW31708   2.636   4.069   7.866 -0.1945  0.1014 -0.2250
 6750SOL    HW131709   2.704   4.127   7.831 -1.1728  0.4433 -1.5518
 6750SOL    HW231710   2.620   4.006   7.796 -0.8124  1.8282 -1.6466
 6751SOL     OW31711   0.115   4.064   4.619 -0.1040 -0.3045  0.1691
 6751SOL    HW131712   0.156   4.140   4.579  1.0588 -1.7702 -1.3945
 6751SOL    HW231713   0.188   4.037   4.675  0.1149  2.1386  1.0401
 6752SOL     OW31714   2.783   0.844  12.092 -0.2375 -0.6816  0.3617
 6752SOL    HW131715   2.754   0.810  12.008 -1.0069 -0.3026  0.4688
 6752SOL    HW231716   2.876   0.846  12.068 -0.1427 -1.3238  0.6917
 6753SOL     OW31717   3.659   4.432   1.873 -0.3306 -0.1454  0.1893
 6753SOL    HW131718   3.629   4.406   1.960 -2.3605 -1.4063 -0.8673
 6753SOL    HW231719   3.568   4.435   1.842 -0.3495 -0.4012  0.2133
 6754SOL     OW31720   0.830   4.043   9.977 -0.1381  0.2613 -0.3731
 6754SOL    HW131721   0.737   4.018   9.984 -0.0600 -0.0291 -0.3738
 6754SOL    HW231722   0.875   3.960   9.967 -0.6163 -0.0079 -0.3191
 6755SOL     OW31723   3.844   0.564  12.696  0.0866 -0.1091 -0.3999
 6755SOL    HW131724   3.865   0.555  12.789 -0.8097  0.2697 -0.1697
 6755SOL    HW231725   3.918   0.621  12.677  1.4312 -2.0813 -1.1207
 6756SOL     OW31726   3.534   4.723   7.614 -0.2451 -0.2495 -0.1587
 6756SOL    HW131727   3.452   4.718   7.664  0.7215 -1.4654  1.3196
 6756SOL    HW231728   3.516   4.663   7.541 -1.5475 -0.2882  0.1879
 6757SOL     OW31729   1.870   2.777   0.638  0.4209 -0.3590 -0.3328
 6757SOL    HW131730   1.903   2.860   0.672 -0.4083 -0.0179 -0.3670
 6757SOL    HW231731   1.850   2.809   0.550  1.6390  0.5808 -0.2593
 6758SOL     OW31732   3.270   3.903  14.672  0.1121  0.0260  0.1785
 6758SOL    HW131733   3.343   3.865  14.719 -0.0997 -0.2266  0.2994
 6758SOL    HW231734   3.203   3.877  14.735 -0.9711 -0.7684 -1.2837
 6759SOL     OW31735   3.630   4.154   6.923 -0.1057 -0.2304 -0.0625
 6759SOL    HW131736   3.656   4.225   6.864 -1.0276  1.3548  1.4303
 6759SOL    HW231737   3.564   4.201   6.974 -0.2643  0.2431 -0.7100
 6760SOL     OW31738   1.698   1.671  14.828 -0.1267  0.3627  0.4154
 6760SOL    HW131739   1.734   1.751  14.788  1.0663 -1.2265 -1.6908
 6760SOL    HW231740   1.603   1.675  14.815 -0.1620  0.1896  0.6251
 6761SOL     OW31741   3.113   1.428  16.939 -0.1089  0.0290  0.4026
 6761SOL    HW131742   3.047   1.380  16.988  0.4731 -0.1301  1.0306
 6761SOL    HW231743   3.060   1.467  16.869  3.1084 -0.2490 -2.2404
 6762SOL     OW31744   1.455   3.155   0.418 -0.1153  0.4679  0.0766
 6762SOL    HW131745   1.391   3.085   0.401  1.3206 -0.4726 -1.4331
 6762SOL    HW231746   1.537   3.107   0.420 -0.6289 -0.4049  0.5641
 6763SOL     OW31747   1.962   3.826   9.918  0.2673  0.1598  0.5307
 6763SOL    HW131748   2.011   3.833   9.837 -1.6276 -0.0864 -0.6478
 6763SOL    HW231749   1.895   3.894   9.917 -0.7802 -0.8547  1.0149
 6764SOL     OW31750   0.686   3.810   0.376 -0.0403 -0.4907  0.1928
 6764SOL    HW131751   0.757   3.848   0.427 -0.5880  1.1587 -0.2717
 6764SOL    HW231752   0.717   3.720   0.363  0.6051  0.0095 -1.7404
 6765SOL     OW31753   4.565   2.437   4.289  0.1820  0.1875  0.3970
 6765SOL    HW131754   4.487   2.439   4.234  1.0807 -0.3541 -0.8783
 6765SOL    HW231755   4.564   2.527   4.322  1.9419  0.5076 -0.4397
 6766SOL     OW31756   2.008   2.658   2.221 -0.6904  0.7448 -0.3298
 6766SOL    HW131757   2.041   2.570   2.200  0.7048  0.4805  3.0927
 6766SOL    HW231758   2.041   2.705   2.145 -0.8236 -0.3497 -1.0744
 6767SOL     OW31759   0.900   4.667   3.423  0.4721 -0.0547 -0.4957
 6767SOL    HW131760   0.847   4.657   3.502 -0.0670 -1.0830 -0.9827
 6767SOL    HW231761   0.983   4.701   3.455  0.2933 -0.3170  0.2315
 6768SOL     OW31762   0.197   0.228   2.176  0.3664 -0.1436 -0.3547
 6768SOL    HW131763   0.206   0.141   2.135 -0.8869  0.0749 -1.0736
 6768SOL    HW231764   0.273   0.216   2.233  1.1305 -0.4015 -1.4223
 6769SOL     OW31765   3.936   1.394   7.833  0.0425  0.0751 -0.1722
 6769SOL    HW131766   3.917   1.360   7.745 -0.0577 -0.1451 -0.0643
 6769SOL    HW231767   3.934   1.488   7.812  1.1455  0.1037 -0.1934
 6770SOL     OW31768   3.285   1.775   6.833 -0.5179 -0.1588  0.0783
 6770SOL    HW131769   3.246   1.862   6.842 -0.7844 -0.5660  3.0654
 6770SOL    HW231770   3.213   1.718   6.805 -1.7058  0.2757  2.2410
 6771SOL     OW31771   1.541   2.421   6.282 -0.2040 -0.3689 -0.4879
 6771SOL    HW131772   1.621   2.372   6.264 -0.7875 -1.2503 -0.6517
 6771SOL    HW231773   1.566   2.513   6.277 -0.8749 -0.0933  1.4984
 6772SOL     OW31774   0.225   3.754   4.078 -0.2214 -0.1366 -0.1405
 6772SOL    HW131775   0.235   3.714   4.164 -0.7799 -0.9604 -0.4558
 6772SOL    HW231776   0.130   3.749   4.067 -0.5413  0.7023  2.4078
 6773SOL     OW31777   0.472   0.293   6.652 -0.4956  0.1097  0.5236
 6773SOL    HW131778   0.493   0.205   6.621 -0.9076 -0.0434  0.6840
 6773SOL    HW231779   0.502   0.311   6.741  1.2823  1.8816 -0.4280
 6774SOL     OW31780   1.004   3.318  16.021  0.0882  0.1154  0.4903
 6774SOL    HW131781   1.046   3.397  15.986  0.8494 -0.3940  0.2437
 6774SOL    HW231782   1.016   3.329  16.116  0.7058 -0.6419  0.5055
 6775SOL     OW31783   2.035   4.117  16.725 -0.7869 -0.8482  0.6005
 6775SOL    HW131784   2.117   4.126  16.676 -1.6044 -2.4855 -1.0910
 6775SOL    HW231785   1.971   4.118  16.655 -0.8249  2.8251  0.7088
 6776SOL     OW31786   0.427   2.542   3.911  0.4802  0.0053 -0.0659
 6776SOL    HW131787   0.396   2.546   3.820 -0.8785  3.2460  0.5482
 6776SOL    HW231788   0.358   2.587   3.960 -0.5431 -0.3652 -1.1658
 6777SOL     OW31789   0.361   1.179   4.045  0.3573  0.2972  0.4198
 6777SOL    HW131790   0.316   1.130   3.975 -0.2665  0.6462  0.5698
 6777SOL    HW231791   0.334   1.265   4.013 -0.2896 -0.0605  0.0026
 6778SOL     OW31792   1.921   3.641   1.852 -0.0711  0.5348 -0.2134
 6778SOL    HW131793   1.837   3.681   1.830 -0.9064 -0.0971  1.8112
 6778SOL    HW231794   1.915   3.563   1.797 -0.7745  1.2530 -1.1463
 6779SOL     OW31795   2.561   2.713   4.962  0.5087 -0.5190  0.2986
 6779SOL    HW131796   2.560   2.693   5.056  0.1120  0.6880  0.5468
 6779SOL    HW231797   2.557   2.629   4.916  0.0453 -0.2849 -0.0778
 6780SOL     OW31798   4.458   0.959  13.119 -0.4679 -0.5448  0.3840
 6780SOL    HW131799   4.437   0.928  13.208  0.1960 -2.2221 -0.0327
 6780SOL    HW231800   4.371   0.964  13.080 -1.1812  1.1867  2.1913
 6781SOL     OW31801   2.681   2.848   1.591  0.2139 -0.3405  0.1353
 6781SOL    HW131802   2.752   2.884   1.645  1.5636 -0.7180 -1.3958
 6781SOL    HW231803   2.723   2.781   1.537  1.9541  0.9837 -0.1687
 6782SOL     OW31804   2.626   1.855   8.465 -0.1866 -0.3659  0.0540
 6782SOL    HW131805   2.572   1.777   8.480 -0.4451 -0.7555 -2.7995
 6782SOL    HW231806   2.660   1.846   8.376 -1.6637  0.0564 -0.5548
 6783SOL     OW31807   3.636   2.670   3.964  0.6865  0.8085 -0.2374
 6783SOL    HW131808   3.547   2.641   3.984  0.1664  2.4202 -0.1971
 6783SOL    HW231809   3.679   2.652   4.048 -0.8640  1.1676  0.6181
 6784SOL     OW31810   3.916   4.632   4.549  0.3898 -0.0197  0.1340
 6784SOL    HW131811   3.991   4.571   4.552  0.9091  0.7185  2.8227
 6784SOL    HW231812   3.926   4.678   4.633  1.5753  0.1232 -0.0864
 6785SOL     OW31813   1.147   4.269   7.695  0.2958  0.3120 -0.1396
 6785SOL    HW131814   1.239   4.253   7.717  0.8931  0.6084 -2.3900
 6785SOL    HW231815   1.097   4.255   7.775  0.9036 -0.6495  0.0769
 6786SOL     OW31816   3.639   2.743   5.061  0.0197  0.4279 -0.1236
 6786SOL    HW131817   3.634   2.836   5.084 -0.1563  0.3296  0.2333
 6786SOL    HW231818   3.707   2.743   4.994 -1.1858 -1.4823 -1.3694
 6787SOL     OW31819   0.741   2.305   1.387  0.4899  0.1594  0.1962
 6787SOL    HW131820   0.734   2.342   1.475 -0.1091  1.9754 -0.6019
 6787SOL    HW231821   0.755   2.385   1.337 -1.5759  1.2327  1.3261
 6788SOL     OW31822   1.617   4.606   3.141  0.5272 -0.0277 -0.0051
 6788SOL    HW131823   1.674   4.653   3.201 -1.0263 -0.2338  1.6233
 6788SOL    HW231824   1.542   4.664   3.127  0.1635 -0.4453  0.2238
 6789SOL     OW31825   0.689   3.979   5.533  0.0831  0.1443 -0.0246
 6789SOL    HW131826   0.767   3.937   5.497  0.1886 -0.2244  0.6464
 6789SOL    HW231827   0.640   3.904   5.565 -0.8170  0.0984 -1.4949
 6790SOL     OW31828   1.149   0.440  14.339  0.6096  0.1112 -0.0867
 6790SOL    HW131829   1.148   0.511  14.402 -0.3167 -0.8212  0.9534
 6790SOL    HW231830   1.180   0.488  14.262 -0.0210  2.2436  0.9876
 6791SOL     OW31831   2.453   1.124   3.065  0.4168  0.2063 -0.6540
 6791SOL    HW131832   2.426   1.035   3.090  1.6215  0.2449  0.8550
 6791SOL    HW231833   2.523   1.143   3.128 -1.2129 -0.3646  1.3323
 6792SOL     OW31834   0.615   3.727  10.057  0.7976  0.1845  0.2728
 6792SOL    HW131835   0.690   3.688  10.101  1.5082 -0.1289 -1.2114
 6792SOL    HW231836   0.606   3.654   9.995 -0.0320 -0.3010  0.9656
 6793SOL     OW31837   1.749   2.545   2.865 -0.1437  1.2693 -0.0574
 6793SOL    HW131838   1.705   2.523   2.947 -0.1917  0.2347 -0.3616
 6793SOL    HW231839   1.744   2.640   2.880  1.1116  1.2403  0.4938
 6794SOL     OW31840   4.263   0.339  11.282  0.1291 -0.0746 -0.3991
 6794SOL    HW131841   4.182   0.332  11.233  0.9510 -0.8318 -1.6600
 6794SOL    HW231842   4.246   0.283  11.357 -0.6053 -0.6192 -0.9664
 6795SOL     OW31843   2.065   2.554   8.065 -0.6748 -0.2575  0.3900
 6795SOL    HW131844   1.970   2.544   8.059 -0.5000 -1.5114 -0.2000
 6795SOL    HW231845   2.085   2.621   7.999 -1.0648 -1.1094 -0.5903
 6796SOL     OW31846   0.264   2.842   8.287  0.0044  0.0163  0.1825
 6796SOL    HW131847   0.323   2.854   8.213 -1.0945  0.7328 -0.5952
 6796SOL    HW231848   0.334   2.827   8.351  0.0033  1.0626  0.4344
 6797SOL     OW31849   3.322   3.809   1.345  0.4361  0.1929  0.5740
 6797SOL    HW131850   3.324   3.839   1.254 -0.9373 -2.4278 -0.3254
 6797SOL    HW231851   3.394   3.864   1.376  0.0017  0.9147  0.3055
 6798SOL     OW31852   3.321   1.713   4.144  0.2954  0.4233  0.2681
 6798SOL    HW131853   3.267   1.766   4.085 -1.3484 -0.0510  1.3678
 6798SOL    HW231854   3.263   1.712   4.220  1.4283  0.5870  1.1459
 6799SOL     OW31855   2.185   1.241   6.112  0.2928 -0.1863  0.1918
 6799SOL    HW131856   2.263   1.190   6.138  1.2033 -0.4910 -3.1392
 6799SOL    HW231857   2.179   1.224   6.018 -2.3311  0.2238  0.2816
 6800SOL     OW31858   1.751   2.190   4.183  0.1025  0.0415  0.3026
 6800SOL    HW131859   1.700   2.258   4.227 -1.1806 -3.0008  3.4436
 6800SOL    HW231860   1.694   2.116   4.200 -0.9134  0.4922 -1.1052
 6801SOL     OW31861   3.982   4.602  16.625  0.2769 -0.4029 -0.3392
 6801SOL    HW131862   4.027   4.526  16.663 -1.1567 -1.3741 -0.5771
 6801SOL    HW231863   3.912   4.564  16.573  0.1967  1.1528 -1.3481
 6802SOL     OW31864   1.806   4.005   1.973  0.3281 -0.0458  0.3964
 6802SOL    HW131865   1.888   3.998   1.924 -1.1652  1.1846 -2.2875
 6802SOL    HW231866   1.760   3.926   1.942 -0.6379  1.1989 -1.3698
 6803SOL     OW31867   0.698   2.853  14.416  0.4250  0.2908  0.0400
 6803SOL    HW131868   0.643   2.775  14.411 -2.0981  1.9228  2.2970
 6803SOL    HW231869   0.707   2.840  14.510  0.5304  1.3946  0.1833
 6804SOL     OW31870   3.512   4.041  15.071  0.2884 -0.2117 -0.0335
 6804SOL    HW131871   3.531   4.059  14.979 -1.3699 -3.2610 -0.9791
 6804SOL    HW231872   3.477   3.952  15.068  0.7788 -0.4486  1.1336
 6805SOL     OW31873   3.283   2.233   8.756  0.2606  0.0500  0.0225
 6805SOL    HW131874   3.333   2.152   8.749 -0.9226 -0.8768  2.4007
 6805SOL    HW231875   3.288   2.263   8.665  2.0536 -0.7928 -0.1538
 6806SOL     OW31876   2.868   1.562   4.996  0.4551  0.9328 -0.2915
 6806SOL    HW131877   2.914   1.581   5.078 -0.5587  1.8795  0.0513
 6806SOL    HW231878   2.900   1.634   4.941  0.2113  0.1289 -1.4920
 6807SOL     OW31879   2.051   0.991  15.649 -0.0325 -0.3361  0.2608
 6807SOL    HW131880   1.998   1.037  15.714  4.3233  0.0944  3.5236
 6807SOL    HW231881   2.040   0.900  15.677  1.6612 -0.2160  1.3203
 6808SOL     OW31882   3.660   1.288   2.518 -0.4329  0.2060 -0.1858
 6808SOL    HW131883   3.645   1.229   2.444  2.0157 -0.7216  0.0633
 6808SOL    HW231884   3.721   1.235   2.569 -1.1072 -0.9002 -0.5262
 6809SOL     OW31885   0.241   1.072  17.056 -0.4705  0.5540  0.5086
 6809SOL    HW131886   0.252   0.979  17.071  1.6610  0.4028 -1.8608
 6809SOL    HW231887   0.293   1.121  17.121 -0.4332  0.8441  0.2633
 6810SOL     OW31888   3.260   4.182   7.453 -0.3396 -0.5601 -0.1677
 6810SOL    HW131889   3.318   4.113   7.488 -1.6759 -0.9189  1.3426
 6810SOL    HW231890   3.264   4.236   7.532 -0.6197  0.3540 -0.7840
 6811SOL     OW31891   3.262   2.309   7.842 -0.3655  0.6345  0.1594
 6811SOL    HW131892   3.183   2.260   7.864 -0.3006  0.9309  1.0806
 6811SOL    HW231893   3.234   2.353   7.762 -3.1269 -0.3110  0.6015
 6812SOL     OW31894   4.367   1.366  14.203 -0.1629 -0.0628 -0.2084
 6812SOL    HW131895   4.332   1.329  14.284  1.1616  0.4793  0.6120
 6812SOL    HW231896   4.299   1.429  14.181  0.0757  0.6046  0.9371
 6813SOL     OW31897   1.427   3.519   8.222  0.1442 -0.9004  0.3454
 6813SOL    HW131898   1.337   3.542   8.244 -0.1464 -1.9354  0.2282
 6813SOL    HW231899   1.409   3.476   8.138  0.3273  0.4483 -0.3901
 6814SOL     OW31900   3.555   1.151  10.518  0.3732  0.2777 -0.0334
 6814SOL    HW131901   3.623   1.168  10.583 -0.2170 -1.1923  0.9699
 6814SOL    HW231902   3.561   1.056  10.508  0.2900  0.3621 -0.8801
 6815SOL     OW31903   1.571   3.351  12.756 -0.2949  0.4836  0.2969
 6815SOL    HW131904   1.635   3.380  12.691  1.3245 -1.8436  0.8787
 6815SOL    HW231905   1.556   3.428  12.810 -0.3735  1.9202 -1.7714
 6816SOL     OW31906   3.518   4.564  10.830 -0.3769 -0.9571 -0.6275
 6816SOL    HW131907   3.611   4.548  10.844 -0.3328  1.4342  1.7245
 6816SOL    HW231908   3.484   4.501  10.894 -1.5287  0.1010 -0.1961
 6817SOL     OW31909   4.533   2.536  14.311  0.4293  0.2921 -0.1355
 6817SOL    HW131910   4.625   2.559  14.304  0.6496 -0.6010 -0.0810
 6817SOL    HW231911   4.513   2.569  14.399  0.3572  2.2884 -0.9081
 6818SOL     OW31912   1.460   4.200  13.260  0.5794  0.2893  0.0038
 6818SOL    HW131913   1.543   4.201  13.307  0.8499 -0.8754 -0.4472
 6818SOL    HW231914   1.490   4.186  13.170  0.2712  0.4457 -0.1225
 6819SOL     OW31915   2.896   3.445   7.196 -0.3497  0.0312 -0.0692
 6819SOL    HW131916   2.989   3.430   7.178 -0.6185 -0.7245 -0.8306
 6819SOL    HW231917   2.844   3.380   7.148 -1.4504  2.0792 -1.6247
 6820SOL     OW31918   0.634   2.653   2.390 -0.1111  0.1919  0.0660
 6820SOL    HW131919   0.634   2.560   2.410  1.1449  0.1486 -0.1024
 6820SOL    HW231920   0.724   2.674   2.418 -0.3920  0.6823  0.6118
 6821SOL     OW31921   3.939   3.446   7.660  0.4215 -0.2100  0.5663
 6821SOL    HW131922   3.968   3.366   7.615 -1.7809  0.1495 -1.4953
 6821SOL    HW231923   3.935   3.413   7.750  1.2652 -1.2538  0.2269
 6822SOL     OW31924   0.064   1.889   4.409 -0.2292 -0.0242  0.6749
 6822SOL    HW131925   0.086   1.936   4.329 -4.0693  1.3031  0.3860
 6822SOL    HW231926   0.056   1.957   4.476 -0.9756  1.3676 -0.8342
 6823SOL     OW31927   1.711   4.029  14.807 -0.0715 -0.3415 -0.5051
 6823SOL    HW131928   1.794   3.985  14.789  1.7068  2.0522  1.9457
 6823SOL    HW231929   1.663   3.957  14.848  0.1407 -1.5687 -2.3926
 6824SOL     OW31930   2.250   0.927  12.767 -0.5061 -0.0524 -0.1920
 6824SOL    HW131931   2.249   0.923  12.863  3.2972 -0.0651 -0.1587
 6824SOL    HW231932   2.345   0.932  12.753 -0.2874 -3.3978  0.0709
 6825SOL     OW31933   3.950   3.343   7.909  0.4176 -0.1810 -0.5365
 6825SOL    HW131934   4.030   3.290   7.908 -0.7987 -2.0613  1.4647
 6825SOL    HW231935   3.915   3.285   7.976  1.0734  0.2972  0.2195
 6826SOL     OW31936   3.351   0.248  10.357  0.3951 -0.7247  0.0492
 6826SOL    HW131937   3.412   0.321  10.351 -0.8590  0.0887 -3.2048
 6826SOL    HW231938   3.275   0.283  10.310  0.6506 -1.1478 -0.6908
 6827SOL     OW31939   1.306   3.419   4.720  0.1517 -0.3425  0.5554
 6827SOL    HW131940   1.376   3.478   4.749  1.1383 -1.1013 -0.2991
 6827SOL    HW231941   1.231   3.462   4.761  0.1992 -0.1400  0.4339
 6828SOL     OW31942   4.090   2.434  16.610  0.0295 -0.4593 -0.2019
 6828SOL    HW131943   4.153   2.404  16.676 -0.1923 -1.9146 -0.6408
 6828SOL    HW231944   4.042   2.353  16.590  1.0283 -0.8528 -1.0445
 6829SOL     OW31945   4.242   1.632   5.854  0.0226  0.4025  0.4786
 6829SOL    HW131946   4.274   1.654   5.941 -0.7894 -0.0527  0.8864
 6829SOL    HW231947   4.173   1.570   5.877  0.6479 -1.6169 -2.9824
 6830SOL     OW31948   2.946   1.282  17.094 -0.4490 -0.2465  0.1216
 6830SOL    HW131949   2.998   1.294  17.173 -0.4057 -1.3514  0.2551
 6830SOL    HW231950   2.865   1.247  17.132 -1.5766  1.1042 -1.0126
 6831SOL     OW31951   1.391   3.780  15.869 -0.0796  0.1837  0.5598
 6831SOL    HW131952   1.397   3.832  15.949  1.2968  0.8949 -0.0069
 6831SOL    HW231953   1.332   3.833  15.815 -1.1195 -1.5751 -0.0219
 6832SOL     OW31954   0.812   0.642  15.698 -0.3632  0.0884  0.2377
 6832SOL    HW131955   0.813   0.567  15.758 -1.0849  1.2585  1.7189
 6832SOL    HW231956   0.746   0.697  15.741 -1.2973 -0.6200 -0.2935
 6833SOL     OW31957   0.606   1.005   2.521  0.0416 -0.4925 -0.0471
 6833SOL    HW131958   0.538   0.997   2.454 -0.9038 -0.4194  0.9033
 6833SOL    HW231959   0.645   1.085   2.486  0.4613  0.8598  3.4774
 6834SOL     OW31960   2.830   1.769   6.935  0.6318  0.5801 -0.0330
 6834SOL    HW131961   2.806   1.831   7.004  1.0692  0.3858  0.2901
 6834SOL    HW231962   2.752   1.759   6.881  0.0946 -2.1705  1.2773
 6835SOL     OW31963   1.424   3.682   2.107  0.6492  0.1552  0.3981
 6835SOL    HW131964   1.387   3.594   2.104 -0.9535  0.8401  0.4697
 6835SOL    HW231965   1.346   3.726   2.140 -0.4858 -0.4501 -1.4695
 6836SOL     OW31966   4.608   2.462   6.282  0.6882  0.1049 -0.1112
 6836SOL    HW131967   4.558   2.386   6.310  0.2298  0.2078 -0.6779
 6836SOL    HW231968   4.697   2.427   6.287  0.9288  0.7377  0.1492
 6837SOL     OW31969   2.331   1.164   6.882 -0.7271 -0.6636 -0.0128
 6837SOL    HW131970   2.303   1.145   6.971  0.9750  1.4584  0.9848
 6837SOL    HW231971   2.372   1.081   6.856 -0.2092 -1.0190  1.9368
 6838SOL     OW31972   3.567   0.800   5.790 -0.4427 -0.9048 -0.2839
 6838SOL    HW131973   3.565   0.822   5.697 -0.0738 -1.0381 -0.3237
 6838SOL    HW231974   3.543   0.708   5.793 -0.3518 -0.9159  0.1538
 6839SOL     OW31975   2.401   0.421   1.198  0.2207 -0.5518  0.6410
 6839SOL    HW131976   2.390   0.422   1.103 -0.3039 -3.0847  0.6558
 6839SOL    HW231977   2.496   0.410   1.198  0.3078  0.1892  1.8704
 6840SOL     OW31978   0.391   2.217  10.206  0.1147 -0.0576  0.1348
 6840SOL    HW131979   0.434   2.146  10.253  1.5711  0.7008 -0.0418
 6840SOL    HW231980   0.454   2.288  10.220  3.0451 -2.1381 -2.4174
 6841SOL     OW31981   1.302   4.280  11.917 -0.1930 -0.7967  0.0230
 6841SOL    HW131982   1.380   4.225  11.919  0.6757  0.4914  1.6543
 6841SOL    HW231983   1.333   4.347  11.979 -0.7839  1.4889 -2.1276
 6842SOL     OW31984   0.009   0.347   6.091  0.5272 -0.3329 -0.3385
 6842SOL    HW131985   0.086   0.403   6.103 -0.7043  1.4283 -0.6731
 6842SOL    HW231986   4.669   0.417   6.095  1.8356  0.9940 -2.4269
 6843SOL     OW31987   1.436   4.189   3.365  0.3358 -0.1833  0.7425
 6843SOL    HW131988   1.512   4.149   3.406  0.3684 -0.1608  0.7047
 6843SOL    HW231989   1.389   4.107   3.351  2.2101 -1.0532 -0.3655
 6844SOL     OW31990   1.811   1.273   1.665  0.1588  0.4289 -0.2053
 6844SOL    HW131991   1.746   1.204   1.680 -0.6590  1.4445  0.8722
 6844SOL    HW231992   1.789   1.348   1.720  1.8554 -0.1783  1.2842
 6845SOL     OW31993   3.349   3.424  15.434  0.0349 -0.2910 -0.1342
 6845SOL    HW131994   3.440   3.433  15.408  0.0693  0.6098  0.3122
 6845SOL    HW231995   3.339   3.336  15.471 -1.3884  1.1383  2.9225
 6846SOL     OW31996   3.537   1.505   9.890 -0.4655 -0.3053 -0.6463
 6846SOL    HW131997   3.463   1.518   9.831 -1.8955 -0.8549  1.0454
 6846SOL    HW231998   3.538   1.409   9.894  2.3064 -0.4353 -3.7255
 6847SOL     OW31999   4.654   3.402   8.754  0.0831 -0.2700  0.9883
 6847SOL    HW132000   4.561   3.379   8.753  0.1135 -0.3662 -0.4875
 6847SOL    HW232001   4.683   3.322   8.798  0.0177 -0.6163  0.4076
 6848SOL     OW32002   2.996   0.563   8.103 -0.2977  0.4045  0.3312
 6848SOL    HW132003   2.926   0.627   8.088 -1.6319 -1.5187 -1.7887
 6848SOL    HW232004   2.947   0.482   8.089  1.3334 -0.4345 -0.4866
 6849SOL     OW32005   0.193   3.657  11.746 -0.3673  0.5412 -0.3407
 6849SOL    HW132006   0.194   3.750  11.722  1.3955  0.2131 -1.5956
 6849SOL    HW232007   0.289   3.653  11.741 -0.3057 -0.1184  1.3336
 6850SOL     OW32008   1.395   3.478   3.730 -0.1399  0.5864  1.0716
 6850SOL    HW132009   1.347   3.556   3.754 -1.7760  0.1746 -0.8708
 6850SOL    HW232010   1.365   3.428   3.806 -2.0727  0.8738  0.4818
 6851SOL     OW32011   2.578   4.541   9.490 -0.2206 -0.0868  0.0408
 6851SOL    HW132012   2.542   4.485   9.422  2.8377 -1.2757 -0.5933
 6851SOL    HW232013   2.668   4.507   9.496 -1.1922 -2.4463  1.4806
 6852SOL     OW32014   4.195   3.063   2.052 -0.2472 -0.8506 -0.1279
 6852SOL    HW132015   4.189   3.158   2.036 -1.4739 -1.1797 -1.6064
 6852SOL    HW232016   4.244   3.057   2.134  2.6485  1.6216 -1.6428
 6853SOL     OW32017   4.145   2.089  16.169  0.0378  0.4988 -0.5920
 6853SOL    HW132018   4.135   2.035  16.091  0.5606 -4.1345  2.5522
 6853SOL    HW232019   4.193   2.029  16.226  0.8575  1.6731 -0.0275
 6854SOL     OW32020   2.441   2.724   6.787 -0.3165  0.5501 -0.0906
 6854SOL    HW132021   2.522   2.672   6.785 -0.3956  0.4541 -0.8343
 6854SOL    HW232022   2.446   2.773   6.870 -2.3520 -0.5452  0.6657
 6855SOL     OW32023   4.024   0.064  14.181 -0.5012  0.1773  0.2982
 6855SOL    HW132024   4.108   0.093  14.145  0.5088 -1.1848  1.5791
 6855SOL    HW232025   3.957   0.090  14.117 -1.0430 -1.9306  0.0197
 6856SOL     OW32026   1.536   0.349  11.252 -0.3976 -0.9310 -0.0269
 6856SOL    HW132027   1.455   0.383  11.214  0.2326 -1.5988 -1.9543
 6856SOL    HW232028   1.597   0.349  11.178 -0.7914  1.3245 -0.3666
 6857SOL     OW32029   0.219   4.419   5.568 -0.2031  0.0430  0.2032
 6857SOL    HW132030   0.307   4.431   5.533  0.1352 -0.4360  0.8707
 6857SOL    HW232031   0.179   4.495   5.527  1.0614  1.6761  2.0081
 6858SOL     OW32032   4.561   3.660  16.651  0.6209  0.3908 -0.5520
 6858SOL    HW132033   4.635   3.670  16.591  0.8864 -1.4256 -0.5108
 6858SOL    HW232034   4.606   3.688  16.731  3.7704 -0.5730 -1.9885
 6859SOL     OW32035   1.023   3.283   6.666 -0.0687 -0.3364 -0.0952
 6859SOL    HW132036   0.998   3.235   6.586  1.6288 -0.5178 -0.5162
 6859SOL    HW232037   1.030   3.206   6.721 -0.3153 -0.3584 -0.0962
 6860SOL     OW32038   4.340   3.561  11.284 -0.1138  0.1257  0.2953
 6860SOL    HW132039   4.381   3.594  11.364 -2.1050  1.5856  0.6991
 6860SOL    HW232040   4.420   3.555  11.231 -0.2135 -1.4065  0.3273
 6861SOL     OW32041   2.544   1.587   1.363  0.2152 -1.2190 -0.3405
 6861SOL    HW132042   2.584   1.503   1.386 -0.2140 -0.8458  1.7910
 6861SOL    HW232043   2.573   1.593   1.272 -2.0032  1.3234 -0.8907
 6862SOL     OW32044   3.478   2.630   7.728  0.0588  0.1470  0.0089
 6862SOL    HW132045   3.479   2.690   7.654 -0.4629 -1.2575 -1.1481
 6862SOL    HW232046   3.385   2.628   7.749 -0.3029  1.9879 -1.3858
 6863SOL     OW32047   2.669   4.562  17.656  0.1390  0.1287 -0.3571
 6863SOL    HW132048   2.614   4.493  17.619 -0.4082  1.6824 -2.4300
 6863SOL    HW232049   2.735   4.574  17.588 -2.8057  2.0510 -2.8570
 6864SOL     OW32050   4.213   2.322   5.797 -0.0575 -0.1763 -0.3733
 6864SOL    HW132051   4.248   2.324   5.886  3.8748 -2.5801 -1.8883
 6864SOL    HW232052   4.188   2.230   5.791 -1.1860  0.1814 -1.1420
 6865SOL     OW32053   1.611   1.108   6.685 -0.2818  0.7553  0.0748
 6865SOL    HW132054   1.636   1.168   6.755  1.3610  1.4573 -1.0988
 6865SOL    HW232055   1.662   1.146   6.614  0.3117 -1.6623 -0.7930
 6866SOL     OW32056   2.172   3.172   5.198  0.0734  0.8651  0.3342
 6866SOL    HW132057   2.097   3.117   5.222  1.2521 -1.2679 -0.9118
 6866SOL    HW232058   2.239   3.104   5.193 -0.3176  0.3656  1.6855
 6867SOL     OW32059   3.403   3.414   3.268  0.1952 -0.6924  0.2308
 6867SOL    HW132060   3.478   3.470   3.285  0.9880 -1.3480 -1.1569
 6867SOL    HW232061   3.351   3.441   3.344 -1.8394 -0.9615 -1.0503
 6868SOL     OW32062   1.462   4.617   2.577 -0.0867  0.3277 -0.0042
 6868SOL    HW132063   1.399   4.638   2.646 -0.7816 -0.5148 -0.3852
 6868SOL    HW232064   1.451   4.689   2.515 -0.7270  0.7821  0.6413
 6869SOL     OW32065   3.592   0.547   3.551  0.1888  0.1247 -0.3067
 6869SOL    HW132066   3.645   0.590   3.484 -0.1623  0.2092 -0.5317
 6869SOL    HW232067   3.529   0.617   3.568  2.5423  1.8919  1.1688
 6870SOL     OW32068   1.758   0.441   7.724  0.0141 -0.0522 -0.1410
 6870SOL    HW132069   1.666   0.464   7.712 -0.0832 -0.5626 -0.3700
 6870SOL    HW232070   1.765   0.387   7.645  0.5523 -0.7898  0.4109
 6871SOL     OW32071   0.977   1.121   2.835  0.3310 -0.5042  0.3464
 6871SOL    HW132072   1.032   1.043   2.833  4.9267  2.7653  1.8144
 6871SOL    HW232073   0.967   1.128   2.740  0.0736 -2.3312  0.2375
 6872SOL     OW32074   3.679   0.432   3.296 -0.1675 -0.0836 -0.5707
 6872SOL    HW132075   3.610   0.366   3.309  1.5992 -1.7499  0.3412
 6872SOL    HW232076   3.621   0.491   3.247 -1.3232  2.3313  3.6226
 6873SOL     OW32077   1.307   3.743   7.214  0.1042  0.5093 -0.2741
 6873SOL    HW132078   1.377   3.804   7.240 -1.2196  1.3676  1.3413
 6873SOL    HW232079   1.284   3.776   7.127 -2.1743 -0.1653  0.0745
 6874SOL     OW32080   2.288   4.239   3.969 -0.5023  0.0698  0.2965
 6874SOL    HW132081   2.315   4.278   3.886 -2.0773 -1.9025 -1.1646
 6874SOL    HW232082   2.334   4.301   4.025  0.1957 -0.0109 -0.1833
 6875SOL     OW32083   2.974   3.774   6.697 -0.0446  0.2024 -0.0701
 6875SOL    HW132084   2.931   3.692   6.670  0.2911 -1.1351  3.4774
 6875SOL    HW232085   2.947   3.834   6.627 -0.6657 -1.3680 -1.1891
 6876SOL     OW32086   2.391   1.384   2.987 -0.7364  0.4523 -0.5400
 6876SOL    HW132087   2.399   1.362   3.080 -0.2295  1.7031 -0.2909
 6876SOL    HW232088   2.296   1.395   2.985 -0.7788  0.3983  1.5949
 6877SOL     OW32089   3.843   4.138  14.284 -0.3012 -0.2628 -0.0734
 6877SOL    HW132090   3.890   4.212  14.322 -2.1353  0.3974  0.9139
 6877SOL    HW232091   3.917   4.079  14.269 -0.0254  0.5737 -1.9653
 6878SOL     OW32092   0.111   1.645   2.335  0.3008 -0.0397 -0.2219
 6878SOL    HW132093   0.076   1.644   2.246 -1.3121 -0.6639  0.4128
 6878SOL    HW232094   0.035   1.615   2.384  0.7816 -2.8478 -1.2215
 6879SOL     OW32095   4.461   3.973   3.291  0.2545 -0.5157 -0.1381
 6879SOL    HW132096   4.408   3.982   3.212 -0.6933  1.2244  0.6917
 6879SOL    HW232097   4.536   4.028   3.270 -1.6533  1.7182 -1.0367
 6880SOL     OW32098   2.064   0.351   7.527 -0.2550 -0.1019  0.1128
 6880SOL    HW132099   2.125   0.352   7.601 -1.5792 -0.3366  1.1868
 6880SOL    HW232100   2.008   0.285   7.567  0.6380 -0.1592  1.2877
 6881SOL     OW32101   3.943   0.184   9.163  0.0201  0.2944 -0.1671
 6881SOL    HW132102   4.001   0.259   9.170  0.6532 -0.3214  1.1394
 6881SOL    HW232103   3.866   0.224   9.204 -0.9603  0.2126 -1.9066
 6882SOL     OW32104   1.397   4.464   8.007  0.4272  0.1779 -0.4184
 6882SOL    HW132105   1.489   4.460   8.034  0.0084  0.9200  1.1073
 6882SOL    HW232106   1.355   4.447   8.091  0.3400  0.4742 -0.4018
 6883SOL     OW32107   2.592   2.003   7.388 -0.0026 -0.0042 -0.2427
 6883SOL    HW132108   2.649   1.970   7.458  0.4593 -1.4641 -1.3171
 6883SOL    HW232109   2.503   1.983   7.418 -0.3523 -0.8259 -1.8468
 6884SOL     OW32110   3.094   2.261   5.403  0.6143  0.8711 -0.5783
 6884SOL    HW132111   3.128   2.173   5.389  1.4312  1.4550 -2.2341
 6884SOL    HW232112   3.064   2.260   5.494 -1.8954  0.7874 -1.4003
 6885SOL     OW32113   1.336   4.241   2.530  0.4196 -0.2903  0.4522
 6885SOL    HW132114   1.403   4.203   2.473 -0.8029  0.4317 -1.4724
 6885SOL    HW232115   1.382   4.269   2.610  2.9575 -1.0397 -0.7305
 6886SOL     OW32116   4.439   0.196   5.379 -0.1302 -0.2444  0.5031
 6886SOL    HW132117   4.508   0.204   5.445 -0.5786 -1.1827  1.0886
 6886SOL    HW232118   4.409   0.285   5.363 -1.5888 -0.6829  0.7710
 6887SOL     OW32119   2.967   3.421   8.689  0.6242  0.2242 -0.0633
 6887SOL    HW132120   2.894   3.474   8.659  1.6033  1.5057 -0.1553
 6887SOL    HW232121   3.037   3.484   8.708 -0.2820  1.0993  0.3156
 6888SOL     OW32122   1.397   2.947   2.027  0.4499  0.2257 -0.5188
 6888SOL    HW132123   1.446   2.898   1.960  1.4998 -0.3221  0.6395
 6888SOL    HW232124   1.308   2.916   2.016  0.2863  0.3088  0.6433
 6889SOL     OW32125   0.058   0.436   8.967 -0.0299 -0.3030  0.2819
 6889SOL    HW132126   4.689   0.433   8.953 -0.1039  1.9058  0.2566
 6889SOL    HW232127   0.104   0.415   8.886 -0.1349  0.0923  0.1207
 6890SOL     OW32128   2.133   2.152  15.676 -0.4843  0.2561  0.2826
 6890SOL    HW132129   2.119   2.085  15.742 -0.3259 -1.9650 -1.9603
 6890SOL    HW232130   2.051   2.201  15.685 -0.9785 -0.1495 -2.0311
 6891SOL     OW32131   2.428   2.813   5.461  0.1850  0.5444 -0.0252
 6891SOL    HW132132   2.405   2.886   5.404  0.0779 -0.1218 -0.8429
 6891SOL    HW232133   2.523   2.826   5.469  0.0952  1.2333 -0.0903
 6892SOL     OW32134   0.303   1.679   3.941 -0.0010  0.0584  0.0442
 6892SOL    HW132135   0.300   1.745   3.872 -1.0211 -0.8977 -0.8406
 6892SOL    HW232136   0.231   1.711   3.995 -0.3735  0.5103 -0.7350
 6893SOL     OW32137   2.767   3.894   5.138 -0.5425  0.6176 -0.4546
 6893SOL    HW132138   2.786   3.817   5.085  0.8119 -1.3567  2.9196
 6893SOL    HW232139   2.852   3.915   5.175  1.2972 -1.9570 -3.2310
 6894SOL     OW32140   2.494   3.741   1.567 -0.7663 -0.4297 -0.6773
 6894SOL    HW132141   2.427   3.804   1.593  1.4238  1.1329  1.1303
 6894SOL    HW232142   2.441   3.662   1.550 -0.4067 -0.7268 -0.4170
 6895SOL     OW32143   1.369   1.976   7.675  0.4731 -0.2001 -0.1596
 6895SOL    HW132144   1.420   1.903   7.712  1.9289 -0.2071 -2.1733
 6895SOL    HW232145   1.429   2.050   7.676 -0.6994  0.7333  0.6872
 6896SOL     OW32146   3.794   3.609  10.109 -0.3628 -0.5746  0.7177
 6896SOL    HW132147   3.873   3.609  10.054 -1.5328 -1.4444 -0.9372
 6896SOL    HW232148   3.766   3.518  10.098  3.2233 -1.3957 -1.7492
 6897SOL     OW32149   2.441   1.504   4.091 -0.0776  0.4268 -0.3427
 6897SOL    HW132150   2.393   1.457   4.023 -1.1557  0.3009  0.5121
 6897SOL    HW232151   2.520   1.450   4.095 -1.3248 -1.5443 -2.4857
 6898SOL     OW32152   1.871   3.632   8.462 -0.4724 -0.0312 -0.2325
 6898SOL    HW132153   1.790   3.665   8.422 -0.0073  0.4440 -0.7745
 6898SOL    HW232154   1.867   3.686   8.541  1.2701  1.0374 -0.8752
 6899SOL     OW32155   0.674   2.088   2.191 -0.3062 -0.0155  0.5483
 6899SOL    HW132156   0.598   2.110   2.136 -0.2911  0.2348  0.6260
 6899SOL    HW232157   0.716   2.170   2.218 -0.7800  0.3310  0.2508
 6900SOL     OW32158   0.069   3.899   2.578  0.0737  0.3812 -0.1906
 6900SOL    HW132159   0.101   3.819   2.620  1.5692  1.4940  0.8221
 6900SOL    HW232160   0.125   3.895   2.501 -0.8708  2.3947 -0.9928
 6901SOL     OW32161   3.188   2.436   7.132 -0.1020 -0.2264  0.2662
 6901SOL    HW132162   3.107   2.415   7.178  0.4644 -0.7188  1.0473
 6901SOL    HW232163   3.188   2.366   7.067 -1.2649 -0.5194  0.5745
 6902SOL     OW32164   1.979   0.139   3.583  0.2155 -0.1454  0.3486
 6902SOL    HW132165   1.976   0.043   3.583  1.1800 -0.1856 -0.8600
 6902SOL    HW232166   2.048   0.149   3.517  0.7922  1.2841  1.1535
 6903SOL     OW32167   4.631   3.787   7.185 -0.1126 -0.1637 -0.8454
 6903SOL    HW132168   4.677   3.829   7.257  0.4497  0.8506 -1.7986
 6903SOL    HW232169   4.641   3.692   7.195  1.8746  0.1309 -0.1964
 6904SOL     OW32170   2.232   4.093   1.055 -0.2999  0.8397 -0.3200
 6904SOL    HW132171   2.247   4.048   0.972  0.1229 -1.8455  1.2082
 6904SOL    HW232172   2.308   4.068   1.106  0.3266  1.3848 -0.9815
 6905SOL     OW32173   1.682   1.599  10.764 -0.0955 -0.0420 -0.2393
 6905SOL    HW132174   1.701   1.693  10.758 -1.2761  0.2148  0.0810
 6905SOL    HW232175   1.721   1.563  10.685 -0.0735 -0.1344 -0.1871
 6906SOL     OW32176   3.200   4.693   1.417  0.3132 -0.3296  0.0814
 6906SOL    HW132177   3.113   4.718   1.384  1.6747  3.0583 -0.9563
 6906SOL    HW232178   3.221   0.056   1.447 -2.7671 -0.1648  1.7182
 6907SOL     OW32179   4.151   0.375   9.826 -0.2021 -0.1975 -0.0499
 6907SOL    HW132180   4.082   0.369   9.760 -1.9971  0.4801  1.7661
 6907SOL    HW232181   4.099   0.344   9.900  0.0641 -0.0520  0.1958
 6908SOL     OW32182   1.297   3.941  12.928 -1.0950 -0.4349 -0.3100
 6908SOL    HW132183   1.266   3.983  13.008  1.2589  0.4653  0.1250
 6908SOL    HW232184   1.252   3.991  12.861  0.9572  0.2365 -1.2060
 6909SOL     OW32185   1.020   0.309   6.858 -0.4954  0.6518  0.0193
 6909SOL    HW132186   0.950   0.291   6.795  0.2215 -1.9043 -0.0107
 6909SOL    HW232187   1.001   0.251   6.931 -1.6474 -1.2465 -1.8167
 6910SOL     OW32188   1.725   2.917   3.464  0.1262 -0.1433 -0.2214
 6910SOL    HW132189   1.711   2.823   3.453 -1.8583  0.3374 -1.7065
 6910SOL    HW232190   1.811   2.926   3.422 -1.1447  0.6675 -2.6169
 6911SOL     OW32191   2.490   2.682   4.536  0.1452 -0.4292  0.1921
 6911SOL    HW132192   2.459   2.702   4.448  1.2434 -0.3995 -0.1953
 6911SOL    HW232193   2.561   2.618   4.523  0.6344 -0.1539  1.4693
 6912SOL     OW32194   2.385   3.731   2.600  0.0949  0.7409  0.0194
 6912SOL    HW132195   2.442   3.776   2.663 -0.1088  0.5584  0.3371
 6912SOL    HW232196   2.432   3.718   2.518 -3.1169  1.3067 -1.9170
 6913SOL     OW32197   0.693   0.094  15.907 -0.2034  0.0167 -0.2141
 6913SOL    HW132198   0.709   0.104  16.001  2.0611 -2.8141 -0.2802
 6913SOL    HW232199   0.777   0.050  15.889  0.7206  1.2921  0.9186
 6914SOL     OW32200   3.406   4.497   5.449  0.0371 -0.3485  0.2368
 6914SOL    HW132201   3.436   4.469   5.536  0.5165 -1.3912 -0.2647
 6914SOL    HW232202   3.326   4.541   5.478  0.5792 -1.6037  3.7015
 6915SOL     OW32203   3.227   1.952   7.156  0.2308 -0.4736 -0.1975
 6915SOL    HW132204   3.207   1.878   7.214 -0.6027  0.5065  0.7585
 6915SOL    HW232205   3.233   2.015   7.228 -1.6762 -0.7502  0.1846
 6916SOL     OW32206   1.932   2.303   2.414  0.1875  0.1382 -0.2790
 6916SOL    HW132207   1.932   2.281   2.507 -2.0364 -0.6740 -0.4813
 6916SOL    HW232208   1.964   2.393   2.421  0.1848  0.1918 -1.0452
 6917SOL     OW32209   1.770   1.107   8.010  0.1396 -0.2721  0.0708
 6917SOL    HW132210   1.865   1.096   8.013 -0.1024 -2.0127  1.4070
 6917SOL    HW232211   1.769   1.151   8.095  0.8388 -1.4300  0.6788
 6918SOL     OW32212   3.831   2.500   8.736 -0.1806  0.3285  0.2302
 6918SOL    HW132213   3.830   2.410   8.768  1.2252  1.1688  2.5877
 6918SOL    HW232214   3.896   2.534   8.797 -1.6717  0.5975  1.6776
 6919SOL     OW32215   3.683   0.943   8.388 -0.2584  0.5585  0.1073
 6919SOL    HW132216   3.589   0.932   8.374 -0.2153  2.7505 -1.8297
 6919SOL    HW232217   3.716   0.995   8.315 -3.3677  0.1653 -1.5540
 6920SOL     OW32218   4.292   1.886   6.104 -0.0037  0.3088  0.0835
 6920SOL    HW132219   4.341   1.805   6.119  0.9648  0.9118  0.1644
 6920SOL    HW232220   4.227   1.884   6.174 -0.1011  0.8613  0.0005
 6921SOL     OW32221   0.975   2.947  12.135  0.0318  0.1701 -0.2663
 6921SOL    HW132222   1.057   2.913  12.171 -0.9866 -1.8637  0.1680
 6921SOL    HW232223   0.994   2.930  12.043 -1.2060 -0.8985 -0.3281
 6922SOL     OW32224   3.425   2.109  12.062 -0.2128 -0.2934  0.0981
 6922SOL    HW132225   3.448   2.065  11.979 -2.3234  0.2238 -0.7551
 6922SOL    HW232226   3.510   2.105  12.106 -0.2066 -3.7425 -0.1520
 6923SOL     OW32227   4.227   3.640   7.187  0.0504 -0.2558  1.0502
 6923SOL    HW132228   4.303   3.589   7.160  0.7881  1.0059  0.7496
 6923SOL    HW232229   4.160   3.590   7.141  0.2255 -1.7450  2.3752
 6924SOL     OW32230   0.991   1.159   0.702 -0.0757  0.4007  0.2915
 6924SOL    HW132231   0.958   1.121   0.620  1.4709  0.5923 -0.4276
 6924SOL    HW232232   1.065   1.101   0.719  1.1798  2.1708  0.8339
 6925SOL     OW32233   2.435   2.207  12.611 -0.2910 -0.6363 -0.0210
 6925SOL    HW132234   2.527   2.182  12.616 -1.1110 -3.2709  1.3591
 6925SOL    HW232235   2.401   2.150  12.678 -0.9273 -0.7504 -0.4419
 6926SOL     OW32236   2.103   1.394   4.338 -0.4811  0.2896  0.7201
 6926SOL    HW132237   2.081   1.418   4.428 -0.7096 -2.5780  1.4431
 6926SOL    HW232238   2.173   1.456   4.320  0.6220 -1.6130 -1.5054
 6927SOL     OW32239   0.456   0.738   0.940 -1.0476  0.5367  0.2790
 6927SOL    HW132240   0.424   0.701   1.022 -1.0406  0.1614  0.1100
 6927SOL    HW232241   0.375   0.764   0.896  0.1631  0.6610 -1.9036
 6928SOL     OW32242   1.335   3.050   0.052  0.1822 -0.4670  0.4871
 6928SOL    HW132243   1.331   3.134   0.097  1.4618 -0.0626 -0.1561
 6928SOL    HW232244   1.383   2.996   0.116  0.7138 -0.1513  0.3568
 6929SOL     OW32245   2.875   0.354   7.937 -0.1076 -0.1872 -0.0135
 6929SOL    HW132246   2.833   0.414   7.876  2.0794  2.1495  0.7619
 6929SOL    HW232247   2.880   0.283   7.873  0.7322  1.7820 -2.1496
 6930SOL     OW32248   4.382   1.813   4.529  0.9681  0.0855 -0.4578
 6930SOL    HW132249   4.449   1.750   4.500  0.4805 -0.5524 -0.1727
 6930SOL    HW232250   4.438   1.889   4.547 -0.3163  1.0938 -0.7629
 6931SOL     OW32251   2.199   2.176  16.154  0.0673 -0.8438 -0.3772
 6931SOL    HW132252   2.126   2.161  16.213  1.2413 -1.7223  0.8443
 6931SOL    HW232253   2.168   2.255  16.109 -2.7139 -0.4611  2.2319
 6932SOL     OW32254   3.284   4.151  13.067 -0.1986  0.4206 -0.5656
 6932SOL    HW132255   3.253   4.103  13.144  2.2383 -2.4795 -1.3888
 6932SOL    HW232256   3.221   4.221  13.054 -0.1741  0.1039 -2.4007
 6933SOL     OW32257   3.829   3.831   5.988  0.2003  0.3102  0.1578
 6933SOL    HW132258   3.856   3.871   6.070  1.0855 -1.3777  0.6763
 6933SOL    HW232259   3.838   3.736   6.000  0.5980  0.1639 -1.1968
 6934SOL     OW32260   3.439   3.985   7.570 -0.2946 -0.2511  0.1315
 6934SOL    HW132261   3.504   3.973   7.500 -1.9469 -4.9867 -0.5781
 6934SOL    HW232262   3.495   4.039   7.625  0.2581 -0.0901 -0.5830
 6935SOL     OW32263   3.906   3.454   6.838 -0.0038  0.2432 -0.2655
 6935SOL    HW132264   3.821   3.461   6.795  0.4653  0.1198 -1.2241
 6935SOL    HW232265   3.953   3.402   6.772 -1.0768 -2.2376  0.9217
 6936SOL     OW32266   1.383   3.307  13.133  0.0101  0.1781 -0.3647
 6936SOL    HW132267   1.465   3.336  13.173 -0.9946  0.1636  1.6892
 6936SOL    HW232268   1.404   3.303  13.039  1.4996 -2.3412  0.0725
 6937SOL     OW32269   1.721   0.604  13.728 -0.2754  0.0877 -0.2852
 6937SOL    HW132270   1.643   0.587  13.780 -0.1993 -1.3257 -0.6262
 6937SOL    HW232271   1.789   0.636  13.788 -1.2394 -1.5352  1.6716
 6938SOL     OW32272   2.707   4.560   0.242  0.1617  0.1032  0.6303
 6938SOL    HW132273   2.627   4.601   0.273 -0.0638  0.0147  0.1633
 6938SOL    HW232274   2.695   4.552   0.147 -2.2940  2.1297  0.7831
 6939SOL     OW32275   4.271   1.291   0.607  0.5213 -0.1216  0.2965
 6939SOL    HW132276   4.332   1.283   0.681  0.3295 -0.7071  0.3894
 6939SOL    HW232277   4.184   1.281   0.646  0.3710  0.2905  0.0643
 6940SOL     OW32278   1.113   0.620   9.072 -0.1383 -0.4267  0.0921
 6940SOL    HW132279   1.106   0.709   9.035  1.4144 -0.2781  0.1589
 6940SOL    HW232280   1.026   0.588   9.049 -0.6976  0.1161  1.5005
 6941SOL     OW32281   3.552   3.999   3.010 -0.0027 -0.6579 -0.2245
 6941SOL    HW132282   3.481   4.006   3.073 -0.0451  0.9104 -0.4445
 6941SOL    HW232283   3.586   4.088   3.009  1.0139 -1.0425  0.2959
 6942SOL     OW32284   4.267   0.038  11.198  0.2175  0.1374  0.2870
 6942SOL    HW132285   4.252   0.038  11.292  0.3107  2.3816  0.2823
 6942SOL    HW232286   4.350   0.083  11.183  0.4301  0.1305  1.4680
 6943SOL     OW32287   1.224   0.836   7.423 -0.3481  0.8739 -0.2984
 6943SOL    HW132288   1.204   0.910   7.482  0.2902 -0.1059  1.1475
 6943SOL    HW232289   1.179   0.773   7.480 -0.4402 -1.4954 -3.0150
 6944SOL     OW32290   1.342   3.591  16.050  0.0356  0.4642 -0.7087
 6944SOL    HW132291   1.263   3.583  15.996 -1.3201 -1.3717  1.5269
 6944SOL    HW232292   1.394   3.656  16.003  4.2071 -2.7584 -0.5764
 6945SOL     OW32293   1.643   3.711   8.173 -0.3426  0.0273 -0.6944
 6945SOL    HW132294   1.584   3.733   8.102 -2.5778 -0.3832  1.0421
 6945SOL    HW232295   1.571   3.697   8.235 -0.0907  0.7728 -0.2350
 6946SOL     OW32296   0.670   3.013   2.505  0.0309  0.2353  0.3959
 6946SOL    HW132297   0.737   3.080   2.492  1.4643 -0.9469  1.7107
 6946SOL    HW232298   0.697   2.942   2.446 -0.5541  0.1290  0.2556
 6947SOL     OW32299   2.000   1.806   4.781 -0.7959  0.4124  0.5083
 6947SOL    HW132300   1.949   1.733   4.818  0.2164 -0.2873  0.5198
 6947SOL    HW232301   2.090   1.784   4.805 -0.4112  1.3429 -0.1269
 6948SOL     OW32302   2.705   0.471   4.549 -0.0158 -0.4318 -1.1269
 6948SOL    HW132303   2.718   0.475   4.643  0.1322  0.2705 -1.1754
 6948SOL    HW232304   2.723   0.384   4.514 -0.3296  0.1571 -2.7598
 6949SOL     OW32305   0.091   3.801   9.364 -0.1464 -0.5768 -0.5478
 6949SOL    HW132306   0.107   3.802   9.458 -0.3588 -1.2446 -0.4993
 6949SOL    HW232307   0.093   3.893   9.339  2.0421 -1.2276 -2.7823
 6950SOL     OW32308   3.010   4.048  15.804  0.2929  0.2839  0.3436
 6950SOL    HW132309   2.935   4.050  15.863  2.0088 -1.1554  2.5204
 6950SOL    HW232310   3.051   3.972  15.843  0.6512  0.9924  1.3387
 6951SOL     OW32311   2.869   0.472  15.341  0.0626  0.0844  0.1608
 6951SOL    HW132312   2.868   0.380  15.369 -1.5323 -0.3044 -1.1866
 6951SOL    HW232313   2.780   0.506  15.337  0.7884  1.9676 -0.1676
 6952SOL     OW32314   0.369   0.598  13.541  0.0540 -0.4565  0.8111
 6952SOL    HW132315   0.366   0.679  13.491 -2.5136 -0.5366  0.8524
 6952SOL    HW232316   0.464   0.595  13.530 -0.1870 -1.6829 -0.8289
 6953SOL     OW32317   4.532   1.831  13.993 -0.0889  0.1500 -0.3448
 6953SOL    HW132318   4.506   1.855  14.082  3.2537  0.7430  0.4782
 6953SOL    HW232319   4.486   1.891  13.935  0.8744 -0.2663 -1.5293
 6954SOL     OW32320   3.566   1.873   4.937 -0.0425 -0.6859  0.2438
 6954SOL    HW132321   3.573   1.778   4.924  2.5949 -0.1642 -2.0945
 6954SOL    HW232322   3.582   1.908   4.850 -2.7972 -1.4937 -0.5891
 6955SOL     OW32323   2.488   2.131   6.429  0.3540  0.3817  0.3017
 6955SOL    HW132324   2.514   2.189   6.357 -0.7191 -2.2189 -2.2011
 6955SOL    HW232325   2.566   2.145   6.483  1.2442  3.2945 -1.7391
 6956SOL     OW32326   3.410   1.282   3.520  0.9203  0.3060  0.3625
 6956SOL    HW132327   3.378   1.330   3.444  2.5147 -3.5562 -2.7205
 6956SOL    HW232328   3.413   1.356   3.581 -0.0521  1.2452 -0.7555
 6957SOL     OW32329   2.749   4.617   2.753 -0.2394 -0.0572  0.6032
 6957SOL    HW132330   2.798   4.536   2.769 -0.5153  0.1331  2.4590
 6957SOL    HW232331   2.782   4.671   2.825 -3.3009 -0.0543  2.0228
 6958SOL     OW32332   1.495   3.354  15.175 -0.2099 -0.6030  0.2340
 6958SOL    HW132333   1.523   3.440  15.144 -2.5567  0.6399  1.5636
 6958SOL    HW232334   1.560   3.345  15.244  0.7796 -1.1185 -0.7584
 6959SOL     OW32335   3.577   3.287  12.376  0.3608 -0.5347 -0.0915
 6959SOL    HW132336   3.651   3.256  12.429  0.5454  0.1828  0.0726
 6959SOL    HW232337   3.612   3.286  12.287 -0.4513  0.8216 -0.4259
 6960SOL     OW32338   0.065   1.407   7.267 -0.2986  0.8519 -0.6244
 6960SOL    HW132339   0.112   1.490   7.260 -0.6858  1.0092 -1.2808
 6960SOL    HW232340   0.010   1.418   7.344  0.1756  0.2552 -0.1892
 6961SOL     OW32341   3.412   2.252   8.249 -0.0016 -0.1039 -0.0450
 6961SOL    HW132342   3.404   2.334   8.201  2.7666  0.1831  0.0062
 6961SOL    HW232343   3.382   2.272   8.338  1.7655  0.6029  0.3905
 6962SOL     OW32344   2.785   2.845  10.920  0.2620  0.1401  0.6590
 6962SOL    HW132345   2.793   2.939  10.904 -2.5008  0.2456 -0.1684
 6962SOL    HW232346   2.764   2.854  11.013 -1.3634  3.3116 -0.0050
 6963SOL     OW32347   3.622   1.333   2.047  0.2731 -0.0583 -0.5357
 6963SOL    HW132348   3.550   1.372   2.096  0.8486 -0.7529  0.8672
 6963SOL    HW232349   3.642   1.257   2.102 -1.1579  0.0750  0.1794
 6964SOL     OW32350   1.279   0.129   4.255  0.0522 -0.0924  0.0913
 6964SOL    HW132351   1.220   0.195   4.217 -2.2152 -1.9040  0.4665
 6964SOL    HW232352   1.358   0.141   4.203  0.3005  0.6750  0.6407
 6965SOL     OW32353   1.603   4.432   6.163 -0.2034 -0.1628 -0.3950
 6965SOL    HW132354   1.630   4.457   6.252  1.4817  0.3654 -1.0519
 6965SOL    HW232355   1.522   4.385   6.183  1.3807 -2.6630  0.1328
 6966SOL     OW32356   1.742   0.723   9.044 -0.0969 -0.0374  0.2648
 6966SOL    HW132357   1.664   0.668   9.049 -0.2380  0.4478  3.4176
 6966SOL    HW232358   1.805   0.650   9.045 -0.6319 -0.4863  2.4333
 6967SOL     OW32359   2.005   1.020   6.679 -0.3264  0.4637 -0.2203
 6967SOL    HW132360   1.983   1.079   6.607 -0.8549 -0.8074 -1.1065
 6967SOL    HW232361   2.097   0.999   6.659 -0.4303  0.7731 -0.9964
 6968SOL     OW32362   1.508   3.787   6.035  0.4035 -0.4098  0.9531
 6968SOL    HW132363   1.458   3.817   5.959  2.0791  1.3878  0.5384
 6968SOL    HW232364   1.440   3.796   6.101 -1.4627  1.0532 -1.1618
 6969SOL     OW32365   3.946   3.041  17.540  0.6375 -0.1796  0.1136
 6969SOL    HW132366   3.998   3.076  17.612 -0.8054  1.2890  0.4347
 6969SOL    HW232367   3.988   2.955  17.537  1.5197  0.3048 -1.2253
 6970SOL     OW32368   3.209   2.824   9.724 -0.1613  0.7341  0.4003
 6970SOL    HW132369   3.251   2.739   9.735  1.8580  1.8655  1.3574
 6970SOL    HW232370   3.172   2.818   9.636  1.1025  3.3308 -0.2948
 6971SOL     OW32371   2.610   2.870   4.739 -0.2198 -0.4848 -0.1610
 6971SOL    HW132372   2.610   2.815   4.817  1.8477  0.7094  0.6908
 6971SOL    HW232373   2.562   2.813   4.679  2.8670 -2.2251 -1.0033
 6972SOL     OW32374   1.422   4.216   7.121  0.3493 -0.4386  0.4441
 6972SOL    HW132375   1.502   4.268   7.127 -0.3382  0.5885  0.6301
 6972SOL    HW232376   1.420   4.198   7.027 -0.5269 -2.9279  0.9295
 6973SOL     OW32377   3.127   1.795   4.380  0.4005  0.1046  0.4252
 6973SOL    HW132378   3.102   1.884   4.405  0.1615  0.2514 -0.3291
 6973SOL    HW232379   3.046   1.745   4.388 -0.7535  1.4656 -2.5666
 6974SOL     OW32380   0.346   1.488   7.971  0.4415 -0.2064  0.2437
 6974SOL    HW132381   0.297   1.558   8.014  0.6779  0.3426 -0.3805
 6974SOL    HW232382   0.437   1.516   7.983  0.6451 -0.1199 -1.5784
 6975SOL     OW32383   1.974   3.016  12.615 -0.3597  0.4356 -0.0114
 6975SOL    HW132384   1.912   3.089  12.620 -0.0952  0.6854 -0.4433
 6975SOL    HW232385   1.948   2.968  12.537 -0.0723 -1.4419  1.0428
 6976SOL     OW32386   1.767   4.394  12.496  0.1042  0.8307  0.4121
 6976SOL    HW132387   1.772   4.300  12.476 -1.5525  0.6162  1.0550
 6976SOL    HW232388   1.832   4.424  12.433  1.4608  1.3857  2.0579
 6977SOL     OW32389   4.662   3.962   2.014 -0.0156  0.1201 -0.2836
 6977SOL    HW132390   4.589   4.024   2.010  1.2015  1.5385 -0.9548
 6977SOL    HW232391   0.009   4.025   2.013 -0.3112  0.4426 -1.9034
 6978SOL     OW32392   1.960   4.596   5.757  0.0631  0.3924 -0.2469
 6978SOL    HW132393   2.011   4.676   5.740 -0.1538  0.4972 -0.4067
 6978SOL    HW232394   1.889   4.621   5.816  2.0913 -0.1295  2.3880
 6979SOL     OW32395   2.353   1.037   8.252 -0.1110  0.1916  0.2835
 6979SOL    HW132396   2.367   0.947   8.283  0.7707  0.3751  0.4096
 6979SOL    HW232397   2.366   1.032   8.157  0.3668 -1.0454  0.4164
 6980SOL     OW32398   1.403   2.063  15.799  0.8143 -0.0410  0.0243
 6980SOL    HW132399   1.485   2.017  15.784  1.7776  1.7325 -0.1133
 6980SOL    HW232400   1.391   2.100  15.712  0.6397  1.2919  0.6116
 6981SOL     OW32401   0.742   1.861  10.388  0.1353  0.3884  0.1224
 6981SOL    HW132402   0.750   1.769  10.363  1.7671  0.0975  1.7644
 6981SOL    HW232403   0.717   1.852  10.479  3.0022 -0.2234  0.8390
 6982SOL     OW32404   3.360   4.173   1.905  0.3151 -0.0476 -0.5227
 6982SOL    HW132405   3.340   4.167   1.998  0.5940  0.1355 -0.4497
 6982SOL    HW232406   3.354   4.086   1.865 -1.0025 -0.0875 -0.2337
 6983SOL     OW32407   0.556   2.006   2.657 -0.3173 -0.5324  0.0233
 6983SOL    HW132408   0.543   2.013   2.562  0.5855  0.6633 -0.0029
 6983SOL    HW232409   0.475   1.960   2.681  0.0764 -2.1028 -1.5922
 6984SOL     OW32410   3.174   1.021   9.198  0.3758 -0.2776  0.3536
 6984SOL    HW132411   3.138   1.105   9.172 -2.0447 -1.2611  0.5176
 6984SOL    HW232412   3.266   1.022   9.172  0.0706  0.3706 -0.7054
 6985SOL     OW32413   4.336   4.431   5.891  0.0268  0.1845  0.0360
 6985SOL    HW132414   4.328   4.350   5.942 -1.5818  0.1475 -0.2870
 6985SOL    HW232415   4.242   4.445   5.883 -0.2575 -1.1645  0.9482
 6986SOL     OW32416   1.555   2.367  13.640 -0.1431 -0.1374 -0.1099
 6986SOL    HW132417   1.527   2.448  13.599 -0.4381  0.5778  1.4937
 6986SOL    HW232418   1.594   2.321  13.566 -0.4601  0.6469 -0.7642
 6987SOL     OW32419   2.247   1.714   1.672  0.5689  0.1323  0.5402
 6987SOL    HW132420   2.291   1.711   1.757 -2.3584  0.1248  2.0573
 6987SOL    HW232421   2.208   1.628   1.655 -0.3076 -0.0607  3.5158
 6988SOL     OW32422   4.003   4.184   5.525  0.2159 -0.1065 -0.6715
 6988SOL    HW132423   4.049   4.268   5.523 -1.8349  1.0277 -0.4336
 6988SOL    HW232424   4.070   4.125   5.490 -0.7987 -0.9918 -1.0894
 6989SOL     OW32425   4.595   3.347   0.589 -0.0968  0.7420 -0.0697
 6989SOL    HW132426   4.642   3.360   0.507 -1.0077 -0.8650 -0.8300
 6989SOL    HW232427   4.555   3.261   0.581  0.8174  0.2813  0.2762
 6990SOL     OW32428   3.528   3.404  10.498  0.1007  0.2679 -0.2185
 6990SOL    HW132429   3.583   3.353  10.438  1.1682  1.3537 -0.1489
 6990SOL    HW232430   3.448   3.352  10.490 -0.2319  0.5960  1.0860
 6991SOL     OW32431   0.660   1.350   2.181 -0.0324 -0.1168 -0.0256
 6991SOL    HW132432   0.659   1.324   2.089  1.3149  0.5449 -0.2339
 6991SOL    HW232433   0.585   1.409   2.183 -2.0006 -2.7280  2.0904
 6992SOL     OW32434   0.754   3.478  15.407 -0.0813  0.1243 -0.1251
 6992SOL    HW132435   0.793   3.566  15.411 -0.4184  0.2417  0.7094
 6992SOL    HW232436   0.794   3.427  15.477  1.3274 -1.7650 -2.3331
 6993SOL     OW32437   0.221   1.936   5.421  0.0174 -0.6048 -0.2719
 6993SOL    HW132438   0.157   1.983   5.367 -0.0280 -0.4953 -0.1232
 6993SOL    HW232439   0.216   1.850   5.380  1.5571 -1.0332  0.4253
 6994SOL     OW32440   1.977   0.767  15.804  0.6532 -0.0448  0.4387
 6994SOL    HW132441   1.975   0.696  15.868  2.6198  0.0474  0.6174
 6994SOL    HW232442   1.955   0.839  15.864  0.2347  0.8645 -0.8081
 6995SOL     OW32443   3.904   1.101  17.005  0.4482  0.3234 -0.0782
 6995SOL    HW132444   3.902   1.197  17.002 -1.4862  0.2948  0.1159
 6995SOL    HW232445   3.982   1.071  17.051  2.1110  1.8196 -1.9132
 6996SOL     OW32446   3.972   3.866  12.318  0.4383  0.1956 -0.3407
 6996SOL    HW132447   4.045   3.893  12.261 -2.0403  2.4954 -2.4245
 6996SOL    HW232448   3.993   3.928  12.388  0.1944  0.1724 -0.2469
 6997SOL     OW32449   3.941   3.151   3.467 -0.6360  0.2543  0.4746
 6997SOL    HW132450   3.940   3.179   3.375  0.2325 -0.5279  0.2245
 6997SOL    HW232451   3.928   3.232   3.517  1.0229  0.5190  0.4774
 6998SOL     OW32452   2.311   0.344   2.597  0.0102 -0.4604 -0.2132
 6998SOL    HW132453   2.347   0.257   2.580  0.8464 -0.3801  1.1561
 6998SOL    HW232454   2.242   0.343   2.530 -1.0235 -1.8496  0.8640
 6999SOL     OW32455   2.446   0.894   5.470 -0.9059 -0.0378 -0.0988
 6999SOL    HW132456   2.536   0.922   5.451 -0.7819 -0.7979 -0.6497
 6999SOL    HW232457   2.429   0.866   5.380  1.5256 -0.5784 -0.3973
 7000SOL     OW32458   1.288   4.510   2.904  0.0658 -0.0567  0.2993
 7000SOL    HW132459   1.371   4.507   2.857  1.3795  0.2643  2.6203
 7000SOL    HW232460   1.306   4.582   2.965 -0.0184  0.9611 -0.8898
 7001SOL     OW32461   1.243   1.781  10.921 -0.2999 -0.1725 -0.4728
 7001SOL    HW132462   1.183   1.730  10.976  2.1128 -1.9354  0.5455
 7001SOL    HW232463   1.318   1.722  10.910  0.5970  0.5542  1.8696
 7002SOL     OW32464   3.430   0.825   8.378  0.1701  0.3940  0.3045
 7002SOL    HW132465   3.402   0.739   8.409  0.4465  0.6007  1.1388
 7002SOL    HW232466   3.348   0.873   8.385 -1.6485 -2.9619  1.9295
 7003SOL     OW32467   2.472   2.751   2.353  0.1431 -0.5390  0.3930
 7003SOL    HW132468   2.396   2.766   2.298 -0.4633 -2.1235  0.8054
 7003SOL    HW232469   2.511   2.837   2.371 -1.4077 -0.0158  1.2643
 7004SOL     OW32470   0.000   1.791   8.327 -0.0978 -0.1466 -0.4266
 7004SOL    HW132471   4.665   1.852   8.369  2.4338  1.2021  1.2628
 7004SOL    HW232472   4.668   1.737   8.273 -0.7678 -0.6109  0.7604
 7005SOL     OW32473   1.423   4.323   6.324 -0.1259  0.1196 -0.0347
 7005SOL    HW132474   1.436   4.229   6.336  0.4174  0.2509  0.4056
 7005SOL    HW232475   1.360   4.346   6.393  1.1787  1.9317  0.5743
 7006SOL     OW32476   1.888   1.893   8.817  0.2955  0.1894  0.2954
 7006SOL    HW132477   1.974   1.904   8.855  1.5201 -0.2713 -2.3060
 7006SOL    HW232478   1.857   1.982   8.834 -1.5677 -0.1345 -1.3182
 7007SOL     OW32479   1.123   3.275  11.103  0.0042  0.2520 -0.0473
 7007SOL    HW132480   1.035   3.278  11.067 -0.0140 -1.9568 -0.1667
 7007SOL    HW232481   1.154   3.358  11.066  0.8118  0.1778  0.4531
 7008SOL     OW32482   0.743   2.604   1.562  0.0138  0.0016 -0.2677
 7008SOL    HW132483   0.739   2.652   1.645 -2.1772 -1.8110  0.6743
 7008SOL    HW232484   0.817   2.544   1.576  0.5696  0.7765  0.0963
 7009SOL     OW32485   2.691   3.408   4.739  0.2152 -0.2011 -0.2488
 7009SOL    HW132486   2.751   3.425   4.812 -0.3127 -0.1982  0.1819
 7009SOL    HW232487   2.700   3.313   4.733  3.5688 -0.0339  1.7460
 7010SOL     OW32488   2.031   0.820   1.817 -0.1119  0.5520 -0.2436
 7010SOL    HW132489   2.119   0.856   1.814  0.2438 -0.5284 -3.0903
 7010SOL    HW232490   2.051   0.731   1.846  1.2213  0.3925 -1.6703
 7011SOL     OW32491   0.872   0.017  16.863 -0.0365  0.8346 -0.1141
 7011SOL    HW132492   0.961   0.033  16.894 -0.5081  1.0899  1.1450
 7011SOL    HW232493   0.852   4.666  16.917  0.1905  1.3251  0.6644
 7012SOL     OW32494   4.642   4.160  15.394  0.2059 -0.0997  0.2208
 7012SOL    HW132495   4.712   4.210  15.352 -1.3585  1.6155 -0.3570
 7012SOL    HW232496   4.639   4.197  15.482  0.0784 -0.0949  0.2148
 7013SOL     OW32497   3.651   4.261  14.138 -0.7390 -0.4648 -0.2891
 7013SOL    HW132498   3.732   4.230  14.179 -0.8896 -0.0419  0.3404
 7013SOL    HW232499   3.655   4.351  14.172 -1.7044 -1.3929  2.2815
 7014SOL     OW32500   3.838   4.515   1.565  0.3719 -0.1685  0.1235
 7014SOL    HW132501   3.775   4.471   1.508  1.4876 -1.4900 -0.1158
 7014SOL    HW232502   3.828   4.453   1.637  4.1158 -0.6237  0.2812
 7015SOL     OW32503   0.158   2.723  11.678 -0.1211 -0.3638  0.2848
 7015SOL    HW132504   0.171   2.717  11.584 -0.7611  1.2958  0.0759
 7015SOL    HW232505   0.064   2.702  11.677 -0.0987 -0.2775 -2.2911
 7016SOL     OW32506   4.557   1.490   5.285 -0.0136  0.5579  0.3133
 7016SOL    HW132507   4.579   1.567   5.233 -1.0234 -0.1928 -1.2391
 7016SOL    HW232508   4.645   1.466   5.314  0.6000  1.3944 -0.8742
 7017SOL     OW32509   3.500   3.755  15.564  0.3007  0.5261 -0.0190
 7017SOL    HW132510   3.548   3.808  15.501  1.1932  0.5183  0.6435
 7017SOL    HW232511   3.482   3.676  15.514 -0.1560  1.6691 -1.6291
 7018SOL     OW32512   2.655   2.387   7.798  0.3429 -0.0720  0.6134
 7018SOL    HW132513   2.738   2.352   7.832  1.3998 -0.5064 -2.3663
 7018SOL    HW232514   2.619   2.419   7.881 -0.0519 -2.4585  1.3587
 7019SOL     OW32515   2.416   2.016   1.670 -0.4029 -0.9996 -0.0238
 7019SOL    HW132516   2.323   1.997   1.683 -0.4212 -2.3159 -1.9674
 7019SOL    HW232517   2.447   1.935   1.630 -0.7774 -1.0300 -0.2563
 7020SOL     OW32518   2.265   0.372   7.706 -0.3497 -0.5801 -0.0611
 7020SOL    HW132519   2.348   0.398   7.746  0.8527 -0.6865 -2.4526
 7020SOL    HW232520   2.207   0.446   7.721  0.6960 -0.6013  3.9463
 7021SOL     OW32521   0.930   3.095  15.806 -0.3168 -0.4275 -0.4524
 7021SOL    HW132522   0.837   3.109  15.822  0.0723  0.9323  0.6431
 7021SOL    HW232523   0.976   3.141  15.876  0.7337 -1.7506 -0.2744
 7022SOL     OW32524   0.878   3.704   6.190  0.1957 -0.4082 -0.3894
 7022SOL    HW132525   0.788   3.721   6.219  0.5114 -0.6374  0.7569
 7022SOL    HW232526   0.885   3.744   6.103  1.3135 -0.8859 -0.5139
 7023SOL     OW32527   2.642   1.075   3.835 -0.2260 -0.3701  0.4251
 7023SOL    HW132528   2.692   1.140   3.786  0.5416  0.3450  2.1536
 7023SOL    HW232529   2.705   1.069   3.907  0.2695 -0.6683 -0.0329
 7024SOL     OW32530   2.402   1.411   7.823 -0.4640  0.3324 -0.4727
 7024SOL    HW132531   2.366   1.329   7.857  0.6492 -0.4875 -1.2720
 7024SOL    HW232532   2.496   1.392   7.815 -0.1439  0.8806  1.9366
 7025SOL     OW32533   0.072   2.207   1.356 -0.1573  0.2358  0.2866
 7025SOL    HW132534   0.083   2.184   1.263 -1.0986 -0.4020  0.3349
 7025SOL    HW232535   0.116   2.292   1.348 -1.3424  0.8922  0.6980
 7026SOL     OW32536   3.498   4.682   8.421  0.3059 -0.2214  0.4423
 7026SOL    HW132537   3.567   4.692   8.355 -1.0679 -0.7255 -1.0710
 7026SOL    HW232538   3.454   4.597   8.412 -1.7825  0.6231  2.7992
 7027SOL     OW32539   3.599   3.712   1.960 -0.6499 -0.0252  0.3793
 7027SOL    HW132540   3.645   3.727   1.877  3.2890  0.8712  2.7477
 7027SOL    HW232541   3.530   3.659   1.921  0.1183 -1.8441  1.5326
 7028SOL     OW32542   3.835   0.507   2.247  0.2269 -0.3625 -0.7001
 7028SOL    HW132543   3.797   0.422   2.269 -0.6660 -0.1703 -1.5412
 7028SOL    HW232544   3.759   0.558   2.220  0.1318  1.0789  2.3081
 7029SOL     OW32545   2.331   1.740   4.447  0.0985  0.1072 -0.7681
 7029SOL    HW132546   2.318   1.691   4.528  1.3156 -0.0155 -0.6516
 7029SOL    HW232547   2.260   1.804   4.450  0.6385  0.5859  1.6000
 7030SOL     OW32548   4.050   0.898   8.628 -0.2293  0.2675  0.0914
 7030SOL    HW132549   4.124   0.840   8.648 -0.7628 -0.6989 -0.7912
 7030SOL    HW232550   3.990   0.889   8.702  2.6610 -0.8198  2.2778
 7031SOL     OW32551   3.178   4.143   2.992  0.1578  0.1049 -0.1368
 7031SOL    HW132552   3.193   4.049   2.996  0.3692  0.1911  0.9841
 7031SOL    HW232553   3.158   4.162   3.084  1.7836 -5.2261  1.3000
 7032SOL     OW32554   1.298   3.123   2.728  0.6755  0.4734 -0.3103
 7032SOL    HW132555   1.209   3.135   2.761  0.9455  0.8525  0.2847
 7032SOL    HW232556   1.294   3.035   2.691 -1.2170  1.3867 -2.2385
 7033SOL     OW32557   1.929   0.391   4.161 -0.1546 -0.7021  0.5928
 7033SOL    HW132558   1.966   0.321   4.107 -1.3276 -1.1564  0.3800
 7033SOL    HW232559   1.887   0.452   4.101 -2.7162 -2.4055  0.6531
 7034SOL     OW32560   3.456   1.535   2.850  0.0764  0.3048 -0.2742
 7034SOL    HW132561   3.364   1.511   2.866  0.0350 -0.5399 -1.8067
 7034SOL    HW232562   3.445   1.627   2.825 -1.2777 -0.2995 -1.8698
 7035SOL     OW32563   2.460   1.848   6.372  0.0556 -0.0644 -0.1026
 7035SOL    HW132564   2.489   1.938   6.358  1.8699 -0.4262  1.4229
 7035SOL    HW232565   2.485   1.839   6.463 -2.0105 -2.1530  0.2661
 7036SOL     OW32566   0.564   4.722   9.475 -0.5207 -0.3205  0.1595
 7036SOL    HW132567   0.632   4.725   9.542  0.4867  1.5673 -0.9547
 7036SOL    HW232568   0.544   4.629   9.467  1.4362 -0.3797 -3.9779
 7037SOL     OW32569   2.458   2.755   8.267  0.1863  0.5487  0.2640
 7037SOL    HW132570   2.514   2.700   8.321 -0.3977 -0.1717  0.1262
 7037SOL    HW232571   2.512   2.835   8.268  2.4888 -1.0532  3.1723
 7038SOL     OW32572   2.128   4.401   2.998 -0.3492 -0.2557 -0.1043
 7038SOL    HW132573   2.124   4.330   3.062 -0.9646  0.1638  0.3195
 7038SOL    HW232574   2.039   4.437   3.003  0.6996  2.2441  0.6731
 7039SOL     OW32575   2.479   0.331  13.695  0.0164  0.0972  0.7730
 7039SOL    HW132576   2.443   0.248  13.727  1.2040 -0.9596 -0.6426
 7039SOL    HW232577   2.457   0.387  13.770 -1.1954 -0.2679  0.6952
 7040SOL     OW32578   0.495   2.937   6.439 -0.1356  0.4769 -0.1434
 7040SOL    HW132579   0.578   2.900   6.410  1.3034  3.1213  0.5276
 7040SOL    HW232580   0.477   2.881   6.514  0.9843  1.3004  0.7391
 7041SOL     OW32581   2.137   2.278   1.889 -0.5746 -0.7926 -0.3689
 7041SOL    HW132582   2.054   2.302   1.848 -0.4674  1.7873  0.9534
 7041SOL    HW232583   2.188   2.300   1.812  0.2616  0.2220  0.4923
 7042SOL     OW32584   2.981   0.295   0.208  0.4172 -0.0447  0.3392
 7042SOL    HW132585   3.033   0.269   0.133  0.7183 -0.7834  0.8026
 7042SOL    HW232586   2.989   0.218   0.265 -0.7085  1.2475  2.2753
 7043SOL     OW32587   2.446   0.337  17.508  0.3611  0.4920  0.1195
 7043SOL    HW132588   2.368   0.319  17.560  0.1280 -2.5876 -1.2872
 7043SOL    HW232589   2.515   0.316  17.571 -1.8692 -3.4938  1.2404
 7044SOL     OW32590   4.466   3.485   7.061  0.2926  0.4791 -0.1494
 7044SOL    HW132591   4.536   3.488   7.127  2.9946 -1.7009 -2.9136
 7044SOL    HW232592   4.430   3.396   7.062 -0.7915  0.9581  2.3154
 7045SOL     OW32593   4.016   3.182   6.990 -0.3625 -0.0609  0.0050
 7045SOL    HW132594   4.017   3.105   7.047  0.9629 -0.2904 -0.3306
 7045SOL    HW232595   3.923   3.202   6.976 -0.2295  0.7642  0.2830
 7046SOL     OW32596   0.574   0.301   0.843 -1.0850 -0.3029 -0.5355
 7046SOL    HW132597   0.539   0.382   0.806  0.3460  0.9379  0.8669
 7046SOL    HW232598   0.658   0.324   0.883 -0.5059  1.9373 -3.0624
 7047SOL     OW32599   1.605   0.962   1.894 -0.0365  0.4045  0.4129
 7047SOL    HW132600   1.578   0.969   1.986 -1.9725  2.7525 -0.3302
 7047SOL    HW232601   1.698   0.981   1.910 -0.2379  0.7454  1.1739
 7048SOL     OW32602   3.106   1.549  11.686 -0.2386  0.1718  0.1035
 7048SOL    HW132603   3.019   1.590  11.680  0.0579  0.4070 -2.6741
 7048SOL    HW232604   3.127   1.522  11.597 -3.8431 -1.4081 -0.2618
 7049SOL     OW32605   3.653   1.167   8.891 -0.5774  0.6200  0.0707
 7049SOL    HW132606   3.591   1.232   8.923 -2.0283 -1.1009  0.7270
 7049SOL    HW232607   3.665   1.197   8.801 -0.3777 -0.0217 -0.1213
 7050SOL     OW32608   0.565   0.491   8.805  0.1107  0.5442 -0.1161
 7050SOL    HW132609   0.506   0.525   8.873  1.7774  1.9255  0.6389
 7050SOL    HW232610   0.552   0.398   8.821 -1.6406  0.7947 -0.0445
 7051SOL     OW32611   1.455   1.177  17.263  0.1922  0.1669  0.5703
 7051SOL    HW132612   1.419   1.238  17.328 -0.1445  1.7045 -1.0493
 7051SOL    HW232613   1.432   1.090  17.295  2.4089 -0.5802  0.1229
 7052SOL     OW32614   0.962   0.569  10.245 -0.0827  0.6959 -0.1932
 7052SOL    HW132615   1.000   0.656  10.236 -0.8944  1.2043  1.1141
 7052SOL    HW232616   1.022   0.511  10.199 -1.4207 -2.5864  2.2165
 7053SOL     OW32617   3.064   1.928   6.938 -0.3706  0.0160 -0.2748
 7053SOL    HW132618   3.095   1.912   7.027 -1.2956  1.7093  0.3424
 7053SOL    HW232619   2.990   1.868   6.933  1.1036 -1.9026  1.0582
 7054SOL     OW32620   2.360   0.842  13.529  0.4947  0.1503  0.0670
 7054SOL    HW132621   2.376   0.865  13.438 -1.7831 -0.4843 -0.4892
 7054SOL    HW232622   2.352   0.930  13.565  0.9715  0.3975 -0.4303
 7055SOL     OW32623   3.636   2.372   6.492 -0.1455 -0.1883 -0.1092
 7055SOL    HW132624   3.585   2.377   6.572  1.6089 -1.6662  1.1167
 7055SOL    HW232625   3.706   2.436   6.507  0.4463 -1.1781  1.3616
 7056SOL     OW32626   3.252   2.893   2.523 -0.4976  0.3522 -0.3832
 7056SOL    HW132627   3.329   2.852   2.483 -1.7120 -2.4298  0.0937
 7056SOL    HW232628   3.190   2.833   2.482 -0.1900  1.1778 -2.0338
 7057SOL     OW32629   0.900   1.076   0.446 -0.0141 -0.0730 -0.2011
 7057SOL    HW132630   0.809   1.064   0.474  0.4531  1.8493  2.1414
 7057SOL    HW232631   0.889   1.078   0.351  2.2952 -2.4757 -0.5340
 7058SOL     OW32632   1.077   4.415   2.515  0.0006  0.3110  0.3591
 7058SOL    HW132633   1.033   4.458   2.589  0.4860  0.5155  0.5290
 7058SOL    HW232634   1.080   4.322   2.534 -0.2327  0.6540  2.0265
 7059SOL     OW32635   3.670   1.670  14.811  0.1270 -0.0080  0.3975
 7059SOL    HW132636   3.685   1.653  14.904 -0.1401  1.1110  0.6491
 7059SOL    HW232637   3.580   1.638  14.817 -0.4577  1.6748  0.7503
 7060SOL     OW32638   1.121   0.878   6.401  0.4259  0.3591 -0.7840
 7060SOL    HW132639   1.168   0.960   6.415 -0.7572  0.9797 -0.4010
 7060SOL    HW232640   1.148   0.824   6.475  1.3782  1.4495 -0.3480
 7061SOL     OW32641   2.535   1.981   4.812  0.1102 -0.5020 -0.2760
 7061SOL    HW132642   2.599   1.957   4.878 -0.4888  2.0399  1.2191
 7061SOL    HW232643   2.449   1.975   4.853 -0.3062  0.0108 -1.0544
 7062SOL     OW32644   0.471   2.502  10.132 -0.0254 -0.6990  0.0123
 7062SOL    HW132645   0.497   2.593  10.146  1.6653 -1.4336  1.6091
 7062SOL    HW232646   0.499   2.476  10.044 -1.8593  0.4200 -0.9089
 7063SOL     OW32647   2.262   3.887   1.702  0.6330 -0.2408 -0.5764
 7063SOL    HW132648   2.208   3.937   1.641 -1.4905 -3.6472 -1.4295
 7063SOL    HW232649   2.204   3.854   1.771  0.5005  0.2707 -0.4400
 7064SOL     OW32650   1.895   4.552  10.601  0.3097  0.1303 -0.6016
 7064SOL    HW132651   1.860   4.603  10.674  1.2086  0.0140 -0.0766
 7064SOL    HW232652   1.877   4.611  10.528  0.4889  0.8772 -0.0481
 7065SOL     OW32653   2.657   3.708  14.671 -0.1573  0.2744 -0.0675
 7065SOL    HW132654   2.670   3.717  14.576  0.4942 -1.4139 -0.1446
 7065SOL    HW232655   2.572   3.749  14.684 -0.9556 -1.4710  0.2003
 7066SOL     OW32656   3.048   0.801   4.052 -0.5140  0.2360  0.2271
 7066SOL    HW132657   3.109   0.855   4.002  0.0983  2.1082  3.0063
 7066SOL    HW232658   2.970   0.807   3.995 -0.6413 -2.2063  0.1357
 7067SOL     OW32659   2.258   1.104   1.076 -0.2891 -0.0755  0.6226
 7067SOL    HW132660   2.293   1.016   1.062 -1.1779 -0.5133  1.1826
 7067SOL    HW232661   2.239   1.127   0.985 -1.3342  0.4363  0.9680
 7068SOL     OW32662   1.281   0.441   2.240  0.4127  0.0897  0.3005
 7068SOL    HW132663   1.246   0.530   2.231 -0.4531  0.1269  4.2228
 7068SOL    HW232664   1.249   0.431   2.329 -1.8316 -0.3878 -0.5726
 7069SOL     OW32665   3.135   3.602   8.725  0.0079  0.8711  0.2061
 7069SOL    HW132666   3.222   3.562   8.731 -0.6886 -0.7592 -0.6806
 7069SOL    HW232667   3.140   3.669   8.794 -1.5320  0.8674  0.3090
 7070SOL     OW32668   2.450   1.102   8.562  0.4226 -0.1143 -0.0462
 7070SOL    HW132669   2.414   1.022   8.601 -0.1832 -0.0517 -0.4757
 7070SOL    HW232670   2.428   1.089   8.470 -0.1312  1.5158 -0.1277
 7071SOL     OW32671   3.832   2.017   1.775 -0.6408 -0.7625  0.4362
 7071SOL    HW132672   3.817   2.099   1.821 -0.5811 -0.0547 -0.8039
 7071SOL    HW232673   3.791   1.964   1.844 -1.9572  0.0927  0.2994
 7072SOL     OW32674   3.680   0.302   8.017  0.1354  0.0057 -0.3430
 7072SOL    HW132675   3.650   0.381   7.972  0.9902  0.4323 -0.1744
 7072SOL    HW232676   3.591   0.289   8.050 -0.1778  0.9125 -0.8393
 7073SOL     OW32677   3.352   3.027   6.244 -0.0013  0.5852 -0.3926
 7073SOL    HW132678   3.344   3.015   6.338 -1.8071  2.2113 -0.3393
 7073SOL    HW232679   3.443   3.048   6.222  0.5399 -1.4052 -0.1329
 7074SOL     OW32680   2.081   1.532   6.212 -0.0138 -0.2874 -0.3226
 7074SOL    HW132681   2.140   1.459   6.195 -1.5605 -1.9203  1.3819
 7074SOL    HW232682   1.997   1.504   6.174  0.2818 -1.7162  0.0749
 7075SOL     OW32683   4.267   4.330   5.247  0.1373  0.1961 -0.6115
 7075SOL    HW132684   4.264   4.270   5.322  0.0846  3.3391  1.8995
 7075SOL    HW232685   4.239   4.271   5.177  0.3063 -0.2447 -0.3123
 7076SOL     OW32686   4.663   1.738   3.283  0.1642 -0.2331  0.0327
 7076SOL    HW132687   4.584   1.774   3.242 -0.3918 -2.8385 -1.1654
 7076SOL    HW232688   4.686   1.664   3.226 -0.0323  0.2073 -0.6229
 7077SOL     OW32689   0.701   0.330  14.925 -0.8508  0.3123 -0.2377
 7077SOL    HW132690   0.671   0.371  14.844 -2.2713 -3.1025 -1.4232
 7077SOL    HW232691   0.666   0.241  14.925  0.2142 -0.1084  0.9683
 7078SOL     OW32692   1.356   1.377  17.443  0.7779  0.0300  0.5106
 7078SOL    HW132693   1.271   1.348  17.474  0.6329  0.0068  0.0964
 7078SOL    HW232694   1.334   1.470  17.439  0.5773 -0.0377  0.0564
 7079SOL     OW32695   0.079   1.286   1.948 -0.7637 -0.3192  0.0116
 7079SOL    HW132696   4.721   1.333   1.944 -0.0898  0.9134  0.6395
 7079SOL    HW232697   0.125   1.345   2.007  0.2306  0.5296 -1.6032
 7080SOL     OW32698   3.316   2.322  11.783 -0.0660 -0.7214 -0.2541
 7080SOL    HW132699   3.287   2.235  11.807  2.3678 -1.5689 -0.4008
 7080SOL    HW232700   3.384   2.342  11.847  2.0826 -1.2125 -2.3738
 7081SOL     OW32701   2.463   1.820   7.088 -0.3987 -0.6277 -0.0589
 7081SOL    HW132702   2.504   1.749   7.038  0.8006  0.1595 -0.1859
 7081SOL    HW232703   2.386   1.830   7.033  0.0263  1.9643 -0.1821
 7082SOL     OW32704   3.962   3.674   7.009 -0.6253  0.0079 -0.2031
 7082SOL    HW132705   3.976   3.597   6.954 -1.1665 -0.2909  0.0769
 7082SOL    HW232706   4.017   3.740   6.968 -1.8480  1.1359 -0.0254
 7083SOL     OW32707   0.447   3.547  15.029 -0.0766 -0.2718 -0.4399
 7083SOL    HW132708   0.460   3.501  15.111 -1.6950 -2.8261 -1.6428
 7083SOL    HW232709   0.480   3.478  14.972  1.6890  1.1883 -1.2121
 7084SOL     OW32710   3.526   1.777   6.670 -0.2571 -0.4952 -0.3470
 7084SOL    HW132711   3.556   1.687   6.655 -1.3401 -0.5928 -1.9680
 7084SOL    HW232712   3.460   1.766   6.737  0.0795 -1.3047 -0.1528
 7085SOL     OW32713   3.277   3.220   5.549  0.5002  0.2761  0.1106
 7085SOL    HW132714   3.241   3.218   5.461 -0.5445  0.1328  0.5401
 7085SOL    HW232715   3.267   3.130   5.579 -1.7020  0.5546  0.2250
 7086SOL     OW32716   2.162   1.229  17.366  0.2840  0.1576  0.1604
 7086SOL    HW132717   2.086   1.233  17.425 -0.2532 -2.5748 -0.3583
 7086SOL    HW232718   2.132   1.302  17.312 -1.0626 -0.4230  0.1250
 7087SOL     OW32719   1.954   3.017   5.282 -0.3123  0.1504 -0.1921
 7087SOL    HW132720   1.859   3.005   5.278 -0.3694  0.8346 -0.8549
 7087SOL    HW232721   1.982   2.997   5.371 -0.0367 -1.0116 -0.5425
 7088SOL     OW32722   4.652   2.504   9.308  0.3250 -0.2933  0.1613
 7088SOL    HW132723   4.608   2.557   9.374  0.3433  0.0996 -0.1401
 7088SOL    HW232724   4.638   2.556   9.228 -0.0986  1.0317  1.1041
 7089SOL     OW32725   1.693   3.234   7.625  0.5189 -0.4298  0.0429
 7089SOL    HW132726   1.680   3.140   7.613 -0.4761 -0.3674  0.6603
 7089SOL    HW232727   1.704   3.237   7.720  0.3506 -0.0944  0.0486
 7090SOL     OW32728   2.591   2.065   7.871  0.0501 -0.7079  0.0134
 7090SOL    HW132729   2.590   2.125   7.796  2.3793 -0.0321  0.5279
 7090SOL    HW232730   2.520   2.092   7.930  0.9165 -1.4449  1.3917
 7091SOL     OW32731   1.744   3.900   4.507 -0.3936  0.1156 -0.0247
 7091SOL    HW132732   1.805   3.973   4.516 -1.1107  0.9207 -1.7720
 7091SOL    HW232733   1.795   3.835   4.459  1.1876  1.7751 -0.5920
 7092SOL     OW32734   4.208   4.603   0.862  0.5162  0.5762  0.0196
 7092SOL    HW132735   4.119   4.572   0.847  0.7898  0.2341 -0.9356
 7092SOL    HW232736   4.261   4.533   0.822 -2.0846 -1.0043 -0.6505
 7093SOL     OW32737   2.640   3.840   6.059 -0.4889 -0.0743  0.2728
 7093SOL    HW132738   2.668   3.932   6.068  0.6229 -0.4950  1.1129
 7093SOL    HW232739   2.704   3.802   6.119 -0.2747  0.1918  0.2164
 7094SOL     OW32740   0.771   1.784  13.216  0.5708  0.3253  0.1167
 7094SOL    HW132741   0.754   1.779  13.122 -1.4098 -1.9404  0.6137
 7094SOL    HW232742   0.864   1.762  13.209  0.3349  0.1860 -2.8570
 7095SOL     OW32743   4.561   4.279   8.219 -0.0754  0.8533  0.5449
 7095SOL    HW132744   4.478   4.260   8.263 -1.9652  1.2529 -2.8378
 7095SOL    HW232745   4.598   4.191   8.218 -0.9820  0.4844 -0.2084
 7096SOL     OW32746   2.412   0.461   3.907  0.5416  0.2165  0.1262
 7096SOL    HW132747   2.378   0.408   3.980 -0.2017  0.9943  0.3479
 7096SOL    HW232748   2.465   0.528   3.949  1.7024  0.5931 -1.9410
 7097SOL     OW32749   3.750   0.660   9.622  0.3360 -0.0497  0.5902
 7097SOL    HW132750   3.696   0.667   9.544  2.9617  2.5799 -0.9832
 7097SOL    HW232751   3.802   0.738   9.604  2.0576 -1.6573 -1.4222
 7098SOL     OW32752   3.913   0.402   3.826 -0.2062 -0.3305  0.3346
 7098SOL    HW132753   3.854   0.370   3.757 -1.5683  1.0156  0.8667
 7098SOL    HW232754   3.853   0.420   3.898 -0.7562  2.8773 -0.9320
 7099SOL     OW32755   2.494   2.824  11.552 -0.0299 -0.2887 -0.1895
 7099SOL    HW132756   2.428   2.806  11.486  1.4089  1.5627 -2.1315
 7099SOL    HW232757   2.457   2.774  11.625  0.9825  0.8481  1.1002
 7100SOL     OW32758   3.729   2.409   3.398 -0.0771  0.3157 -0.2946
 7100SOL    HW132759   3.732   2.342   3.466 -0.9976  1.3732  0.7813
 7100SOL    HW232760   3.648   2.390   3.351 -0.6021  0.7568  0.4331
 7101SOL     OW32761   2.557   1.548   8.828  0.1815  0.4883  0.0268
 7101SOL    HW132762   2.510   1.475   8.787  1.9753  1.3594 -3.5328
 7101SOL    HW232763   2.576   1.518   8.917 -0.2515 -0.1352 -0.0906
 7102SOL     OW32764   0.445   1.481   7.437 -0.0325 -0.4398 -0.7793
 7102SOL    HW132765   0.370   1.541   7.438 -0.2172 -0.6857  0.2671
 7102SOL    HW232766   0.461   1.464   7.530 -2.6220  0.7983 -0.0989
 7103SOL     OW32767   0.330   0.181   4.249 -0.5851  0.0781  0.0757
 7103SOL    HW132768   0.378   0.163   4.329 -0.9593  2.4816  0.8112
 7103SOL    HW232769   0.386   0.242   4.201 -0.2146 -1.0278 -0.9243
 7104SOL     OW32770   2.156   0.749   6.062 -0.5008  0.7008 -0.0263
 7104SOL    HW132771   2.222   0.683   6.082 -1.5463 -0.9006 -1.7934
 7104SOL    HW232772   2.120   0.723   5.978 -1.3185  0.4024  0.4126
 7105SOL     OW32773   3.608   4.550  14.526  0.2014 -0.1835 -0.3711
 7105SOL    HW132774   3.634   4.638  14.499  0.8389 -0.5169 -0.8305
 7105SOL    HW232775   3.680   4.520  14.580 -0.6790 -0.8447  0.4383
 7106SOL     OW32776   4.136   0.943   4.157 -0.0426  0.3429  0.1052
 7106SOL    HW132777   4.100   1.032   4.161 -2.0422 -0.4865  0.5519
 7106SOL    HW232778   4.061   0.888   4.178  0.8867 -0.5839  0.9379
 7107SOL     OW32779   2.688   4.449   3.030  0.9495  0.4736  0.1716
 7107SOL    HW132780   2.663   4.358   3.047  0.3665  0.9049  1.5528
 7107SOL    HW232781   2.784   4.449   3.038  1.1149  0.0198 -1.7755
 7108SOL     OW32782   0.457   4.387   7.319 -0.2117  0.1821 -0.7475
 7108SOL    HW132783   0.510   4.319   7.360  0.2663  1.2272  0.3639
 7108SOL    HW232784   0.386   4.396   7.383  0.1705  0.3077 -0.3446
 7109SOL     OW32785   0.396   3.173   1.658  0.1134  0.1100  0.1081
 7109SOL    HW132786   0.356   3.217   1.732 -0.0350 -0.8252  0.5791
 7109SOL    HW232787   0.311   3.144   1.625 -0.2059  0.0507  0.9869
 7110SOL     OW32788   4.367   3.013   4.889  0.2257 -0.1543  0.0384
 7110SOL    HW132789   4.460   2.992   4.898  0.4287  0.8286  0.2310
 7110SOL    HW232790   4.327   2.981   4.970 -0.6657 -1.8322 -1.0541
 7111SOL     OW32791   4.707   0.614   1.730  0.3818 -0.4233  0.2067
 7111SOL    HW132792   4.663   0.697   1.708  0.4898 -1.1336 -2.6636
 7111SOL    HW232793   0.069   0.620   1.692  0.0377 -0.0775 -0.5315
 7112SOL     OW32794   4.284   1.462   2.929 -0.6691 -0.0516  0.0202
 7112SOL    HW132795   4.227   1.385   2.920 -2.5068  1.3556 -0.3416
 7112SOL    HW232796   4.293   1.500   2.842 -0.8389 -1.7673 -0.7516
 7113SOL     OW32797   0.474   2.395   7.379 -0.5025 -0.2594 -0.2478
 7113SOL    HW132798   0.562   2.378   7.346 -0.5969 -0.2104 -0.5314
 7113SOL    HW232799   0.494   2.387   7.472 -0.4222  0.4903 -0.1978
 7114SOL     OW32800   0.823   0.392   7.207 -0.2404 -0.1118 -0.0295
 7114SOL    HW132801   0.778   0.316   7.171  2.5284 -0.4135 -2.8694
 7114SOL    HW232802   0.785   0.398   7.295 -0.1550  0.7429 -0.0482
 7115SOL     OW32803   4.566   4.688  17.263  0.5253  0.4233 -0.2690
 7115SOL    HW132804   4.529   0.050  17.268  2.1801  1.0563  1.0352
 7115SOL    HW232805   4.493   4.627  17.270  0.3145  0.7744  0.5604
 7116SOL     OW32806   2.578   2.741   3.409  0.5937  0.3261 -0.2325
 7116SOL    HW132807   2.644   2.672   3.402 -0.2701 -0.7826  2.5390
 7116SOL    HW232808   2.608   2.812   3.353  2.4238 -0.0928  0.2254
 7117SOL     OW32809   2.611   4.113   3.022 -0.0704 -0.1792  0.2172
 7117SOL    HW132810   2.629   4.113   3.116 -0.3502  2.4123  0.2471
 7117SOL    HW232811   2.701   4.119   2.989 -0.4217 -0.9976 -0.8973
 7118SOL     OW32812   1.238   0.385  10.431  0.0629  0.2760 -0.3646
 7118SOL    HW132813   1.159   0.432  10.460 -0.9487 -0.5909 -1.7116
 7118SOL    HW232814   1.238   0.408  10.338 -0.4000  1.4350 -0.0880
 7119SOL     OW32815   4.319   0.408  16.048 -0.0307  0.0645  0.1129
 7119SOL    HW132816   4.330   0.495  16.009 -1.4172  1.2862  2.4205
 7119SOL    HW232817   4.235   0.411  16.094 -0.8642 -0.1073 -1.3799
 7120SOL     OW32818   0.442   0.908  11.973 -1.0238 -0.3894  0.2318
 7120SOL    HW132819   0.391   0.839  12.015 -0.5001 -2.2776 -2.1816
 7120SOL    HW232820   0.392   0.919  11.892 -0.8133 -1.4528 -0.0364
 7121SOL     OW32821   4.417   0.197  15.133 -0.5209  0.5686  0.2524
 7121SOL    HW132822   4.345   0.155  15.085  0.5011  0.4152 -1.1499
 7121SOL    HW232823   4.445   0.124  15.188 -2.4336  0.2868  0.8393
 7122SOL     OW32824   4.236   1.303  14.443  0.2079  0.6583 -0.4753
 7122SOL    HW132825   4.147   1.338  14.436 -0.9346 -2.1119  0.5988
 7122SOL    HW232826   4.256   1.302  14.536 -0.4854  0.7216 -0.3276
 7123SOL     OW32827   2.999   3.936   7.740 -0.7227 -0.0634  0.1069
 7123SOL    HW132828   3.019   3.918   7.648 -2.6950  1.8407 -0.7021
 7123SOL    HW232829   3.085   3.945   7.780  0.3416 -0.7370 -2.0562
 7124SOL     OW32830   4.579   2.012   6.728 -0.1606  0.4740 -0.5439
 7124SOL    HW132831   4.672   2.007   6.753  0.3019  0.5170 -2.2732
 7124SOL    HW232832   4.572   1.937   6.669 -0.8682 -1.6214  2.1675
 7125SOL     OW32833   1.550   2.389  14.875 -0.3141  0.4708 -0.2679
 7125SOL    HW132834   1.627   2.375  14.929  1.7558  2.5569 -2.6827
 7125SOL    HW232835   1.520   2.479  14.891 -0.3174  0.7391 -1.7266
 7126SOL     OW32836   4.398   2.717   2.622  0.2964  0.6806 -0.0057
 7126SOL    HW132837   4.432   2.679   2.541  1.2533  0.9781  0.2549
 7126SOL    HW232838   4.445   2.655   2.678  1.0787  1.4629  0.1940
 7127SOL     OW32839   2.631   1.322   4.083  0.6907 -0.7284  0.2687
 7127SOL    HW132840   2.651   1.283   3.998  2.2660  0.2172  0.1963
 7127SOL    HW232841   2.595   1.243   4.124 -0.0202 -2.2406 -3.2285
 7128SOL     OW32842   0.356   2.880   6.731 -0.4011  0.0153 -0.4566
 7128SOL    HW132843   0.296   2.955   6.732  1.2665  1.3206  0.1470
 7128SOL    HW232844   0.294   2.807   6.738  0.3865 -0.3202  2.8193
 7129SOL     OW32845   1.749   0.635   9.956 -0.3892  0.3894  0.2012
 7129SOL    HW132846   1.821   0.668   9.902  1.1723 -0.7155  1.6242
 7129SOL    HW232847   1.704   0.586   9.888  2.4753 -2.5219  0.4404
 7130SOL     OW32848   1.227   3.021   7.765 -0.4138 -0.4530  0.6441
 7130SOL    HW132849   1.185   3.106   7.754  0.6294  0.0538  0.5777
 7130SOL    HW232850   1.318   3.051   7.764 -1.8125  3.6660 -1.3863
 7131SOL     OW32851   4.560   0.313   9.293  0.1829 -0.0488 -0.1204
 7131SOL    HW132852   4.577   0.407   9.286 -2.0795  0.2722 -1.1325
 7131SOL    HW232853   4.467   0.305   9.312  0.3158  1.4809  1.2142
 7132SOL     OW32854   1.531   3.698  12.594  0.6150  0.2522 -0.2712
 7132SOL    HW132855   1.620   3.662  12.594  2.0744  3.7903  3.1948
 7132SOL    HW232856   1.493   3.665  12.676  1.2783 -1.0731 -0.5042
 7133SOL     OW32857   2.473   1.825  15.427 -0.2829  0.1230  0.0019
 7133SOL    HW132858   2.436   1.912  15.440  2.1364  1.4673 -2.1281
 7133SOL    HW232859   2.394   1.775  15.449 -0.5041 -1.5605 -4.5959
 7134SOL     OW32860   1.986   4.086   8.081  0.0979  0.1437  0.5659
 7134SOL    HW132861   1.927   4.071   8.155 -0.4531 -2.4477 -0.4006
 7134SOL    HW232862   1.972   4.006   8.031  0.3068 -0.4057  1.3945
 7135SOL     OW32863   1.450   1.332   5.029 -0.7282  0.4539 -0.6608
 7135SOL    HW132864   1.483   1.357   5.116  0.4956 -3.7933  0.0984
 7135SOL    HW232865   1.519   1.271   5.005 -1.3451 -0.4360 -0.1910
 7136SOL     OW32866   4.144   0.743   8.903 -0.3344  0.0576  0.2173
 7136SOL    HW132867   4.177   0.700   8.824 -2.5938  2.3609 -1.9400
 7136SOL    HW232868   4.050   0.752   8.886 -0.4759 -0.0241  0.9425
 7137SOL     OW32869   0.110   0.145  15.465  0.4053 -0.3280  0.0336
 7137SOL    HW132870   0.132   0.092  15.389 -0.2578  1.0008 -1.0880
 7137SOL    HW232871   0.143   0.232  15.442 -0.7610 -0.2232 -1.2186
 7138SOL     OW32872   4.239   1.106   2.031 -0.4007 -0.5130  0.3828
 7138SOL    HW132873   4.172   1.119   1.963 -1.0150  0.1742  1.1082
 7138SOL    HW232874   4.299   1.050   1.982 -1.1528 -1.5879  0.6912
 7139SOL     OW32875   2.486   4.539   2.233  0.8537  0.1599  0.4191
 7139SOL    HW132876   2.454   4.628   2.220  1.6622  0.4642  0.5673
 7139SOL    HW232877   2.455   4.522   2.322  0.3627 -3.0983 -0.3839
 7140SOL     OW32878   4.670   2.111   9.577 -0.0385 -0.1978  0.0057
 7140SOL    HW132879   0.033   2.139   9.555  1.2828 -2.8393  1.9564
 7140SOL    HW232880   4.621   2.153   9.507  3.4263  0.1656 -2.1745
 7141SOL     OW32881   1.116   0.508   5.068  0.0078 -0.3614 -0.6279
 7141SOL    HW132882   1.073   0.573   5.013  1.4105  0.7769 -0.3723
 7141SOL    HW232883   1.055   0.502   5.142 -2.0278 -4.2137 -2.5950
 7142SOL     OW32884   4.538   1.488   3.714 -0.0155 -0.0306  0.0035
 7142SOL    HW132885   4.571   1.578   3.710 -1.2313  0.4811  1.1098
 7142SOL    HW232886   4.577   1.455   3.795 -1.0107 -3.2827 -0.8499
 7143SOL     OW32887   4.597   0.043   2.521  0.0172  0.0154  0.2641
 7143SOL    HW132888   4.633   0.050   2.433  0.8581 -0.1440  0.5906
 7143SOL    HW232889   4.553   0.128   2.527  1.9433  0.9643  0.8692
 7144SOL     OW32890   1.994   1.033   5.309 -0.7129  0.6283 -0.0920
 7144SOL    HW132891   2.080   1.063   5.340 -0.0268  0.2147 -1.6128
 7144SOL    HW232892   1.966   0.999   5.395 -0.6086  1.4283  0.2606
 7145SOL     OW32893   1.355   1.191  16.975  0.0046 -0.0722 -0.1326
 7145SOL    HW132894   1.373   1.217  17.066  0.4978  0.2542 -0.3227
 7145SOL    HW232895   1.409   1.117  16.946  0.4470  0.5693 -0.9175
 7146SOL     OW32896   3.434   0.378  11.088 -0.1222 -0.6959  0.1163
 7146SOL    HW132897   3.426   0.381  10.993  0.0397 -1.0217  0.0907
 7146SOL    HW232898   3.350   0.342  11.115 -0.2956 -1.6238 -1.7046
 7147SOL     OW32899   4.047   0.650   3.179 -0.2765  0.4467 -0.3512
 7147SOL    HW132900   4.072   0.587   3.248  1.7330  0.0044 -1.5000
 7147SOL    HW232901   4.130   0.696   3.171 -0.3412  0.8118  1.0757
 7148SOL     OW32902   1.814   2.038  14.453 -0.0908 -0.3563 -0.0912
 7148SOL    HW132903   1.896   2.070  14.489 -1.8571  2.7617  1.1388
 7148SOL    HW232904   1.792   1.968  14.516 -0.1949 -1.6224 -1.5319
 7149SOL     OW32905   0.393   2.836   3.888  0.5520  0.6947 -0.2747
 7149SOL    HW132906   0.396   2.932   3.895 -2.0314  1.0280 -3.4811
 7149SOL    HW232907   0.457   2.809   3.823  0.5292  2.2929 -0.9662
 7150SOL     OW32908   0.722   3.802   2.407  0.8855 -0.0200  0.3487
 7150SOL    HW132909   0.694   3.858   2.479  1.0109 -0.2462  0.5712
 7150SOL    HW232910   0.646   3.745   2.392  0.2238  0.9027  0.1651
 7151SOL     OW32911   0.906   1.966   4.397  0.2074  1.0821  0.5039
 7151SOL    HW132912   0.952   2.031   4.343 -1.3181  0.8472 -1.0767
 7151SOL    HW232913   0.843   1.926   4.338  2.6298 -1.5858 -0.2914
 7152SOL     OW32914   2.527   3.884   4.793  0.3184 -0.3046  0.3101
 7152SOL    HW132915   2.457   3.824   4.820  3.1275 -3.7676  0.0218
 7152SOL    HW232916   2.586   3.887   4.868 -0.5816 -3.4577  1.1466
 7153SOL     OW32917   3.754   0.262   0.867  0.0089 -0.2342  0.2725
 7153SOL    HW132918   3.696   0.210   0.923  1.1350 -2.8826 -0.9919
 7153SOL    HW232919   3.694   0.312   0.812  0.5113 -1.4956 -1.4190
 7154SOL     OW32920   1.430   1.865   2.073 -0.2608  0.2151  0.5935
 7154SOL    HW132921   1.491   1.857   2.147 -0.2901  2.1719  0.8267
 7154SOL    HW232922   1.398   1.955   2.084 -0.1918  0.2702  0.3501
 7155SOL     OW32923   1.645   0.003   4.343  0.8293 -0.3913 -0.0923
 7155SOL    HW132924   1.584   4.660   4.316 -0.6231  0.6329  0.5883
 7155SOL    HW232925   1.617   0.076   4.287  1.9855 -0.3447 -0.6082
 7156SOL     OW32926   2.137   4.584  14.412 -0.1826  0.5276 -0.0905
 7156SOL    HW132927   2.180   4.667  14.393  0.1559 -0.3418 -3.2283
 7156SOL    HW232928   2.203   4.514  14.415  0.1043  0.7416 -1.2402
 7157SOL     OW32929   4.629   3.377   3.915 -0.3619  1.1045  0.3685
 7157SOL    HW132930   4.685   3.393   3.991  1.2881  0.4285 -0.6989
 7157SOL    HW232931   4.555   3.436   3.933 -0.5665  0.4491  1.6357
 7158SOL     OW32932   2.122   1.817   2.007  0.4614 -0.1924  0.0544
 7158SOL    HW132933   2.193   1.753   2.004  0.7988  0.2325 -0.9102
 7158SOL    HW232934   2.178   1.895   2.013 -0.3837  0.6892 -3.5130
 7159SOL     OW32935   0.774   0.713   4.806 -0.3207  0.1564  0.3042
 7159SOL    HW132936   0.830   0.727   4.882  0.9425 -1.4548 -0.3547
 7159SOL    HW232937   0.776   0.794   4.755  4.0497 -0.7349 -0.8894
 7160SOL     OW32938   3.842   0.545   7.890  0.0861  0.6238 -0.3140
 7160SOL    HW132939   3.796   0.595   7.958  1.4664  0.7298  0.5643
 7160SOL    HW232940   3.770   0.494   7.852 -0.6284  0.4631  1.2569
 7161SOL     OW32941   0.689   3.150   9.710 -0.1119 -0.3997  0.7229
 7161SOL    HW132942   0.718   3.195   9.789  0.0718  0.7555  0.0026
 7161SOL    HW232943   0.740   3.069   9.699 -0.7200 -0.4696 -1.7089
 7162SOL     OW32944   3.068   1.293   7.834  0.6658  0.6868 -0.1604
 7162SOL    HW132945   3.067   1.343   7.752  1.3134 -2.8675 -2.3429
 7162SOL    HW232946   3.162   1.302   7.852  1.0435 -0.8704 -1.3379
 7163SOL     OW32947   1.383   3.782   9.379 -0.2340  0.0880 -0.0591
 7163SOL    HW132948   1.325   3.706   9.368 -2.4600  1.7641  0.0778
 7163SOL    HW232949   1.322   3.844   9.340  0.2731  0.5439 -0.1205
 7164SOL     OW32950   0.498   2.005   2.363 -0.2306  0.1846  0.2664
 7164SOL    HW132951   0.437   2.001   2.289 -0.9366  0.2036  0.8347
 7164SOL    HW232952   0.573   2.021   2.306  0.7692 -1.9887  0.9897
 7165SOL     OW32953   0.499   2.885  17.652  0.3196  0.2391 -0.6708
 7165SOL    HW132954   0.514   2.979  17.659  1.2346  0.1773 -1.7622
 7165SOL    HW232955   0.523   2.862   0.038  0.3538  0.0654 -0.7233
 7166SOL     OW32956   2.021   0.026  17.592 -0.3428  0.4029  0.5488
 7166SOL    HW132957   2.020   0.106  17.644 -0.4861 -0.2859  1.5883
 7166SOL    HW232958   1.979   4.690  17.651 -0.9964  2.1341  1.8905
 7167SOL     OW32959   3.895   3.327   6.276 -0.3184 -0.2036 -0.3923
 7167SOL    HW132960   3.920   3.288   6.193  2.2459  0.4671  0.0432
 7167SOL    HW232961   3.828   3.269   6.312 -1.5966  1.1605 -0.5719
 7168SOL     OW32962   0.487   0.914  14.653  0.2760  0.1724  0.1530
 7168SOL    HW132963   0.565   0.924  14.598 -1.7204  1.5415 -2.4750
 7168SOL    HW232964   0.526   0.878  14.732  0.2754 -2.7456 -1.1605
 7169SOL     OW32965   1.145   4.371   3.707  0.5192  0.6376  0.6538
 7169SOL    HW132966   1.197   4.344   3.782 -2.4995 -1.5321  1.9357
 7169SOL    HW232967   1.202   4.438   3.667 -0.5155  1.8714  1.2671
 7170SOL     OW32968   0.635   2.652   6.197 -0.3285 -0.4311 -0.0314
 7170SOL    HW132969   0.655   2.734   6.153  1.6286 -0.0031  1.6593
 7170SOL    HW232970   0.692   2.652   6.273  0.2757  0.6255 -0.4844
 7171SOL     OW32971   4.500   0.375   4.665  1.0248  0.0665  0.0481
 7171SOL    HW132972   4.449   0.298   4.692 -0.1279  0.3574 -1.3011
 7171SOL    HW232973   4.432   0.441   4.674  0.9198 -0.0247 -0.0850
 7172SOL     OW32974   1.116   2.103  15.228  0.0284 -0.1154  0.7361
 7172SOL    HW132975   1.118   2.016  15.186 -3.3396  0.6654 -1.0203
 7172SOL    HW232976   1.122   2.083  15.321 -1.5382 -0.7273  0.6992
 7173SOL     OW32977   1.899   4.280   4.684 -0.1323  0.5736 -0.0151
 7173SOL    HW132978   1.946   4.357   4.718 -1.1410  0.0102  2.7016
 7173SOL    HW232979   1.849   4.252   4.762  0.3703  2.9390  1.1626
 7174SOL     OW32980   1.027   1.204   6.320  0.8464 -0.1166  0.2914
 7174SOL    HW132981   1.117   1.232   6.333  0.6351  1.1874 -1.0950
 7174SOL    HW232982   0.999   1.199   6.412 -1.2963 -0.4266 -0.3746
 7175SOL     OW32983   1.817   1.712   8.437  0.5589 -0.7090  0.3911
 7175SOL    HW132984   1.786   1.639   8.491 -1.6817 -0.8875 -1.1386
 7175SOL    HW232985   1.736   1.762   8.423 -1.1547 -3.8323 -0.8981
 7176SOL     OW32986   2.033   3.580   3.421  0.6968  0.2901  0.3272
 7176SOL    HW132987   1.970   3.517   3.385  0.4930  0.3664  0.5491
 7176SOL    HW232988   1.973   3.654   3.414  2.1246  1.5758  1.8344
 7177SOL     OW32989   1.829   2.491   7.758 -0.0279  0.1485 -0.8891
 7177SOL    HW132990   1.815   2.399   7.780  0.4667  0.6476  1.5348
 7177SOL    HW232991   1.878   2.492   7.676 -0.4290 -0.8563 -1.1352
 7178SOL     OW32992   0.330   0.760   6.834  0.1937  0.0287 -0.1691
 7178SOL    HW132993   0.402   0.701   6.810 -0.3313 -1.3954  1.7598
 7178SOL    HW232994   0.295   0.717   6.911  1.5144  1.7721  1.3932
 7179SOL     OW32995   2.648   1.892   5.702  0.5816  0.1310  0.0901
 7179SOL    HW132996   2.600   1.931   5.629  1.7459 -0.1686 -0.8492
 7179SOL    HW232997   2.736   1.922   5.680 -0.4221  0.4501 -3.5112
 7180SOL     OW32998   3.604   2.030   9.815 -0.6774  0.6049 -0.1653
 7180SOL    HW132999   3.639   2.119   9.814  4.4816 -1.4498 -0.5627
 7180SOL    HW233000   3.529   2.046   9.872  0.7871 -0.8068  2.1494
 7181SOL     OW33001   1.590   4.298   4.891  0.1228  0.4269  0.2148
 7181SOL    HW133002   1.613   4.376   4.942 -0.5238  2.0385 -1.9574
 7181SOL    HW233003   1.671   4.249   4.902  0.0383 -0.0822 -1.4401
 7182SOL     OW33004   4.323   3.965  12.571 -0.3141  0.2657 -0.0584
 7182SOL    HW133005   4.339   4.045  12.621 -2.1853  1.6038 -1.5978
 7182SOL    HW233006   4.372   3.969  12.489 -0.6559  3.7037 -0.1044
 7183SOL     OW33007   2.898   4.243  17.351  0.0367  0.4324 -0.2198
 7183SOL    HW133008   2.916   4.254  17.258 -1.5830 -2.6821 -0.9105
 7183SOL    HW233009   2.859   4.156  17.352  1.7679 -0.3486 -2.7465
 7184SOL     OW33010   0.308   0.318  16.523  0.9786 -0.2038  0.0241
 7184SOL    HW133011   0.385   0.356  16.564  0.8942 -0.7655  0.6861
 7184SOL    HW233012   0.242   0.345  16.587  1.0418 -1.0102  0.4271
 7185SOL     OW33013   4.052   2.012  15.889  0.0206  0.5602  0.0518
 7185SOL    HW133014   4.015   2.048  15.808  0.5965 -1.3831 -1.0798
 7185SOL    HW233015   4.075   1.927  15.851  2.0025 -0.2422  3.0512
 7186SOL     OW33016   1.704   3.254   5.863  0.2972 -0.4139 -0.2062
 7186SOL    HW133017   1.611   3.234   5.854  0.2503 -0.4617  0.4078
 7186SOL    HW233018   1.705   3.318   5.934 -0.9105  0.6513 -1.1480
 7187SOL     OW33019   0.177   1.813   8.592 -0.1995  0.9200 -0.1677
 7187SOL    HW133020   0.109   1.805   8.526  0.4968  0.4029 -0.8229
 7187SOL    HW233021   0.122   1.831   8.669  1.2252  3.0836  0.3314
 7188SOL     OW33022   2.103   4.272   5.430  0.2496 -0.0020 -0.3702
 7188SOL    HW133023   2.046   4.334   5.477 -1.0044 -0.7775 -0.8637
 7188SOL    HW233024   2.042   4.199   5.421 -0.4726  0.3149  1.7351
 7189SOL     OW33025   4.012   1.635   5.450  0.1584  0.3463  0.3220
 7189SOL    HW133026   3.958   1.624   5.372  0.4097 -0.1398  0.2111
 7189SOL    HW233027   3.945   1.668   5.510 -0.3242  1.4873 -0.8621
 7190SOL     OW33028   1.252   4.317  13.534  1.0263  0.2046 -0.4642
 7190SOL    HW133029   1.280   4.238  13.580 -0.6554 -1.2055 -1.8741
 7190SOL    HW233030   1.171   4.282  13.497 -0.2377  0.0109  2.4453
 7191SOL     OW33031   2.901   4.091  12.433 -0.4948  0.4417 -0.7074
 7191SOL    HW133032   2.868   4.180  12.448 -0.8165 -0.0193  1.3028
 7191SOL    HW233033   2.989   4.102  12.396  1.2516 -0.0398  3.3753
 7192SOL     OW33034   1.201   4.700   6.639  0.7347  0.3102 -0.0004
 7192SOL    HW133035   1.237   0.039   6.699  1.8814  0.9080 -1.3565
 7192SOL    HW233036   1.178   0.029   6.564  0.0761 -0.6615 -0.5077
 7193SOL     OW33037   4.537   2.004   8.750  0.5563 -0.0768 -0.6670
 7193SOL    HW133038   4.507   1.913   8.742  1.7611 -0.4993 -0.4571
 7193SOL    HW233039   4.616   1.992   8.804  1.2227 -0.3043 -1.6959
 7194SOL     OW33040   1.569   0.842   9.272  0.7264 -0.0242 -0.3974
 7194SOL    HW133041   1.618   0.838   9.190  0.6690 -0.1304 -0.4251
 7194SOL    HW233042   1.641   0.847   9.336  1.7406  0.6688 -1.5894
 7195SOL     OW33043   4.718   3.813   2.252 -0.4270  0.5290 -0.1291
 7195SOL    HW133044   4.698   3.870   2.178  0.5626  1.5565  0.3996
 7195SOL    HW233045   4.632   3.777   2.274 -0.9748  1.7735 -0.2501
 7196SOL     OW33046   1.199   2.302  12.225 -0.2679  0.2843  0.0070
 7196SOL    HW133047   1.236   2.218  12.199  2.2584  0.7804  2.0075
 7196SOL    HW233048   1.203   2.291  12.320  4.5306 -0.8519 -0.3373
 7197SOL     OW33049   1.025   1.735   4.586 -0.0619 -0.3781  0.4762
 7197SOL    HW133050   1.047   1.783   4.506 -0.3412  1.0888  1.2843
 7197SOL    HW233051   1.047   1.793   4.659  0.5946 -0.7037  0.5412
 7198SOL     OW33052   4.324   0.403   4.122 -0.0695 -0.1352  0.1510
 7198SOL    HW133053   4.313   0.471   4.055  0.2162  0.9797  1.2176
 7198SOL    HW233054   4.271   0.333   4.086  1.2227  0.0501 -2.1750
 7199SOL     OW33055   1.584   1.229   3.843  0.0084 -0.0081  0.2485
 7199SOL    HW133056   1.536   1.313   3.843  0.6286  0.3466  0.9966
 7199SOL    HW233057   1.549   1.185   3.921 -1.3510 -0.1292 -0.4173
 7200SOL     OW33058   2.676   0.684  14.385 -0.4037 -0.0639  0.1569
 7200SOL    HW133059   2.687   0.750  14.453  2.3057  0.6083 -0.9468
 7200SOL    HW233060   2.765   0.684  14.349 -0.9353 -0.2130 -1.1765
 7201SOL     OW33061   0.606   4.445   9.757 -0.3289 -0.0227 -0.2995
 7201SOL    HW133062   0.692   4.411   9.780 -0.9105 -0.8684  0.6164
 7201SOL    HW233063   0.628   4.536   9.735 -1.8478 -0.2055 -2.4695
 7202SOL     OW33064   3.130   2.103   3.598 -0.2312 -0.5295  0.8096
 7202SOL    HW133065   3.168   2.185   3.568 -1.1926 -0.2712  0.3039
 7202SOL    HW233066   3.205   2.080   3.654  1.2267 -1.6653 -1.6161
 7203SOL     OW33067   1.861   2.994   9.903 -0.5892 -0.0725  0.6740
 7203SOL    HW133068   1.883   2.926   9.840  0.7775  0.8485  0.1656
 7203SOL    HW233069   1.899   2.981   9.991  0.6852 -0.1415  0.1205
 7204SOL     OW33070   1.674   0.096   1.568  0.5935  0.1932  0.0164
 7204SOL    HW133071   1.709   0.179   1.601 -0.7317  0.6782  0.2264
 7204SOL    HW233072   1.586   0.127   1.549 -0.4831 -2.2748  0.9371
 7205SOL     OW33073   0.959   1.228   3.076 -0.5611 -0.0430 -0.5051
 7205SOL    HW133074   0.880   1.181   3.101  0.3917 -0.7479  1.1942
 7205SOL    HW233075   0.968   1.187   2.990 -2.3369 -1.5221  0.0254
 7206SOL     OW33076   0.005   2.641   9.020 -0.3692 -0.3632  0.2084
 7206SOL    HW133077   0.090   2.648   9.065  0.5173  2.8224 -2.0125
 7206SOL    HW233078   0.003   2.546   9.011 -0.0321 -0.4434  1.0056
 7207SOL     OW33079   2.960   3.729  12.352  0.2785  0.2251 -0.3774
 7207SOL    HW133080   3.006   3.808  12.381  0.3794 -0.4205  1.2371
 7207SOL    HW233081   2.907   3.765  12.281  0.3375 -2.2720 -1.6810
 7208SOL     OW33082   2.408   2.444   1.965  0.1604 -0.4950  0.4391
 7208SOL    HW133083   2.457   2.372   1.924 -2.9018 -1.3473 -1.7977
 7208SOL    HW233084   2.373   2.486   1.886  1.6749 -0.4065 -0.1876
 7209SOL     OW33085   3.211   0.821   7.338  0.0748 -0.5843  0.1255
 7209SOL    HW133086   3.135   0.823   7.396  0.6390 -2.6474  0.9254
 7209SOL    HW233087   3.170   0.792   7.256 -0.5964  0.4171  0.0975
 7210SOL     OW33088   0.168   2.747   9.455 -0.0797  0.5790 -0.1481
 7210SOL    HW133089   0.166   2.693   9.534  0.9557  1.4367  0.4747
 7210SOL    HW233090   0.090   2.717   9.409  0.8348 -0.8604 -0.7987
 7211SOL     OW33091   3.094   1.921  14.509 -0.2688  0.4881  0.1337
 7211SOL    HW133092   3.163   1.899  14.572 -1.1958  1.6470  1.5764
 7211SOL    HW233093   3.061   1.842  14.466  0.2532  0.6005 -0.4783
 7212SOL     OW33094   0.532   1.491   5.489  0.4560  0.4979 -0.3961
 7212SOL    HW133095   0.563   1.421   5.431 -0.3149  1.2663 -1.7476
 7212SOL    HW233096   0.501   1.562   5.432  1.6492 -0.8508 -2.7154
 7213SOL     OW33097   2.500   0.904   7.090  0.8461 -0.0027  1.0474
 7213SOL    HW133098   2.444   0.833   7.123  0.7500 -0.0289  0.8219
 7213SOL    HW233099   2.434   0.970   7.071  2.9133  1.7229 -0.1211
 7214SOL     OW33100   0.776   1.449   2.668 -0.3543  0.0666 -0.8465
 7214SOL    HW133101   0.747   1.425   2.757 -1.3230 -0.3229 -1.2627
 7214SOL    HW233102   0.868   1.467   2.689 -0.6635  0.9914 -0.2779
 7215SOL     OW33103   2.974   0.138   7.125 -0.2785 -0.1584  0.2420
 7215SOL    HW133104   2.920   0.084   7.183  1.3151 -3.0706 -1.0045
 7215SOL    HW233105   2.914   0.195   7.077 -1.6594 -0.1069  2.0226
 7216SOL     OW33106   3.478   3.078  13.057 -0.0595 -0.2935  0.4243
 7216SOL    HW133107   3.461   3.079  13.151 -2.1377 -0.0086  0.0675
 7216SOL    HW233108   3.403   3.133  13.035  0.7748  0.1713 -1.2448
 7217SOL     OW33109   1.493   1.871  17.135  0.0540 -0.4992 -0.4093
 7217SOL    HW133110   1.489   1.785  17.177 -0.0836 -0.2243  0.1293
 7217SOL    HW233111   1.407   1.874  17.092 -0.1919 -1.7942 -0.0006
 7218SOL     OW33112   3.107   1.452   3.645 -0.1013  0.2927 -0.0016
 7218SOL    HW133113   3.112   1.420   3.555  1.1436  0.4453  0.0122
 7218SOL    HW233114   3.033   1.511   3.631  0.6072  0.7330 -1.9241
 7219SOL     OW33115   4.476   3.865   4.774 -0.3192 -0.1770 -0.8282
 7219SOL    HW133116   4.434   3.779   4.786  1.1271 -0.7516  0.0743
 7219SOL    HW233117   4.515   3.847   4.688  0.5737  0.1795 -0.4867
 7220SOL     OW33118   3.664   3.939  10.742 -0.2218 -0.0187 -0.2570
 7220SOL    HW133119   3.676   3.853  10.782  0.8318  0.9319  1.4566
 7220SOL    HW233120   3.569   3.951  10.737 -0.2573 -0.4661 -0.6108
 7221SOL     OW33121   0.208   3.888   1.713 -0.1596 -0.9477 -0.1041
 7221SOL    HW133122   0.185   3.892   1.620  2.1769 -2.2298 -0.7374
 7221SOL    HW233123   0.171   3.805   1.743  0.1663 -0.5023  1.5244
 7222SOL     OW33124   0.409   2.915   3.564  0.1405  0.8231 -0.1207
 7222SOL    HW133125   0.357   2.989   3.595 -0.7928 -0.6862  1.8590
 7222SOL    HW233126   0.351   2.879   3.497  2.0435  0.0777 -1.3734
 7223SOL     OW33127   1.237   3.417   0.611  0.2754  0.0389 -0.3914
 7223SOL    HW133128   1.282   3.411   0.695 -0.0886  0.0984 -0.1930
 7223SOL    HW233129   1.303   3.403   0.543  0.8829  1.3155 -0.0574
 7224SOL     OW33130   1.786   4.272   5.410  0.0373  0.0127 -0.0529
 7224SOL    HW133131   1.874   4.242   5.388  0.6582  0.7225  1.5041
 7224SOL    HW233132   1.820   4.353   5.448 -3.2001  1.4617 -0.2666
 7225SOL     OW33133   4.505   3.719  10.920 -0.1877  0.0060 -0.4449
 7225SOL    HW133134   4.410   3.707  10.921 -0.1167 -0.6681 -2.1073
 7225SOL    HW233135   4.504   3.803  10.964 -0.1892  0.3655 -1.1373
 7226SOL     OW33136   2.334   3.280  16.048  0.1957 -0.0885  0.0936
 7226SOL    HW133137   2.370   3.316  15.968 -0.8205  0.8527  0.0672
 7226SOL    HW233138   2.277   3.354  16.066 -0.6022 -0.3785 -1.2759
 7227SOL     OW33139   1.789   0.930  12.417  0.2832 -0.0608  0.4580
 7227SOL    HW133140   1.782   1.013  12.371  0.4418  0.0151  0.5722
 7227SOL    HW233141   1.881   0.929  12.444  0.4500 -2.3348 -0.1706
 7228SOL     OW33142   3.545   2.937   5.355 -0.1800  0.3488 -0.4104
 7228SOL    HW133143   3.588   2.941   5.270  0.6395  0.3615  0.0069
 7228SOL    HW233144   3.454   2.916   5.334  0.2606 -3.0794  1.1602
 7229SOL     OW33145   2.331   2.589   5.947  0.4832 -0.5074 -0.5158
 7229SOL    HW133146   2.256   2.530   5.957  0.2029  0.4431  3.2497
 7229SOL    HW233147   2.281   2.645   5.888  0.8484  0.1790 -0.1687
 7230SOL     OW33148   0.568   2.026  13.876  0.3004  0.5172 -0.1663
 7230SOL    HW133149   0.550   2.084  13.802 -1.2606 -1.4881 -1.3525
 7230SOL    HW233150   0.476   2.009  13.896 -0.0502 -0.3422 -2.5142
 7231SOL     OW33151   4.710   3.018   8.310 -0.5559 -0.5249 -0.1244
 7231SOL    HW133152   0.033   3.064   8.378  1.1291 -0.7525 -1.1770
 7231SOL    HW233153   4.716   2.929   8.344 -2.0042 -1.0857 -1.3162
 7232SOL     OW33154   2.499   4.325  11.657 -0.5998  0.6235 -0.7791
 7232SOL    HW133155   2.411   4.297  11.680 -0.3361  1.7251  1.5921
 7232SOL    HW233156   2.507   4.367  11.743 -0.3742  2.0034 -1.4831
 7233SOL     OW33157   1.124   2.997  10.886 -0.0124 -0.0275  0.3715
 7233SOL    HW133158   1.209   3.010  10.928  0.0500  0.9664 -0.0556
 7233SOL    HW233159   1.154   2.971  10.799  0.1557 -0.8365  0.6720
 7234SOL     OW33160   0.934   2.573   2.180  0.6344 -0.3861 -0.6230
 7234SOL    HW133161   1.010   2.592   2.236  0.7064 -3.2141  0.2296
 7234SOL    HW233162   0.980   2.569   2.096  0.6145  1.9210 -0.7517
 7235SOL     OW33163   3.144   0.876   0.785  0.2595  0.4431 -0.3852
 7235SOL    HW133164   3.176   0.790   0.812  2.1081  1.2135 -0.1482
 7235SOL    HW233165   3.059   0.872   0.830 -0.1302 -0.3334 -1.1784
 7236SOL     OW33166   3.103   1.804   6.527 -0.3915 -0.1223 -0.0452
 7236SOL    HW133167   3.033   1.769   6.472 -1.6767  0.6365  1.1198
 7236SOL    HW233168   3.135   1.723   6.567  0.4220 -0.7450 -1.9378
 7237SOL     OW33169   4.394   2.881   3.591 -0.3163  0.2845  0.3339
 7237SOL    HW133170   4.314   2.929   3.568 -0.6479 -0.7852 -0.7105
 7237SOL    HW233171   4.445   2.888   3.510 -0.1954 -2.8318  0.1645
 7238SOL     OW33172   2.313   2.870  17.681  0.7682 -0.0368  0.5528
 7238SOL    HW133173   2.332   2.870   0.071  0.7392  0.7167  0.5550
 7238SOL    HW233174   2.331   2.962  17.667  1.3376  0.1242  2.2457
 7239SOL     OW33175   1.504   0.793   4.662 -0.2043  0.1652 -0.3036
 7239SOL    HW133176   1.524   0.740   4.585  1.8596 -0.1428  0.4487
 7239SOL    HW233177   1.491   0.724   4.727  1.8766 -0.3973 -0.4842
 7240SOL     OW33178   2.336   1.825   5.642  0.0630 -0.1132  0.2206
 7240SOL    HW133179   2.265   1.768   5.672 -0.1319  0.2848  0.5249
 7240SOL    HW233180   2.367   1.841   5.731 -0.3910  1.2925  0.1358
 7241SOL     OW33181   2.133   0.930  11.071  0.4802 -0.4124 -0.0606
 7241SOL    HW133182   2.124   0.857  11.133  0.0265 -2.1193 -2.1477
 7241SOL    HW233183   2.192   0.887  11.010 -0.0741 -0.5129 -0.5193
 7242SOL     OW33184   2.243   3.934  17.536 -0.3690 -0.1777  0.1049
 7242SOL    HW133185   2.269   3.975  17.619 -0.6836  0.1553  0.0406
 7242SOL    HW233186   2.151   3.958  17.547  0.0888  0.7585  1.9493
 7243SOL     OW33187   3.960   3.330  13.283 -0.2171 -0.4981 -0.6744
 7243SOL    HW133188   4.017   3.397  13.245 -0.4489  0.3732  0.5332
 7243SOL    HW233189   3.893   3.341  13.216 -1.0691 -0.9481  0.1195
 7244SOL     OW33190   4.351   2.154   2.577  0.1027  0.0059 -0.3036
 7244SOL    HW133191   4.287   2.224   2.564  0.1770  0.3490  1.1332
 7244SOL    HW233192   4.398   2.156   2.494 -1.2989 -0.5474 -1.1102
 7245SOL     OW33193   4.617   4.083   8.468  0.1385 -0.3907 -0.1711
 7245SOL    HW133194   4.704   4.106   8.436 -0.4644 -1.5825 -2.6677
 7245SOL    HW233195   4.647   4.053   8.554 -0.2328  1.6782  0.6611
 7246SOL     OW33196   4.054   1.550  12.302 -0.2039  0.0968 -0.0284
 7246SOL    HW133197   4.001   1.471  12.299  2.9638 -1.9508 -2.0978
 7246SOL    HW233198   3.982   1.597  12.344 -0.1490 -0.0029  0.1791
 7247SOL     OW33199   1.013   4.608   4.020  0.4753  0.0129 -0.0792
 7247SOL    HW133200   0.938   4.570   3.974  0.8358 -0.9132  0.0912
 7247SOL    HW233201   0.987   4.700   4.013  2.2638  0.6402  1.8195
 7248SOL     OW33202   3.229   3.600   7.568 -0.3553  0.1296  0.2913
 7248SOL    HW133203   3.262   3.686   7.592  1.0246 -1.4992  4.2233
 7248SOL    HW233204   3.141   3.622   7.599 -0.3156  0.0160  0.4832
 7249SOL     OW33205   2.275   4.299   7.213 -0.5835 -0.0080  0.4249
 7249SOL    HW133206   2.250   4.215   7.252  0.5204 -0.5120  0.0286
 7249SOL    HW233207   2.368   4.290   7.190 -0.6474 -0.5159  0.3570
 7250SOL     OW33208   1.390   4.700   1.537 -0.2444 -0.0422 -0.1776
 7250SOL    HW133209   1.410   4.649   1.616 -1.0167  0.4991  0.3695
 7250SOL    HW233210   1.314   4.655   1.501  1.0150 -1.5512 -0.9245
 7251SOL     OW33211   0.585   3.754   6.955 -0.1685  0.5423  0.2983
 7251SOL    HW133212   0.580   3.674   6.903 -0.8337  1.1662 -0.6072
 7251SOL    HW233213   0.490   3.766   6.964 -0.5949 -2.4373 -0.3545
 7252SOL     OW33214   0.848   2.906   5.576  0.7224  0.1663  0.4096
 7252SOL    HW133215   0.775   2.874   5.523  0.8385 -1.0405  0.9695
 7252SOL    HW233216   0.859   2.999   5.558  1.3300 -0.1539 -0.8944
 7253SOL     OW33217   4.513   2.814   8.396 -0.6379 -0.2313 -0.4935
 7253SOL    HW133218   4.591   2.766   8.370 -0.6354 -0.0449 -0.8382
 7253SOL    HW233219   4.504   2.851   8.308 -0.1098 -1.7841 -1.2014
 7254SOL     OW33220   1.416   1.501   3.706  0.0058  0.2332 -0.4911
 7254SOL    HW133221   1.346   1.439   3.723  0.2554  0.1981  0.4015
 7254SOL    HW233222   1.466   1.464   3.633 -1.8780 -0.1580 -1.5801
 7255SOL     OW33223   0.341   1.548   4.332  0.2809  0.2357  0.1131
 7255SOL    HW133224   0.377   1.628   4.370  3.0531 -0.3794 -1.1944
 7255SOL    HW233225   0.419   1.493   4.323 -0.5991 -0.9477 -0.2407
 7256SOL     OW33226   4.721   1.599   9.086  0.2279 -0.3097  0.8636
 7256SOL    HW133227   4.680   1.659   9.024  0.5828 -0.0139  0.9180
 7256SOL    HW233228   4.648   1.554   9.128 -1.0383 -0.3790 -1.4170
 7257SOL     OW33229   3.864   4.368   2.594  0.3231  0.2760 -0.4437
 7257SOL    HW133230   3.780   4.383   2.636  1.2746 -2.2058  2.3722
 7257SOL    HW233231   3.836   4.308   2.524  1.0064 -0.8279  0.2302
 7258SOL     OW33232   2.544   2.511   2.452  0.0916 -0.0162  0.3323
 7258SOL    HW133233   2.511   2.601   2.450  0.0989 -0.0316 -0.3851
 7258SOL    HW233234   2.476   2.471   2.398 -0.6608  0.2468  1.0659
 7259SOL     OW33235   3.815   2.669   5.946 -0.4881  0.5801 -0.1615
 7259SOL    HW133236   3.856   2.698   6.028 -1.1391 -1.3435  0.8395
 7259SOL    HW233237   3.881   2.607   5.917 -0.3311  0.0178  1.3984
 7260SOL     OW33238   3.399   0.467   9.143  0.5231  0.1982  0.2600
 7260SOL    HW133239   3.383   0.512   9.225 -0.6434  1.2332 -0.5365
 7260SOL    HW233240   3.461   0.524   9.098  0.7057  0.7267  1.1867
 7261SOL     OW33241   3.013   1.628   8.734 -0.2141  0.6542  0.0774
 7261SOL    HW133242   3.102   1.600   8.711 -1.0404 -2.3049  0.5376
 7261SOL    HW233243   3.025   1.723   8.730 -0.4367  0.7574  2.3516
 7262SOL     OW33244   4.315   0.205  10.178 -0.0387 -0.0372  0.2006
 7262SOL    HW133245   4.267   0.148  10.238  1.1265 -0.6605  0.5394
 7262SOL    HW233246   4.329   0.281  10.234 -0.2246 -0.3139  0.6290
 7263SOL     OW33247   3.146   0.182   2.688 -0.6650 -0.3909  0.0907
 7263SOL    HW133248   3.112   0.116   2.628 -0.3036  2.3860 -3.1671
 7263SOL    HW233249   3.238   0.190   2.663 -0.9020 -1.8062 -1.2728
 7264SOL     OW33250   0.456   1.914   6.886 -0.5339  0.0400  0.4169
 7264SOL    HW133251   0.490   1.990   6.932 -2.0255  0.6073  0.5533
 7264SOL    HW233252   0.364   1.909   6.911 -0.5605 -1.3613  0.0629
 7265SOL     OW33253   3.340   0.349   5.477 -0.2276  0.4382 -0.5289
 7265SOL    HW133254   3.359   0.397   5.558  0.3869 -1.1794  0.2706
 7265SOL    HW233255   3.245   0.341   5.483 -0.0899 -0.3094  0.5753
 7266SOL     OW33256   1.954   4.186  12.750  1.0581 -0.5276 -0.0199
 7266SOL    HW133257   1.993   4.121  12.809  0.5035  1.4145  2.4712
 7266SOL    HW233258   1.920   4.244  12.818  0.6620  0.7367 -1.2934
 7267SOL     OW33259   0.934   1.413   2.165  0.0030 -0.4571  0.3199
 7267SOL    HW133260   0.842   1.384   2.165 -0.5396  1.3173  2.3704
 7267SOL    HW233261   0.996   1.342   2.181  0.3108 -0.3870 -0.5454
 7268SOL     OW33262   4.335   4.031   6.538 -0.0378 -0.0014  0.0486
 7268SOL    HW133263   4.288   4.035   6.622 -0.2203 -0.8271 -0.0201
 7268SOL    HW233264   4.425   4.016   6.567 -1.3987 -2.4848  3.0451
 7269SOL     OW33265   2.065   4.708   2.181  0.1320 -0.0020 -0.3783
 7269SOL    HW133266   2.011   4.631   2.200  0.4465 -0.3822 -1.0233
 7269SOL    HW233267   2.099   4.691   2.094 -3.4404 -1.9323 -1.3963
 7270SOL     OW33268   3.618   3.851   3.890  0.6275 -0.4041 -0.1050
 7270SOL    HW133269   3.631   3.812   3.803  1.7128 -0.6177  0.1489
 7270SOL    HW233270   3.695   3.894   3.926 -0.0706 -0.0954  0.9876
 7271SOL     OW33271   2.133   1.281   7.178 -0.5205 -0.1390  0.1330
 7271SOL    HW133272   2.094   1.323   7.254  0.2072  0.9489 -0.1006
 7271SOL    HW233273   2.132   1.190   7.209  1.4571 -0.5164 -0.9653
 7272SOL     OW33274   2.350   1.517   5.015  0.4891  0.2706 -0.3269
 7272SOL    HW133275   2.314   1.590   5.066 -1.6499 -0.6790 -0.4459
 7272SOL    HW233276   2.440   1.547   5.002 -0.0278  2.2164  0.4867
 7273SOL     OW33277   0.733   3.294   9.409  0.5276  0.4902  0.2725
 7273SOL    HW133278   0.682   3.286   9.489  1.6034 -0.2612  0.8789
 7273SOL    HW233279   0.772   3.380   9.421  1.9544 -0.2933  1.2542
 7274SOL     OW33280   2.503   3.592  10.586  0.1491  0.2936 -0.0002
 7274SOL    HW133281   2.491   3.497  10.576  0.9947  0.3702 -1.7843
 7274SOL    HW233282   2.495   3.605  10.680  0.0234  0.4150 -0.0280
 7275SOL     OW33283   1.114   1.248   1.606 -0.4265 -0.0499  0.2954
 7275SOL    HW133284   1.200   1.290   1.614  1.1849 -2.9987 -1.1603
 7275SOL    HW233285   1.120   1.193   1.685 -0.2171 -2.3156 -1.2895
 7276SOL     OW33286   0.213   3.863   7.418 -0.2043  0.3225  0.0578
 7276SOL    HW133287   0.219   3.857   7.323 -1.7647  0.9450 -0.0850
 7276SOL    HW233288   0.306   3.884   7.427  0.0470 -1.6590  2.1341
 7277SOL     OW33289   0.783   3.243   2.744 -0.6758  0.2585  0.1391
 7277SOL    HW133290   0.783   3.306   2.815  0.4265  0.1297  0.2561
 7277SOL    HW233291   0.727   3.173   2.777  0.5603 -1.2962 -1.0478
 7278SOL     OW33292   2.878   0.217  13.669 -0.3076 -0.3493  0.2545
 7278SOL    HW133293   2.970   0.197  13.688 -0.4047 -2.1270 -1.2113
 7278SOL    HW233294   2.893   0.311  13.656 -2.3656  0.3276  2.6284
 7279SOL     OW33295   0.140   0.180  10.715  0.4203 -0.2467  0.4660
 7279SOL    HW133296   0.066   0.134  10.675  1.1412  0.5713 -1.7627
 7279SOL    HW233297   0.213   0.129  10.682 -0.3890 -1.7783  1.0113
 7280SOL     OW33298   1.484   2.061  14.640  0.3686 -0.1741  0.0371
 7280SOL    HW133299   1.478   2.156  14.655  1.8657  0.0400 -0.7079
 7280SOL    HW233300   1.391   2.041  14.637  0.1172  0.9471  0.3602
 7281SOL     OW33301   4.635   2.000   3.000  0.2405 -0.4870  0.4177
 7281SOL    HW133302   4.620   2.080   3.051 -1.7457 -1.6699  1.6929
 7281SOL    HW233303   4.593   1.937   3.058  1.2045  1.8349  3.6082
 7282SOL     OW33304   3.660   4.187   2.475  0.1330  0.1932  0.0313
 7282SOL    HW133305   3.596   4.127   2.436  0.5760  0.5778 -1.3116
 7282SOL    HW233306   3.688   4.234   2.396 -0.9232 -0.4451 -0.7177
 7283SOL     OW33307   2.147   2.066   5.458 -0.2066  0.6443 -0.5813
 7283SOL    HW133308   2.084   2.018   5.512  0.8924  0.2520  0.3482
 7283SOL    HW233309   2.198   1.995   5.419  1.0303 -0.1642  2.5379
 7284SOL     OW33310   3.206   3.915  14.377 -0.2658  0.5331 -0.4023
 7284SOL    HW133311   3.113   3.898  14.387 -0.4652  1.8371 -0.0565
 7284SOL    HW233312   3.237   3.921  14.468 -1.9718  2.6102  0.0453
 7285SOL     OW33313   0.685   0.186   8.748  0.5393 -0.7214 -0.7038
 7285SOL    HW133314   0.636   0.197   8.829  1.2388  0.2964 -0.4214
 7285SOL    HW233315   0.760   0.130   8.769 -0.0799 -0.7750  1.2870
 7286SOL     OW33316   4.481   2.507   7.553  0.2386 -0.5376 -0.5911
 7286SOL    HW133317   4.417   2.462   7.607  1.0604 -1.7554 -0.6186
 7286SOL    HW233318   4.441   2.582   7.509  0.2338 -0.1084  0.1580
 7287SOL     OW33319   0.780   1.294   7.520  0.3421  0.0137  0.0254
 7287SOL    HW133320   0.728   1.357   7.469  0.0959  0.1873  0.4892
 7287SOL    HW233321   0.786   1.219   7.461 -0.0178  0.3321 -0.4220
 7288SOL     OW33322   0.368   0.180   2.400  0.0470  0.3634 -0.1561
 7288SOL    HW133323   0.343   0.263   2.442  0.7225 -0.0386  1.0205
 7288SOL    HW233324   0.462   0.194   2.413  0.2087 -0.4375 -0.5077
 7289SOL     OW33325   3.456   1.426   2.212  0.0413  0.0703 -0.0804
 7289SOL    HW133326   3.419   1.386   2.291 -0.0990  3.3981  1.5424
 7289SOL    HW233327   3.372   1.438   2.166 -0.1073  1.8221  0.6258
 7290SOL     OW33328   4.364   1.285   5.285  0.3975 -0.3046 -0.0128
 7290SOL    HW133329   4.297   1.314   5.347 -0.6716  1.8911 -2.1989
 7290SOL    HW233330   4.430   1.354   5.292 -0.7516  0.6661  1.3767
 7291SOL     OW33331   4.668   0.785   8.206 -0.0652 -0.5331 -0.1135
 7291SOL    HW133332   0.019   0.834   8.235 -2.4317  1.0457  3.5764
 7291SOL    HW233333   4.624   0.852   8.154 -1.3477 -0.8871  0.5103
 7292SOL     OW33334   1.958   4.434   7.808  0.2336  0.0878  0.3620
 7292SOL    HW133335   1.963   4.516   7.759 -3.4087 -0.5141 -0.9947
 7292SOL    HW233336   2.033   4.454   7.864 -0.7194 -0.3637  1.7822
 7293SOL     OW33337   1.808   3.957   8.237 -0.2098 -0.8267  0.3338
 7293SOL    HW133338   1.748   4.012   8.186  0.1113  0.5485  1.4223
 7293SOL    HW233339   1.796   3.880   8.182  2.1767 -0.5260 -0.6118
 7294SOL     OW33340   2.011   2.088  11.449 -0.7132 -0.2966  0.4708
 7294SOL    HW133341   2.098   2.091  11.488  0.1812  2.0767 -1.6935
 7294SOL    HW233342   1.977   2.177  11.457  0.1064 -0.1017  1.6262
 7295SOL     OW33343   3.930   0.609   4.693  0.0891 -0.4507 -0.3814
 7295SOL    HW133344   4.023   0.632   4.689  0.2147 -0.9628 -0.5301
 7295SOL    HW233345   3.891   0.682   4.646 -2.0908 -0.6135  1.1628
 7296SOL     OW33346   0.142   3.136   2.004  0.1675  0.8217 -0.6374
 7296SOL    HW133347   0.134   3.055   1.953 -0.0798  0.0842  0.5664
 7296SOL    HW233348   0.085   3.114   2.078 -0.9478 -0.1596 -1.7969
 7297SOL     OW33349   0.908   2.294   8.031 -0.2216 -0.3633 -0.5632
 7297SOL    HW133350   0.997   2.318   8.057 -0.8244 -0.4877  1.6238
 7297SOL    HW233351   0.864   2.302   8.116 -0.0098  1.1638 -0.6056
 7298SOL     OW33352   1.825   2.475   4.412  0.0597  0.1161  0.3403
 7298SOL    HW133353   1.901   2.480   4.354  1.3870 -2.3633  1.8709
 7298SOL    HW233354   1.764   2.431   4.352 -2.1749  1.4309  1.6265
 7299SOL     OW33355   1.433   0.886   1.625  0.0344 -0.3991  0.1277
 7299SOL    HW133356   1.472   0.819   1.682 -2.2188 -1.4564  0.4193
 7299SOL    HW233357   1.493   0.886   1.550 -0.4064 -0.1279 -0.2210
 7300SOL     OW33358   1.366   4.257  17.056 -0.3051  0.1748  0.0393
 7300SOL    HW133359   1.291   4.309  17.026 -0.5378 -0.4424 -0.4353
 7300SOL    HW233360   1.343   4.231  17.146 -2.9730 -0.9143 -0.9576
 7301SOL     OW33361   1.776   1.698   6.625 -0.3416  0.0742 -0.0778
 7301SOL    HW133362   1.817   1.659   6.547 -0.7300  0.1353 -0.3102
 7301SOL    HW233363   1.809   1.788   6.626  1.4456 -0.5787 -0.2468
 7302SOL     OW33364   4.264   3.506   1.248  0.4509  0.2510  0.5098
 7302SOL    HW133365   4.239   3.538   1.335  3.2710  0.6636  1.1496
 7302SOL    HW233366   4.346   3.552   1.236 -0.5219  1.7357 -0.3798
 7303SOL     OW33367   3.917   4.319   2.307  0.1322  0.2212  0.0421
 7303SOL    HW133368   3.976   4.255   2.348  0.3594  0.5744  0.2681
 7303SOL    HW233369   3.867   4.260   2.251  1.9642  0.1493 -1.5295
 7304SOL     OW33370   0.307   2.045  15.991  0.1264  0.1559 -0.2512
 7304SOL    HW133371   0.297   2.109  15.922  0.4255  1.9474  1.3646
 7304SOL    HW233372   0.289   1.963  15.946  0.4930 -0.1760  0.2012
 7305SOL     OW33373   1.743   0.905  13.813  0.6288 -0.2325 -0.2574
 7305SOL    HW133374   1.690   0.918  13.892  1.5091  0.8118  0.1657
 7305SOL    HW233375   1.809   0.843  13.844  0.4928  0.2171  0.9281
 7306SOL     OW33376   0.900   2.259   4.598 -0.1792  0.2235  0.8118
 7306SOL    HW133377   0.979   2.243   4.649  0.6662 -0.0589 -0.6129
 7306SOL    HW233378   0.842   2.187   4.623  0.5017 -0.8345 -0.6930
 7307SOL     OW33379   0.494   2.286  13.777 -0.1552  0.1695 -0.2225
 7307SOL    HW133380   0.517   2.368  13.734 -0.6212  0.1475 -0.5200
 7307SOL    HW233381   0.501   2.325  13.864 -0.0072 -3.2277  1.2731
 7308SOL     OW33382   2.862   3.400   7.845  0.4279 -0.5014 -0.0586
 7308SOL    HW133383   2.942   3.384   7.895  1.4220  0.8930 -1.2082
 7308SOL    HW233384   2.865   3.318   7.795  1.8286 -0.6085  0.2167
 7309SOL     OW33385   4.550   4.677  12.750 -0.2044  0.2839  0.1546
 7309SOL    HW133386   4.539   4.615  12.677 -2.3715 -0.1557  0.8406
 7309SOL    HW233387   4.484   0.021  12.742  1.7596  1.9929 -0.9957
 7310SOL     OW33388   4.184   1.223  13.986  0.2080  0.4198  0.2284
 7310SOL    HW133389   4.274   1.192  13.979  0.4343  1.4266 -1.2516
 7310SOL    HW233390   4.146   1.183  13.908 -0.5158  0.8226  0.3747
 7311SOL     OW33391   1.430   3.594  13.790  0.2924  0.2287 -0.6203
 7311SOL    HW133392   1.469   3.681  13.801  2.1384 -0.7366  0.4709
 7311SOL    HW233393   1.511   3.545  13.776 -0.7172 -1.6144 -0.0819
 7312SOL     OW33394   0.091   0.879   1.464  0.4166  0.2922  0.5745
 7312SOL    HW133395   0.125   0.907   1.379  2.1650 -0.6824  0.9521
 7312SOL    HW233396   0.019   0.826   1.433  0.3486  0.2670  0.7726
 7313SOL     OW33397   1.073   1.295   7.483 -0.2247 -0.0973  0.4622
 7313SOL    HW133398   0.988   1.309   7.525  0.4100  3.3498  0.6133
 7313SOL    HW233399   1.090   1.205   7.509 -0.5900 -0.0131  0.9948
 7314SOL     OW33400   3.154   1.184  16.126 -0.3838 -0.8987  0.8103
 7314SOL    HW133401   3.241   1.165  16.162  0.5184  1.7645  0.0109
 7314SOL    HW233402   3.119   1.095  16.119 -1.0973 -0.4888 -0.9647
 7315SOL     OW33403   1.492   1.217  10.016 -0.3478  0.5131 -0.3376
 7315SOL    HW133404   1.526   1.179   9.935 -0.2311  1.9149 -0.9497
 7315SOL    HW233405   1.566   1.262  10.056  0.9719 -1.9574 -0.0338
 7316SOL     OW33406   4.582   2.609   6.929  0.6846 -0.7858  0.3134
 7316SOL    HW133407   4.627   2.660   6.862 -0.3492 -1.2151 -0.7238
 7316SOL    HW233408   4.532   2.553   6.869  0.2245  0.7710 -0.7917
 7317SOL     OW33409   2.337   2.458   3.015  0.0384 -0.1993  0.1877
 7317SOL    HW133410   2.353   2.551   3.033 -0.8091  0.4558 -2.5011
 7317SOL    HW233411   2.259   2.472   2.961  0.6440  0.8636 -0.4023
 7318SOL     OW33412   0.977   0.000   2.706 -0.6741  0.5129  0.0058
 7318SOL    HW133413   0.938   0.084   2.730 -2.3931  0.0362 -1.1191
 7318SOL    HW233414   1.036   0.041   2.643  0.9129  0.6037  1.5493
 7319SOL     OW33415   2.457   2.254   3.145 -0.5186 -0.3303 -0.1595
 7319SOL    HW133416   2.443   2.329   3.087  0.4544  0.1866  0.2712
 7319SOL    HW233417   2.476   2.298   3.228 -0.4008  0.7360 -0.7461
 7320SOL     OW33418   3.469   1.299   8.314 -0.1683  0.8741 -0.0570
 7320SOL    HW133419   3.471   1.272   8.406 -2.2386  1.9872  0.2966
 7320SOL    HW233420   3.444   1.224   8.260  0.1511 -0.9878  2.3840
 7321SOL     OW33421   0.500   1.817   8.782 -0.0521  0.0491 -1.0753
 7321SOL    HW133422   0.581   1.865   8.763  1.1955 -1.1089  1.3097
 7321SOL    HW233423   0.473   1.853   8.867  2.9626  1.2224 -0.6328
 7322SOL     OW33424   3.704   2.378   4.178 -0.0493 -0.2118 -0.5523
 7322SOL    HW133425   3.694   2.438   4.252 -1.7427 -1.9849  0.6488
 7322SOL    HW233426   3.619   2.334   4.174 -0.6830  0.9828 -0.4500
 7323SOL     OW33427   3.094   2.061   4.419 -0.4011 -0.0109 -0.4376
 7323SOL    HW133428   3.165   2.118   4.448  1.5248 -1.6967 -1.8113
 7323SOL    HW233429   3.049   2.113   4.353  0.2401  1.9576  0.6688
 7324SOL     OW33430   0.652   3.099   3.473  0.5136  0.5014 -0.0730
 7324SOL    HW133431   0.590   3.032   3.501 -1.0538  1.6881 -0.6901
 7324SOL    HW233432   0.598   3.178   3.473  0.0945  0.2153 -1.0419
 7325SOL     OW33433   1.132   3.309  12.740 -0.4392  0.2637 -0.2305
 7325SOL    HW133434   1.166   3.376  12.800  3.2574 -2.2779  0.4690
 7325SOL    HW233435   1.193   3.240  12.764 -1.6785 -0.6769  0.2256
 7326SOL     OW33436   1.002   4.264  13.788  0.0092  0.4720 -0.1698
 7326SOL    HW133437   0.941   4.215  13.732  0.1622  0.5150 -0.3747
 7326SOL    HW233438   0.948   4.306  13.855 -0.3003 -1.6826  0.9230
 7327SOL     OW33439   1.534   0.013  10.625  0.5346 -0.0011 -0.8956
 7327SOL    HW133440   1.443   0.042  10.622  0.6550  0.4253 -0.4638
 7327SOL    HW233441   1.528   4.644  10.614 -1.0401 -0.1927  1.5966
 7328SOL     OW33442   0.997   3.529   1.619 -0.2862 -0.4031  0.6539
 7328SOL    HW133443   1.054   3.464   1.659 -1.7173 -0.5408  2.4795
 7328SOL    HW233444   0.932   3.471   1.580 -1.2966  0.8842  0.4346
 7329SOL     OW33445   4.332   4.277   6.352 -0.4123  0.5411 -0.3519
 7329SOL    HW133446   4.239   4.287   6.330 -0.1089 -0.6319 -2.1892
 7329SOL    HW233447   4.338   4.197   6.405  0.4183  0.7494 -0.1308
 7330SOL     OW33448   0.847   3.758   5.698  0.2418  0.0804  0.3156
 7330SOL    HW133449   0.877   3.714   5.778  1.4281  1.3176  0.5468
 7330SOL    HW233450   0.836   3.849   5.724  1.1381  0.3606 -0.2798
 7331SOL     OW33451   0.201   4.322   5.171 -0.3609  0.4702  0.1071
 7331SOL    HW133452   0.251   4.394   5.132 -1.9282  0.6720 -1.5574
 7331SOL    HW233453   0.160   4.310   5.085 -0.8677  1.0540  0.2610
 7332SOL     OW33454   0.199   2.988  11.792 -0.1637 -0.8236 -0.2310
 7332SOL    HW133455   0.186   2.907  11.743  1.1543 -1.4690  0.4819
 7332SOL    HW233456   0.259   2.956  11.859 -2.4022 -1.1631  1.6518
 7333SOL     OW33457   1.920   1.961   7.228  0.1963  0.0612  0.6617
 7333SOL    HW133458   2.010   1.936   7.248  0.2301  0.3064  0.8202
 7333SOL    HW233459   1.867   1.930   7.302 -1.8264  1.8209 -0.0597
 7334SOL     OW33460   0.191   2.265   5.509  0.1081 -0.2639 -0.5588
 7334SOL    HW133461   0.249   2.202   5.554 -2.8998 -1.0118  2.2612
 7334SOL    HW233462   0.227   2.249   5.422 -0.0900  0.9914 -0.8619
 7335SOL     OW33463   2.629   1.172   2.650 -0.0685  0.0157 -0.2682
 7335SOL    HW133464   2.681   1.112   2.703 -0.7519 -0.0249  0.3527
 7335SOL    HW233465   2.540   1.166   2.685  0.1271  0.6889  0.3457
 7336SOL     OW33466   0.718   4.272   3.288  0.2486 -0.8374  0.4379
 7336SOL    HW133467   0.808   4.301   3.299  0.3915 -1.0114 -0.2841
 7336SOL    HW233468   0.705   4.246   3.379  0.6681  0.1163  0.7791
 7337SOL     OW33469   2.391   2.356  16.056  0.1350  0.5542  0.1327
 7337SOL    HW133470   2.486   2.348  16.050  0.3966  3.2057  0.8857
 7337SOL    HW233471   2.353   2.314  15.979  0.4267  1.0755 -0.2930
 7338SOL     OW33472   0.900   0.601   8.324  0.3917 -0.7079 -0.1956
 7338SOL    HW133473   0.959   0.675   8.309 -1.1476  0.9669  2.1183
 7338SOL    HW233474   0.883   0.614   8.417  1.9696 -0.0111 -0.0119
 7339SOL     OW33475   3.572   4.061  15.922 -0.1358 -0.2266 -0.1263
 7339SOL    HW133476   3.502   4.028  15.979  2.0398  0.7832  3.1573
 7339SOL    HW233477   3.522   4.089  15.846  0.0148 -0.6935 -0.3993
 7340SOL     OW33478   2.802   0.220  15.202 -0.2817  0.4874  0.1875
 7340SOL    HW133479   2.746   0.286  15.162 -0.0081  0.2559 -0.5787
 7340SOL    HW233480   2.868   0.204  15.135 -0.8317  0.0908 -0.2563
 7341SOL     OW33481   0.596   3.933   2.661 -0.4573  0.0909  0.0848
 7341SOL    HW133482   0.605   4.002   2.596 -2.2193  0.7814  0.5683
 7341SOL    HW233483   0.637   3.974   2.737 -1.2101 -1.4223  1.2943
 7342SOL     OW33484   0.518   1.383   1.215 -0.0560 -0.2583  0.2084
 7342SOL    HW133485   0.513   1.394   1.310 -0.1117 -0.2853  0.2086
 7342SOL    HW233486   0.483   1.296   1.197  0.6039  0.2449 -3.4467
 7343SOL     OW33487   1.303   1.014   7.161  0.1437 -0.1748  0.2044
 7343SOL    HW133488   1.279   0.922   7.152 -1.2174 -0.0585  2.5229
 7343SOL    HW233489   1.259   1.057   7.088 -0.2576 -0.3044  0.3667
 7344SOL     OW33490   0.611   4.360  11.138  0.8089  0.0090  0.0735
 7344SOL    HW133491   0.610   4.272  11.173 -1.2689 -1.5991 -3.9696
 7344SOL    HW233492   0.676   4.350  11.068 -1.5207  0.2652 -2.1673
 7345SOL     OW33493   3.983   4.248   7.530 -0.2828 -0.1561 -0.4747
 7345SOL    HW133494   3.968   4.203   7.614 -1.3327 -0.4098 -0.7996
 7345SOL    HW233495   4.079   4.248   7.532 -0.2722  0.5054 -1.0814
 7346SOL     OW33496   0.459   2.784  12.752 -0.4076 -0.1440  0.5968
 7346SOL    HW133497   0.407   2.705  12.761 -0.9893  0.0721 -0.8082
 7346SOL    HW233498   0.514   2.770  12.829  1.1190 -2.4405 -0.9350
 7347SOL     OW33499   1.316   3.247   4.529  0.0646 -0.0407  0.4591
 7347SOL    HW133500   1.291   3.310   4.597  0.1044  2.0592 -1.5228
 7347SOL    HW233501   1.283   3.163   4.561 -0.2650 -1.1127 -2.7490
 7348SOL     OW33502   0.985   4.398   6.370  0.4415 -0.0013 -0.7986
 7348SOL    HW133503   0.934   4.396   6.451 -0.6413  0.2588 -1.4737
 7348SOL    HW233504   0.929   4.442   6.306  0.4757 -0.2783 -1.0177
 7349SOL     OW33505   1.281   0.239  13.461 -0.0341 -0.3160  0.3258
 7349SOL    HW133506   1.321   0.157  13.434 -1.4967 -0.0791 -2.6533
 7349SOL    HW233507   1.359   0.281  13.497 -0.6743  0.8992  0.3121
 7350SOL     OW33508   0.401   3.662   4.342 -0.7286  0.1312 -0.0791
 7350SOL    HW133509   0.474   3.613   4.303  1.0198  1.1887  1.8888
 7350SOL    HW233510   0.438   3.750   4.333  1.6500 -0.8058  0.4337
 7351SOL     OW33511   2.877   1.511   0.563 -0.0907 -0.8746  0.0978
 7351SOL    HW133512   2.945   1.551   0.618 -1.9085  2.2203  0.0750
 7351SOL    HW233513   2.833   1.451   0.624 -1.3934 -1.0996 -1.0803
 7352SOL     OW33514   2.778   3.738   9.389 -0.3110  0.2260 -0.3836
 7352SOL    HW133515   2.718   3.813   9.386  1.0763  1.4628  2.1838
 7352SOL    HW233516   2.851   3.755   9.330  1.1916  0.3019  1.5062
 7353SOL     OW33517   2.756   2.573   4.256 -0.1371 -0.0011  0.1778
 7353SOL    HW133518   2.839   2.607   4.289 -0.6825  0.5570  0.9775
 7353SOL    HW233519   2.746   2.638   4.187  0.8993  0.6982  0.6780
 7354SOL     OW33520   3.373   0.898   8.708 -0.2673 -0.1151 -0.1127
 7354SOL    HW133521   3.444   0.839   8.681 -0.8974  0.3347 -2.6965
 7354SOL    HW233522   3.411   0.935   8.788 -0.7726  2.2968 -1.0008
 7355SOL     OW33523   0.502   3.557   4.965 -0.6145 -0.5246  0.2412
 7355SOL    HW133524   0.576   3.501   4.942 -0.4693  0.3010 -1.2905
 7355SOL    HW233525   0.436   3.488   4.974 -0.3504 -0.6762  1.0406
 7356SOL     OW33526   1.801   0.508   3.497  0.7168  0.7510 -0.1752
 7356SOL    HW133527   1.894   0.489   3.485  0.5475 -0.0286 -0.2650
 7356SOL    HW233528   1.813   0.586   3.551  1.5567  2.4637 -2.8375
 7357SOL     OW33529   0.348   0.438   4.393 -0.3118  0.5210 -0.1847
 7357SOL    HW133530   0.395   0.375   4.448 -1.8509  0.3324  0.9358
 7357SOL    HW233531   0.416   0.488   4.347 -0.6366  1.7216  0.6316
 7358SOL     OW33532   3.304   1.210  10.651  0.7417  0.2246  0.5132
 7358SOL    HW133533   3.388   1.171  10.629 -0.5544 -1.5717 -1.2443
 7358SOL    HW233534   3.324   1.296  10.613  0.4663 -0.1308 -0.4462
 7359SOL     OW33535   4.230   4.362   4.814  0.2321 -0.3880 -0.4432
 7359SOL    HW133536   4.296   4.425   4.786 -0.2191 -1.1854 -3.2676
 7359SOL    HW233537   4.282   4.284   4.798  1.3147  0.2412  0.0161
 7360SOL     OW33538   2.102   1.847   6.082  0.3979 -0.4402 -0.2081
 7360SOL    HW133539   2.022   1.796   6.097 -0.7825  0.6194 -2.8688
 7360SOL    HW233540   2.088   1.872   5.991 -3.5728  0.2267  0.5546
 7361SOL     OW33541   2.530   1.307   6.284  0.1505 -0.2799 -0.0683
 7361SOL    HW133542   2.619   1.331   6.312  1.0542 -1.1956 -2.1466
 7361SOL    HW233543   2.538   1.239   6.217 -0.2153 -1.0410  0.6699
 7362SOL     OW33544   1.989   2.316   0.225 -0.0719  0.2340  0.4558
 7362SOL    HW133545   1.954   2.295   0.138 -1.8077 -0.7945  1.4161
 7362SOL    HW233546   1.948   2.244   0.273  0.5859 -0.6329 -0.2666
 7363SOL     OW33547   1.968   3.666  14.748  0.3408  0.6148 -0.2140
 7363SOL    HW133548   1.919   3.639  14.670  1.2548  1.7113 -1.1587
 7363SOL    HW233549   1.953   3.760  14.734  0.5065  0.5315 -0.9322
 7364SOL     OW33550   1.598   2.122   0.243 -0.6031  0.0787 -0.5654
 7364SOL    HW133551   1.615   2.216   0.242 -2.5364  0.4372 -1.2673
 7364SOL    HW233552   1.653   2.098   0.170 -0.7341 -3.7669  0.6313
 7365SOL     OW33553   1.644   2.412   0.193  0.2899  0.1438 -0.2034
 7365SOL    HW133554   1.634   2.498   0.235  0.2779 -0.5228  1.1503
 7365SOL    HW233555   1.658   2.441   0.103 -0.8183 -2.2079 -1.1379
 7366SOL     OW33556   1.852   0.479  10.851  0.1708 -0.4492 -0.1362
 7366SOL    HW133557   1.832   0.471  10.758  0.9152  0.5775 -0.3926
 7366SOL    HW233558   1.769   0.514  10.882  0.3978 -0.7023  0.7666
 7367SOL     OW33559   3.902   1.973   7.961  0.2732 -0.0178  0.3073
 7367SOL    HW133560   3.984   1.935   7.930  0.3825  1.2560 -0.9618
 7367SOL    HW233561   3.838   1.929   7.906 -0.6356  2.5202 -0.6772
 7368SOL     OW33562   2.729   0.575  10.750  0.6761  0.2589  0.2349
 7368SOL    HW133563   2.807   0.609  10.794  1.0422  0.4334 -0.5379
 7368SOL    HW233564   2.709   0.654  10.700  0.1994  0.0576  0.1037
 7369SOL     OW33565   3.596   4.017   3.413  0.2896  0.6777 -0.0957
 7369SOL    HW133566   3.673   3.982   3.458 -0.6016 -0.2554  0.6875
 7369SOL    HW233567   3.604   4.111   3.402 -1.5913  0.8703  0.1989
 7370SOL     OW33568   4.449   3.358   7.925 -0.6007 -0.2791  0.2071
 7370SOL    HW133569   4.537   3.362   7.962 -0.2930 -0.6203 -0.4855
 7370SOL    HW233570   4.438   3.448   7.894 -0.8249 -0.6142 -0.6900
 7371SOL     OW33571   3.887   3.252   3.226 -0.4487  0.4183 -0.7881
 7371SOL    HW133572   3.848   3.320   3.280  0.9074  0.3803  0.2444
 7371SOL    HW233573   3.894   3.291   3.139 -0.7478 -2.5001 -2.1195
 7372SOL     OW33574   0.947   2.016  14.738 -0.5877 -0.1643  0.2621
 7372SOL    HW133575   0.884   1.959  14.695 -0.7871  0.6972 -0.5930
 7372SOL    HW233576   0.964   1.975  14.823  0.1033 -1.9645 -0.7361
 7373SOL     OW33577   1.260   1.502   8.293 -0.5568 -0.2058 -0.6478
 7373SOL    HW133578   1.207   1.482   8.370  0.4213  2.3499  0.6972
 7373SOL    HW233579   1.283   1.592   8.317 -1.5449 -0.0940 -0.1414
 7374SOL     OW33580   2.018   2.962   5.533 -0.1476 -1.1595 -0.0103
 7374SOL    HW133581   1.975   3.023   5.593  0.1980  0.6363 -1.6037
 7374SOL    HW233582   2.106   2.956   5.569 -0.4090 -1.1596  0.6195
 7375SOL     OW33583   3.404   3.719  13.283 -0.2406  0.4403 -0.0738
 7375SOL    HW133584   3.355   3.708  13.202 -0.5334  1.1039  0.0134
 7375SOL    HW233585   3.482   3.666  13.267  0.3142  1.0059  0.7036
 7376SOL     OW33586   4.167   0.593   1.772  0.1264 -0.6210 -0.0402
 7376SOL    HW133587   4.132   0.504   1.773 -1.1120 -0.1285  0.7781
 7376SOL    HW233588   4.235   0.581   1.706  0.3056  0.8634 -0.1376
 7377SOL     OW33589   2.661   1.306  13.767 -0.6051  1.1913  0.3945
 7377SOL    HW133590   2.617   1.224  13.744  2.5203 -0.8519  1.7672
 7377SOL    HW233591   2.749   1.270  13.777 -0.3792  1.6302 -0.0457
 7378SOL     OW33592   1.169   0.897  15.393  0.1735  0.4927  0.1142
 7378SOL    HW133593   1.239   0.962  15.380  1.9123 -1.2892  0.5093
 7378SOL    HW233594   1.209   0.861  15.472 -0.7107  1.2875  0.9193
 7379SOL     OW33595   3.609   2.115   7.390 -0.1171  0.2532 -0.0645
 7379SOL    HW133596   3.596   2.209   7.379  0.5066  0.5791  1.9051
 7379SOL    HW233597   3.641   2.100   7.301  1.1862 -0.1015  0.4784
 7380SOL     OW33598   1.081   2.146   4.940 -0.1944  0.1717 -0.4319
 7380SOL    HW133599   1.137   2.112   4.870 -2.3643 -1.3191 -1.4551
 7380SOL    HW233600   1.053   2.231   4.907  1.7904  0.6026 -1.0102
 7381SOL     OW33601   2.427   1.114  14.542  0.8790  0.5023  0.6754
 7381SOL    HW133602   2.350   1.161  14.513 -0.0784 -1.9420 -0.7380
 7381SOL    HW233603   2.468   1.102  14.457  0.5496  1.8950  0.3228
 7382SOL     OW33604   1.436   0.626  14.842 -0.3036 -0.5862 -0.0692
 7382SOL    HW133605   1.441   0.665  14.754 -1.4449  0.1899  0.2104
 7382SOL    HW233606   1.503   0.683  14.880 -0.1301  1.1432 -3.0043
 7383SOL     OW33607   1.115   4.505  16.845  0.0552 -0.7577  0.2302
 7383SOL    HW133608   1.136   4.595  16.868 -2.8417 -0.0478  0.0866
 7383SOL    HW233609   1.083   4.468  16.927  1.3059  0.6091  1.3448
 7384SOL     OW33610   1.064   3.815   2.721 -0.7339 -0.2394 -0.2952
 7384SOL    HW133611   1.063   3.823   2.626  0.0785  0.9907 -0.2073
 7384SOL    HW233612   1.047   3.721   2.727 -0.4384 -0.2256  0.7076
 7385SOL     OW33613   0.412   3.483   1.843  0.8861  0.2578 -0.3047
 7385SOL    HW133614   0.355   3.423   1.795  0.7152 -0.0663  0.3128
 7385SOL    HW233615   0.458   3.419   1.897 -0.2822 -0.8449 -0.5970
 7386SOL     OW33616   1.379   4.630   6.415  0.4551 -0.0651  0.9237
 7386SOL    HW133617   1.315   4.576   6.462  0.7915 -2.1784 -1.0189
 7386SOL    HW233618   1.430   4.556   6.381 -0.9056  0.1548 -1.6384
 7387SOL     OW33619   3.479   1.906   6.012  0.3740  0.0564 -0.5524
 7387SOL    HW133620   3.444   1.977   6.066 -2.0297 -0.6126 -1.2386
 7387SOL    HW233621   3.394   1.877   5.978 -0.6454  0.6127  1.5060
 7388SOL     OW33622   4.025   1.308   0.730 -0.8778  0.2451  0.1966
 7388SOL    HW133623   3.964   1.356   0.675 -1.9810  1.2826  2.3610
 7388SOL    HW233624   3.971   1.250   0.784 -0.1163 -0.6041  0.0604
 7389SOL     OW33625   4.603   2.821  10.882  0.0517 -0.1169  0.4157
 7389SOL    HW133626   4.593   2.765  10.959  1.5128  0.4343  1.0178
 7389SOL    HW233627   4.592   2.903  10.929  0.7877  0.5147 -0.5114
 7390SOL     OW33628   0.755   2.667   7.976 -0.0267  0.2633 -0.4286
 7390SOL    HW133629   0.849   2.666   7.989 -0.0893  0.8316  0.0535
 7390SOL    HW233630   0.720   2.596   8.030  1.1570 -0.2842 -0.3829
 7391SOL     OW33631   2.586   3.551   2.152  0.0784  0.3302  0.6063
 7391SOL    HW133632   2.574   3.528   2.059 -0.3357  1.4998  0.3705
 7391SOL    HW233633   2.612   3.469   2.194  0.4992 -0.4329 -1.1450
 7392SOL     OW33634   3.826   1.286   0.183 -0.6241 -0.0170  0.2580
 7392SOL    HW133635   3.887   1.216   0.205  1.3100  1.3540 -0.7044
 7392SOL    HW233636   3.874   1.362   0.218  1.3941  0.3442 -3.2640
 7393SOL     OW33637   1.402   0.256   6.588  0.0300 -0.0945  0.1420
 7393SOL    HW133638   1.375   0.217   6.671 -1.2813  0.6986  0.0862
 7393SOL    HW233639   1.324   0.306   6.567 -0.8240 -1.6687 -0.4079
 7394SOL     OW33640   4.643   1.453   7.510  0.1834  0.3917 -0.3523
 7394SOL    HW133641   4.666   1.517   7.577  1.2815 -1.2572  0.8351
 7394SOL    HW233642   4.550   1.477   7.502  0.3499  0.8385 -0.9097
 7395SOL     OW33643   1.247   4.259   3.976  0.5712 -0.0687 -0.8414
 7395SOL    HW133644   1.184   4.188   3.984 -0.8426  1.0880 -1.5703
 7395SOL    HW233645   1.228   4.300   4.061  1.0648 -0.5554 -0.4998
 7396SOL     OW33646   1.733   4.154   3.244 -0.3867  0.1928  0.9285
 7396SOL    HW133647   1.702   4.078   3.194 -0.3774  0.9536 -0.2266
 7396SOL    HW233648   1.732   4.108   3.328 -1.0220 -0.7212  0.4357
 7397SOL     OW33649   3.764   0.768   3.696 -0.4106 -0.0364 -0.4035
 7397SOL    HW133650   3.712   0.777   3.776 -0.9470  0.8495 -0.8485
 7397SOL    HW233651   3.762   0.676   3.671 -1.4626  0.0722 -0.7188
 7398SOL     OW33652   4.706   2.976   4.278  0.0148 -0.0195 -0.0953
 7398SOL    HW133653   0.046   3.045   4.273 -1.7949  1.8330  1.6958
 7398SOL    HW233654   0.027   2.921   4.340 -1.8773 -0.0762  1.2977
 7399SOL     OW33655   2.652   0.369   5.022  0.3657 -0.2911  0.3236
 7399SOL    HW133656   2.610   0.346   5.105 -1.4485  0.0322 -0.4942
 7399SOL    HW233657   2.731   0.315   5.020  1.5199  1.3515  1.4852
 7400SOL     OW33658   1.003   4.291  17.488  0.0791 -0.1028 -0.6627
 7400SOL    HW133659   0.930   4.337  17.531  0.6883  0.5037 -0.2825
 7400SOL    HW233660   0.987   4.202  17.519  0.1549 -1.0627 -3.3685
 7401SOL     OW33661   2.890   0.229   4.996 -0.4286 -0.1088  0.6046
 7401SOL    HW133662   2.885   0.192   4.908  1.2041  0.7381  0.1696
 7401SOL    HW233663   2.929   0.157   5.045  1.4823  1.0670  0.8080
 7402SOL     OW33664   2.770   3.336   2.910 -0.6075 -0.0669 -0.1580
 7402SOL    HW133665   2.791   3.386   2.831  0.6609  1.1660  0.9411
 7402SOL    HW233666   2.859   3.308   2.933  0.0625  0.1233 -2.4929
 7403SOL     OW33667   0.672   2.352   6.117  0.9387 -0.2356 -0.3091
 7403SOL    HW133668   0.682   2.426   6.176 -1.3391 -0.2335  0.0763
 7403SOL    HW233669   0.675   2.283   6.184 -3.6421 -0.1448  0.0029
 7404SOL     OW33670   4.416   2.313   8.317 -0.1069  0.4053 -0.1763
 7404SOL    HW133671   4.467   2.385   8.279  2.2191 -1.0762  0.1507
 7404SOL    HW233672   4.481   2.243   8.328 -0.0724  0.3034 -1.0600
 7405SOL     OW33673   3.344   0.830   0.341 -0.5962 -0.5590  0.3027
 7405SOL    HW133674   3.390   0.801   0.262 -1.5583 -1.8099  0.1878
 7405SOL    HW233675   3.271   0.768   0.347  0.3155 -1.4258  2.4736
 7406SOL     OW33676   0.391   4.392   2.522 -0.5114  0.2060  0.8137
 7406SOL    HW133677   0.363   4.478   2.553 -1.3138 -0.4839  2.0258
 7406SOL    HW233678   0.470   4.373   2.573  0.0318  1.5922  0.4720
 7407SOL     OW33679   0.393   3.975  13.432 -0.2102 -0.0320  0.6681
 7407SOL    HW133680   0.319   4.021  13.471  0.1779 -1.0220  2.5541
 7407SOL    HW233681   0.342   3.910  13.384  0.0279  2.4439 -2.9296
 7408SOL     OW33682   4.214   1.068  13.478  0.4957 -0.2076  0.4084
 7408SOL    HW133683   4.199   1.086  13.571 -0.6215  1.5852 -0.1149
 7408SOL    HW233684   4.172   1.143  13.435  0.9077  0.6208  1.4663
 7409SOL     OW33685   0.596   0.216  14.580  0.3336  0.3633  0.3576
 7409SOL    HW133686   0.505   0.233  14.607  0.4596  1.7026 -0.0505
 7409SOL    HW233687   0.616   0.156  14.652 -2.3708  1.2045  1.8210
 7410SOL     OW33688   0.531   3.947   9.631  0.1523 -0.2604  0.0683
 7410SOL    HW133689   0.514   3.960   9.725 -0.5226 -1.3123  0.0952
 7410SOL    HW233690   0.598   3.879   9.634  0.3551 -0.0260  0.9481
 7411SOL     OW33691   3.719   2.108   6.509  0.3131  0.0169 -0.5747
 7411SOL    HW133692   3.676   2.109   6.594  1.5692  0.0526  0.0704
 7411SOL    HW233693   3.675   2.188   6.480  1.4084  0.9218  0.2477
 7412SOL     OW33694   0.855   3.070  13.583 -0.1263 -0.3812  0.1114
 7412SOL    HW133695   0.941   3.113  13.581 -1.6943  2.7656 -0.2726
 7412SOL    HW233696   0.886   3.008  13.649  3.6049  1.7112  0.3501
 7413SOL     OW33697   2.247   0.872   0.731 -0.3941  0.0107 -0.3748
 7413SOL    HW133698   2.307   0.805   0.765  1.5048  2.0120  0.1721
 7413SOL    HW233699   2.289   0.950   0.766 -1.0780 -0.0780  0.6301
 7414SOL     OW33700   1.127   4.266  15.823  0.2395 -0.6434 -0.4080
 7414SOL    HW133701   1.220   4.249  15.839 -0.3958 -2.5590  1.2957
 7414SOL    HW233702   1.120   4.355  15.856 -0.0911 -0.2514 -1.5255
 7415SOL     OW33703   0.019   3.386   2.348  0.2782 -0.1344  0.1878
 7415SOL    HW133704   4.666   3.368   2.296  0.5644 -0.4661 -0.1371
 7415SOL    HW233705   0.044   3.296   2.369 -1.3174 -0.1189  2.1601
 7416SOL     OW33706   2.192   1.328   1.785 -0.1825 -0.9976  0.5100
 7416SOL    HW133707   2.236   1.287   1.859  0.9338 -1.2216 -0.2665
 7416SOL    HW233708   2.104   1.291   1.794 -0.1921 -1.0893  0.0714
 7417SOL     OW33709   3.245   1.042   3.675 -0.1074 -0.3744 -0.4763
 7417SOL    HW133710   3.278   0.992   3.600 -3.4021 -0.3387 -1.9572
 7417SOL    HW233711   3.278   1.130   3.657 -1.0910 -0.1795 -1.3323
 7418SOL     OW33712   3.288   3.928   4.693 -0.0888  0.3904 -0.5278
 7418SOL    HW133713   3.270   4.003   4.750  0.0720 -0.7907  1.0782
 7418SOL    HW233714   3.325   3.867   4.757  1.2018  1.3182 -0.3918
 7419SOL     OW33715   3.171   4.148   0.520  0.4335  0.0521  0.0385
 7419SOL    HW133716   3.205   4.184   0.438 -0.4980 -2.1361 -1.2964
 7419SOL    HW233717   3.186   4.055   0.503 -2.4149 -0.2832 -0.7305
 7420SOL     OW33718   3.264   0.225   4.156 -0.4206  0.1239  0.2648
 7420SOL    HW133719   3.209   0.303   4.158 -1.6390 -0.7277 -0.0557
 7420SOL    HW233720   3.201   0.157   4.134  0.9408 -1.0682  0.0440
 7421SOL     OW33721   3.380   4.038   3.234  0.1031 -0.2060  0.1871
 7421SOL    HW133722   3.339   3.962   3.275 -0.7318  1.4433  2.3757
 7421SOL    HW233723   3.465   4.038   3.276 -1.0144  0.6803  2.4504
 7422SOL     OW33724   1.469   0.660  16.341  0.2978  0.0049  0.5844
 7422SOL    HW133725   1.499   0.582  16.293  4.4457  2.6856 -1.1916
 7422SOL    HW233726   1.392   0.626  16.386  1.6735 -1.5445  1.7684
 7423SOL     OW33727   4.458   2.675   6.251  0.0051 -0.2080 -0.6351
 7423SOL    HW133728   4.393   2.651   6.318 -0.7222  1.8388 -0.5840
 7423SOL    HW233729   4.507   2.593   6.255  0.6886  0.2796  1.0039
 7424SOL     OW33730   4.273   3.371   3.568  0.3401 -0.0574  0.3809
 7424SOL    HW133731   4.188   3.398   3.604 -0.2748 -0.4966 -0.7681
 7424SOL    HW233732   4.253   3.383   3.476  0.2674 -1.9429  0.1646
 7425SOL     OW33733   0.446   1.189   6.989 -0.1627  0.1981 -0.0540
 7425SOL    HW133734   0.389   1.134   7.042 -0.2874  1.2113  0.8442
 7425SOL    HW233735   0.390   1.264   6.972 -3.0789 -0.9998  4.4562
 7426SOL     OW33736   0.083   1.172   6.290  0.1273 -0.4251 -0.3581
 7426SOL    HW133737   0.033   1.094   6.266 -2.5543  1.2840 -0.2673
 7426SOL    HW233738   0.017   1.220   6.341  2.6094 -0.4487  2.8787
 7427SOL     OW33739   4.154   3.628   4.074 -0.1655  0.1341  0.1204
 7427SOL    HW133740   4.169   3.664   3.987  0.3558 -1.8803 -0.6076
 7427SOL    HW233741   4.217   3.669   4.134 -1.1026  0.6383  0.7664
 7428SOL     OW33742   3.627   3.336  13.475 -0.6353 -0.2441  0.0655
 7428SOL    HW133743   3.585   3.388  13.544  0.6677  0.0509  0.6322
 7428SOL    HW233744   3.717   3.324  13.503 -0.6988  0.1246  0.4364
 7429SOL     OW33745   3.172   1.175   1.530  0.7908 -0.4028  0.2268
 7429SOL    HW133746   3.190   1.112   1.460 -0.0699 -0.1247 -0.2424
 7429SOL    HW233747   3.106   1.130   1.582 -1.0371  0.5892 -1.2323
 7430SOL     OW33748   1.496   3.424   6.404 -0.1631  0.0870 -0.0104
 7430SOL    HW133749   1.476   3.331   6.398  1.7009 -0.3557  0.8961
 7430SOL    HW233750   1.430   3.445   6.470 -1.4834 -3.9774 -0.0330
 7431SOL     OW33751   2.137   0.695   3.106  0.3623 -0.5020 -0.2397
 7431SOL    HW133752   2.228   0.693   3.079  1.2096 -2.9725  2.8820
 7431SOL    HW233753   2.101   0.614   3.069 -2.8248  0.7510  0.0673
 7432SOL     OW33754   3.074   4.366   2.404 -0.1350  0.2393  0.2248
 7432SOL    HW133755   3.168   4.349   2.410 -0.5408 -3.1746 -2.6855
 7432SOL    HW233756   3.081   4.455   2.371  0.7795 -0.0196 -0.2754
 7433SOL     OW33757   2.553   0.130   3.669 -0.5826  0.0470  0.1420
 7433SOL    HW133758   2.504   0.210   3.655  1.7933  1.5232  0.3214
 7433SOL    HW233759   2.570   0.142   3.762 -0.1481  2.5493 -0.2686
 7434SOL     OW33760   0.970   0.807   3.395  0.0459  0.0187  0.2447
 7434SOL    HW133761   0.969   0.711   3.401  2.1509 -0.1553 -2.0470
 7434SOL    HW233762   1.056   0.825   3.355 -0.6495  2.2053 -0.2275
 7435SOL     OW33763   0.708   4.446  11.593 -0.2386 -0.0202  1.0328
 7435SOL    HW133764   0.783   4.397  11.559 -0.5540  0.4427 -0.3419
 7435SOL    HW233765   0.665   4.476  11.513  0.8774  1.1918  0.8849
 7436SOL     OW33766   3.721   0.062  16.231 -0.5142 -0.4873 -0.2401
 7436SOL    HW133767   3.714   0.026  16.143  1.4367 -1.2940 -0.0673
 7436SOL    HW233768   3.679   4.719  16.283  0.5777 -0.3160  0.8636
 7437SOL     OW33769   1.903   3.597   4.035  0.4124 -0.2630 -0.0331
 7437SOL    HW133770   1.993   3.593   4.065  1.0995 -0.4547 -2.1096
 7437SOL    HW233771   1.887   3.518   4.086  0.2737  0.4468  1.0288
 7438SOL     OW33772   2.797   4.667   6.323  0.1536  0.1528 -0.3574
 7438SOL    HW133773   2.825   4.630   6.407 -2.1146 -2.2213 -0.6573
 7438SOL    HW233774   2.707   4.634   6.324  0.1245  0.2195 -1.0209
 7439SOL     OW33775   3.790   1.103   5.387 -0.0338 -0.2340  0.2012
 7439SOL    HW133776   3.785   1.018   5.342  2.0384  0.9320 -2.2207
 7439SOL    HW233777   3.781   1.079   5.479 -0.4252 -1.0009 -0.0304
 7440SOL     OW33778   4.122   1.132   2.441 -0.0021 -0.4677  1.0575
 7440SOL    HW133779   4.180   1.073   2.393  0.9096  1.0608  0.2964
 7440SOL    HW233780   4.082   1.066   2.498 -1.5408 -0.9918 -0.6377
 7441SOL     OW33781   1.634   1.851   3.895  0.6642  0.2674  0.2646
 7441SOL    HW133782   1.660   1.761   3.918 -1.2990 -0.5246 -0.5823
 7441SOL    HW233783   1.718   1.897   3.895  1.6116 -1.4323  0.2541
 7442SOL     OW33784   4.063   3.631   6.284 -0.0871 -0.1999 -0.0345
 7442SOL    HW133785   4.002   3.589   6.224 -1.3897 -1.9906  2.5630
 7442SOL    HW233786   4.114   3.691   6.230  1.4480 -0.4328  1.1526
 7443SOL     OW33787   3.274   1.569   8.675 -0.0131  0.1797 -0.1685
 7443SOL    HW133788   3.340   1.633   8.650 -0.3608  0.3434 -0.6745
 7443SOL    HW233789   3.325   1.498   8.714  0.0908  0.4243  0.1373
 7444SOL     OW33790   1.752   4.039  11.235  0.0422  0.6252  0.3897
 7444SOL    HW133791   1.708   3.987  11.167 -0.2192  1.5343 -0.1379
 7444SOL    HW233792   1.729   4.128  11.210 -3.0558  0.2075  1.7090
 7445SOL     OW33793   2.582   3.703   2.439 -0.0833  0.1814 -0.6733
 7445SOL    HW133794   2.594   3.790   2.402  0.2617 -0.1629 -1.3792
 7445SOL    HW233795   2.574   3.652   2.358 -0.9782  0.9270 -1.0546
 7446SOL     OW33796   0.043   4.369   2.378 -0.2437  0.2929 -0.0601
 7446SOL    HW133797   0.051   4.382   2.473  3.5240 -4.8130  0.3431
 7446SOL    HW233798   0.128   4.327   2.366 -0.2311 -0.1356  1.5205
 7447SOL     OW33799   3.295   3.884   7.802 -0.0020 -0.1562  0.5140
 7447SOL    HW133800   3.359   3.890   7.731  0.1159  0.4380  0.6675
 7447SOL    HW233801   3.327   3.938   7.875 -1.6006  0.8666  0.4755
 7448SOL     OW33802   3.032   1.233  10.636  0.2139  0.1305  0.5042
 7448SOL    HW133803   3.028   1.316  10.589 -0.3485 -0.4305 -0.4462
 7448SOL    HW233804   3.125   1.211  10.640 -0.0699 -0.5620  3.2569
 7449SOL     OW33805   3.485   1.564   6.995 -0.1004  0.3145 -0.1576
 7449SOL    HW133806   3.485   1.514   7.077 -0.8855 -0.1631 -0.4536
 7449SOL    HW233807   3.494   1.486   6.940  0.0170  1.9524 -2.4453
 7450SOL     OW33808   4.216   3.225   8.028 -0.1105 -0.0235  0.5044
 7450SOL    HW133809   4.303   3.253   8.002 -0.6325  2.1348  1.1133
 7450SOL    HW233810   4.220   3.130   8.034 -3.9291 -0.0305  3.0306
 7451SOL     OW33811   2.199   4.527  16.813  0.5399 -0.0558  0.1814
 7451SOL    HW133812   2.131   4.468  16.781  0.5687 -0.7341  1.3804
 7451SOL    HW233813   2.195   4.595  16.746 -0.0460  0.9694  1.2811
 7452SOL     OW33814   2.301   1.988   4.118 -0.1160 -0.4411  0.3412
 7452SOL    HW133815   2.299   1.908   4.065 -0.6609  0.5776 -1.1700
 7452SOL    HW233816   2.385   2.033   4.105 -0.7000  0.2294 -1.0555
 7453SOL     OW33817   4.699   4.526   5.954 -0.5629 -0.0170  0.1806
 7453SOL    HW133818   4.676   4.618   5.966  2.8841  1.2720 -3.1061
 7453SOL    HW233819   4.675   4.487   6.038  0.7156  0.3307  0.6955
 7454SOL     OW33820   2.610   2.770   2.759 -0.1093 -0.1366 -0.1567
 7454SOL    HW133821   2.524   2.800   2.730 -0.7332 -0.7449  1.0845
 7454SOL    HW233822   2.589   2.680   2.783 -0.7340 -0.3122 -1.3517
 7455SOL     OW33823   2.489   2.404   3.381 -0.2088  0.0687  0.0835
 7455SOL    HW133824   2.493   2.324   3.432 -2.1409 -1.2263 -1.7983
 7455SOL    HW233825   2.581   2.432   3.385 -1.5712  4.2433  1.6253
 7456SOL     OW33826   3.619   3.384   7.547 -0.4398 -0.1241 -0.1652
 7456SOL    HW133827   3.624   3.461   7.492  1.7269 -1.4278 -1.8115
 7456SOL    HW233828   3.646   3.413   7.634  0.6674  1.4338 -1.0270
 7457SOL     OW33829   1.251   1.090  10.466  0.2438  0.0197  0.2434
 7457SOL    HW133830   1.168   1.050  10.440 -0.5517 -0.5030  3.6490
 7457SOL    HW233831   1.284   1.112  10.378  2.5902  0.5392  1.2618
 7458SOL     OW33832   1.609   2.818   6.021  0.0574 -0.1371 -0.3072
 7458SOL    HW133833   1.586   2.780   5.936  2.1821 -0.4427 -0.7504
 7458SOL    HW233834   1.661   2.752   6.066  1.1510 -0.8604 -2.6135
 7459SOL     OW33835   2.920   4.476   5.708  0.2359  0.0507  0.4079
 7459SOL    HW133836   2.949   4.461   5.618 -1.6874  1.0172 -0.3712
 7459SOL    HW233837   2.923   4.390   5.749 -0.6448  0.5217  1.4709
 7460SOL     OW33838   0.250   0.034  16.505 -0.1105  0.0173 -0.1789
 7460SOL    HW133839   0.242   0.127  16.483  0.5701 -0.2009 -1.3358
 7460SOL    HW233840   0.173   0.027  16.561  1.2936  0.9127  1.8580
 7461SOL     OW33841   1.270   2.448   1.500 -0.3388 -0.7963  0.3071
 7461SOL    HW133842   1.232   2.456   1.412 -1.4909  2.5150  1.1236
 7461SOL    HW233843   1.266   2.535   1.540  1.1449 -1.2383  1.4253
 7462SOL     OW33844   2.178   2.377   4.802  0.0606  0.4136  0.2473
 7462SOL    HW133845   2.243   2.345   4.864  0.6704  0.8134 -0.1862
 7462SOL    HW233846   2.110   2.312   4.818  0.0952  0.3856  0.2797
 7463SOL     OW33847   4.367   4.621   6.517 -0.3700  0.4612  0.7212
 7463SOL    HW133848   4.380   4.604   6.610  1.8794 -3.7515 -0.3450
 7463SOL    HW233849   4.453   4.596   6.483 -1.2659 -0.5352 -0.8463
 7464SOL     OW33850   2.828   0.060  12.831 -0.1231  0.0529 -0.1435
 7464SOL    HW133851   2.815   0.041  12.924 -0.9082 -0.3530 -0.3310
 7464SOL    HW233852   2.738   0.078  12.804  0.4039  0.8267 -1.3821
 7465SOL     OW33853   2.124   4.050   6.140 -0.1462 -0.5661 -0.4390
 7465SOL    HW133854   2.094   3.993   6.212 -0.8392  1.8006  1.1331
 7465SOL    HW233855   2.159   4.129   6.181 -0.9776 -0.9772  1.0638
 7466SOL     OW33856   2.581   0.914  10.833 -0.3440  0.0260 -0.5670
 7466SOL    HW133857   2.644   0.871  10.891 -1.8430 -1.8492 -0.3518
 7466SOL    HW233858   2.501   0.873  10.866 -0.7734  0.1667 -1.4387
 7467SOL     OW33859   2.482   3.324   7.232 -0.4250 -0.0234  0.2974
 7467SOL    HW133860   2.391   3.338   7.207 -0.9986 -1.1607  1.7616
 7467SOL    HW233861   2.481   3.230   7.250  2.3552 -0.3823 -1.5047
 7468SOL     OW33862   3.703   1.075   3.819  0.0978 -0.1981  0.2639
 7468SOL    HW133863   3.659   1.114   3.743 -1.4789 -2.9663 -0.2170
 7468SOL    HW233864   3.790   1.077   3.778  0.2459 -0.8269  0.5558
 7469SOL     OW33865   0.255   4.345  11.101  0.2813 -0.4076  0.1119
 7469SOL    HW133866   0.265   4.419  11.042 -1.6898  0.8424  1.3507
 7469SOL    HW233867   0.238   4.272  11.042 -1.1962  0.0912 -0.0785
 7470SOL     OW33868   1.841   4.145  12.510 -0.1405 -0.2597  0.7507
 7470SOL    HW133869   1.879   4.181  12.591  1.0882  2.1821 -0.9078
 7470SOL    HW233870   1.778   4.082  12.543 -0.6862 -1.6470 -2.9708
 7471SOL     OW33871   4.389   2.474   2.148  0.5158 -0.0477 -0.1511
 7471SOL    HW133872   4.477   2.463   2.113  0.2857  1.4004 -1.1927
 7471SOL    HW233873   4.352   2.518   2.071 -2.1598  1.8221  2.2051
 7472SOL     OW33874   0.305   2.185   4.462  0.1175 -0.5329 -0.3211
 7472SOL    HW133875   0.324   2.269   4.420  2.0838 -0.1857  1.2790
 7472SOL    HW233876   0.270   2.130   4.391 -1.4172 -0.1759  0.1533
 7473SOL     OW33877   3.863   4.142  11.860  0.1110  0.2697 -0.0226
 7473SOL    HW133878   3.836   4.054  11.885  1.5892 -0.6703 -1.7901
 7473SOL    HW233879   3.850   4.189  11.943  1.6632 -1.1008  1.0121
 7474SOL     OW33880   1.909   2.044   0.840  0.1027 -0.2193 -0.1736
 7474SOL    HW133881   1.940   2.130   0.868  2.1931 -0.2016 -2.5843
 7474SOL    HW233882   1.903   2.036   0.745  2.0972 -1.6206 -0.1794
 7475SOL     OW33883   3.105   0.087   4.618  0.3776 -0.1246 -0.1746
 7475SOL    HW133884   3.164   0.133   4.558 -0.3771  1.3366  0.1932
 7475SOL    HW233885   3.167   0.023   4.653  1.1679  0.0858 -1.1764
 7476SOL     OW33886   4.159   2.066   4.854  0.0698  0.0180  0.1617
 7476SOL    HW133887   4.078   2.017   4.845 -0.0336  0.2848 -0.3826
 7476SOL    HW233888   4.131   2.156   4.871 -0.8219 -0.1436 -0.4269
 7477SOL     OW33889   0.978   1.493  17.182 -0.0404  0.0702  0.0633
 7477SOL    HW133890   0.946   1.408  17.152 -0.8465  0.4272 -0.0931
 7477SOL    HW233891   0.921   1.498  17.258  1.1138 -0.3244  0.9412
 7478SOL     OW33892   3.642   2.171   3.815 -0.2133 -0.2652  0.3224
 7478SOL    HW133893   3.713   2.185   3.878  1.1177 -1.7258 -0.8610
 7478SOL    HW233894   3.629   2.076   3.825 -0.5808  0.0583  2.9474
 7479SOL     OW33895   1.206   3.676   7.467  0.0071 -0.3218 -0.6956
 7479SOL    HW133896   1.225   3.698   7.375  0.1593  0.1714 -0.5441
 7479SOL    HW233897   1.294   3.651   7.495  0.0873  0.4291 -0.2760
 7480SOL     OW33898   0.335   3.825   7.163 -0.7771 -0.4811 -0.4262
 7480SOL    HW133899   0.407   3.775   7.203 -1.3877  2.0349  3.7534
 7480SOL    HW233900   0.382   3.901   7.127 -1.9022 -0.1842 -1.2511
 7481SOL     OW33901   3.638   0.848   2.205  0.9261  0.4163  0.1233
 7481SOL    HW133902   3.620   0.847   2.111 -2.7812 -0.1690  0.8183
 7481SOL    HW233903   3.628   0.753   2.210  0.4327  0.4303 -0.6121
 7482SOL     OW33904   1.505   0.367   0.921 -0.4561 -0.4007  0.2352
 7482SOL    HW133905   1.420   0.393   0.957 -0.6544 -0.4793 -0.1825
 7482SOL    HW233906   1.481   0.307   0.850 -1.5090  1.7621 -1.2434
 7483SOL     OW33907   1.986   1.500  17.514  0.1561 -0.4243  0.1685
 7483SOL    HW133908   1.970   1.435  17.446  0.4897 -0.6034  0.2616
 7483SOL    HW233909   1.917   1.482  17.578  0.8630 -1.7907  0.5485
 7484SOL     OW33910   1.938   2.516   1.570  0.2834 -0.2213  0.5648
 7484SOL    HW133911   1.864   2.548   1.520  1.9362  0.2426 -1.5783
 7484SOL    HW233912   1.980   2.460   1.504  1.6236 -0.2194  1.4108
 7485SOL     OW33913   0.391   3.463  11.403 -0.6141 -0.1461 -0.6617
 7485SOL    HW133914   0.481   3.451  11.373  0.4301  0.7365  2.0576
 7485SOL    HW233915   0.350   3.477  11.318 -0.3825 -0.0175 -0.7538
 7486SOL     OW33916   1.300   2.625   6.085 -0.1386 -0.5684  0.5403
 7486SOL    HW133917   1.364   2.609   6.016  0.5250 -1.5332  1.3669
 7486SOL    HW233918   1.353   2.668   6.152  0.7217 -1.4574  0.4371
 7487SOL     OW33919   1.178   3.474   5.554 -0.6185 -0.1056  0.8630
 7487SOL    HW133920   1.184   3.500   5.462 -3.7117 -0.9803  0.4129
 7487SOL    HW233921   1.261   3.512   5.584 -0.7687 -0.6615  1.9896
 7488SOL     OW33922   3.484   1.908  14.942 -0.4917  0.3546 -0.0140
 7488SOL    HW133923   3.414   1.969  14.919 -0.4956  1.4273  2.8048
 7488SOL    HW233924   3.454   1.878  15.028 -1.1419 -0.1931 -0.4411
 7489SOL     OW33925   1.041   4.292   4.152 -0.0740  0.3559 -0.0531
 7489SOL    HW133926   0.970   4.342   4.112 -1.0671 -1.2939 -0.3497
 7489SOL    HW233927   0.982   4.254   4.217 -0.6075 -0.1059 -0.8070
 7490SOL     OW33928   1.541   1.706   0.173 -0.2232  0.1708  0.5883
 7490SOL    HW133929   1.555   1.613   0.187 -0.1806  0.3525  1.7492
 7490SOL    HW233930   1.447   1.704   0.152 -0.4283  1.3879  1.3846
 7491SOL     OW33931   4.333   3.072  13.433 -0.1908 -0.0481 -0.3456
 7491SOL    HW133932   4.293   3.056  13.518 -0.5098 -1.0969 -0.6871
 7491SOL    HW233933   4.363   3.162  13.439  2.6918 -0.9738 -0.6833
 7492SOL     OW33934   3.829   1.024   6.114  0.5715 -0.6739  0.1373
 7492SOL    HW133935   3.814   1.020   6.019 -1.5309 -1.9065  0.5275
 7492SOL    HW233936   3.746   1.052   6.152  1.0845  0.4791  0.4118
 7493SOL     OW33937   1.169   2.009   5.177  0.2878  0.0958  0.0016
 7493SOL    HW133938   1.085   2.055   5.171  1.5618  2.1059 -2.6904
 7493SOL    HW233939   1.214   2.035   5.097  0.0858  0.8797  0.1475
 7494SOL     OW33940   4.145   1.574  10.365 -0.0053  0.5778  0.0894
 7494SOL    HW133941   4.193   1.629  10.303  0.8747  1.4461  1.5180
 7494SOL    HW233942   4.057   1.611  10.361  0.6024  2.0754  0.4097
 7495SOL     OW33943   3.776   1.209   2.959  0.3379 -0.3055  0.3595
 7495SOL    HW133944   3.780   1.285   2.902  1.3303 -0.9421 -0.4167
 7495SOL    HW233945   3.693   1.233   2.999  1.1810 -0.0491  1.9650
 7496SOL     OW33946   2.163   1.193   0.800  0.3000  0.0049 -0.9843
 7496SOL    HW133947   2.247   1.178   0.759 -0.1303  0.0512 -1.8756
 7496SOL    HW233948   2.149   1.288   0.796  2.6113  0.4042  0.5857
 7497SOL     OW33949   0.905   1.787  15.044 -0.3108 -0.5938  0.3954
 7497SOL    HW133950   0.988   1.807  15.087 -0.7741  1.0166  0.5401
 7497SOL    HW233951   0.864   1.872  15.061 -0.0552 -0.2983 -0.4630
 7498SOL     OW33952   4.073   2.194   8.614  0.0783  0.5604 -0.1311
 7498SOL    HW133953   4.154   2.156   8.648  0.0569 -0.1661 -0.9051
 7498SOL    HW233954   4.111   2.275   8.578 -2.7744  1.3508 -1.3632
 7499SOL     OW33955   1.581   0.642   3.799  0.1768  0.0875 -0.0632
 7499SOL    HW133956   1.537   0.558   3.810  0.2160  0.2650  1.3696
 7499SOL    HW233957   1.507   0.701   3.787  0.1198 -0.0509 -0.3867
 7500SOL     OW33958   4.162   4.088   6.747  0.3265  0.3734 -0.0877
 7500SOL    HW133959   4.084   4.054   6.791 -0.0779  1.6521  0.1822
 7500SOL    HW233960   4.134   4.177   6.727  1.0009  0.3136 -1.2847
 7501SOL     OW33961   1.825   2.364   6.950 -0.1398  0.5648 -0.5517
 7501SOL    HW133962   1.859   2.276   6.970 -0.0706 -0.0077 -3.2131
 7501SOL    HW233963   1.753   2.376   7.012 -1.1558 -0.4085 -1.5446
 7502SOL     OW33964   3.475   1.794   7.157 -0.2018  0.2326  0.1175
 7502SOL    HW133965   3.459   1.845   7.078  3.0908  1.2743  0.1238
 7502SOL    HW233966   3.406   1.729   7.151 -0.2749  0.4194 -1.0602
 7503SOL     OW33967   4.379   3.809  12.778 -0.1197  0.4919  0.2441
 7503SOL    HW133968   4.473   3.801  12.794  0.1441 -1.5551 -2.3261
 7503SOL    HW233969   4.383   3.822  12.683  1.8769  0.4481  0.3160
 7504SOL     OW33970   4.057   3.940   2.180  0.2898  0.5769 -0.0997
 7504SOL    HW133971   3.981   3.937   2.121 -0.6614 -2.0767  1.2431
 7504SOL    HW233972   4.128   3.909   2.125 -0.8784 -0.5512 -0.9751
 7505SOL     OW33973   0.341   0.742   7.753 -0.6605  0.4119  0.2111
 7505SOL    HW133974   0.314   0.791   7.831 -0.6620 -0.8362  1.0069
 7505SOL    HW233975   0.343   0.651   7.784 -0.0209 -0.6164 -2.8530
 7506SOL     OW33976   3.826   1.325   6.825 -0.2266 -0.0393  0.1949
 7506SOL    HW133977   3.863   1.271   6.895 -2.6189  2.6028  3.5101
 7506SOL    HW233978   3.904   1.338   6.771  0.2261 -0.0292  0.8482
 7507SOL     OW33979   1.750   0.556  17.119  0.1569  0.0748  0.2270
 7507SOL    HW133980   1.708   0.515  17.195 -0.6537 -0.6399 -0.5964
 7507SOL    HW233981   1.804   0.626  17.155  0.9604 -0.8057  0.7342
 7508SOL     OW33982   1.534   0.048  15.662  0.1695 -0.0139  0.4701
 7508SOL    HW133983   1.504   0.030  15.573 -1.3485 -2.6666  1.5297
 7508SOL    HW233984   1.598   0.117  15.648  1.3012 -1.6132 -2.2766
 7509SOL     OW33985   2.297   1.345   3.916  0.2078  0.4558  0.2021
 7509SOL    HW133986   2.333   1.261   3.887  0.2457  0.2681  0.7840
 7509SOL    HW233987   2.227   1.318   3.977 -0.1438 -1.1075 -0.8806
 7510SOL     OW33988   4.247   2.756   3.050 -0.2829  0.2308  0.1552
 7510SOL    HW133989   4.214   2.806   2.976  1.5183  0.9229 -0.1818
 7510SOL    HW233990   4.194   2.789   3.123  1.1438 -1.1301  1.8354
 7511SOL     OW33991   0.368   2.069   5.608 -0.0163  0.1777  0.3524
 7511SOL    HW133992   0.353   2.030   5.522 -1.4204  0.9691  0.2390
 7511SOL    HW233993   0.459   2.047   5.627  0.1173 -1.2034 -1.9355
 7512SOL     OW33994   2.500   1.489  17.509  0.2229 -0.1863 -0.6744
 7512SOL    HW133995   2.454   1.556  17.458  2.1810  1.2709 -0.4995
 7512SOL    HW233996   2.494   1.409  17.456  0.1626  1.1308 -2.6589
 7513SOL     OW33997   4.259   1.282  15.837 -0.3286  0.5033 -0.6804
 7513SOL    HW133998   4.275   1.199  15.793 -0.4286 -0.0778  0.3788
 7513SOL    HW233999   4.294   1.340  15.770 -0.3961  4.6224  2.8453
 7514SOL     OW34000   4.289   4.001   0.013  1.0019  0.1842 -0.3677
 7514SOL    HW134001   4.344   3.991   0.090  0.1959  0.5709  0.2632
 7514SOL    HW234002   4.300   4.095   0.002 -1.3591  0.1235 -3.2694
 7515SOL     OW34003   1.637   0.902  14.677 -0.0695 -0.5867  0.7008
 7515SOL    HW134004   1.664   0.981  14.631 -2.5933  0.2444  0.6504
 7515SOL    HW234005   1.716   0.874  14.723  0.2624 -0.1950  0.3683
 7516SOL     OW34006   0.058   3.694  15.914 -0.6417 -0.3477 -0.1340
 7516SOL    HW134007   0.042   3.765  15.851 -3.6525 -0.0406  0.9810
 7516SOL    HW234008   4.700   3.647  15.909 -1.1730  0.6446 -0.5560
 7517SOL     OW34009   2.401   4.254   1.273  0.2859 -0.8396 -0.5500
 7517SOL    HW134010   2.409   4.161   1.249  1.0780 -0.6637 -0.9764
 7517SOL    HW234011   2.390   4.244   1.368 -1.5464 -0.2034 -0.6978
 7518SOL     OW34012   2.520   2.324   5.901 -0.2814  0.4425 -0.1871
 7518SOL    HW134013   2.580   2.280   5.961  1.0092  2.1222 -0.2132
 7518SOL    HW234014   2.435   2.296   5.935 -0.3195 -3.2240 -3.2719
 7519SOL     OW34015   3.448   2.744   2.351 -0.2810  0.9531  0.3189
 7519SOL    HW134016   3.478   2.661   2.388 -0.5541  0.0474 -1.5070
 7519SOL    HW234017   3.442   2.714   2.261  0.9788  0.7271  0.3074
 7520SOL     OW34018   2.061   0.455   3.521 -0.4278 -0.1521 -0.2373
 7520SOL    HW134019   2.153   0.481   3.515 -0.7314  1.4859  2.0618
 7520SOL    HW234020   2.069   0.368   3.482 -1.7235  0.2157 -1.3115
 7521SOL     OW34021   0.843   0.873  14.256  0.0827  0.0960 -0.1136
 7521SOL    HW134022   0.750   0.895  14.252  1.3380  5.2526 -0.1393
 7521SOL    HW234023   0.852   0.777  14.263  1.4192  0.4562  3.0138
 7522SOL     OW34024   4.149   1.500   2.302 -0.2039  0.0366  0.5473
 7522SOL    HW134025   4.069   1.517   2.352 -1.0473 -1.1595 -0.3951
 7522SOL    HW234026   4.118   1.461   2.221 -0.1417  2.1627 -0.5090
 7523SOL     OW34027   3.832   1.649  12.441  0.0581 -0.3220 -0.2715
 7523SOL    HW134028   3.874   1.638  12.527  0.9410  3.4387 -0.2234
 7523SOL    HW234029   3.787   1.564  12.436  1.9015 -1.4395  2.0799
 7524SOL     OW34030   1.927   4.361   2.751 -0.1078  0.2970 -0.1393
 7524SOL    HW134031   2.000   4.318   2.796 -0.4575  2.3193  2.4118
 7524SOL    HW234032   1.861   4.293   2.761  0.3854 -0.4988 -2.4454
 7525SOL     OW34033   0.381   4.501  14.363 -0.2271 -0.3690  0.2789
 7525SOL    HW134034   0.288   4.525  14.357 -0.1906 -0.2226  0.2933
 7525SOL    HW234035   0.403   4.572  14.423 -2.2118  1.4021 -1.0871
 7526SOL     OW34036   0.220   0.894  14.615 -0.3489 -0.3895  0.3287
 7526SOL    HW134037   0.310   0.877  14.645 -0.0470  1.1939  0.2858
 7526SOL    HW234038   0.170   0.831  14.667  1.4015 -1.2192  1.0306
 7527SOL     OW34039   0.630   1.341  11.700 -0.0352  0.2960 -0.0306
 7527SOL    HW134040   0.546   1.380  11.675 -0.2426  1.1364  2.0280
 7527SOL    HW234041   0.596   1.251  11.701 -0.4764  0.4535 -0.8094
 7528SOL     OW34042   0.373   4.286   1.255  0.7483 -0.3561 -0.3769
 7528SOL    HW134043   0.439   4.219   1.268  3.3313  2.3229  0.2953
 7528SOL    HW234044   0.303   4.241   1.303  1.3826 -0.4715  0.4406
 7529SOL     OW34045   0.219   3.800   6.896  0.8428 -0.5283 -0.5756
 7529SOL    HW134046   0.246   3.801   6.988  1.9555 -2.5130 -0.8728
 7529SOL    HW234047   0.247   3.887   6.866 -1.8934  0.9355  1.1395
 7530SOL     OW34048   1.366   2.574   8.239  0.2520 -0.0631  0.4096
 7530SOL    HW134049   1.428   2.623   8.186 -0.1553 -0.8382 -0.7661
 7530SOL    HW234050   1.340   2.642   8.302 -1.7980  1.9386 -2.6136
 7531SOL     OW34051   3.029   2.954   5.800 -0.2140  0.4197 -0.1645
 7531SOL    HW134052   3.024   2.940   5.894  0.1706 -2.5244 -0.6006
 7531SOL    HW234053   3.119   2.987   5.797  0.3873 -0.9448  2.4841
 7532SOL     OW34054   3.731   3.885  11.148  0.1642  0.1629 -0.5150
 7532SOL    HW134055   3.684   3.808  11.181  1.9459  0.1589  2.0349
 7532SOL    HW234056   3.797   3.830  11.105 -0.1269 -0.1207 -0.5954
 7533SOL     OW34057   0.230   0.987   1.667 -0.8546 -0.0513  0.2791
 7533SOL    HW134058   0.193   0.941   1.592 -0.8317  0.6985 -0.1980
 7533SOL    HW234059   0.218   1.081   1.653  3.1357  0.6399  1.3592
 7534SOL     OW34060   0.185   2.687   5.972 -0.7082 -0.0023  0.4768
 7534SOL    HW134061   0.160   2.676   6.063 -1.3085 -0.0780  0.3032
 7534SOL    HW234062   0.280   2.672   5.976 -0.2862  2.5605  0.2305
 7535SOL     OW34063   4.472   1.772   6.894  0.1825  0.3252  0.4438
 7535SOL    HW134064   4.559   1.792   6.927  0.4856  2.0901 -1.4800
 7535SOL    HW234065   4.424   1.799   6.973 -0.6017 -2.6818  1.0086
 7536SOL     OW34066   4.186   3.364   2.045  0.3765  0.1709  0.5650
 7536SOL    HW134067   4.168   3.347   1.952 -0.8934  0.2048  0.8025
 7536SOL    HW234068   4.148   3.450   2.062  0.2326 -0.3398  2.7540
 7537SOL     OW34069   2.361   3.430   5.961 -0.3542  0.4449  0.2389
 7537SOL    HW134070   2.388   3.354   6.013 -2.1109 -0.7718 -0.5990
 7537SOL    HW234071   2.423   3.499   5.982 -1.4758  1.3927  0.4326
 7538SOL     OW34072   3.723   0.597   9.180 -0.5873 -0.6244  0.3038
 7538SOL    HW134073   3.760   0.524   9.132  1.0387  0.0591  0.5334
 7538SOL    HW234074   3.664   0.633   9.114  0.1355  0.1759  0.0892
 7539SOL     OW34075   0.447   3.247   3.579 -0.2889 -0.3301  0.1094
 7539SOL    HW134076   0.368   3.200   3.607 -0.4824  0.6342  1.1795
 7539SOL    HW234077   0.450   3.302   3.657 -0.1970  2.2672 -1.7397
 7540SOL     OW34078   1.102   3.253   7.721  0.1513  0.0713 -0.4402
 7540SOL    HW134079   1.082   3.269   7.813  1.8972  1.9365 -0.3692
 7540SOL    HW234080   1.102   3.345   7.694  0.9231  0.7062  1.7103
 7541SOL     OW34081   2.193   2.732   2.539  0.4935  0.0699  0.3122
 7541SOL    HW134082   2.183   2.796   2.468 -2.5493  0.6293  1.2141
 7541SOL    HW234083   2.218   2.788   2.612 -1.2626  0.0571  0.9373
 7542SOL     OW34084   1.642   2.991   7.453  0.3951  0.2284  0.3533
 7542SOL    HW134085   1.591   2.947   7.521 -1.2887  0.9789 -0.4268
 7542SOL    HW234086   1.703   2.918   7.440 -1.2048 -1.2741  1.2817
 7543SOL     OW34087   3.681   3.727   8.205 -0.0940  0.0608 -0.2192
 7543SOL    HW134088   3.759   3.695   8.159 -0.1435  0.5798 -0.6573
 7543SOL    HW234089   3.617   3.718   8.133  0.0951 -0.4709 -0.3211
 7544SOL     OW34090   3.522   3.281   5.786 -0.2783  0.2586  0.2418
 7544SOL    HW134091   3.461   3.233   5.842 -1.1463  0.9139 -0.1312
 7544SOL    HW234092   3.460   3.309   5.718 -1.7768 -1.9060  0.7312
 7545SOL     OW34093   2.418   1.354   2.156  0.3222 -0.2838 -0.2066
 7545SOL    HW134094   2.458   1.331   2.072 -2.8920 -0.8334 -1.5910
 7545SOL    HW234095   2.454   1.282   2.209 -2.0310 -0.2095  1.4876
 7546SOL     OW34096   4.629   4.408   6.213 -0.2447  0.0305  0.7742
 7546SOL    HW134097   4.545   4.364   6.229 -0.6470  0.2856 -0.6023
 7546SOL    HW234098   4.608   4.502   6.211 -1.9346 -0.3201  1.6682
 7547SOL     OW34099   0.378   0.374   1.636 -0.0967 -0.1546  0.4860
 7547SOL    HW134100   0.429   0.293   1.640 -1.1973 -0.8646  0.0393
 7547SOL    HW234101   0.439   0.442   1.665  0.3588 -0.6082  0.6042
 7548SOL     OW34102   0.231   4.687   8.031  0.6658  0.2267  0.2583
 7548SOL    HW134103   0.188   4.702   8.115  1.1512  1.1643  0.3357
 7548SOL    HW234104   0.292   4.623   8.068  0.1241 -0.6305 -0.3216
 7549SOL     OW34105   0.111   0.559  16.009  0.0624 -0.1828 -0.3926
 7549SOL    HW134106   0.089   0.474  15.971  0.4611 -0.6297  0.3804
 7549SOL    HW234107   0.064   0.558  16.092 -0.5482  1.8253 -0.7177
 7550SOL     OW34108   3.134   0.585  11.808 -0.1393 -0.1901  0.1427
 7550SOL    HW134109   3.206   0.648  11.806 -0.0316 -0.3576 -1.1261
 7550SOL    HW234110   3.192   0.509  11.816 -1.6148 -1.2622  0.4876
 7551SOL     OW34111   3.615   3.586   6.271  0.7112  0.0299  0.1227
 7551SOL    HW134112   3.544   3.527   6.297 -1.4897  2.8357  0.5107
 7551SOL    HW234113   3.597   3.611   6.180 -0.8010  0.8417  0.6476
 7552SOL     OW34114   3.828   2.910   8.703  0.2157 -0.7196 -0.1461
 7552SOL    HW134115   3.907   2.856   8.712  0.7057 -0.1098 -0.7268
 7552SOL    HW234116   3.846   2.978   8.768  1.9287 -0.3876 -0.9562
 7553SOL     OW34117   3.909   0.298   7.456 -0.4093 -0.2709 -0.3140
 7553SOL    HW134118   3.913   0.389   7.425  0.7830 -0.2660 -0.1410
 7553SOL    HW234119   3.945   0.262   7.375 -0.0452 -0.9698  0.1709
 7554SOL     OW34120   3.399   4.666   6.108 -0.0090  0.3030  0.1052
 7554SOL    HW134121   3.367   4.580   6.134 -1.1081  0.6235 -0.1990
 7554SOL    HW234122   3.426   4.653   6.017  1.8718 -1.1072  0.8741
 7555SOL     OW34123   1.156   2.134   7.686  1.2689 -0.1815  0.6696
 7555SOL    HW134124   1.222   2.070   7.658 -0.1409 -2.0120  1.5175
 7555SOL    HW234125   1.186   2.146   7.776 -1.5233 -0.0140  1.5807
 7556SOL     OW34126   0.618   3.921   3.005 -0.4978 -0.3341 -0.0627
 7556SOL    HW134127   0.566   3.851   2.965 -2.8200  1.2138  0.2615
 7556SOL    HW234128   0.705   3.900   2.972 -1.6019 -0.4294 -2.8469
 7557SOL     OW34129   0.656   4.518  15.838 -0.3876  0.3332  0.4832
 7557SOL    HW134130   0.694   4.521  15.750 -0.2453  2.3083  0.6109
 7557SOL    HW234131   0.572   4.560  15.821 -0.8617 -1.0986 -0.7447
 7558SOL     OW34132   1.355   2.371   6.815 -0.4068 -0.1400  0.3541
 7558SOL    HW134133   1.334   2.278   6.812 -1.6121  0.1024  1.3749
 7558SOL    HW234134   1.424   2.380   6.749  0.1447 -2.6662  0.5986
 7559SOL     OW34135   2.566   4.491   5.613 -0.2093 -0.0943 -0.1602
 7559SOL    HW134136   2.631   4.530   5.554 -0.2867 -1.3934 -1.1105
 7559SOL    HW234137   2.611   4.414   5.646 -2.1437 -0.4202  1.6967
 7560SOL     OW34138   1.366   4.707  15.850  0.6007  0.0840  0.2933
 7560SOL    HW134139   1.287   0.032  15.831  0.2676  0.2256  2.0437
 7560SOL    HW234140   1.418   4.724  15.772 -0.8854 -1.9757 -1.1605
 7561SOL     OW34141   4.258   4.273   7.537 -0.4022 -0.4798 -0.4436
 7561SOL    HW134142   4.273   4.189   7.581 -0.1567  0.4610  1.2949
 7561SOL    HW234143   4.306   4.248   7.458 -2.8266  1.6591 -2.5604
 7562SOL     OW34144   3.800   3.536   6.464  0.3430 -0.2310 -0.2011
 7562SOL    HW134145   3.859   3.467   6.434 -0.1411 -1.4393  1.6457
 7562SOL    HW234146   3.740   3.562   6.394  0.8899 -1.3669 -1.0879
 7563SOL     OW34147   1.144   4.706   8.294  0.2205  0.1032 -0.3018
 7563SOL    HW134148   1.155   0.045   8.224  1.7826  0.5689  0.3621
 7563SOL    HW234149   1.125   0.043   8.364  0.3845 -0.2313  0.0416
 7564SOL     OW34150   3.045   1.288   5.844 -0.0363 -0.1001  0.0124
 7564SOL    HW134151   3.062   1.382   5.835 -1.5453  0.1632 -0.0007
 7564SOL    HW234152   3.018   1.291   5.935  1.6754 -1.1733  0.5429
 7565SOL     OW34153   2.027   1.091   8.654  0.1016 -0.3901 -0.4437
 7565SOL    HW134154   2.112   1.049   8.668 -0.3986 -1.3657 -0.2894
 7565SOL    HW234155   2.037   1.175   8.697 -0.1813  0.7148 -2.5194
 7566SOL     OW34156   0.044   0.799   4.011 -0.5547  0.5778  0.1066
 7566SOL    HW134157   0.048   0.725   4.071  0.5105 -2.0587 -3.2121
 7566SOL    HW234158   4.718   0.755   3.944 -1.3618  1.0534  0.4148
 7567SOL     OW34159   4.144   3.475   6.490 -0.3895 -0.4209  0.5051
 7567SOL    HW134160   4.117   3.508   6.404  2.7794  2.0782  0.4811
 7567SOL    HW234161   4.193   3.549   6.525 -0.6231 -0.0179 -0.0143
 7568SOL     OW34162   3.033   3.548   4.044 -0.2143  0.0280  0.2986
 7568SOL    HW134163   3.073   3.491   3.979  3.4395  0.8978  1.7884
 7568SOL    HW234164   2.964   3.575   3.983 -1.7692 -3.7932  0.3696
 7569SOL     OW34165   1.865   1.709   9.586 -0.3318  0.4735 -0.6720
 7569SOL    HW134166   1.882   1.769   9.514 -4.3206  0.5893 -1.5149
 7569SOL    HW234167   1.916   1.756   9.653 -0.1224 -0.2600 -0.3088
 7570SOL     OW34168   2.819   1.473   3.569  0.0141 -0.0486 -0.2131
 7570SOL    HW134169   2.746   1.532   3.587 -0.9428 -1.4290  0.4631
 7570SOL    HW234170   2.863   1.521   3.499 -0.2603 -0.3829 -0.6129
 7571SOL     OW34171   1.263   0.197   1.649  0.1656  0.6945  0.1724
 7571SOL    HW134172   1.250   0.113   1.605  2.2537  0.3518  0.1918
 7571SOL    HW234173   1.176   0.215   1.684 -1.9345 -3.1026 -3.1123
 7572SOL     OW34174   3.666   4.373   3.683  0.0782  0.4147 -0.9348
 7572SOL    HW134175   3.706   4.457   3.663  1.2644  0.2013  0.6240
 7572SOL    HW234176   3.741   4.314   3.687  0.7886  1.3178 -1.1760
 7573SOL     OW34177   4.604   1.278   8.409 -0.3501  0.4616  0.6836
 7573SOL    HW134178   4.525   1.226   8.390  0.3565  0.3592 -2.0671
 7573SOL    HW234179   4.565   1.355   8.450  0.1219  1.1848 -0.2413
 7574SOL     OW34180   0.677   3.668   3.804 -0.3742 -0.0411 -0.1859
 7574SOL    HW134181   0.622   3.694   3.730  1.4112 -3.0593 -2.5668
 7574SOL    HW234182   0.693   3.575   3.786  1.0583  0.5427 -1.9169
 7575SOL     OW34183   1.004   3.375   5.728 -0.3381 -0.0512  0.3270
 7575SOL    HW134184   1.054   3.309   5.774 -2.0944 -0.1979  2.0191
 7575SOL    HW234185   1.070   3.400   5.663 -2.3544  1.7362 -1.0394
 7576SOL     OW34186   2.024   4.153   6.881  0.2644  0.2263  0.3084
 7576SOL    HW134187   2.013   4.238   6.924  0.0802 -0.9488  2.5957
 7576SOL    HW234188   2.107   4.166   6.836  0.2309  0.4259  0.3078
 7577SOL     OW34189   3.829   1.824   2.432  0.1141  0.3167 -0.4124
 7577SOL    HW134190   3.907   1.769   2.443 -1.5505 -1.9407  0.0966
 7577SOL    HW234191   3.863   1.890   2.372  0.9175 -0.0770 -0.3814
 7578SOL     OW34192   1.244   4.623   2.145  0.3020 -0.7296 -0.1792
 7578SOL    HW134193   1.272   4.547   2.196  1.6689  1.2405  2.0163
 7578SOL    HW234194   1.319   4.624   2.086 -0.3500 -1.3706 -1.0258
 7579SOL     OW34195   1.047   3.975   3.099  0.6319  0.0182 -0.1829
 7579SOL    HW134196   1.041   3.888   3.060 -1.1005 -0.4803  1.2187
 7579SOL    HW234197   1.031   3.961   3.192  3.0140  0.7410  0.3357
 7580SOL     OW34198   1.239   3.678   1.682  0.3605 -0.5978 -0.5526
 7580SOL    HW134199   1.226   3.707   1.591 -0.9044  0.9817  0.1251
 7580SOL    HW234200   1.149   3.646   1.690  1.0615 -1.9533  1.7855
 7581SOL     OW34201   3.343   3.236   2.917 -0.3500  0.1005  0.7716
 7581SOL    HW134202   3.295   3.196   2.990 -1.4436  0.3712  0.2101
 7581SOL    HW234203   3.329   3.161   2.859 -0.1369 -1.0522  2.2069
 7582SOL     OW34204   1.503   2.559   7.557  0.4169 -0.2546  0.8509
 7582SOL    HW134205   1.416   2.553   7.517  1.4279 -0.6847 -1.2927
 7582SOL    HW234206   1.555   2.596   7.485 -0.0560  1.0868  1.2063
 7583SOL     OW34207   2.962   4.434   3.109 -0.5770  0.3321 -0.1326
 7583SOL    HW134208   3.027   4.494   3.072 -0.9892  0.3275 -0.8467
 7583SOL    HW234209   3.015   4.367   3.152 -1.3728 -0.3092 -0.1524
 7584SOL     OW34210   0.002   2.291   6.896  0.0422 -0.3436  0.8209
 7584SOL    HW134211   0.052   2.334   6.966 -2.5777  1.1923  1.7661
 7584SOL    HW234212   0.061   2.267   6.824 -0.7467 -0.6342  0.2658
 7585SOL     OW34213   4.571   2.236   3.132 -0.3410  0.5229 -0.3135
 7585SOL    HW134214   4.639   2.302   3.120  0.3266 -0.2080 -0.5249
 7585SOL    HW234215   4.502   2.295   3.165  1.3881  3.2163 -1.4622
 7586SOL     OW34216   4.224   1.624   6.860  0.3723 -0.6071  0.4216
 7586SOL    HW134217   4.309   1.668   6.863  0.1925 -0.1656 -0.8428
 7586SOL    HW234218   4.229   1.579   6.776 -2.3661  0.3437 -0.2846
 7587SOL     OW34219   2.182   1.713   5.142  0.5135  0.3659 -0.1225
 7587SOL    HW134220   2.214   1.756   5.221 -0.7287  2.8841 -1.0070
 7587SOL    HW234221   2.088   1.727   5.153  0.5953  1.8744 -1.3811
 7588SOL     OW34222   1.427   2.901   9.295  0.3060 -0.3645  0.2996
 7588SOL    HW134223   1.409   2.856   9.212  0.0877 -1.2236  0.8151
 7588SOL    HW234224   1.339   2.939   9.308  0.7016 -0.2523  2.6884
 7589SOL     OW34225   3.323   1.442   7.658  0.0602 -0.3389  0.1314
 7589SOL    HW134226   3.339   1.489   7.575 -0.4730  1.5388  1.0886
 7589SOL    HW234227   3.412   1.444   7.693  0.3637  4.1546 -0.8182
 7590SOL     OW34228   4.243   1.839  17.506  0.5258  0.3190  0.4527
 7590SOL    HW134229   4.305   1.885  17.563  1.5239 -1.9425  1.1930
 7590SOL    HW234230   4.224   1.769  17.570  0.2044 -0.7544 -0.8187
 7591SOL     OW34231   0.079   1.434  12.794 -0.3778  0.1260  0.5034
 7591SOL    HW134232   0.053   1.484  12.717 -3.6245 -0.1246  1.4470
 7591SOL    HW234233   0.143   1.495  12.832 -1.0038 -0.3364  2.2844
 7592SOL     OW34234   2.791   0.907   4.881 -0.2208 -0.0229 -0.1396
 7592SOL    HW134235   2.851   0.909   4.956  0.2773  0.2558 -0.5395
 7592SOL    HW234236   2.810   0.999   4.860 -1.3954 -0.2071 -2.0295
 7593SOL     OW34237   2.864   1.043  10.770  0.3399  0.5658  0.3366
 7593SOL    HW134238   2.883   1.042  10.864  1.3600  1.1576  0.1384
 7593SOL    HW234239   2.928   1.093  10.718 -0.7121  2.3685  0.7875
 7594SOL     OW34240   4.512   0.308   2.617  0.0910  0.2499  0.0027
 7594SOL    HW134241   4.571   0.371   2.659  1.1304  0.8801 -2.4194
 7594SOL    HW234242   4.443   0.298   2.682 -0.2366  3.7318  0.2140
 7595SOL     OW34243   2.777   2.460   2.324 -0.2879  0.2990  0.2781
 7595SOL    HW134244   2.719   2.499   2.389 -2.0090 -1.2417 -0.3404
 7595SOL    HW234245   2.737   2.506   2.250 -1.1362 -0.6050  0.1755
 7596SOL     OW34246   1.580   0.053  17.424  0.2030 -0.6135 -0.2326
 7596SOL    HW134247   1.564   4.686  17.410  0.5596 -0.5529 -1.0572
 7596SOL    HW234248   1.598   0.039  17.517 -3.8635  1.2062  0.8573
 7597SOL     OW34249   2.612   0.115   3.925 -0.5435 -0.1161 -0.4348
 7597SOL    HW134250   2.523   0.102   3.958 -0.0768 -0.4019  0.7088
 7597SOL    HW234251   2.656   0.172   3.987  1.5139 -2.1405 -0.0390
 7598SOL     OW34252   0.566   3.384   4.315 -0.0680  0.3739 -0.0673
 7598SOL    HW134253   0.595   3.390   4.405  1.1253  0.1845 -0.4380
 7598SOL    HW234254   0.649   3.388   4.267 -1.1996  1.0928 -1.9685
 7599SOL     OW34255   2.900   0.478   1.386  0.4242  0.6675 -0.0647
 7599SOL    HW134256   2.893   0.445   1.476  1.5675  0.0582 -0.1971
 7599SOL    HW234257   2.862   0.410   1.331  0.2550  1.1740 -0.5705
 7600SOL     OW34258   3.173   2.754   0.118 -0.0508  0.2637  0.0544
 7600SOL    HW134259   3.154   2.724   0.029  1.8052  0.0255 -0.2545
 7600SOL    HW234260   3.196   2.668   0.154 -0.8226  0.4616  1.0237
 7601SOL     OW34261   1.907   0.750  17.226  0.4140  0.0530 -0.3490
 7601SOL    HW134262   1.893   0.721  17.316 -1.1186 -0.2768 -0.7011
 7601SOL    HW234263   1.915   0.845  17.237 -3.7015  0.4017 -0.3273
 7602SOL     OW34264   0.959   2.027   3.953 -0.2185 -0.2537 -0.0241
 7602SOL    HW134265   1.050   1.999   3.955  0.2701  1.3381 -0.6141
 7602SOL    HW234266   0.941   2.019   3.859  0.7576  2.2568 -0.4064
 7603SOL     OW34267   0.649   3.602   3.007  0.0070  0.1728  0.6623
 7603SOL    HW134268   0.566   3.631   3.045  0.0720 -1.2937  1.9560
 7603SOL    HW234269   0.633   3.605   2.913  1.7720  0.6233  0.3816
 7604SOL     OW34270   4.051   2.759   8.669  1.0259  0.5401 -0.1935
 7604SOL    HW134271   4.091   2.681   8.630  1.8446  0.0556  1.6278
 7604SOL    HW234272   4.116   2.796   8.730 -0.2803  1.1192  0.8399
 7605SOL     OW34273   0.917   0.305   5.931  0.3952  0.3957 -0.5599
 7605SOL    HW134274   0.826   0.325   5.909  0.3533 -0.1525 -0.8938
 7605SOL    HW234275   0.953   0.282   5.845  0.3231  0.4227 -0.5971
 7606SOL     OW34276   3.486   0.697   3.280 -0.2773  0.8646  0.4201
 7606SOL    HW134277   3.565   0.734   3.320  0.5903  0.3971 -0.8463
 7606SOL    HW234278   3.466   0.762   3.212  1.8409  1.3567  0.2511
 7607SOL     OW34279   1.908   2.722   9.769 -0.3091  0.3024  0.2364
 7607SOL    HW134280   1.857   2.669   9.831 -1.0186 -2.0797 -2.3914
 7607SOL    HW234281   1.982   2.729   9.830  0.4991  2.3591 -1.0014
 7608SOL     OW34282   1.312   1.053   5.418  0.1884 -0.0002 -0.1699
 7608SOL    HW134283   1.400   1.017   5.405  0.0571  0.3875 -2.1381
 7608SOL    HW234284   1.322   1.124   5.482 -1.5665  0.1682 -0.0911
 7609SOL     OW34285   1.292   3.296  11.755  0.0233  0.1858 -0.4291
 7609SOL    HW134286   1.296   3.235  11.829 -1.2589  1.5801  0.7874
 7609SOL    HW234287   1.251   3.372  11.796  0.4808  1.3552 -2.1469
 7610SOL     OW34288   2.523   0.111  13.042 -0.4776 -0.0867 -0.1575
 7610SOL    HW134289   2.450   0.110  13.105 -0.0790 -0.0305  0.3074
 7610SOL    HW234290   2.594   0.077  13.097  1.4430  1.4639 -1.7089
 7611SOL     OW34291   0.677   0.921   2.149 -0.1030 -0.0866  0.7061
 7611SOL    HW134292   0.673   0.845   2.206  1.0035 -3.5559 -3.8836
 7611SOL    HW234293   0.611   0.981   2.183  1.2537  1.0642  1.3556
 7612SOL     OW34294   2.692   1.274   0.609 -0.4804  0.6088  0.8418
 7612SOL    HW134295   2.677   1.220   0.531 -4.8634  2.8094  0.1394
 7612SOL    HW234296   2.697   1.211   0.681  3.1078  1.5385  1.3794
 7613SOL     OW34297   3.851   4.688  11.527  0.3761 -0.4658 -0.1795
 7613SOL    HW134298   3.916   4.631  11.569  0.0943 -2.1391 -2.0141
 7613SOL    HW234299   3.902   0.016  11.467  1.4623  0.3183  1.4641
 7614SOL     OW34300   0.910   2.102   5.492 -0.1948 -0.0694 -0.4910
 7614SOL    HW134301   0.883   2.020   5.452  0.8964 -1.0664  0.8416
 7614SOL    HW234302   0.938   2.136   5.406  1.4583 -3.1035 -1.1299
 7615SOL     OW34303   3.378   3.771   2.538 -0.4398  0.0908 -0.9501
 7615SOL    HW134304   3.293   3.734   2.565 -0.8532  1.0796 -0.9104
 7615SOL    HW234305   3.397   3.817   2.620 -0.8709 -2.2293  0.4789
 7616SOL     OW34306   2.867   2.849   4.968 -0.1195  0.6688 -0.2665
 7616SOL    HW134307   2.799   2.793   5.005 -0.8005  0.8585 -1.2279
 7616SOL    HW234308   2.928   2.791   4.922 -0.4980  0.3483 -0.3652
 7617SOL     OW34309   4.428   0.690  15.367  0.0705 -0.0354 -0.6549
 7617SOL    HW134310   4.452   0.617  15.311 -1.0860 -0.8345 -0.0942
 7617SOL    HW234311   4.514   0.720  15.398 -0.3764 -2.0358  2.4588
 7618SOL     OW34312   1.575   0.590   8.120 -0.5179  0.2355 -0.7113
 7618SOL    HW134313   1.621   0.512   8.089 -1.7244 -0.5323 -0.5641
 7618SOL    HW234314   1.601   0.651   8.050 -1.3441  1.6268  0.1981
 7619SOL     OW34315   0.805   3.480   8.021 -0.4351 -0.3570 -0.1712
 7619SOL    HW134316   0.895   3.491   8.053 -0.0778  2.3029 -2.0297
 7619SOL    HW234317   0.762   3.564   8.035 -1.1123 -0.5282 -1.2656
 7620SOL     OW34318   0.237   2.598   4.575  0.2049  0.0018  0.0308
 7620SOL    HW134319   0.243   2.612   4.669  0.2355  0.8087 -0.0890
 7620SOL    HW234320   0.323   2.557   4.561  0.6431  1.6765 -2.2974
 7621SOL     OW34321   4.207   0.528  13.032 -0.0822 -0.4966  0.1661
 7621SOL    HW134322   4.243   0.466  13.096  0.2597  0.1062  0.5653
 7621SOL    HW234323   4.148   0.471  12.984 -1.2774  0.6835  0.2505
 7622SOL     OW34324   1.428   0.173   6.326  0.4070  0.3665  0.1167
 7622SOL    HW134325   1.439   0.210   6.413 -0.3350  3.1712 -0.9713
 7622SOL    HW234326   1.370   0.098   6.340 -2.0813  2.2320 -0.0040
 7623SOL     OW34327   3.195   2.559   8.679  0.4074  0.2581 -0.3221
 7623SOL    HW134328   3.125   2.583   8.739  0.6988  3.1081 -1.1350
 7623SOL    HW234329   3.269   2.544   8.738  0.4157  0.7088 -0.2231
 7624SOL     OW34330   0.779   0.093   6.070 -0.1256 -0.4716 -0.4843
 7624SOL    HW134331   0.842   0.141   6.015  2.0415  0.8640  3.1877
 7624SOL    HW234332   0.761   0.154   6.141 -0.2343 -0.2501 -0.7037
 7625SOL     OW34333   2.711   1.977   7.103  0.3749  0.5301 -0.3551
 7625SOL    HW134334   2.650   2.015   7.040 -1.5390 -1.0129  0.5550
 7625SOL    HW234335   2.656   1.968   7.181  0.2947  3.2075 -0.0883
 7626SOL     OW34336   0.402   2.762   2.482 -0.2094  0.0102  0.3405
 7626SOL    HW134337   0.370   2.677   2.511 -0.3886 -0.7937 -2.2006
 7626SOL    HW234338   0.492   2.746   2.453  0.1747  2.1092  0.3410
 7627SOL     OW34339   4.261   3.136   6.517  0.5402 -0.8117 -0.1374
 7627SOL    HW134340   4.335   3.172   6.566 -0.8348  2.9745 -0.9024
 7627SOL    HW234341   4.300   3.064   6.468  0.1203 -2.2359  1.6273
 7628SOL     OW34342   2.814   1.253  15.253 -0.3940 -0.5732 -0.3847
 7628SOL    HW134343   2.729   1.282  15.220  0.3944  1.7278 -0.3893
 7628SOL    HW234344   2.783   1.167  15.284 -2.6960  0.0947 -0.7990
 7629SOL     OW34345   1.395   0.898   4.383  0.2394  0.3638 -0.7319
 7629SOL    HW134346   1.434   0.824   4.430 -0.5677  0.6364  0.3813
 7629SOL    HW234347   1.456   0.898   4.310 -2.9452 -0.4075 -3.4263
 7630SOL     OW34348   4.291   2.409   6.258 -0.0211  0.0377  0.8887
 7630SOL    HW134349   4.329   2.358   6.187 -0.9126 -1.8425  1.7719
 7630SOL    HW234350   4.232   2.346   6.299  2.6033 -1.7495  1.8708
 7631SOL     OW34351   2.637   4.671  12.582 -0.0680  0.4950 -0.6619
 7631SOL    HW134352   2.553   4.630  12.559 -0.5541  1.9776 -1.5163
 7631SOL    HW234353   2.606   4.720  12.658  2.3443  1.3076 -0.2245
 7632SOL     OW34354   0.563   2.729   2.098  0.3839  0.1942 -0.6869
 7632SOL    HW134355   0.629   2.704   2.163 -0.1137  1.3825  0.2622
 7632SOL    HW234356   0.540   2.817   2.128  1.2239  1.4625 -3.7322
 7633SOL     OW34357   2.776   0.616   1.123  0.3749 -0.6085  0.2600
 7633SOL    HW134358   2.730   0.619   1.207 -1.0902 -0.7603 -0.5281
 7633SOL    HW234359   2.707   0.602   1.058 -1.5398  1.6386  1.8213
 7634SOL     OW34360   0.248   0.515   4.936 -0.4313 -0.5547  0.0106
 7634SOL    HW134361   0.301   0.520   5.016  0.6717 -1.6257 -0.6484
 7634SOL    HW234362   0.226   0.608   4.925  0.6525 -0.2589  0.3481
 7635SOL     OW34363   1.870   0.030  10.382  0.1542  0.0897  0.1308
 7635SOL    HW134364   1.809   0.032  10.308  1.0707  1.9761 -0.5821
 7635SOL    HW234365   1.846   0.113  10.424  2.1227 -0.3891  2.2325
 7636SOL     OW34366   0.577   0.644   5.868 -0.2120 -0.9051 -0.2131
 7636SOL    HW134367   0.528   0.688   5.937  0.3058 -1.0168  0.2181
 7636SOL    HW234368   0.664   0.682   5.879  1.8579 -5.1909 -1.9081
 7637SOL     OW34369   0.140   0.997   0.729 -0.6784 -0.1756  0.3317
 7637SOL    HW134370   0.188   1.044   0.661  1.0448 -1.4280  0.6770
 7637SOL    HW234371   0.151   1.059   0.801 -0.6993  0.7458 -0.4609
 7638SOL     OW34372   4.009   1.475   4.377 -0.4497 -0.4082  1.0601
 7638SOL    HW134373   3.937   1.440   4.429 -1.1675  0.7300  0.8222
 7638SOL    HW234374   4.024   1.552   4.431  1.7739  0.4472 -0.7251
 7639SOL     OW34375   1.393   0.968   6.750 -0.6132  0.6551  0.2066
 7639SOL    HW134376   1.474   1.015   6.770  0.3792 -1.0901  0.3127
 7639SOL    HW234377   1.360   0.952   6.838 -0.4260 -2.1093 -0.2156
 7640SOL     OW34378   3.316   4.385   4.773 -0.3043  0.0566  0.2278
 7640SOL    HW134379   3.345   4.305   4.730  1.3798 -0.6634  2.6754
 7640SOL    HW234380   3.396   4.436   4.786  0.5427 -1.2689  0.2102
 7641SOL     OW34381   1.863   3.193   5.053  0.2629 -0.2225 -0.4684
 7641SOL    HW134382   1.919   3.191   5.130 -1.4623  2.0143  0.8720
 7641SOL    HW234383   1.879   3.104   5.023  0.0225 -1.1654  2.1935
 7642SOL     OW34384   3.206   3.948   7.100  0.2227 -0.5490  0.3795
 7642SOL    HW134385   3.122   3.916   7.068  0.1309 -2.0366  2.1270
 7642SOL    HW234386   3.234   3.875   7.155  1.8102 -0.1502  0.1135
 7643SOL     OW34387   4.501   3.561   6.048 -0.4594  1.0879 -0.1244
 7643SOL    HW134388   4.505   3.635   6.108  2.4250 -0.4619  1.6054
 7643SOL    HW234389   4.459   3.497   6.106  0.1321  0.8702  0.0628
 7644SOL     OW34390   2.575   0.784   7.833 -0.8523 -0.2637 -0.5086
 7644SOL    HW134391   2.577   0.868   7.788 -1.1013 -0.5264 -1.0130
 7644SOL    HW234392   2.491   0.751   7.798 -1.4237  0.2044  0.4157
 7645SOL     OW34393   1.462   3.111   7.873  0.4224 -0.3094  0.0061
 7645SOL    HW134394   1.447   3.079   7.962 -0.3420  0.9158  0.3114
 7645SOL    HW234395   1.553   3.086   7.854  0.0978 -0.2081 -1.7380
 7646SOL     OW34396   1.720   0.753   7.202 -0.3237  0.4041 -0.4403
 7646SOL    HW134397   1.768   0.832   7.226  0.2196 -0.4715  1.3647
 7646SOL    HW234398   1.682   0.783   7.120  0.6456  1.9923 -0.2980
 7647SOL     OW34399   0.281   3.970   1.048 -0.0650  0.5231 -0.0194
 7647SOL    HW134400   0.243   4.049   1.086 -4.1330 -0.8154 -1.3108
 7647SOL    HW234401   0.285   3.916   1.127  4.1488 -0.1970 -0.7137
 7648SOL     OW34402   0.669   2.820   5.939  0.3764 -0.6797  0.1023
 7648SOL    HW134403   0.748   2.866   5.912 -1.1406 -0.3170 -3.7643
 7648SOL    HW234404   0.675   2.759   5.866  0.8295 -0.6427  0.1088
 7649SOL     OW34405   0.540   2.757   2.880  0.0207  0.2605  0.0914
 7649SOL    HW134406   0.550   2.698   2.805  0.8231  1.2619 -0.5889
 7649SOL    HW234407   0.459   2.726   2.920 -0.0877 -0.0139 -0.3413
 7650SOL     OW34408   0.359   0.087   9.265 -0.3320  0.2397 -0.4212
 7650SOL    HW134409   0.377   0.079   9.359 -2.2235  1.6748  0.0577
 7650SOL    HW234410   0.426   0.029   9.229 -0.3646  1.3372 -2.2574
 7651SOL     OW34411   4.360   0.318   7.118  0.1750 -0.6139  0.1393
 7651SOL    HW134412   4.304   0.371   7.176  1.1237 -0.2232  0.6912
 7651SOL    HW234413   4.349   0.360   7.033  2.3124  1.8186  1.0777
 7652SOL     OW34414   2.857   1.331   2.644 -0.0212 -0.2463  0.1166
 7652SOL    HW134415   2.811   1.351   2.726 -1.4387  1.3775 -1.0556
 7652SOL    HW234416   2.776   1.307   2.600  0.9521 -1.5872 -0.9292
 7653SOL     OW34417   2.503   2.226   1.802  0.3055  0.1874 -0.4979
 7653SOL    HW134418   2.590   2.188   1.816 -0.6322 -2.2016 -1.1376
 7653SOL    HW234419   2.459   2.159   1.749  1.2677  0.5696 -1.7546
 7654SOL     OW34420   4.220   0.071  11.461  0.2646  0.2813  0.3870
 7654SOL    HW134421   4.252   4.720  11.509  0.7379  1.0037  1.2279
 7654SOL    HW234422   4.144   0.090  11.517 -0.0613  0.4227 -0.1031
 7655SOL     OW34423   0.324   0.895   9.127  0.1769  0.2212 -0.5944
 7655SOL    HW134424   0.354   0.854   9.209  2.0583  2.3378 -0.2204
 7655SOL    HW234425   0.284   0.825   9.076 -1.4029 -0.1580  1.1453
 7656SOL     OW34426   2.114   4.547   8.806  0.5881  0.5082 -0.0000
 7656SOL    HW134427   2.154   4.462   8.785 -0.3032 -0.2294  1.2485
 7656SOL    HW234428   2.194   4.599   8.804  1.5390 -0.9076  0.9243
 7657SOL     OW34429   3.932   0.566   7.394 -0.0267  0.0247 -0.3288
 7657SOL    HW134430   3.978   0.590   7.474  1.6929  0.5476 -1.4693
 7657SOL    HW234431   4.009   0.563   7.337 -0.0890  0.2250 -0.4257
 7658SOL     OW34432   2.898   4.222   2.146 -0.2163  0.4996  0.4320
 7658SOL    HW134433   2.910   4.302   2.095  1.5309 -0.5469 -0.7912
 7658SOL    HW234434   2.804   4.226   2.162  0.0290 -1.6850  2.6061
 7659SOL     OW34435   0.015   2.318   8.083  0.1024  0.6199 -0.2135
 7659SOL    HW134436   0.051   2.291   7.999  0.3058  0.5350 -0.0998
 7659SOL    HW234437   0.035   2.232   8.121  1.6325  1.3111  0.5900
 7660SOL     OW34438   2.651   0.726  17.035 -0.2983 -0.0678  0.6138
 7660SOL    HW134439   2.574   0.679  17.068 -0.6326 -0.2206 -0.3919
 7660SOL    HW234440   2.702   0.654  16.998  0.5316  0.4878  0.6690
 7661SOL     OW34441   1.136   2.798   2.959  0.3672  0.9940  0.1765
 7661SOL    HW134442   1.221   2.837   2.939  0.2471  0.8434 -0.6283
 7661SOL    HW234443   1.167   2.708   2.965  1.1971  1.2113 -0.7962
 7662SOL     OW34444   1.946   0.108   4.382 -0.8438 -0.2616  0.0821
 7662SOL    HW134445   1.879   0.158   4.335 -0.8346  0.4736  0.8574
 7662SOL    HW234446   1.909   0.020   4.373 -1.4383 -0.2301  2.1987
 7663SOL     OW34447   1.048   0.266  11.012 -0.0817 -0.7694 -0.0270
 7663SOL    HW134448   1.082   0.214  11.085  0.3891  1.0185  1.0249
 7663SOL    HW234449   1.083   0.217  10.938 -0.8489 -1.2323 -0.0906
 7664SOL     OW34450   0.019   3.956  13.248  0.2752 -0.2807  0.1701
 7664SOL    HW134451   0.041   4.024  13.311 -1.6635 -0.3189  0.8823
 7664SOL    HW234452   0.095   3.898  13.253  0.8865  0.3047 -2.0544
 7665SOL     OW34453   1.170   0.848  16.477  0.3291 -0.7370  0.0108
 7665SOL    HW134454   1.094   0.811  16.432 -0.2205  1.7243 -1.1313
 7665SOL    HW234455   1.223   0.770  16.490  1.9793  0.3659 -0.1292
 7666SOL     OW34456   4.411   2.724  10.366  0.2438 -0.3066 -0.3537
 7666SOL    HW134457   4.465   2.657  10.323  1.0188  0.3431 -0.3985
 7666SOL    HW234458   4.448   2.719  10.454  1.3817  0.0597 -0.8049
 7667SOL     OW34459   4.524   2.494   5.745 -0.3862 -0.3774 -0.8168
 7667SOL    HW134460   4.617   2.472   5.740  0.0483  1.1508  0.5215
 7667SOL    HW234461   4.500   2.496   5.837 -2.0186 -0.1205 -1.2535
 7668SOL     OW34462   3.306   4.195  14.700  0.3046 -0.0186 -0.4450
 7668SOL    HW134463   3.252   4.178  14.622 -1.4494 -0.5098  0.8912
 7668SOL    HW234464   3.331   4.105  14.720 -0.9367 -0.7334 -2.1276
 7669SOL     OW34465   1.569   0.650   5.343 -0.7835  0.1227 -0.0617
 7669SOL    HW134466   1.487   0.649   5.392 -0.3451  0.5748  0.6850
 7669SOL    HW234467   1.560   0.572   5.288 -1.7383 -0.0504  0.3480
 7670SOL     OW34468   3.060   1.551   1.647  0.2145 -0.1772  0.4888
 7670SOL    HW134469   2.966   1.556   1.662  0.2133  3.2828 -0.6811
 7670SOL    HW234470   3.091   1.628   1.695 -1.0031  1.6548 -1.6929
 7671SOL     OW34471   3.931   4.362   9.162 -0.2947  0.0864  0.0762
 7671SOL    HW134472   3.977   4.294   9.212  0.6107  0.8881  0.3328
 7671SOL    HW234473   3.894   4.421   9.227 -0.6073 -1.3668  1.2342
 7672SOL     OW34474   1.334   4.618   3.448 -0.1321  0.0870 -0.6212
 7672SOL    HW134475   1.342   4.707   3.483 -0.9792 -1.0170  2.3210
 7672SOL    HW234476   1.240   4.609   3.432  0.0824  0.3557 -2.0253
 7673SOL     OW34477   2.718   1.017   7.955 -0.0214 -0.1471 -0.3545
 7673SOL    HW134478   2.640   0.968   7.932  0.2062 -0.4159 -0.5459
 7673SOL    HW234479   2.686   1.091   8.008  3.3381  2.8038 -2.3944
 7674SOL     OW34480   1.929   4.641   8.627 -0.4403  0.4386  0.1900
 7674SOL    HW134481   1.991   4.585   8.674 -0.9053  0.2592  0.5877
 7674SOL    HW234482   1.930   4.724   8.674  3.1144 -1.2094  2.9761
 7675SOL     OW34483   2.033   1.777  17.159  0.2503  0.7496 -0.5729
 7675SOL    HW134484   2.071   1.843  17.101  1.2827  1.6718  1.1329
 7675SOL    HW234485   1.944   1.774  17.124 -0.3888  3.9581  0.8074
 7676SOL     OW34486   1.168   1.267   8.857 -0.0772  0.6107  0.1887
 7676SOL    HW134487   1.195   1.215   8.933  0.3261  0.0935 -0.3064
 7676SOL    HW234488   1.095   1.313   8.897 -0.0572 -1.5339  2.6731
 7677SOL     OW34489   4.707   2.046  16.573 -0.1422 -0.1204 -0.4095
 7677SOL    HW134490   0.058   2.103  16.582  0.1461 -0.4470 -0.7889
 7677SOL    HW234491   4.641   2.099  16.617  1.8073  1.1579  1.0110
 7678SOL     OW34492   1.339   4.700  12.568 -0.3727 -0.1776 -0.1969
 7678SOL    HW134493   1.303   4.631  12.512  3.6812  0.1022 -3.1456
 7678SOL    HW234494   1.428   4.669  12.579 -0.1191  1.3612  2.0368
 7679SOL     OW34495   2.776   0.421   9.006 -0.4806  0.4186  0.2019
 7679SOL    HW134496   2.764   0.340   8.956 -0.8634  1.5498 -1.5328
 7679SOL    HW234497   2.689   0.450   9.032 -1.6790 -1.6462 -1.5409
 7680SOL     OW34498   4.326   2.877   4.636  0.6788  0.3153 -0.4786
 7680SOL    HW134499   4.416   2.846   4.625 -0.5049 -2.4522 -2.3787
 7680SOL    HW234500   4.348   2.927   4.715  3.3816 -3.1779  1.0247
 7681SOL     OW34501   3.993   0.026   7.600  0.2817 -0.0386 -0.0677
 7681SOL    HW134502   3.964   0.107   7.643  2.6011  1.5061 -1.4068
 7681SOL    HW234503   3.923   4.694   7.630 -0.8812  1.1491 -0.4979
 7682SOL     OW34504   1.522   1.125   4.096 -0.1491 -0.3948  0.4098
 7682SOL    HW134505   1.615   1.117   4.117 -0.0562 -0.1759  0.0821
 7682SOL    HW234506   1.487   1.142   4.183  2.3052 -0.1898  1.3529
 7683SOL     OW34507   4.078   1.925   5.343  0.1008  0.6247  0.0942
 7683SOL    HW134508   4.022   1.901   5.417  1.4729 -0.6944  0.7150
 7683SOL    HW234509   4.107   2.012   5.372  1.4421  0.9866 -2.3175
 7684SOL     OW34510   0.663   4.542   5.570  0.0184 -0.4944  0.0949
 7684SOL    HW134511   0.729   4.485   5.609 -0.1297 -2.4099 -2.4261
 7684SOL    HW234512   0.715   4.612   5.532  1.1106 -1.0709  0.5445
 7685SOL     OW34513   1.526   0.343   3.494 -0.0708  0.3052  0.3283
 7685SOL    HW134514   1.585   0.418   3.502 -1.6676  1.4841  1.1163
 7685SOL    HW234515   1.581   0.277   3.535  0.1730 -0.7557 -1.6812
 7686SOL     OW34516   1.767   1.082  15.557 -0.2087 -0.1144 -0.1060
 7686SOL    HW134517   1.710   1.047  15.626 -1.1143 -0.1175 -0.8556
 7686SOL    HW234518   1.850   1.093  15.603  0.1863  2.0328 -1.3547
 7687SOL     OW34519   1.641   3.245  17.109  0.2670 -0.4182 -0.3718
 7687SOL    HW134520   1.687   3.310  17.055  1.2846 -0.1144  0.8715
 7687SOL    HW234521   1.681   3.275  17.190 -0.9359 -0.2085  0.1432
 7688SOL     OW34522   3.160   3.177  15.750 -0.5636  0.2426  0.2183
 7688SOL    HW134523   3.170   3.145  15.660  1.8696  2.7878 -0.3991
 7688SOL    HW234524   3.206   3.261  15.750 -0.2431  0.0664  1.5258
 7689SOL     OW34525   2.607   2.319  16.384  0.1104  0.0803 -1.0179
 7689SOL    HW134526   2.681   2.338  16.441 -0.0897  0.1164 -0.7709
 7689SOL    HW234527   2.578   2.407  16.358 -0.8473  0.6599  2.0446
 7690SOL     OW34528   1.914   0.521   9.017 -0.2638 -0.0580  0.0041
 7690SOL    HW134529   1.934   0.446   9.073 -1.1509 -0.5580 -0.3456
 7690SOL    HW234530   1.999   0.549   8.983 -0.1203 -0.4552  0.0349
 7691SOL     OW34531   3.565   3.385   9.463 -0.0935  0.0622 -0.3618
 7691SOL    HW134532   3.520   3.449   9.519 -1.2421 -1.0610 -0.0108
 7691SOL    HW234533   3.637   3.433   9.424 -0.9132  2.0020  0.5097
 7692SOL     OW34534   4.054   3.001   5.052  0.1752  0.5008  0.1443
 7692SOL    HW134535   4.149   3.011   5.052  0.1382  0.8350  0.4138
 7692SOL    HW234536   4.051   2.934   5.120  0.4772  1.9813  1.6139
 7693SOL     OW34537   4.682   3.085   9.763  0.0856  0.0991  0.0571
 7693SOL    HW134538   0.028   3.063   9.822 -0.9610 -0.4048  1.1326
 7693SOL    HW234539   4.660   3.175   9.788  0.7127  0.4220 -0.5659
 7694SOL     OW34540   0.637   0.805  12.108  0.5128 -0.4087 -0.3262
 7694SOL    HW134541   0.580   0.834  12.036  2.7087  3.4997 -0.5053
 7694SOL    HW234542   0.581   0.808  12.186  2.7918  1.4453  1.2355
 7695SOL     OW34543   2.801   4.402  12.520 -0.0214  0.4749  0.0141
 7695SOL    HW134544   2.753   4.417  12.602 -0.6663  2.3704 -0.7048
 7695SOL    HW234545   2.884   4.441  12.547  1.0641  0.0610 -2.7380
 7696SOL     OW34546   1.168   2.196   1.301  0.3350 -0.0339 -0.2527
 7696SOL    HW134547   1.146   2.144   1.378 -0.4512  0.9427  0.1770
 7696SOL    HW234548   1.209   2.124   1.253 -1.6134  0.2286 -2.2799
 7697SOL     OW34549   1.898   2.366   9.912  0.0769 -0.3601 -0.2378
 7697SOL    HW134550   1.859   2.312   9.981 -1.1335  0.1843 -0.5079
 7697SOL    HW234551   1.983   2.340   9.949  0.3259 -0.1769 -0.6876
 7698SOL     OW34552   0.200   1.387   5.737 -0.3433 -0.5099 -0.0143
 7698SOL    HW134553   0.275   1.439   5.765  0.3982 -1.5681 -0.0125
 7698SOL    HW234554   0.143   1.464   5.732 -1.4308 -1.3420 -0.4141
 7699SOL     OW34555   0.566   1.524   5.049 -0.0266 -0.4798 -0.6084
 7699SOL    HW134556   0.659   1.510   5.065 -0.0080  1.1510  0.7215
 7699SOL    HW234557   0.536   1.591   5.110 -0.0835 -0.7959 -0.2878
 7700SOL     OW34558   1.365   0.191  11.944 -0.0166  0.0015 -0.1892
 7700SOL    HW134559   1.407   0.232  11.868 -0.3491  0.8079  0.0624
 7700SOL    HW234560   1.442   0.153  11.986  0.4201  2.5777  1.3418
 7701SOL     OW34561   2.792   0.824  13.987  0.3065  0.0992  0.5415
 7701SOL    HW134562   2.833   0.836  14.072  1.3404  1.8748 -0.2122
 7701SOL    HW234563   2.720   0.883  14.013  0.3873  0.6612 -0.5177
 7702SOL     OW34564   0.503   0.341   1.957  0.2821 -0.0754  0.5359
 7702SOL    HW134565   0.495   0.255   1.916  1.2498 -0.0904  0.3617
 7702SOL    HW234566   0.562   0.311   2.026  0.2777 -1.8435 -0.2268
 7703SOL     OW34567   1.348   1.426   0.771 -0.2296  0.3126 -0.0778
 7703SOL    HW134568   1.368   1.474   0.851  1.5920  0.7776 -0.8189
 7703SOL    HW234569   1.367   1.337   0.799  1.9253  1.2149  1.2734
 7704SOL     OW34570   2.832   0.321   6.985  0.6638 -0.4094 -0.2259
 7704SOL    HW134571   2.886   0.283   6.916 -0.3358 -1.9846 -0.1411
 7704SOL    HW234572   2.848   0.412   6.961  0.1227 -0.5419 -1.0985
 7705SOL     OW34573   4.081   3.729   8.617  0.2975  0.3731 -0.0360
 7705SOL    HW134574   4.161   3.687   8.587 -0.9042 -0.9709 -1.3932
 7705SOL    HW234575   4.119   3.787   8.683 -2.0380  0.3802  1.3000
 7706SOL     OW34576   2.892   3.391  10.252  0.2797  0.0110  0.8037
 7706SOL    HW134577   2.797   3.394  10.259  0.1763  4.8447 -2.4752
 7706SOL    HW234578   2.916   3.401  10.344 -0.7506  2.7391  0.7752
 7707SOL     OW34579   3.661   4.320   5.347  0.5787  0.3400 -0.1572
 7707SOL    HW134580   3.590   4.384   5.351  0.6092  0.3737 -0.1631
 7707SOL    HW234581   3.693   4.321   5.437  0.5355 -0.8885 -0.1230
 7708SOL     OW34582   3.995   4.505  12.923 -0.0656 -0.3598 -0.3825
 7708SOL    HW134583   3.931   4.459  12.869 -2.0295  0.7286  1.0278
 7708SOL    HW234584   4.020   4.442  12.991  1.8305  1.1885  0.3739
 7709SOL     OW34585   2.476   1.137   9.736  0.3188 -1.0066  0.8372
 7709SOL    HW134586   2.381   1.148   9.734  0.3400 -0.9740  0.0019
 7709SOL    HW234587   2.506   1.059   9.689  3.0489  0.8790 -0.5577
 7710SOL     OW34588   4.393   2.358   3.994  0.5514  0.9437  0.2913
 7710SOL    HW134589   4.326   2.342   3.928  0.4343  1.6149  0.2517
 7710SOL    HW234590   4.385   2.453   3.997 -1.9343  0.6851  1.7088
 7711SOL     OW34591   2.376   3.787  16.037  0.5235 -0.7698 -0.3412
 7711SOL    HW134592   2.303   3.840  16.068  0.7126 -0.8491  0.2342
 7711SOL    HW234593   2.383   3.734  16.116 -2.4442  1.8765  1.6835
 7712SOL     OW34594   3.712   1.959   3.097  0.4657  0.9511  0.2156
 7712SOL    HW134595   3.682   1.966   3.187 -0.0897 -0.8533  0.1754
 7712SOL    HW234596   3.791   2.010   3.115  0.2751  1.9787 -1.8030
 7713SOL     OW34597   0.981   3.580   4.524 -0.0823 -0.8032  0.1957
 7713SOL    HW134598   1.035   3.648   4.484  2.0848 -2.8871 -0.4563
 7713SOL    HW234599   1.025   3.577   4.609  2.4497  0.0576 -1.0910
 7714SOL     OW34600   3.639   0.799  17.656 -0.3871  0.5656 -0.2237
 7714SOL    HW134601   3.694   0.873  17.683  0.1474  0.2001 -0.3113
 7714SOL    HW234602   3.702   0.727  17.653  1.0393  1.7575  1.2669
 7715SOL     OW34603   3.823   3.991   2.020 -0.4613  0.4615 -0.4117
 7715SOL    HW134604   3.878   4.067   1.998  0.4262 -0.3846 -1.1210
 7715SOL    HW234605   3.779   3.979   1.935 -0.6645 -1.1068 -0.0701
 7716SOL     OW34606   2.810   0.575   3.030  0.3015 -0.3807 -0.0697
 7716SOL    HW134607   2.851   0.653   3.067 -1.4271  1.7795 -2.7481
 7716SOL    HW234608   2.733   0.562   3.086 -1.3517  2.4302 -1.6996
 7717SOL     OW34609   3.672   3.598   2.213 -0.1565  0.5968  0.1587
 7717SOL    HW134610   3.680   3.647   2.131 -3.1700  0.9648  0.0777
 7717SOL    HW234611   3.584   3.564   2.198  0.7297 -1.7831  0.3185
 7718SOL     OW34612   2.624   1.160  14.746 -0.0908 -0.2955  0.7235
 7718SOL    HW134613   2.687   1.206  14.689 -0.9336  0.9667  0.8145
 7718SOL    HW234614   2.555   1.130  14.687  0.5625  0.7245 -0.5763
 7719SOL     OW34615   1.196   0.381  12.017  0.0407  0.5057 -0.2071
 7719SOL    HW134616   1.244   0.433  12.081 -0.7801 -1.4396  1.9972
 7719SOL    HW234617   1.258   0.309  12.003  0.0767  0.4592  0.2000
 7720SOL     OW34618   0.804   0.229   4.172  0.1193 -0.0107 -0.2177
 7720SOL    HW134619   0.777   0.320   4.180  0.9642  0.4793 -3.0674
 7720SOL    HW234620   0.760   0.193   4.249  0.1484 -1.1107 -0.7156
 7721SOL     OW34621   0.736   4.663   4.738  0.6432  0.4027  0.0280
 7721SOL    HW134622   0.751   4.579   4.694  1.4625 -0.5587  2.1297
 7721SOL    HW234623   0.642   4.667   4.723  0.5930 -0.6232  0.0442
 7722SOL     OW34624   1.569   1.071   4.732  0.1797 -0.2381 -0.5509
 7722SOL    HW134625   1.657   1.071   4.695  1.7635  0.4943  3.1876
 7722SOL    HW234626   1.542   0.983   4.708  0.5112 -0.9333  1.6935
 7723SOL     OW34627   2.100   4.686   7.767  0.5292 -0.1874 -0.6176
 7723SOL    HW134628   2.149   4.666   7.846 -0.7684  2.3360  0.8220
 7723SOL    HW234629   2.039   0.034   7.773  0.7239 -0.3447  3.4434
 7724SOL     OW34630   2.662   3.870   3.513  0.6449  0.0760  0.1174
 7724SOL    HW134631   2.744   3.913   3.538  1.1386  0.3124 -1.8426
 7724SOL    HW234632   2.633   3.843   3.600 -1.8792  0.6630 -0.5577
 7725SOL     OW34633   2.939   2.937   3.328 -0.3194  0.3218 -0.4628
 7725SOL    HW134634   3.031   2.957   3.342 -0.2141 -1.2336  1.0395
 7725SOL    HW234635   2.936   2.956   3.234  0.6248 -3.5912 -1.2834
 7726SOL     OW34636   3.822   0.464   5.731  0.4040 -0.5542  0.4561
 7726SOL    HW134637   3.734   0.437   5.704  0.6120 -1.8960  1.1160
 7726SOL    HW234638   3.864   0.475   5.646 -2.8453 -0.8563 -1.1924
 7727SOL     OW34639   3.370   3.485   8.706  0.8484 -0.1672  0.1213
 7727SOL    HW134640   3.362   3.394   8.736  0.8880 -0.0446  0.5074
 7727SOL    HW234641   3.458   3.477   8.670  0.9946 -0.8564  0.6118
 7728SOL     OW34642   3.921   2.404   2.964  0.2602  0.6835 -0.5622
 7728SOL    HW134643   3.923   2.450   3.048  1.3433 -0.9840  0.3287
 7728SOL    HW234644   4.012   2.426   2.946  0.2125 -0.8358 -2.7868
 7729SOL     OW34645   2.793   0.791   9.193  0.6756  0.5434 -0.1383
 7729SOL    HW134646   2.821   0.724   9.132  3.2309  0.7080  0.8803
 7729SOL    HW234647   2.877   0.807   9.236  1.2915 -1.9010 -0.4497
 7730SOL     OW34648   3.731   4.047   1.758 -0.3327 -0.2066  0.1572
 7730SOL    HW134649   3.660   4.064   1.697  1.2094 -2.0035 -2.1391
 7730SOL    HW234650   3.789   4.113   1.720 -1.8356  0.3780 -1.1144
 7731SOL     OW34651   4.547   2.213   9.072 -0.0259 -1.1356 -0.7924
 7731SOL    HW134652   4.542   2.136   9.128  1.3177 -1.1782 -0.7208
 7731SOL    HW234653   4.456   2.224   9.045 -0.1326 -0.5689 -0.1846
 7732SOL     OW34654   0.287   4.344   3.487 -0.4383 -0.6090 -0.1034
 7732SOL    HW134655   0.363   4.379   3.441 -0.5744 -0.4426 -0.1984
 7732SOL    HW234656   0.313   4.253   3.504 -0.4901 -0.3867  1.1539
 7733SOL     OW34657   0.774   2.419   2.616  0.4701 -0.5786 -0.3781
 7733SOL    HW134658   0.861   2.453   2.635  0.7383 -1.6264  0.2423
 7733SOL    HW234659   0.802   2.334   2.584  0.2860  0.2093 -2.6776
 7734SOL     OW34660   2.499   0.787   8.541 -0.1172 -0.0925  0.9699
 7734SOL    HW134661   2.465   0.752   8.623  0.2597 -2.3155  0.1735
 7734SOL    HW234662   2.421   0.797   8.487  0.8702 -0.9235 -0.6227
 7735SOL     OW34663   0.633   2.875   5.387  0.1874 -0.2668  0.0422
 7735SOL    HW134664   0.687   2.885   5.308 -0.7778  0.5808 -0.5124
 7735SOL    HW234665   0.563   2.935   5.363 -2.1043 -3.2164 -0.6932
 7736SOL     OW34666   3.827   4.030   3.180  0.4267  0.2988  0.1399
 7736SOL    HW134667   3.752   4.081   3.149 -1.0041  0.5848  4.0142
 7736SOL    HW234668   3.885   4.097   3.217 -0.6805  0.0255  2.4025
 7737SOL     OW34669   1.583   3.342   1.928 -0.0888  0.5257  0.1185
 7737SOL    HW134670   1.627   3.380   2.004  1.2314 -0.4852 -0.1405
 7737SOL    HW234671   1.517   3.409   1.911 -1.2283 -0.2172  1.5329
 7738SOL     OW34672   1.172   1.683   3.273  0.4086  0.4270 -0.5149
 7738SOL    HW134673   1.176   1.589   3.254 -4.0945 -0.3002  2.0780
 7738SOL    HW234674   1.179   1.676   3.368 -0.8657 -0.4829 -0.4829
 7739SOL     OW34675   1.485   4.522   4.250  0.3169  0.2993  0.2924
 7739SOL    HW134676   1.407   4.536   4.196  1.4431  0.6106 -1.2529
 7739SOL    HW234677   1.445   4.470   4.320 -0.5789  2.5900  1.4822
 7740SOL     OW34678   1.373   2.867   0.240  0.0625  0.0821 -0.1896
 7740SOL    HW134679   1.381   2.859   0.335  1.0697 -2.1170 -0.4593
 7740SOL    HW234680   1.381   2.776   0.213 -1.1585  0.2408 -1.0684
 7741SOL     OW34681   2.456   1.720  11.116 -0.4240  0.2322 -0.6113
 7741SOL    HW134682   2.383   1.675  11.157 -1.4936 -1.1813 -4.0569
 7741SOL    HW234683   2.481   1.675  11.035 -1.0165 -2.0331  0.4740
 7742SOL     OW34684   3.738   1.571   8.234  0.3830  0.6604  0.5115
 7742SOL    HW134685   3.705   1.660   8.246 -0.5120  0.4099 -0.0473
 7742SOL    HW234686   3.680   1.548   8.161  0.6375  0.8214  0.2613
 7743SOL     OW34687   1.778   0.147   6.347 -0.1983 -0.2486 -0.0457
 7743SOL    HW134688   1.775   0.167   6.441  1.6753 -1.7887  0.3278
 7743SOL    HW234689   1.714   0.209   6.313  1.1102  0.7546 -0.6750
 7744SOL     OW34690   1.623   2.360   4.754 -0.3198  0.2313  0.3059
 7744SOL    HW134691   1.563   2.298   4.711  0.7674 -0.1449 -0.6665
 7744SOL    HW234692   1.557   2.416   4.793  0.8417  0.6859  1.6069
 7745SOL     OW34693   2.466   3.455   0.831 -0.6114  0.0880 -0.4159
 7745SOL    HW134694   2.439   3.507   0.756 -0.0349 -3.1523 -2.8802
 7745SOL    HW234695   2.462   3.368   0.792 -1.4759 -0.5097  0.9969
 7746SOL     OW34696   3.166   3.233   8.149 -0.2930 -0.2827 -0.8045
 7746SOL    HW134697   3.186   3.164   8.086 -1.2558  1.0384 -2.5561
 7746SOL    HW234698   3.136   3.300   8.088 -0.0633 -0.3344 -0.9719
 7747SOL     OW34699   4.315   2.859   5.123 -0.6836  0.1734 -0.6524
 7747SOL    HW134700   4.401   2.816   5.121 -1.5848 -1.6965  0.9574
 7747SOL    HW234701   4.261   2.786   5.154 -0.2794  0.2737  0.3078
 7748SOL     OW34702   3.477   4.330  13.282 -0.0727 -0.5085 -0.0218
 7748SOL    HW134703   3.479   4.335  13.377 -1.7134  0.0658 -0.0124
 7748SOL    HW234704   3.446   4.412  13.243 -0.0496 -0.7359 -0.5293
 7749SOL     OW34705   2.918   2.330   7.880  0.0772  0.3926  0.2661
 7749SOL    HW134706   2.944   2.269   7.949 -1.1120 -0.3050  0.0936
 7749SOL    HW234707   2.920   2.270   7.805  0.5767  1.3662 -0.5051
 7750SOL     OW34708   2.174   4.496   8.008  0.4979  0.3391 -0.2133
 7750SOL    HW134709   2.216   4.575   8.043 -1.2913 -0.0397  2.8873
 7750SOL    HW234710   2.206   4.432   8.071 -1.3825 -1.6418 -1.2745
 7751SOL     OW34711   0.074   3.260  17.476 -0.0536  0.1588  0.6275
 7751SOL    HW134712   0.083   3.352  17.502  0.0393  0.3146  0.0432
 7751SOL    HW234713   4.711   3.267  17.441 -0.1280  1.0496  0.9770
 7752SOL     OW34714   2.889   1.745  12.502 -0.2590  0.2975  0.6639
 7752SOL    HW134715   2.936   1.727  12.583  0.2707  1.5747  0.6454
 7752SOL    HW234716   2.800   1.763  12.533 -0.5098  0.0367  0.0954
 7753SOL     OW34717   0.604   2.093   7.078 -0.2751  0.0028 -0.9156
 7753SOL    HW134718   0.608   2.079   7.172 -3.2965  0.3248 -0.7545
 7753SOL    HW234719   0.557   2.176   7.073 -2.1086 -0.9585  0.6097
 7754SOL     OW34720   4.013   0.655   5.018  0.2498  0.1917 -0.3168
 7754SOL    HW134721   3.964   0.602   5.081 -3.0379  1.0916 -2.1033
 7754SOL    HW234722   3.967   0.661   4.934  0.4878 -1.5947 -0.5751
 7755SOL     OW34723   3.917   3.224   9.189  0.1692 -0.0901 -0.1234
 7755SOL    HW134724   3.881   3.306   9.156  0.4545 -0.3688 -1.1372
 7755SOL    HW234725   4.007   3.246   9.215 -0.8627  1.4121  2.1332
 7756SOL     OW34726   0.813   4.382  13.938 -0.3378  0.4622  0.0055
 7756SOL    HW134727   0.815   4.351  14.028  1.7291  1.8357  0.4278
 7756SOL    HW234728   0.799   4.475  13.957  0.7359  0.3410  1.4054
 7757SOL     OW34729   0.196   1.628  14.525  0.1386  0.0186  0.0368
 7757SOL    HW134730   0.277   1.631  14.474  0.0742 -1.0821 -0.1235
 7757SOL    HW234731   0.201   1.548  14.577 -0.4907 -0.1697 -0.2002
 7758SOL     OW34732   2.819   3.211   7.054  0.0711  0.5215 -0.1724
 7758SOL    HW134733   2.867   3.128   7.045  0.8723  1.1596 -1.8171
 7758SOL    HW234734   2.738   3.162   7.068 -0.9371  2.2789  0.0243
 7759SOL     OW34735   0.659   1.297   2.450 -0.2718 -0.0308 -0.6092
 7759SOL    HW134736   0.729   1.322   2.511  0.3172 -1.4145 -0.7162
 7759SOL    HW234737   0.709   1.278   2.371 -1.4376 -0.6902 -1.1903
 7760SOL     OW34738   0.378   1.152   7.618 -0.6209 -0.3157 -0.7022
 7760SOL    HW134739   0.329   1.077   7.652 -0.2425 -0.3988 -0.3410
 7760SOL    HW234740   0.303   1.208   7.598  0.3829  1.2937 -0.0195
 7761SOL     OW34741   2.083   0.864   7.547 -0.1226 -0.2238 -0.6070
 7761SOL    HW134742   2.031   0.849   7.626  1.0809 -2.5936 -0.2715
 7761SOL    HW234743   2.058   0.782   7.506 -0.2805  0.2166 -1.3898
 7762SOL     OW34744   3.601   0.774   8.612 -0.4309  0.4212  0.2513
 7762SOL    HW134745   3.651   0.801   8.535 -0.3151  0.1200  0.2205
 7762SOL    HW234746   3.602   0.680   8.595  0.6170  0.6077 -0.6900
 7763SOL     OW34747   1.309   4.663   5.666  0.2247 -0.5063 -0.1424
 7763SOL    HW134748   1.384   4.635   5.717 -0.5746  0.0377  1.3239
 7763SOL    HW234749   1.344   4.681   5.579 -0.1935  0.4067 -0.1189
 7764SOL     OW34750   4.310   1.790   9.256  0.0688  0.4363 -0.4948
 7764SOL    HW134751   4.400   1.823   9.253  0.8048 -1.5021  0.5050
 7764SOL    HW234752   4.285   1.782   9.348 -2.7685  0.6104 -1.2598
 7765SOL     OW34753   1.925   2.251   5.331  0.1172 -0.0052  0.4881
 7765SOL    HW134754   1.991   2.207   5.384 -1.2473 -0.5494  1.7375
 7765SOL    HW234755   1.941   2.345   5.341  1.2529 -0.3070  1.4893
 7766SOL     OW34756   1.088   1.430   8.087  0.0111 -0.1856  0.2845
 7766SOL    HW134757   1.139   1.439   8.168  0.2535  2.3552 -0.1571
 7766SOL    HW234758   1.042   1.347   8.103 -2.3521  1.4417  1.8673
 7767SOL     OW34759   2.463   0.784   2.375  0.1108 -0.1002 -0.4023
 7767SOL    HW134760   2.555   0.757   2.380 -0.0919 -0.1552  2.9800
 7767SOL    HW234761   2.419   0.731   2.309  1.6874 -1.8030 -0.0753
 7768SOL     OW34762   0.405   4.611  15.884 -0.9051  0.1927  0.3645
 7768SOL    HW134763   0.387   4.704  15.903 -0.1681  0.0906  1.5704
 7768SOL    HW234764   0.326   4.558  15.896 -0.4891 -0.4309  0.3179
 7769SOL     OW34765   0.366   0.758   7.239 -0.4532  0.4515  0.2113
 7769SOL    HW134766   0.408   0.747   7.324 -0.4900 -0.6452  0.0873
 7769SOL    HW234767   0.298   0.691   7.245 -0.2961  0.3809  1.1679
 7770SOL     OW34768   1.898   1.419   7.015  0.5220  0.4734 -0.1467
 7770SOL    HW134769   1.963   1.376   7.071 -1.7239 -0.8004  1.5297
 7770SOL    HW234770   1.917   1.374   6.933 -0.5394 -0.2499 -0.0086
 7771SOL     OW34771   3.157   1.591   5.739  0.1637  0.6934  0.0742
 7771SOL    HW134772   3.203   1.508   5.729 -0.0492  0.8010 -1.9923
 7771SOL    HW234773   3.097   1.572   5.810 -0.0978 -1.6545 -0.7827
 7772SOL     OW34774   1.704   2.331   8.164  0.0607 -0.4569 -0.0662
 7772SOL    HW134775   1.729   2.397   8.100 -0.1430  0.1736  0.5020
 7772SOL    HW234776   1.716   2.381   8.245  1.7373  1.5447 -1.5587
 7773SOL     OW34777   1.757   1.424  17.013 -0.1238 -0.2362  0.1121
 7773SOL    HW134778   1.788   1.411  16.923  1.2747  0.1424  0.5412
 7773SOL    HW234779   1.722   1.337  17.029 -2.2599  1.1097  2.7993
 7774SOL     OW34780   3.638   0.885   7.243  0.1626 -0.0280  0.5381
 7774SOL    HW134781   3.587   0.811   7.209 -0.4651  1.0136 -0.7934
 7774SOL    HW234782   3.661   0.847   7.328  0.6245 -0.3090  0.2909
 7775SOL     OW34783   3.114   2.741   5.576 -0.5254 -0.0881 -0.0231
 7775SOL    HW134784   3.128   2.825   5.621 -0.8493  0.2489 -0.5471
 7775SOL    HW234785   3.020   2.730   5.589 -0.8151  0.2308 -1.7447
 7776SOL     OW34786   0.453   1.035   6.765 -0.0684  0.1605 -0.0077
 7776SOL    HW134787   0.393   0.961   6.769 -1.8697  1.5408 -1.3900
 7776SOL    HW234788   0.446   1.093   6.841 -0.7127 -0.1328  0.1545
 7777SOL     OW34789   1.087   3.872  11.971  0.1231 -0.3927  0.1815
 7777SOL    HW134790   1.114   3.843  12.058  1.2129 -3.7081 -1.2592
 7777SOL    HW234791   1.084   3.967  11.976  0.1935 -0.4344  0.9286
 7778SOL     OW34792   0.742   0.252   5.532 -0.9633 -0.5182 -0.1316
 7778SOL    HW134793   0.716   0.216   5.617  0.5524 -0.7723  0.2300
 7778SOL    HW234794   0.773   0.174   5.484 -1.8049 -1.3759  0.7238
 7779SOL     OW34795   4.538   1.057  10.651  0.1643  0.0786  0.1517
 7779SOL    HW134796   4.517   1.132  10.596  0.2207  0.4099  0.5841
 7779SOL    HW234797   4.564   0.997  10.581 -0.4919  0.3695 -0.3301
 7780SOL     OW34798   0.171   2.242   6.650  0.4024  0.5256 -0.2472
 7780SOL    HW134799   0.253   2.267   6.691  0.8036  1.6883 -1.7690
 7780SOL    HW234800   0.195   2.183   6.578  0.6152  0.4049 -0.0768
 7781SOL     OW34801   0.295   1.407   2.087  0.5267 -0.2725 -0.4229
 7781SOL    HW134802   0.355   1.350   2.038 -0.5548  0.7498 -2.9226
 7781SOL    HW234803   0.315   1.496   2.058 -0.4358 -0.0935 -0.5447
 7782SOL     OW34804   3.628   1.536   6.618 -1.1215 -0.1949 -0.4204
 7782SOL    HW134805   3.705   1.591   6.637 -0.9694 -0.7693  0.5912
 7782SOL    HW234806   3.659   1.505   6.533 -2.4337  1.3186 -1.4500
 7783SOL     OW34807   0.359   0.666  11.622 -0.3550  0.2388 -0.5369
 7783SOL    HW134808   0.276   0.625  11.599  0.1233 -0.7540 -0.4775
 7783SOL    HW234809   0.405   0.675  11.538  0.8495  1.1755  0.2219
 7784SOL     OW34810   2.973   4.208   0.283  0.3327 -0.3225 -0.6073
 7784SOL    HW134811   2.880   4.226   0.295  0.1932 -1.6199  0.2461
 7784SOL    HW234812   3.003   4.286   0.236  0.6650 -0.7047 -1.0338
 7785SOL     OW34813   2.448   4.471   4.840  0.9299  0.2600  0.3906
 7785SOL    HW134814   2.383   4.482   4.770  0.7416 -1.3749  0.2886
 7785SOL    HW234815   2.416   4.384   4.865 -0.2913  0.9308  1.1292
 7786SOL     OW34816   4.647   2.886   1.694 -0.1841 -0.0825  0.0321
 7786SOL    HW134817   4.605   2.848   1.771  1.8666  0.2126  1.2755
 7786SOL    HW234818   4.660   2.809   1.639 -0.0249 -1.2593  1.7085
 7787SOL     OW34819   1.606   0.176   5.725 -0.7706  0.1696 -0.6169
 7787SOL    HW134820   1.632   0.196   5.635  0.9288  2.2457  0.3352
 7787SOL    HW234821   1.540   0.243   5.744 -1.5055 -1.1728  1.4996
 7788SOL     OW34822   1.918   1.270   3.010  0.1087 -0.0007 -0.3550
 7788SOL    HW134823   1.832   1.296   3.044  0.6285  1.4881 -0.1751
 7788SOL    HW234824   1.893   1.212   2.939 -0.6407 -0.6408  0.4342
 7789SOL     OW34825   1.858   2.197  12.330 -0.1095  0.1035 -0.8386
 7789SOL    HW134826   1.846   2.258  12.257  1.8905 -0.2381 -1.4480
 7789SOL    HW234827   1.953   2.188  12.333 -0.1728 -0.1401  0.1517
 7790SOL     OW34828   2.878   1.633   7.350  0.0057 -0.0178 -0.1603
 7790SOL    HW134829   2.853   1.611   7.260 -0.9708  1.7347 -0.3142
 7790SOL    HW234830   2.828   1.567   7.399  0.1761  0.7927  1.1151
 7791SOL     OW34831   2.689   0.179  13.487 -1.2862 -0.1041 -0.1544
 7791SOL    HW134832   2.633   0.118  13.536 -1.2106  2.5108  3.2046
 7791SOL    HW234833   2.768   0.196  13.538 -1.6974  1.9324 -0.2007
 7792SOL     OW34834   3.536   4.640  16.353  0.6231  0.0849  0.1043
 7792SOL    HW134835   3.447   4.674  16.361  1.1123  1.4670 -0.3883
 7792SOL    HW234836   3.513   4.566  16.297 -0.6721  0.2709  0.3970
 7793SOL     OW34837   0.890   3.477   6.349  0.0111  0.0408  0.4156
 7793SOL    HW134838   0.944   3.406   6.314 -1.1564 -0.3855 -0.5119
 7793SOL    HW234839   0.922   3.550   6.296  0.7090 -0.1063  0.6334
 7794SOL     OW34840   2.464   1.377   6.748  0.1847 -0.4695  0.0649
 7794SOL    HW134841   2.479   1.287   6.776 -1.9254 -1.2352 -1.2502
 7794SOL    HW234842   2.395   1.406   6.807  1.2459 -0.7857  1.4531
 7795SOL     OW34843   0.046   1.306  12.295  0.2542 -0.2111 -0.1716
 7795SOL    HW134844   0.124   1.291  12.348 -0.2317 -1.2791  0.2513
 7795SOL    HW234845   0.086   1.354  12.223 -0.2020 -1.6024 -1.3431
 7796SOL     OW34846   0.030   3.721  13.589 -0.3256 -0.2374  0.1449
 7796SOL    HW134847   0.116   3.732  13.629 -0.8779 -2.9929  2.0594
 7796SOL    HW234848   0.006   3.809  13.561  1.9508  0.0836 -0.7737
 7797SOL     OW34849   1.140   2.255  10.799  0.0460  0.5782  0.6174
 7797SOL    HW134850   1.120   2.206  10.879 -0.7397 -0.0204  0.0550
 7797SOL    HW234851   1.056   2.297  10.782 -1.1440 -0.8388  3.0832
 7798SOL     OW34852   0.461   3.184   2.962  0.5587 -0.3305 -0.1991
 7798SOL    HW134853   0.443   3.263   2.911  1.8782  1.0714  1.5119
 7798SOL    HW234854   0.519   3.136   2.902  0.8960 -1.0076  0.6732
 7799SOL     OW34855   0.672   4.619   0.029  0.2864  0.0706  0.3604
 7799SOL    HW134856   0.637   4.615   0.118 -0.8815  1.2633 -0.0428
 7799SOL    HW234857   0.663   4.713   0.015  0.8578  0.1565  0.5949
 7800SOL     OW34858   2.019   1.662   6.438  0.0740 -0.8287 -0.2257
 7800SOL    HW134859   2.051   1.645   6.349 -1.7807 -0.9868 -0.8592
 7800SOL    HW234860   2.059   1.587   6.482  0.2996 -0.8800 -0.5122
 7801SOL     OW34861   0.854   2.833   6.143 -0.0574  0.2410  0.4150
 7801SOL    HW134862   0.947   2.819   6.123  0.2726  1.1415  1.3213
 7801SOL    HW234863   0.822   2.842   6.053 -0.4497 -2.5209  0.2791
 7802SOL     OW34864   1.824   1.767   2.450 -0.0763 -0.5425  0.1543
 7802SOL    HW134865   1.847   1.812   2.368  2.3278 -0.3726  0.9264
 7802SOL    HW234866   1.860   1.820   2.521 -0.0086 -1.8926  1.1199
 7803SOL     OW34867   1.737   2.166  10.520  0.0623 -0.0899 -0.8648
 7803SOL    HW134868   1.797   2.091  10.519  2.0345  1.5168 -2.8505
 7803SOL    HW234869   1.708   2.159  10.610 -0.1574 -0.9466 -1.0008
 7804SOL     OW34870   4.547   4.590  12.992  0.3100  0.2438 -0.6179
 7804SOL    HW134871   4.453   4.577  12.987  0.0726  1.0334  1.8268
 7804SOL    HW234872   4.566   4.607  12.900  2.8862  2.6704  0.3714
 7805SOL     OW34873   4.233   1.134   3.228  0.6792  0.2334  0.2115
 7805SOL    HW134874   4.144   1.155   3.200  1.0244 -1.5661 -2.2038
 7805SOL    HW234875   4.271   1.110   3.143  0.1766 -0.9104  0.3106
 7806SOL     OW34876   0.839   2.261   0.258 -0.3860 -0.1819 -0.1825
 7806SOL    HW134877   0.930   2.245   0.233  0.3751  0.6614  2.0283
 7806SOL    HW234878   0.831   2.345   0.214  4.5944 -0.3723 -1.4427
 7807SOL     OW34879   4.605   1.249   5.764 -0.5662 -0.0631 -0.1781
 7807SOL    HW134880   4.513   1.241   5.739 -0.7291 -0.4940  0.5558
 7807SOL    HW234881   4.594   1.293   5.848 -0.9716  0.0437 -0.2863
 7808SOL     OW34882   0.719   0.832   0.147 -0.1281  0.6456 -0.3061
 7808SOL    HW134883   0.756   0.800   0.064 -0.3877 -1.0095  0.2150
 7808SOL    HW234884   0.626   0.841   0.126 -0.5300  0.7350  1.5189
 7809SOL     OW34885   3.547   3.085  16.873 -0.0656  0.0250  0.1921
 7809SOL    HW134886   3.600   3.121  16.944  0.0146  1.1817 -0.4450
 7809SOL    HW234887   3.506   3.167  16.847 -0.5805 -0.1203  0.5576
 7810SOL     OW34888   0.664   0.574   4.579 -0.3283  0.3629 -0.0810
 7810SOL    HW134889   0.621   0.637   4.521 -0.6398  0.7811  0.5972
 7810SOL    HW234890   0.726   0.630   4.626 -1.0909 -0.7799  2.2987
 7811SOL     OW34891   0.383   3.784  14.512  0.0031 -0.0994 -0.0967
 7811SOL    HW134892   0.325   3.854  14.543 -2.3708 -1.9103 -0.4709
 7811SOL    HW234893   0.350   3.702  14.548  1.0051 -0.3511  0.2560
 7812SOL     OW34894   3.300   0.346   4.948 -0.2327 -0.6444  0.1470
 7812SOL    HW134895   3.277   0.438   4.936 -1.3844 -1.3286 -2.9702
 7812SOL    HW234896   3.375   0.350   4.889 -0.0139 -1.7069  0.3424
 7813SOL     OW34897   0.180   0.589   7.960  0.2820  0.1258 -0.3114
 7813SOL    HW134898   0.237   0.513   7.948  0.6599  0.6660 -1.9278
 7813SOL    HW234899   0.242   0.647   8.005  0.0075  0.9558 -0.9847
 7814SOL     OW34900   2.463   3.045   2.301  0.4730 -0.9715 -0.3024
 7814SOL    HW134901   2.407   3.123   2.309  0.3156 -1.1254  0.1003
 7814SOL    HW234902   2.453   3.020   2.209  1.4149 -0.5556 -0.5226
 7815SOL     OW34903   3.639   2.010   3.347  0.2016  0.2955  0.3094
 7815SOL    HW134904   3.557   2.002   3.395 -0.7646  0.5612 -1.2881
 7815SOL    HW234905   3.692   2.068   3.401 -0.5354  1.4151 -0.1602
 7816SOL     OW34906   0.289   2.059  11.656  0.5920 -0.4367  0.4046
 7816SOL    HW134907   0.381   2.065  11.682  1.0221 -1.3168 -0.9329
 7816SOL    HW234908   0.296   2.074  11.562  0.3813  0.1647  0.4864
 7817SOL     OW34909   3.389   4.709  13.502 -0.0047  0.0635  0.3973
 7817SOL    HW134910   3.402   0.078  13.496  2.0292 -0.0768  2.6578
 7817SOL    HW234911   3.397   4.687  13.409 -0.5768 -1.2758  0.6711
 7818SOL     OW34912   1.969   3.244   7.952  0.1459  0.2709  0.2647
 7818SOL    HW134913   2.057   3.206   7.946 -0.9729 -2.0720 -1.2100
 7818SOL    HW234914   1.918   3.167   7.977 -0.8883  0.1039 -2.3774
 7819SOL     OW34915   3.217   0.603  16.753 -0.2760 -0.1860  0.1252
 7819SOL    HW134916   3.124   0.598  16.774 -0.0394  0.5135  1.2852
 7819SOL    HW234917   3.208   0.604  16.657  0.9328  1.4155  0.0394
 7820SOL     OW34918   2.704   4.206  15.828  0.5203 -0.0552 -0.2260
 7820SOL    HW134919   2.743   4.158  15.901  1.5062  0.4333 -0.4354
 7820SOL    HW234920   2.774   4.225  15.765 -0.5011 -1.8958 -1.9254
 7821SOL     OW34921   2.574   3.635   4.133  0.1993  0.7451  0.0501
 7821SOL    HW134922   2.654   3.624   4.185  1.6524  1.8703 -1.9652
 7821SOL    HW234923   2.540   3.714   4.175 -2.1349 -0.6358  0.7446
 7822SOL     OW34924   1.685   3.201  11.639 -0.3316 -0.1212 -0.0126
 7822SOL    HW134925   1.630   3.219  11.715  0.1685 -0.9856  0.5518
 7822SOL    HW234926   1.762   3.198  11.696 -0.4097 -2.3339 -0.0412
 7823SOL     OW34927   3.727   0.837   5.060 -0.0458 -0.0987  0.3858
 7823SOL    HW134928   3.747   0.785   4.983 -1.9877  0.9132 -0.7961
 7823SOL    HW234929   3.631   0.842   5.060 -0.0172  0.4937  0.2530
 7824SOL     OW34930   1.358   0.493   1.652 -0.0824 -0.1835 -0.6441
 7824SOL    HW134931   1.378   0.399   1.647 -2.2830 -0.5674 -2.4715
 7824SOL    HW234932   1.420   0.524   1.586 -0.7498 -2.7110 -2.4514
 7825SOL     OW34933   2.943   0.641   9.040 -0.0596  0.0972 -0.0744
 7825SOL    HW134934   3.032   0.613   9.020  0.7911  1.9776  0.9990
 7825SOL    HW234935   2.892   0.568   9.005  1.0988 -0.7855  0.0874
 7826SOL     OW34936   3.201   0.402  15.441 -0.3381 -0.1701 -0.3582
 7826SOL    HW134937   3.195   0.365  15.529  0.5670 -0.8143 -0.5634
 7826SOL    HW234938   3.146   0.347  15.385 -2.2587  1.0925  0.2816
 7827SOL     OW34939   2.828   3.868   3.946  0.8659 -0.2117 -0.0062
 7827SOL    HW134940   2.849   3.950   3.901 -0.1513  0.9729  1.6511
 7827SOL    HW234941   2.754   3.902   3.997 -0.9476 -3.5931 -0.4042
 7828SOL     OW34942   4.303   3.702  16.677  0.0082 -0.2999  0.2920
 7828SOL    HW134943   4.395   3.678  16.683 -0.7866 -3.6810 -1.0066
 7828SOL    HW234944   4.307   3.775  16.739  0.1206  0.5927 -0.7562
 7829SOL     OW34945   3.633   3.696   3.633  0.6544  0.1069  0.5277
 7829SOL    HW134946   3.647   3.606   3.661 -2.4181 -0.3685  0.5285
 7829SOL    HW234947   3.538   3.689   3.624  0.7877  0.7261 -1.3802
 7830SOL     OW34948   3.359   4.407  14.865  0.2635  0.2470 -1.2085
 7830SOL    HW134949   3.346   4.325  14.817  0.7422 -0.1451 -0.6725
 7830SOL    HW234950   3.283   4.413  14.924  1.1151  1.8050 -0.2655
 7831SOL     OW34951   4.376   3.785   7.628  0.3928  0.4835  0.0843
 7831SOL    HW134952   4.432   3.760   7.555 -1.3529  2.7489 -2.0210
 7831SOL    HW234953   4.303   3.808   7.570  1.5847 -2.7118 -2.6343
 7832SOL     OW34954   2.920   4.402   2.753 -0.3172 -0.0343  0.6720
 7832SOL    HW134955   2.995   4.462   2.748  1.0543 -1.9518 -1.5028
 7832SOL    HW234956   2.951   4.338   2.690  0.0938 -1.2305  2.0996
 7833SOL     OW34957   2.955   2.567  11.598  0.4270 -0.0189 -0.5685
 7833SOL    HW134958   3.016   2.566  11.523 -0.4402 -1.1062 -1.2621
 7833SOL    HW234959   2.901   2.489  11.583 -2.3585  1.8773 -0.3265
 7834SOL     OW34960   0.265   1.487   1.374 -0.6945 -0.6463  0.2017
 7834SOL    HW134961   0.290   1.555   1.436  1.3380 -0.3392 -0.9529
 7834SOL    HW234962   0.336   1.435   1.411 -0.2756 -0.0208  0.2654
 7835SOL     OW34963   1.377   1.488   1.063  0.2701 -0.0806 -0.2238
 7835SOL    HW134964   1.469   1.516   1.067  0.0484  0.3953  1.8696
 7835SOL    HW234965   1.390   1.418   1.128 -1.6469 -1.0530 -0.9040
 7836SOL     OW34966   3.774   1.185   4.066  0.0074  0.5966 -0.7481
 7836SOL    HW134967   3.798   1.126   3.994  1.0424 -0.6358  0.6280
 7836SOL    HW234968   3.829   1.263   4.052  1.0496 -0.0409 -0.1982
 7837SOL     OW34969   1.865   1.262   8.502 -0.5579  0.9233  0.1709
 7837SOL    HW134970   1.879   1.320   8.576 -0.5655  1.4370 -0.2339
 7837SOL    HW234971   1.946   1.212   8.506 -3.1267 -3.5152 -3.0352
 7838SOL     OW34972   2.342   3.587   3.807  0.6078 -0.1133 -0.0926
 7838SOL    HW134973   2.306   3.543   3.730 -3.6185  1.2067  1.1773
 7838SOL    HW234974   2.274   3.654   3.809  0.5346 -0.2631  1.8518
 7839SOL     OW34975   1.112   1.575  11.913 -0.1761 -0.1254 -0.5299
 7839SOL    HW134976   1.193   1.526  11.898  0.6698  0.4647  2.0777
 7839SOL    HW234977   1.112   1.639  11.841  0.4250 -0.8198 -1.1426
 7840SOL     OW34978   0.414   2.419   3.462 -0.0086  0.2455 -0.1720
 7840SOL    HW134979   0.477   2.467   3.515 -2.3105  1.7574  1.2229
 7840SOL    HW234980   0.354   2.386   3.529 -0.6043  1.2140 -0.2119
 7841SOL     OW34981   4.706   3.446   5.620 -0.5482  0.0636  0.0421
 7841SOL    HW134982   4.693   3.509   5.692  2.0504  0.1846  0.4171
 7841SOL    HW234983   4.685   3.493   5.539 -2.5953  2.3912  1.8861
 7842SOL     OW34984   0.316   2.252   4.978 -0.4012 -0.5557 -0.0029
 7842SOL    HW134985   0.330   2.165   4.940  0.4099 -0.5751  0.3448
 7842SOL    HW234986   0.404   2.282   5.001  0.0282 -0.6097 -1.5721
 7843SOL     OW34987   0.293   3.835   1.291  0.1796  0.3746  0.1641
 7843SOL    HW134988   0.303   3.746   1.258  3.0806  0.2968  1.2905
 7843SOL    HW234989   0.382   3.867   1.305 -0.5444  2.3230  0.3826
 7844SOL     OW34990   1.011   0.983   1.128  0.4580 -0.4278  0.1191
 7844SOL    HW134991   1.085   0.929   1.100  1.8372  0.8909  1.2934
 7844SOL    HW234992   1.056   1.035   1.194 -0.8212  0.5497  0.2320
 7845SOL     OW34993   3.300   0.986  11.708  0.0812  0.6540  0.0266
 7845SOL    HW134994   3.207   0.998  11.723  0.0418 -1.4437  1.4126
 7845SOL    HW234995   3.325   1.062  11.655  1.0252 -0.3166 -0.9256
 7846SOL     OW34996   1.919   2.915   8.661 -0.5625 -0.0603  0.5558
 7846SOL    HW134997   1.978   2.990   8.662 -2.0857  1.1745 -2.5379
 7846SOL    HW234998   1.983   2.846   8.641  1.7215  1.2761  3.1668
 7847SOL     OW34999   0.354   4.535  16.444 -0.1896 -0.0158 -0.4959
 7847SOL    HW135000   0.334   4.617  16.489 -1.8091  0.1092 -1.4270
 7847SOL    HW235001   0.278   4.515  16.389 -1.1897  1.0185  0.5068
 7848SOL     OW35002   1.437   2.015  16.773 -0.0637  0.0039  0.1125
 7848SOL    HW135003   1.410   1.988  16.861  0.7342  1.3874  0.7797
 7848SOL    HW235004   1.450   1.932  16.728 -0.3961  0.2342 -0.4073
 7849SOL     OW35005   3.121   0.211  13.434 -0.0520  0.1217 -0.0392
 7849SOL    HW135006   3.183   0.270  13.476  0.1186  0.2842 -0.5181
 7849SOL    HW235007   3.060   0.275  13.396 -1.6424 -1.7877 -0.7229
 7850SOL     OW35008   2.310   1.831   5.377 -0.3160  0.0749  0.0989
 7850SOL    HW135009   2.404   1.824   5.360 -0.4287 -2.3936  0.5356
 7850SOL    HW235010   2.311   1.816   5.472  0.0845 -0.7462 -0.0347
 7851SOL     OW35011   3.196   3.659   6.307  0.1442 -0.9050  0.0835
 7851SOL    HW135012   3.272   3.644   6.363  0.0696  2.0399  1.0112
 7851SOL    HW235013   3.115   3.619   6.339 -0.9258  0.9337 -0.2929
 7852SOL     OW35014   0.301   0.387   8.211  0.2108 -0.3619  0.1623
 7852SOL    HW135015   0.211   0.421   8.215  1.0907  2.1476 -1.2563
 7852SOL    HW235016   0.343   0.467   8.243  0.7663 -0.7708  0.4483
 7853SOL     OW35017   4.545   2.694   4.340  0.0820  0.5879  0.2466
 7853SOL    HW135018   4.517   2.769   4.287  2.4850 -0.3475 -2.3224
 7853SOL    HW235019   4.612   2.734   4.395 -1.8323  1.4011  2.0124
 7854SOL     OW35020   0.753   2.429   3.061  0.4195  0.5191  0.2020
 7854SOL    HW135021   0.786   2.499   3.004 -1.9591 -0.1620 -1.9849
 7854SOL    HW235022   0.733   2.481   3.139  0.0379  0.2090  0.3077
 7855SOL     OW35023   0.259   2.083   6.445 -0.2793 -0.2079 -0.2312
 7855SOL    HW135024   0.316   2.013   6.477 -2.4235 -1.1673  1.4533
 7855SOL    HW235025   0.228   2.046   6.362  1.7039 -0.8422 -0.6806
 7856SOL     OW35026   0.854   3.405  10.984 -0.2856  0.4492 -0.5660
 7856SOL    HW135027   0.783   3.359  11.028 -2.0200  2.3269 -1.3812
 7856SOL    HW235028   0.828   3.387  10.893  0.0738  1.0083 -0.7815
 7857SOL     OW35029   1.273   2.651   1.233 -0.0456  0.1831  0.2354
 7857SOL    HW135030   1.221   2.583   1.189 -1.3108  1.8631 -0.8760
 7857SOL    HW235031   1.346   2.661   1.172  0.5646 -0.3395  0.8783
 7858SOL     OW35032   3.219   1.348  13.983  0.2808  0.0236 -0.2549
 7858SOL    HW135033   3.303   1.385  14.008 -0.6422  2.3989 -0.7116
 7858SOL    HW235034   3.211   1.376  13.892  1.4745  3.5604  0.7399
 7859SOL     OW35035   1.422   0.853   4.006  0.2274  0.0131 -0.2828
 7859SOL    HW135036   1.488   0.818   4.065 -0.4496 -1.4824 -0.4004
 7859SOL    HW235037   1.420   0.947   4.023  1.0369 -0.0331  0.0673
 7860SOL     OW35038   0.352   1.053   9.911  0.1647  0.2551  0.0065
 7860SOL    HW135039   0.438   1.086   9.937  0.1152 -0.8645  1.5931
 7860SOL    HW235040   0.302   1.130   9.941  2.9575  1.9342  0.3774
 7861SOL     OW35041   2.051   1.071   3.435  0.2309  0.2427  0.5424
 7861SOL    HW135042   2.058   0.984   3.397 -1.2188 -0.9738  3.0476
 7861SOL    HW235043   2.098   1.119   3.367 -0.1850  0.1857  0.2151
 7862SOL     OW35044   0.419   1.172   2.726 -0.3123  0.3154 -0.4801
 7862SOL    HW135045   0.469   1.121   2.789  1.2411  0.6964 -1.4222
 7862SOL    HW235046   0.463   1.158   2.642 -1.1860 -0.9756 -0.7247
 7863SOL     OW35047   0.942   1.669   1.025  0.7179 -0.3601 -0.1996
 7863SOL    HW135048   1.026   1.714   1.028  0.8283 -0.6421  0.9272
 7863SOL    HW235049   0.934   1.675   0.930  2.4450 -1.9943 -0.4533
 7864SOL     OW35050   0.878   2.582   0.956  0.2551 -0.6766 -1.0729
 7864SOL    HW135051   0.815   2.605   0.887 -0.5751 -0.4276 -0.2382
 7864SOL    HW235052   0.958   2.552   0.915 -0.1689 -1.6561 -1.1861
 7865SOL     OW35053   3.639   1.041   6.934 -0.3900  0.0610  0.3451
 7865SOL    HW135054   3.570   0.976   6.943 -0.7669  0.3883 -0.1808
 7865SOL    HW235055   3.703   0.995   6.988 -0.9206  0.1185  1.0225
 7866SOL     OW35056   2.123   0.913   9.639  0.0940 -0.1459 -0.1536
 7866SOL    HW135057   2.213   0.888   9.659 -0.7520 -0.5601  3.1353
 7866SOL    HW235058   2.125   1.008   9.651 -0.8530 -0.2039  0.4956
 7867SOL     OW35059   1.781   0.482   3.221 -0.1527 -0.0819 -0.2941
 7867SOL    HW135060   1.778   0.475   3.317  3.7750  3.9291  0.1322
 7867SOL    HW235061   1.730   0.562   3.209  1.0063  0.7190  0.1044
 7868SOL     OW35062   3.552   2.866  10.429  0.1405  0.2260 -0.7117
 7868SOL    HW135063   3.534   2.932  10.496 -1.0473  0.4987 -1.3083
 7868SOL    HW235064   3.512   2.906  10.352 -0.2699 -1.3053 -1.2855
 7869SOL     OW35065   1.806   1.056   6.990  0.1515  0.5783  0.0816
 7869SOL    HW135066   1.756   0.975   6.996  0.9789  0.3464  3.6224
 7869SOL    HW235067   1.737   1.120   6.974  0.9019  1.1903 -0.7469
 7870SOL     OW35068   0.376   3.712   1.991 -0.0899 -0.4656  0.1618
 7870SOL    HW135069   0.383   3.631   1.941 -1.3238 -0.2283 -0.3683
 7870SOL    HW235070   0.309   3.693   2.057 -1.0521  0.0573 -0.6740
 7871SOL     OW35071   4.296   4.154  13.921 -0.1085  0.3238 -0.1225
 7871SOL    HW135072   4.281   4.177  14.013 -1.9857 -0.5710 -0.2100
 7871SOL    HW235073   4.242   4.075  13.924 -0.1009  0.3409  0.6585
 7872SOL     OW35074   0.766   4.634   1.903 -0.1503 -0.5751  0.1194
 7872SOL    HW135075   0.715   4.562   1.867 -0.4982 -1.7831  3.0146
 7872SOL    HW235076   0.734   4.640   1.993 -0.4513 -0.6643  0.0192
 7873SOL     OW35077   1.208   0.815   1.448 -0.0249 -0.0770 -0.0660
 7873SOL    HW135078   1.279   0.779   1.394  1.6849  1.1605  1.3351
 7873SOL    HW235079   1.272   0.842   1.514 -1.2189 -2.1331  1.9051
 7874SOL     OW35080   2.731   2.151   5.986 -0.0151 -0.0224 -0.1753
 7874SOL    HW135081   2.811   2.202   5.987 -0.2006  0.2657 -0.0284
 7874SOL    HW235082   2.765   2.063   5.999 -1.3451 -0.2423  1.7888
 7875SOL     OW35083   0.909   0.854   9.245 -0.2483 -0.9126 -0.0248
 7875SOL    HW135084   0.872   0.852   9.157 -1.4550 -0.1760  0.4774
 7875SOL    HW235085   1.002   0.875   9.234 -0.3663 -0.1005  0.5744
 7876SOL     OW35086   4.363   0.709   3.562 -0.5859 -0.4121 -0.3781
 7876SOL    HW135087   4.301   0.733   3.493  0.3064  0.4260 -0.8944
 7876SOL    HW235088   4.331   0.620   3.575 -1.3401  0.0525  0.9508
 7877SOL     OW35089   1.976   3.969  14.737 -0.5704  0.0698  0.4125
 7877SOL    HW135090   2.039   4.011  14.795  0.8286 -0.2079 -0.8913
 7877SOL    HW235091   2.004   4.024  14.664  1.2387  0.1072  1.1435
 7878SOL     OW35092   2.683   1.043   6.371  1.0370 -0.0908  0.2969
 7878SOL    HW135093   2.723   1.024   6.456 -0.6498  0.1930  1.1577
 7878SOL    HW235094   2.759   1.077   6.323  1.5138  0.4166  1.4186
 7879SOL     OW35095   3.139   0.318   8.451  0.1801  0.4702 -0.6409
 7879SOL    HW135096   3.225   0.275   8.447 -0.8315 -1.5593 -0.6068
 7879SOL    HW235097   3.087   0.244   8.483 -0.3235  1.6028  1.1304
 7880SOL     OW35098   1.004   1.079   9.902 -0.2825  0.0448 -0.4340
 7880SOL    HW135099   1.025   0.986   9.909  0.5336  0.2291 -0.4787
 7880SOL    HW235100   1.031   1.105   9.989  1.6520 -2.2242 -0.3621
 7881SOL     OW35101   2.488   0.443  17.038 -0.1164  0.2782  0.5550
 7881SOL    HW135102   2.478   0.360  16.990  2.2023  0.8302 -0.8625
 7881SOL    HW235103   2.422   0.427  17.106  0.1285  1.0308  0.9552
 7882SOL     OW35104   1.143   1.314   7.814  0.2771  0.3430  0.2428
 7882SOL    HW135105   1.060   1.348   7.781 -0.6185 -0.7843  1.3674
 7882SOL    HW235106   1.167   1.377   7.883  0.7085 -0.8873  1.2103
 7883SOL     OW35107   2.430   1.339   8.701 -0.5033 -0.1995  0.0696
 7883SOL    HW135108   2.361   1.367   8.640  0.4443 -0.5524 -1.1772
 7883SOL    HW235109   2.455   1.251   8.674 -2.2595 -1.0340  1.2207
 7884SOL     OW35110   3.658   4.045  13.523  0.0652 -0.5053  0.3737
 7884SOL    HW135111   3.630   3.988  13.595 -0.2320 -1.8328 -0.7937
 7884SOL    HW235112   3.751   4.024  13.532  0.5755  2.5730  2.3468
 7885SOL     OW35113   1.431   2.339  14.171  0.2424  0.1445  0.0052
 7885SOL    HW135114   1.420   2.388  14.089 -0.5033 -0.3103 -0.1596
 7885SOL    HW235115   1.497   2.398  14.208 -0.3507 -0.0707  1.4020
 7886SOL     OW35116   1.787   1.480   9.677 -0.2911 -0.4529  0.4225
 7886SOL    HW135117   1.692   1.494   9.680 -0.2936  0.1376 -2.0547
 7886SOL    HW235118   1.828   1.566   9.669 -1.6676 -0.1045 -3.3439
 7887SOL     OW35119   3.635   2.605  13.347  0.1134  0.4449  0.0936
 7887SOL    HW135120   3.678   2.688  13.326  0.2629  1.2123  3.3751
 7887SOL    HW235121   3.625   2.577  13.256  1.6594  0.5232 -0.1031
 7888SOL     OW35122   0.814   0.715   1.729 -0.0792 -0.0985 -0.1574
 7888SOL    HW135123   0.904   0.692   1.709 -0.8842 -1.2160 -2.4187
 7888SOL    HW235124   0.813   0.790   1.789 -0.5086 -0.3587  0.1607
 7889SOL     OW35125   2.288   0.001   8.016 -0.1544  0.4643 -0.0413
 7889SOL    HW135126   2.355   0.047   8.066 -0.1876 -0.8757  1.2308
 7889SOL    HW235127   2.224   0.071   7.999 -0.1669  0.1244 -1.4056
 7890SOL     OW35128   2.473   3.917   6.601  0.2069 -0.0015  0.1868
 7890SOL    HW135129   2.383   3.947   6.587  0.0318 -0.0860  1.1665
 7890SOL    HW235130   2.515   3.905   6.516 -0.5969 -0.1088 -0.1925
 7891SOL     OW35131   3.306   1.090   8.199  0.0619  0.0925 -0.3979
 7891SOL    HW135132   3.318   1.035   8.276  0.1272  1.6030  0.6661
 7891SOL    HW235133   3.211   1.085   8.189  0.2657  0.3743 -2.4363
 7892SOL     OW35134   2.530   2.179  13.195  0.4845  0.3756  0.7839
 7892SOL    HW135135   2.563   2.261  13.233 -1.4730  1.5362 -0.0608
 7892SOL    HW235136   2.508   2.217  13.110 -1.2602 -0.1972  0.9742
 7893SOL     OW35137   1.567   3.764   3.542 -0.8524  0.0250 -0.1373
 7893SOL    HW135138   1.567   3.755   3.638  2.7170  0.2291 -0.1281
 7893SOL    HW235139   1.478   3.747   3.512  0.3947 -0.3184 -3.6309
 7894SOL     OW35140   3.858   0.838   8.805  0.5506 -0.3239  0.0858
 7894SOL    HW135141   3.764   0.830   8.815  1.0629 -2.0204  3.4443
 7894SOL    HW235142   3.880   0.922   8.845 -1.6081  0.5761 -0.6356
 7895SOL     OW35143   4.715   0.145   1.016  0.1233 -0.4729  0.7973
 7895SOL    HW135144   4.623   0.119   1.006 -0.0742 -0.3967  2.4255
 7895SOL    HW235145   0.002   0.140   1.111  0.7278 -0.7860  0.6973
 7896SOL     OW35146   0.320   0.383   0.492 -0.0753 -0.6370  0.5468
 7896SOL    HW135147   0.290   0.419   0.575 -0.0365  2.5819 -0.8180
 7896SOL    HW235148   0.278   0.450   0.437  1.3233 -0.2951 -0.1042
 7897SOL     OW35149   0.401   3.756  11.981  0.2439 -0.0015  0.1178
 7897SOL    HW135150   0.491   3.787  11.967  0.5881  0.1563  2.7800
 7897SOL    HW235151   0.402   3.661  11.983  1.5458  0.0188  0.8268
 7898SOL     OW35152   2.112   4.055  10.093 -0.2165 -0.3510  0.3511
 7898SOL    HW135153   2.074   4.142  10.110 -1.2580 -0.7371  0.0283
 7898SOL    HW235154   2.041   3.997  10.120 -0.0238 -0.9191 -0.3589
 7899SOL     OW35155   1.157   4.487  12.508  0.0730  0.1757  0.3658
 7899SOL    HW135156   1.101   4.490  12.430  0.7657 -0.4821 -0.1555
 7899SOL    HW235157   1.150   4.396  12.537  2.2679 -0.5558 -1.4870
 7900SOL     OW35158   1.412   4.255   7.817 -0.6713  0.1447 -0.6231
 7900SOL    HW135159   1.491   4.277   7.767  0.0024  1.8447  1.2009
 7900SOL    HW235160   1.397   4.340   7.857 -1.9047  1.1613 -3.2341
 7901SOL     OW35161   0.419   4.528   8.140 -0.2943 -0.1707  0.2133
 7901SOL    HW135162   0.449   4.561   8.225 -0.4678  0.4999  0.0062
 7901SOL    HW235163   0.405   4.439   8.174  1.5014 -0.1503  1.0155
 7902SOL     OW35164   2.038   0.531   7.775  0.8783  0.6394  0.5886
 7902SOL    HW135165   1.999   0.588   7.842  0.1616  1.2828 -0.3676
 7902SOL    HW235166   1.969   0.466   7.765  1.4351 -0.0754  1.4487
 7903SOL     OW35167   0.990   2.610   1.902 -0.4388  0.0773 -0.0561
 7903SOL    HW135168   0.901   2.583   1.880 -0.1571  0.0295 -1.1400
 7903SOL    HW235169   1.031   2.595   1.817 -0.5898 -2.7362  0.3820
 7904SOL     OW35170   0.661   3.117  14.370 -0.1570 -1.0079 -0.0290
 7904SOL    HW135171   0.686   3.024  14.364  1.9585 -0.2679 -2.5427
 7904SOL    HW235172   0.617   3.128  14.285  1.8771  0.3647 -0.8943
 7905SOL     OW35173   1.217   0.624   4.011  0.3797  0.1760  0.1267
 7905SOL    HW135174   1.244   0.583   4.094  2.5433 -0.3181 -0.8183
 7905SOL    HW235175   1.266   0.707   4.006  1.2443 -0.3919 -0.9099
 7906SOL     OW35176   3.260   3.754   7.304  0.4203  0.5832 -0.5982
 7906SOL    HW135177   3.337   3.710   7.339 -0.1293 -1.4134 -1.9038
 7906SOL    HW235178   3.258   3.716   7.216  0.8876  2.5887 -1.5040
 7907SOL     OW35179   0.000   1.233   3.487  0.2942 -0.3442 -0.1010
 7907SOL    HW135180   0.042   1.147   3.483  0.2475 -0.3948  0.5966
 7907SOL    HW235181   4.700   1.239   3.395  2.5176 -1.9274 -0.8560
 7908SOL     OW35182   2.022   3.172   6.930  0.4051  0.1744 -0.5270
 7908SOL    HW135183   1.970   3.219   6.864  0.0221 -1.1237 -1.1452
 7908SOL    HW235184   2.098   3.228   6.945  0.0678  0.5309 -0.1596
 7909SOL     OW35185   3.779   3.296   5.670  0.0403  0.4525 -0.0842
 7909SOL    HW135186   3.711   3.266   5.730 -0.5451  1.1735 -0.3800
 7909SOL    HW235187   3.745   3.251   5.593 -0.6693  2.6445 -1.0495
 7910SOL     OW35188   0.869   1.800  12.621  0.0890 -0.3540 -0.1945
 7910SOL    HW135189   0.928   1.773  12.551 -0.6194 -1.9749 -0.1736
 7910SOL    HW235190   0.933   1.796  12.691  0.7308 -2.9289 -0.9470
 7911SOL     OW35191   1.953   1.139   2.778 -0.4991  0.2311 -0.2188
 7911SOL    HW135192   1.913   1.077   2.717 -0.0102  0.9514 -1.2557
 7911SOL    HW235193   2.020   1.078   2.809 -1.9714 -1.5773 -0.5654
 7912SOL     OW35194   1.293   1.405  11.776 -0.4021 -0.9909 -0.1967
 7912SOL    HW135195   1.223   1.363  11.725 -1.5308 -1.0277  1.3846
 7912SOL    HW235196   1.363   1.404  11.712 -0.1587  0.9589  0.0681
 7913SOL     OW35197   3.319   2.029   5.626  0.6209 -0.1723 -0.1240
 7913SOL    HW135198   3.392   2.001   5.571  0.9460 -1.5117  0.9741
 7913SOL    HW235199   3.316   2.121   5.599 -0.1156 -0.2228 -0.2103
 7914SOL     OW35200   1.536   2.258   5.667  0.3779 -0.0536  0.3006
 7914SOL    HW135201   1.492   2.343   5.674 -2.6060 -1.5722 -0.2005
 7914SOL    HW235202   1.623   2.285   5.697  1.1423 -1.5961 -0.5534
 7915SOL     OW35203   1.096   1.407   0.874 -0.4540 -0.8123 -0.2393
 7915SOL    HW135204   1.067   1.492   0.842  0.7887  1.0402  3.5953
 7915SOL    HW235205   1.182   1.402   0.832 -0.6318 -0.3656 -0.6559
 7916SOL     OW35206   2.142   3.531   4.183  0.5010  0.2583  0.1337
 7916SOL    HW135207   2.224   3.564   4.220 -0.2376  0.9981  1.1139
 7916SOL    HW235208   2.106   3.489   4.261 -0.1769  1.2696  0.3794
 7917SOL     OW35209   0.116   3.629   5.115 -0.7568 -0.7795 -0.0671
 7917SOL    HW135210   0.117   3.710   5.064 -0.1563 -1.8304 -1.7273
 7917SOL    HW235211   0.182   3.638   5.183 -0.0460 -0.7476 -0.7593
 7918SOL     OW35212   3.423   1.069  16.256  0.3286  0.0181 -0.2000
 7918SOL    HW135213   3.464   1.150  16.286  2.3502 -0.7688 -0.8515
 7918SOL    HW235214   3.490   1.016  16.213  0.3167  1.0645 -1.4986
 7919SOL     OW35215   0.763   0.961   4.679 -0.3217  0.4108  0.0349
 7919SOL    HW135216   0.736   0.991   4.593 -0.4948  1.1913  0.3590
 7919SOL    HW235217   0.831   1.023   4.703  1.8082 -2.1735  0.6439
 7920SOL     OW35218   1.375   0.001   3.051 -0.0520  0.5110  0.0462
 7920SOL    HW135219   1.353   0.066   3.118 -0.3145  1.2765 -0.7812
 7920SOL    HW235220   1.423   0.047   2.982 -0.8581  0.3793 -0.6063
 7921SOL     OW35221   3.263   1.348   5.669  0.4166 -0.0101  0.0746
 7921SOL    HW135222   3.264   1.324   5.576  0.3087 -1.2143  0.3856
 7921SOL    HW235223   3.352   1.334   5.701 -0.2398 -2.5558  0.8198
 7922SOL     OW35224   0.826   3.388  12.315  0.1246 -0.3718 -0.4152
 7922SOL    HW135225   0.742   3.348  12.339  0.2363 -0.7452 -0.6292
 7922SOL    HW235226   0.831   3.373  12.220  1.9867 -0.3111 -0.3210
 7923SOL     OW35227   4.578   0.235   7.417 -0.1039  0.7393 -0.2161
 7923SOL    HW135228   4.486   0.220   7.396  0.2905 -0.6331 -0.9804
 7923SOL    HW235229   4.621   0.216   7.333  1.5851  0.7082  0.6610
 7924SOL     OW35230   1.382   4.111  10.227 -0.3061  0.7588  0.0390
 7924SOL    HW135231   1.413   4.053  10.158  1.9060 -0.3520  2.0173
 7924SOL    HW235232   1.310   4.157  10.182 -0.8845 -0.5652 -0.3941
 7925SOL     OW35233   4.183   2.329   8.132  0.3954  0.5667  0.0661
 7925SOL    HW135234   4.275   2.318   8.155  0.1553 -0.5274  0.4866
 7925SOL    HW235235   4.152   2.239   8.139  0.4802  0.7097  2.5700
 7926SOL     OW35236   2.953   0.309   6.500 -0.0669  0.2127  0.4320
 7926SOL    HW135237   2.870   0.267   6.522 -1.0036  1.8493  0.0956
 7926SOL    HW235238   2.972   0.260   6.420  0.7211 -0.3340  0.9595
 7927SOL     OW35239   3.887   1.994  12.553  0.5636 -0.0403 -0.2375
 7927SOL    HW135240   3.932   2.069  12.515 -0.2242 -0.7237 -2.5231
 7927SOL    HW235241   3.955   1.947  12.601 -0.1545 -1.3903 -0.5576
 7928SOL     OW35242   0.506   0.407   5.561  0.0268 -0.1089 -0.6126
 7928SOL    HW135243   0.449   0.332   5.575  0.2215 -0.2442 -0.5455
 7928SOL    HW235244   0.588   0.358   5.561  0.3363  0.4106  0.8578
 7929SOL     OW35245   1.280   0.105   4.858 -0.3876 -0.4324 -0.7093
 7929SOL    HW135246   1.295   0.072   4.769  0.3337  0.0880 -0.7846
 7929SOL    HW235247   1.329   0.187   4.854  0.2556 -0.7856 -0.0583
 7930SOL     OW35248   3.931   0.148   4.387  0.3259 -0.4246  0.0827
 7930SOL    HW135249   3.872   0.088   4.342 -1.2922  0.9195  0.4050
 7930SOL    HW235250   3.939   0.091   4.464  1.5554  1.3288  1.2590
 7931SOL     OW35251   4.664   4.143   2.754  0.0117 -0.4567  0.0708
 7931SOL    HW135252   4.716   4.064   2.772  0.8654  0.4151  1.4480
 7931SOL    HW235253   4.590   4.114   2.701 -2.0046  0.3983  2.4307
 7932SOL     OW35254   1.401   1.107  12.443  0.3029 -0.1819  0.3841
 7932SOL    HW135255   1.341   1.042  12.406  0.4805 -0.2299  0.1865
 7932SOL    HW235256   1.469   1.047  12.472 -1.6639 -1.4881  2.3532
 7933SOL     OW35257   4.553   0.810   3.366  0.1252 -0.1373 -0.7582
 7933SOL    HW135258   4.508   0.763   3.436  0.1270  1.0925  0.0764
 7933SOL    HW235259   4.509   0.895   3.373  0.6000  0.1820 -1.5887
 7934SOL     OW35260   3.520   0.652  10.580 -0.1555 -0.2703  0.0718
 7934SOL    HW135261   3.549   0.733  10.539  0.4881 -0.5779 -0.0850
 7934SOL    HW235262   3.561   0.580  10.533  0.2543 -1.4515  2.2143
 7935SOL     OW35263   3.983   1.117   6.961  0.4553  0.0510  0.1625
 7935SOL    HW135264   3.945   1.042   7.006  0.9109  0.7663  1.7400
 7935SOL    HW235265   4.054   1.068   6.919  0.5095 -2.0436  2.6799
 7936SOL     OW35266   1.774   1.049   7.361 -0.1426  0.2692  0.1135
 7936SOL    HW135267   1.734   1.104   7.429  0.5004  0.2515  0.4979
 7936SOL    HW235268   1.722   1.078   7.286  0.2705  0.2689 -0.1675
 7937SOL     OW35269   1.313   3.651   8.500 -0.1074 -0.3994  0.2853
 7937SOL    HW135270   1.327   3.676   8.409  0.8302 -0.1651  0.4949
 7937SOL    HW235271   1.232   3.698   8.521  0.4910  0.9066 -0.3538
 7938SOL     OW35272   0.890   2.895  14.245 -0.4193 -0.1183  0.0067
 7938SOL    HW135273   0.929   2.843  14.315  1.8091  0.0022 -1.1373
 7938SOL    HW235274   0.801   2.888  14.279 -0.9712 -0.1954 -1.4514
 7939SOL     OW35275   4.439   1.114  11.366  0.3129 -0.5767  0.1608
 7939SOL    HW135276   4.448   1.057  11.442 -0.2234  0.6488  1.1423
 7939SOL    HW235277   4.519   1.094  11.318 -0.6415 -1.0200 -1.2487
 7940SOL     OW35278   4.148   3.191   1.496  0.0266 -0.2454 -0.6363
 7940SOL    HW135279   4.077   3.249   1.525  1.9002  2.5387 -1.7004
 7940SOL    HW235280   4.122   3.162   1.409 -1.6304 -0.1972 -0.1763
 7941SOL     OW35281   3.403   0.187   7.076 -0.0959  0.2956  0.3755
 7941SOL    HW135282   3.463   0.226   7.013 -0.9818  0.3187 -0.4456
 7941SOL    HW235283   3.469   0.143   7.131  2.6675  1.5308 -1.9799
 7942SOL     OW35284   4.102   0.508   2.831  0.4985 -0.3277  0.6256
 7942SOL    HW135285   4.182   0.558   2.814 -0.0618  0.3629  0.0046
 7942SOL    HW235286   4.119   0.434   2.773  1.5457 -0.3611  0.9866
 7943SOL     OW35287   0.516   0.415   7.848 -0.4028  0.1844  0.1533
 7943SOL    HW135288   0.501   0.339   7.905  1.2838 -1.0465 -1.0062
 7943SOL    HW235289   0.472   0.386   7.768 -0.1319  0.4946 -0.1048
 7944SOL     OW35290   2.481   0.179   8.731 -0.1568 -0.2039  0.0617
 7944SOL    HW135291   2.561   0.192   8.782  0.5073  1.0949 -1.3212
 7944SOL    HW235292   2.430   0.244   8.780 -0.9867 -2.2504  1.9159
 7945SOL     OW35293   0.070   1.861   6.483  0.1517 -0.5047  0.5262
 7945SOL    HW135294   0.091   1.886   6.573 -1.5460  0.4144  0.6747
 7945SOL    HW235295   0.070   1.765   6.479  0.4965 -0.5217  0.9197
 7946SOL     OW35296   4.632   4.676  17.007  0.2227 -0.0896 -0.1567
 7946SOL    HW135297   4.665   4.587  16.999  0.4408 -0.1107  0.9375
 7946SOL    HW235298   4.594   4.678  17.095 -0.5538  2.9199 -0.5282
 7947SOL     OW35299   0.904   1.673   2.258  0.4295  0.1458 -0.0765
 7947SOL    HW135300   0.884   1.593   2.209 -1.3095  1.2789 -1.2329
 7947SOL    HW235301   0.820   1.686   2.301  1.1208  1.4985  0.8445
 7948SOL     OW35302   3.745   4.242  16.083  0.2495 -0.1429 -0.4863
 7948SOL    HW135303   3.828   4.240  16.037  0.1282 -2.6777 -0.5802
 7948SOL    HW235304   3.697   4.186  16.022 -1.2474  1.4683 -0.7981
 7949SOL     OW35305   4.622   3.838   5.632  0.5562 -0.6699  0.1718
 7949SOL    HW135306   4.631   3.803   5.544 -3.5489 -1.0871 -0.0793
 7949SOL    HW235307   4.663   3.924   5.625 -0.0146 -0.4452 -0.4171
 7950SOL     OW35308   0.153   0.567  13.854 -0.2949  0.4994 -0.0926
 7950SOL    HW135309   0.190   0.633  13.914 -1.0643 -0.1922  1.1520
 7950SOL    HW235310   0.210   0.496  13.883 -0.2350 -0.1047 -1.7237
 7951SOL     OW35311   1.725   2.287   9.246  0.5517  0.7059  0.1201
 7951SOL    HW135312   1.731   2.381   9.264  0.4816  0.7165  0.0882
 7951SOL    HW235313   1.648   2.289   9.189  0.5514  0.1770  0.1074
 7952SOL     OW35314   3.885   2.325   5.577 -0.1984 -0.0231 -0.0020
 7952SOL    HW135315   3.835   2.389   5.626 -0.7365 -0.5283  0.1010
 7952SOL    HW235316   3.888   2.251   5.637 -0.9536  0.0456  0.1144
 7953SOL     OW35317   0.561   1.468   7.706  0.6096  0.1022  0.1813
 7953SOL    HW135318   0.499   1.495   7.773 -1.2593 -0.5903 -1.2910
 7953SOL    HW235319   0.624   1.536   7.682  0.9524 -0.4819 -0.6225
 7954SOL     OW35320   1.151   1.113   1.306 -0.3038 -0.0539 -0.2862
 7954SOL    HW135321   1.208   1.111   1.382 -1.9769 -2.0764  0.9102
 7954SOL    HW235322   1.166   1.203   1.279  0.7189 -0.0910  0.1873
 7955SOL     OW35323   3.445   2.771  13.066 -0.0437  0.3329  0.1054
 7955SOL    HW135324   3.376   2.775  12.999 -1.3164 -1.0603  1.3483
 7955SOL    HW235325   3.483   2.858  13.079  0.5561 -0.1365  1.4636
 7956SOL     OW35326   0.612   4.639   5.929  0.2538  0.3627 -0.2684
 7956SOL    HW135327   0.688   4.691   5.953  0.7562 -0.4692 -0.0392
 7956SOL    HW235328   0.537   4.694   5.952  0.6272  0.2689  1.1248
 7957SOL     OW35329   4.495   3.744   3.761 -0.4134 -0.0744  0.1003
 7957SOL    HW135330   4.494   3.665   3.707 -1.2166 -0.1153  0.1732
 7957SOL    HW235331   4.572   3.790   3.730  0.1945 -0.6373  0.7639
 7958SOL     OW35332   2.064   3.096   6.296 -0.2246 -0.2527 -0.0405
 7958SOL    HW135333   2.083   3.183   6.262  1.4701 -0.7924 -0.4962
 7958SOL    HW235334   2.052   3.042   6.218 -1.5014 -0.4636  0.3132
 7959SOL     OW35335   1.667   0.879  15.212 -0.1274 -0.7122  0.3847
 7959SOL    HW135336   1.706   0.799  15.177  2.2666 -0.4447  2.4649
 7959SOL    HW235337   1.597   0.904  15.151 -0.9988 -0.7020  1.3841
 7960SOL     OW35338   4.512   1.043   5.130 -0.4554 -0.1106  0.4111
 7960SOL    HW135339   4.468   1.117   5.173 -2.2006 -0.2717 -1.1184
 7960SOL    HW235340   4.480   0.968   5.180  0.9690 -0.1902  1.1978
 7961SOL     OW35341   3.757   1.261   8.284 -0.8614  0.4897  0.5232
 7961SOL    HW135342   3.729   1.350   8.265  2.4716  1.6030  0.7768
 7961SOL    HW235343   3.779   1.271   8.377 -2.2177  2.8014  0.5940
 7962SOL     OW35344   3.303   3.223   5.239  0.0875 -0.7110  0.0788
 7962SOL    HW135345   3.346   3.142   5.212 -0.1836 -0.5208 -0.9190
 7962SOL    HW235346   3.235   3.241   5.175  1.3478 -1.3151 -1.4410
 7963SOL     OW35347   3.120   1.361   8.139  0.1716  0.3388  0.0829
 7963SOL    HW135348   3.197   1.366   8.083 -0.2074 -0.9055 -0.5559
 7963SOL    HW235349   3.129   1.430   8.205  1.5612 -0.2765  0.5221
 7964SOL     OW35350   1.111   3.850   4.647  0.0105 -0.6988  0.8417
 7964SOL    HW135351   1.187   3.907   4.662 -0.3677  0.4695 -1.7312
 7964SOL    HW235352   1.138   3.800   4.570  1.1127 -0.6865  1.2288
 7965SOL     OW35353   1.794   0.384   5.065 -0.5171 -0.6072  0.9670
 7965SOL    HW135354   1.807   0.463   5.117 -2.1291 -0.0830  0.5552
 7965SOL    HW235355   1.808   0.410   4.974 -2.8685  2.2143  1.3995
 7966SOL     OW35356   2.713   4.658   7.037  0.7366 -0.0561 -0.4006
 7966SOL    HW135357   2.622   4.682   7.054  0.4154 -2.4229  1.2689
 7966SOL    HW235358   2.707   4.570   7.074  1.7951 -0.3630 -0.9633
 7967SOL     OW35359   3.150   3.889   7.498 -0.0503 -0.6858  0.0253
 7967SOL    HW135360   3.220   3.953   7.493  0.2462 -0.8366  2.4579
 7967SOL    HW235361   3.183   3.840   7.423  1.5474  0.8627 -0.2723
 7968SOL     OW35362   2.102   2.157  12.230  0.1651 -0.0842 -0.3641
 7968SOL    HW135363   2.183   2.207  12.245 -0.1325  0.0640  0.7642
 7968SOL    HW235364   2.127   2.083  12.286 -1.3504 -0.9529 -0.8575
 7969SOL     OW35365   2.866   1.258  14.574 -0.4952 -0.0149 -0.0986
 7969SOL    HW135366   2.946   1.243  14.524  0.8851 -0.4668  2.2356
 7969SOL    HW235367   2.822   1.296  14.498  0.0762  0.6270 -0.1033
 7970SOL     OW35368   4.138   4.575   5.288  0.1816 -0.5696 -0.1407
 7970SOL    HW135369   4.172   4.605   5.203 -0.5281  2.4191  0.6384
 7970SOL    HW235370   4.177   4.487   5.290  1.4023  0.0052  1.6009
 7971SOL     OW35371   2.341   1.603   6.386  0.0862  0.0311 -0.3303
 7971SOL    HW135372   2.391   1.684   6.377 -1.2645  0.8234 -0.6206
 7971SOL    HW235373   2.382   1.549   6.318 -2.0865 -0.6309 -1.1166
 7972SOL     OW35374   0.789   1.253  10.695 -0.1535  0.1308 -0.4728
 7972SOL    HW135375   0.758   1.338  10.665 -2.3570 -0.2183  0.8250
 7972SOL    HW235376   0.828   1.210  10.619  0.1432  0.0552 -0.2781
 7973SOL     OW35377   3.981   2.061   2.323  0.0265  0.0427  0.1628
 7973SOL    HW135378   4.069   2.024   2.333 -0.3138 -1.1775 -1.2921
 7973SOL    HW235379   3.974   2.117   2.400 -0.6577 -1.2111  1.0127
 7974SOL     OW35380   1.272   2.667   3.934  0.2149  0.2818  0.2956
 7974SOL    HW135381   1.187   2.626   3.953  0.1524 -0.7499 -2.1077
 7974SOL    HW235382   1.326   2.598   3.895 -0.5486 -0.6087  0.7998
 7975SOL     OW35383   3.567   1.193   0.217  0.0962 -0.6182 -0.4297
 7975SOL    HW135384   3.656   1.185   0.185 -0.0920 -2.3943 -0.5324
 7975SOL    HW235385   3.578   1.124   0.283 -0.8703 -0.1264  0.2533
 7976SOL     OW35386   4.146   4.359   2.123  0.3105  0.1012  0.6712
 7976SOL    HW135387   4.077   4.339   2.186  0.7151 -0.9278  0.7662
 7976SOL    HW235388   4.225   4.343   2.174  1.5773  3.2696 -0.2657
 7977SOL     OW35389   1.429   0.127   3.723 -0.2826  0.0831  0.1076
 7977SOL    HW135390   1.456   0.036   3.739 -2.4370 -0.6888 -0.6882
 7977SOL    HW235391   1.338   0.122   3.752  0.8441 -1.0024  3.4151
 7978SOL     OW35392   0.894   4.058   7.255 -0.8561  0.6836 -0.5577
 7978SOL    HW135393   0.899   4.122   7.327  0.7871  0.8206 -0.7788
 7978SOL    HW235394   0.988   4.044   7.243 -0.8947 -0.4040  0.4526
 7979SOL     OW35395   0.696   1.338   6.841  0.5198  0.4661 -0.5001
 7979SOL    HW135396   0.767   1.351   6.903 -0.6355 -1.8580  1.3125
 7979SOL    HW235397   0.695   1.242   6.844 -1.1907  0.4623 -1.2315
 7980SOL     OW35398   0.066   4.707   8.736  0.9551  0.2559  0.3065
 7980SOL    HW135399   0.053   0.039   8.661 -3.6509 -0.5917  0.4929
 7980SOL    HW235400   4.721   4.645   8.721  0.5180  0.5218  1.3010
 7981SOL     OW35401   4.549   2.275   6.625 -0.1733 -0.2509 -0.3241
 7981SOL    HW135402   4.555   2.182   6.646  0.8976 -0.8366 -3.2040
 7981SOL    HW235403   4.516   2.266   6.535  1.3581 -2.0876 -0.7059
 7982SOL     OW35404   1.905   0.489   6.268 -0.1566  0.6280 -0.5940
 7982SOL    HW135405   1.976   0.431   6.242  1.7221  2.5521  0.3219
 7982SOL    HW235406   1.952   0.554   6.320 -2.4831 -0.3312  2.7291
 7983SOL     OW35407   0.662   3.139  13.407 -0.6444  0.1511 -0.3319
 7983SOL    HW135408   0.713   3.096  13.476  1.2288 -1.4943 -2.7296
 7983SOL    HW235409   0.730   3.161  13.343 -0.9658  1.3393 -0.2697
 7984SOL     OW35410   1.671   3.438   8.310 -0.0929 -0.3779 -0.6679
 7984SOL    HW135411   1.712   3.494   8.245 -0.0275  0.6745  0.2790
 7984SOL    HW235412   1.581   3.455   8.285 -1.0845 -2.7970  1.1986
 7985SOL     OW35413   0.336   1.283  16.031 -0.5802  0.2905 -0.1772
 7985SOL    HW135414   0.250   1.322  16.015 -1.9571 -1.5547  2.7611
 7985SOL    HW235415   0.326   1.278  16.126 -0.5037 -2.3493 -0.2935
 7986SOL     OW35416   1.823   2.432   2.185  0.1947  0.4573 -0.1535
 7986SOL    HW135417   1.878   2.382   2.246  2.5419  1.7517 -1.1967
 7986SOL    HW235418   1.889   2.473   2.128 -0.5491  0.9112 -0.6861
 7987SOL     OW35419   3.196   0.236   2.186 -0.3095 -0.1829 -0.0082
 7987SOL    HW135420   3.237   0.185   2.256 -2.7705  0.7999  2.1063
 7987SOL    HW235421   3.106   0.248   2.216  0.6588  1.9459  2.0013
 7988SOL     OW35422   1.962   0.083   2.934 -0.3897  0.1500 -0.3235
 7988SOL    HW135423   1.956   0.031   2.854 -1.7359  0.3543 -0.3476
 7988SOL    HW235424   2.056   0.084   2.954 -0.3749 -2.0267 -0.2911
 7989SOL     OW35425   0.487   4.487   3.327  0.1044  0.1801  0.1032
 7989SOL    HW135426   0.579   4.479   3.351 -0.8515 -1.6000  3.0716
 7989SOL    HW235427   0.466   4.580   3.337  2.4798  1.0566 -2.9614
 7990SOL     OW35428   2.925   1.617  15.045  0.0650 -0.3417  0.2295
 7990SOL    HW135429   3.003   1.659  15.009 -0.1467 -0.8204 -0.7919
 7990SOL    HW235430   2.950   1.530  15.013 -0.2208 -0.4992  0.4335
 7991SOL     OW35431   0.703   0.185   7.094 -0.1950  0.3742  0.0750
 7991SOL    HW135432   0.636   0.153   7.155  0.1878  0.8220  0.7308
 7991SOL    HW235433   0.764   0.112   7.094 -2.3939 -1.4592  0.5754
 7992SOL     OW35434   1.855   1.060  15.119  0.7721 -0.0837  0.7250
 7992SOL    HW135435   1.800   1.032  15.192  0.8469  1.1138  1.2478
 7992SOL    HW235436   1.792   1.105  15.063  0.8172  1.7171  2.1295
 7993SOL     OW35437   4.377   4.704  14.468 -0.1276 -0.1277  0.1221
 7993SOL    HW135438   4.397   0.061  14.511  2.2517  0.3089 -1.8171
 7993SOL    HW235439   4.373   4.638  14.538 -2.3297  0.5684  0.6447
 7994SOL     OW35440   3.528   4.517   2.355 -0.0541  0.2444 -0.2007
 7994SOL    HW135441   3.512   4.610   2.337  3.2337  0.9972  0.8081
 7994SOL    HW235442   3.456   4.493   2.413 -0.9799 -0.7720 -1.7697
 7995SOL     OW35443   1.420   2.327  17.026  0.0712 -0.0569 -0.0559
 7995SOL    HW135444   1.501   2.360  16.989  0.8305 -1.3936  0.4269
 7995SOL    HW235445   1.411   2.382  17.103 -0.0883 -1.0728  0.6526
 7996SOL     OW35446   0.534   2.883  15.510 -0.1814 -0.1392 -0.4998
 7996SOL    HW135447   0.477   2.809  15.532  0.4516 -0.3325  0.4793
 7996SOL    HW235448   0.488   2.967  15.515  1.7979  0.9881 -1.5524
 7997SOL     OW35449   0.501   3.573   9.243  0.1098  0.1016  0.1186
 7997SOL    HW135450   0.543   3.570   9.158 -0.3842  1.0453 -0.1619
 7997SOL    HW235451   0.416   3.614   9.223  0.5263  1.5376  1.2339
 7998SOL     OW35452   0.780   4.266   3.549 -0.1959 -0.2554 -0.1154
 7998SOL    HW135453   0.865   4.223   3.556 -0.4152 -0.9658 -1.7496
 7998SOL    HW235454   0.760   4.300   3.636  4.6364  1.0946  0.4478
 7999SOL     OW35455   2.901   1.967   5.683 -0.2574 -0.1839  0.0824
 7999SOL    HW135456   2.937   2.048   5.720 -0.2028 -0.2833  0.2469
 7999SOL    HW235457   2.971   1.945   5.622  1.1491 -0.4300  1.7832
 8000SOL     OW35458   0.884   0.543  12.213 -0.1622  0.2695 -0.0302
 8000SOL    HW135459   0.812   0.571  12.271  0.5649  0.9081  0.5602
 8000SOL    HW235460   0.910   0.624  12.168  0.8643 -0.0888 -0.0666
 8001SOL     OW35461   3.031   2.282   0.854  0.5007  0.1933 -0.9940
 8001SOL    HW135462   2.943   2.244   0.860 -0.2998  1.9949 -1.4391
 8001SOL    HW235463   3.079   2.211   0.812  0.5658 -0.4829  0.2292
 8002SOL     OW35464   2.701   3.344   3.705 -0.0707  0.1247 -0.4143
 8002SOL    HW135465   2.661   3.414   3.757  0.1709  1.4430 -1.9903
 8002SOL    HW235466   2.632   3.316   3.646  1.5984 -0.4707 -2.0878
 8003SOL     OW35467   1.051   0.527  11.590  0.3148  0.0532 -0.1665
 8003SOL    HW135468   1.086   0.541  11.678 -2.4019  0.2912  0.9042
 8003SOL    HW235469   0.957   0.517  11.606  0.0919  0.9724 -0.9266
 8004SOL     OW35470   4.295   3.836   9.311 -0.6096 -0.0385 -0.7302
 8004SOL    HW135471   4.260   3.921   9.339 -1.3766  0.0809 -2.0720
 8004SOL    HW235472   4.275   3.786   9.390 -1.3561  1.4009 -0.0056
 8005SOL     OW35473   3.222   2.809   6.844  0.3571 -0.5737  0.2945
 8005SOL    HW135474   3.297   2.833   6.897 -0.4220  0.0678  1.1019
 8005SOL    HW235475   3.159   2.788   6.913  1.0220  0.6354  1.2763
 8006SOL     OW35476   1.371   2.931   2.344 -0.3806 -0.0134  0.0470
 8006SOL    HW135477   1.432   2.858   2.331 -1.1708 -0.9435  1.4606
 8006SOL    HW235478   1.417   3.008   2.313  2.4169 -1.5408  0.4373
 8007SOL     OW35479   3.589   1.019   2.880 -0.2597 -0.3061 -0.4170
 8007SOL    HW135480   3.672   1.062   2.902 -0.7044  0.1945  0.2666
 8007SOL    HW235481   3.541   1.095   2.847  0.8127  1.9860  3.3435
 8008SOL     OW35482   0.483   4.431   5.397 -0.2993  0.4810 -0.0791
 8008SOL    HW135483   0.466   4.520   5.366  1.5489  0.6210 -0.6645
 8008SOL    HW235484   0.569   4.443   5.436 -1.9707  0.7513  3.5269
 8009SOL     OW35485   0.644   4.275  16.931 -0.1889  0.1893  0.5439
 8009SOL    HW135486   0.569   4.232  16.890  0.1880  1.3280 -1.3703
 8009SOL    HW235487   0.677   4.305  16.846 -3.0067 -1.7045 -1.2306
 8010SOL     OW35488   1.932   2.606   3.946  0.1293  0.2042 -0.2329
 8010SOL    HW135489   1.947   2.593   3.852  1.2069  0.6706 -0.1151
 8010SOL    HW235490   1.920   2.515   3.972  0.7692 -1.2376 -4.9308
 8011SOL     OW35491   1.669   0.860   8.027 -0.2906  0.5381  0.3101
 8011SOL    HW135492   1.698   0.950   8.011  0.8122  0.5128  2.2251
 8011SOL    HW235493   1.575   0.873   8.039 -0.4671 -1.8804  1.5312
 8012SOL     OW35494   3.252   2.162   9.033  0.2634 -0.3399  1.1000
 8012SOL    HW135495   3.282   2.229   8.972  0.8648 -0.6067  1.1046
 8012SOL    HW235496   3.330   2.161   9.089  1.6314 -0.4702 -0.8085
 8013SOL     OW35497   3.206   1.377  11.867  0.1080  0.0514 -0.3071
 8013SOL    HW135498   3.178   1.439  11.799 -1.6160  0.0703  0.4321
 8013SOL    HW235499   3.221   1.306  11.805  0.5775  2.0626 -2.5132
 8014SOL     OW35500   4.253   0.147  14.884  0.5275 -0.6411  0.2366
 8014SOL    HW135501   4.198   0.073  14.908  0.1306  0.1566  1.7842
 8014SOL    HW235502   4.186   0.201  14.843 -0.7496 -2.2129  0.2989
 8015SOL     OW35503   2.526   1.573   7.613  0.5230 -0.2583  0.2234
 8015SOL    HW135504   2.530   1.573   7.709  1.6641  1.6255  0.1859
 8015SOL    HW235505   2.461   1.503   7.607  0.3734 -0.1900  1.0562
 8016SOL     OW35506   3.988   3.743   2.386 -0.0834 -0.2391  0.4140
 8016SOL    HW135507   3.908   3.789   2.409  0.6238  1.5220 -0.6957
 8016SOL    HW235508   4.008   3.800   2.313  0.0689  1.8554  2.0799
 8017SOL     OW35509   3.606   2.730   8.631 -0.2166 -0.4262  0.4896
 8017SOL    HW135510   3.636   2.640   8.620  1.2212  0.1825 -0.5483
 8017SOL    HW235511   3.689   2.774   8.646 -0.0087  0.2462 -2.6705
 8018SOL     OW35512   1.654   3.284  13.972 -0.4306 -0.1810 -0.6809
 8018SOL    HW135513   1.565   3.281  14.005 -0.1433 -0.9383  0.0108
 8018SOL    HW235514   1.715   3.301  14.045 -0.8724  1.2455 -0.6345
 8019SOL     OW35515   2.375   1.891   8.181  0.3037 -0.8337  0.3275
 8019SOL    HW135516   2.400   1.973   8.139  1.6479 -0.1090  2.5748
 8019SOL    HW235517   2.287   1.926   8.198  0.2285  0.5387 -2.8735
 8020SOL     OW35518   1.432   2.586  17.607  0.4629  0.1944  0.3982
 8020SOL    HW135519   1.412   2.678  17.590 -1.6479 -0.7561 -2.3478
 8020SOL    HW235520   1.356   2.554  17.655  0.0861  1.2196  0.4880
 8021SOL     OW35521   0.715   3.910   3.304  0.0726 -0.1311 -0.0773
 8021SOL    HW135522   0.806   3.927   3.331 -0.1205 -2.3136  1.9367
 8021SOL    HW235523   0.712   3.945   3.215  1.9889 -0.1671 -0.1643
 8022SOL     OW35524   3.129   1.460   8.467  0.2009 -0.1965 -0.3111
 8022SOL    HW135525   3.105   1.375   8.503 -0.3673 -0.2388 -0.7987
 8022SOL    HW235526   3.186   1.493   8.537 -0.7567  0.6988  0.0429
 8023SOL     OW35527   0.351   3.945   3.089  0.8146 -0.1732  0.3983
 8023SOL    HW135528   0.446   3.939   3.100  0.8573  0.2807  0.2761
 8023SOL    HW235529   0.346   3.904   3.003 -0.5826 -1.0531  0.9029
 8024SOL     OW35530   3.420   4.351   8.235  0.4935 -0.0256  0.0084
 8024SOL    HW135531   3.396   4.355   8.327  1.0229  0.5753  0.1150
 8024SOL    HW235532   3.514   4.349   8.249  0.7309  1.8674 -1.2847
 8025SOL     OW35533   3.906   2.003   4.213 -0.6651  0.5423  0.5477
 8025SOL    HW135534   3.986   2.050   4.190 -0.1965 -1.0110 -1.0386
 8025SOL    HW235535   3.918   1.922   4.162  1.5460  0.7236  0.7461
 8026SOL     OW35536   2.966   4.352   8.948 -0.5393  0.1668 -0.1343
 8026SOL    HW135537   2.919   4.286   8.896  1.9311 -1.4974 -0.2251
 8026SOL    HW235538   3.054   4.316   8.946 -0.7666 -0.4400  0.6420
 8027SOL     OW35539   1.956   0.988   0.891  0.3799 -0.3613  0.5053
 8027SOL    HW135540   2.027   1.047   0.865 -0.6630  1.2935  1.4075
 8027SOL    HW235541   1.883   1.007   0.832 -0.5813  0.0190  1.8122
 8028SOL     OW35542   3.371   0.101  10.023  0.0630 -0.3489  0.1614
 8028SOL    HW135543   3.399   0.063  10.107  0.2327 -2.4622 -0.8614
 8028SOL    HW235544   3.280   0.124  10.043 -0.1046 -0.5301 -0.4148
 8029SOL     OW35545   2.837   1.222   0.254  0.3728 -0.0337 -0.1719
 8029SOL    HW135546   2.748   1.240   0.284  1.4571 -0.0177  3.1132
 8029SOL    HW235547   2.869   1.306   0.288 -0.2652 -0.9358  2.6983
 8030SOL     OW35548   0.310   0.427   5.204 -0.2510 -0.0226  0.0629
 8030SOL    HW135549   0.351   0.482   5.271  0.9806 -0.7261 -0.1186
 8030SOL    HW235550   0.219   0.417   5.233 -0.9427 -1.9105 -2.6795
 8031SOL     OW35551   2.328   4.218  14.643 -0.1933  0.2251 -0.2140
 8031SOL    HW135552   2.270   4.182  14.575 -0.4412  0.9950 -0.4191
 8031SOL    HW235553   2.381   4.280  14.593  1.2186  0.7268  1.9268
 8032SOL     OW35554   4.219   0.809  16.143 -0.1971 -0.4058  0.1788
 8032SOL    HW135555   4.162   0.834  16.216  0.1029 -0.0959  0.3027
 8032SOL    HW235556   4.288   0.759  16.187 -0.7252 -2.0780 -0.8816
 8033SOL     OW35557   1.349   3.873   6.797  0.1112 -0.3187 -0.0435
 8033SOL    HW135558   1.283   3.904   6.735 -2.4314 -1.7494  1.9633
 8033SOL    HW235559   1.297   3.864   6.877 -0.3030  0.0141 -0.2778
 8034SOL     OW35560   0.579   4.218   7.804 -0.3226  0.0689 -0.2493
 8034SOL    HW135561   0.538   4.304   7.789 -0.9145 -0.2828 -0.6438
 8034SOL    HW235562   0.579   4.218   7.899  1.5238 -0.2100 -0.2455
 8035SOL     OW35563   2.971   1.440  14.034  0.0104 -1.0074 -0.0228
 8035SOL    HW135564   3.065   1.440  14.049  0.0717 -2.7226 -0.4679
 8035SOL    HW235565   2.962   1.345  14.024  0.6696 -1.7089  5.8912
 8036SOL     OW35566   0.927   1.379   6.974  0.1177  0.3973 -0.0182
 8036SOL    HW135567   0.954   1.333   7.053  0.1144  0.2627 -0.0950
 8036SOL    HW235568   1.002   1.434   6.953 -1.7624  3.9916  2.8199
 8037SOL     OW35569   0.027   2.849   0.412 -0.1276  0.1804  0.0537
 8037SOL    HW135570   4.693   2.837   0.485 -0.4077  1.9557  0.1201
 8037SOL    HW235571   4.695   2.826   0.339 -0.9465 -0.5437  0.9265
 8038SOL     OW35572   2.672   2.448  13.590  0.5834  0.2702 -0.6768
 8038SOL    HW135573   2.624   2.385  13.643 -0.0184  2.4842  1.4169
 8038SOL    HW235574   2.753   2.448  13.641  0.5688  0.5014 -0.6528
 8039SOL     OW35575   0.779   2.969   7.921  0.3364  0.0079 -0.1739
 8039SOL    HW135576   0.754   2.876   7.916 -0.2987  0.1358  0.5684
 8039SOL    HW235577   0.702   3.015   7.954  1.6961  0.7040  2.0557
 8040SOL     OW35578   1.788   1.099   9.542 -0.2934 -0.2690  0.0397
 8040SOL    HW135579   1.807   1.142   9.625  4.1371 -1.9015 -0.1608
 8040SOL    HW235580   1.741   1.016   9.555  0.1368 -0.2852  1.4697
 8041SOL     OW35581   4.415   4.464   2.802  0.5890 -0.2045  0.3706
 8041SOL    HW135582   4.417   4.559   2.792 -0.4035 -0.2481 -0.1741
 8041SOL    HW235583   4.487   4.446   2.742  0.6272  0.2931  0.2640
 8042SOL     OW35584   3.618   4.718   4.005  0.1865 -0.4164  0.1545
 8042SOL    HW135585   3.674   4.646   3.975 -0.7320 -1.7917  1.7333
 8042SOL    HW235586   3.613   0.050   3.928 -0.3550  1.8064  1.8525
 8043SOL     OW35587   2.821   2.894   6.992 -0.3707 -0.3688 -0.2429
 8043SOL    HW135588   2.820   2.830   7.063 -2.6655  0.6007  0.6059
 8043SOL    HW235589   2.739   2.939   7.012  0.6399  0.5789  1.8110
 8044SOL     OW35590   2.418   0.367   1.719  0.6558  0.1564 -0.6000
 8044SOL    HW135591   2.484   0.420   1.675  0.4679  1.0092  0.1392
 8044SOL    HW235592   2.439   0.278   1.690 -1.2895 -0.4839 -0.0656
 8045SOL     OW35593   3.247   2.955   3.976  0.2597  0.1199 -0.1537
 8045SOL    HW135594   3.220   2.950   3.884 -1.6719 -1.0564  0.4774
 8045SOL    HW235595   3.238   2.865   4.007 -1.3215 -0.1974 -1.4956
 8046SOL     OW35596   3.735   3.155   8.069  0.1405  0.8670  0.3236
 8046SOL    HW135597   3.792   3.153   8.145  0.2215 -0.6353  0.2299
 8046SOL    HW235598   3.695   3.069   8.082 -0.0135  1.0596  1.1031
 8047SOL     OW35599   0.953   2.931   0.049  0.4957 -0.4472 -0.0753
 8047SOL    HW135600   1.018   2.861   0.040  0.6535 -0.2668 -0.3369
 8047SOL    HW235601   0.980   2.989  17.683  1.8365  0.0750  0.8685
 8048SOL     OW35602   4.441   0.400   2.048 -0.2506 -0.1751  0.3522
 8048SOL    HW135603   4.454   0.363   1.960 -0.6321 -2.2960  1.1809
 8048SOL    HW235604   4.349   0.377   2.061  0.1871 -1.3909  1.3080
 8049SOL     OW35605   1.570   1.999   4.249  0.7611 -0.5806  0.6346
 8049SOL    HW135606   1.505   1.961   4.189  2.7382 -0.8382 -1.3682
 8049SOL    HW235607   1.639   1.933   4.240  0.3916 -0.7072 -1.2893
 8050SOL     OW35608   2.739   1.108   0.855  0.1535 -0.3677 -0.0031
 8050SOL    HW135609   2.709   1.032   0.906  2.1419  0.9324  3.0310
 8050SOL    HW235610   2.816   1.138   0.902  0.5793 -1.4813  0.0112
 8051SOL     OW35611   1.496   4.659  16.087  0.1418  0.1644 -0.0473
 8051SOL    HW135612   1.409   4.651  16.127 -0.5386  1.0692 -1.3681
 8051SOL    HW235613   1.487   4.686  15.996  0.2205 -1.1028 -0.4340
 8052SOL     OW35614   0.273   3.528  17.318 -0.0705 -0.4899 -0.8033
 8052SOL    HW135615   0.283   3.458  17.253 -0.9008 -0.6590 -0.7562
 8052SOL    HW235616   0.292   3.478  17.397 -0.8119 -0.9444 -0.9118
 8053SOL     OW35617   1.399   4.706  13.383  0.6564 -0.6449  0.6612
 8053SOL    HW135618   1.381   0.016  13.296  2.4037 -0.6803  0.2913
 8053SOL    HW235619   1.390   4.612  13.364  2.7392 -0.6634 -0.3189
 8054SOL     OW35620   0.203   4.690   2.067 -0.2845 -0.8488  0.4901
 8054SOL    HW135621   0.293   4.662   2.082  0.2561  0.1032 -0.9811
 8054SOL    HW235622   0.183   4.658   1.979  0.0729  1.3536 -0.4054
 8055SOL     OW35623   4.194   4.289   3.636  0.0502 -0.1598  0.5781
 8055SOL    HW135624   4.205   4.196   3.613  1.0596  0.5515 -1.7992
 8055SOL    HW235625   4.224   4.299   3.726  1.3152 -0.3820  0.1713
 8056SOL     OW35626   4.524   0.865   2.342  0.2621 -0.1318  0.2649
 8056SOL    HW135627   4.444   0.918   2.338  1.0239  0.9731 -0.4354
 8056SOL    HW235628   4.590   0.898   2.281  1.7357 -3.1970  0.1850
 8057SOL     OW35629   4.460   0.970   1.494  0.2227  0.1376  0.1345
 8057SOL    HW135630   4.485   1.059   1.469 -2.3144  0.6627 -0.5429
 8057SOL    HW235631   4.386   0.990   1.552  1.1665  0.6172  1.1536
 8058SOL     OW35632   1.831   3.692   2.162 -0.4913  0.4895 -0.1863
 8058SOL    HW135633   1.891   3.766   2.162 -2.1012  1.7864  1.7693
 8058SOL    HW235634   1.852   3.645   2.081 -0.3399 -0.9483  0.6844
 8059SOL     OW35635   3.077   1.856   0.934  0.2253 -0.3909 -0.2606
 8059SOL    HW135636   3.093   1.896   0.849  1.8584 -0.4942  0.0136
 8059SOL    HW235637   3.078   1.764   0.908 -1.2123 -0.8397  1.1932
 8060SOL     OW35638   4.237   3.924   5.186  1.0803 -0.3846 -0.2195
 8060SOL    HW135639   4.187   3.938   5.106  1.2620 -1.6226 -0.5506
 8060SOL    HW235640   4.252   3.829   5.185  0.2581 -0.5063 -0.9299
 8061SOL     OW35641   0.887   0.717   8.570 -0.3806 -0.3045  0.1231
 8061SOL    HW135642   0.944   0.663   8.625  1.2517  1.0867 -0.2094
 8061SOL    HW235643   0.941   0.793   8.550  0.8551 -1.7896 -2.2148
 8062SOL     OW35644   4.330   0.776   8.078 -0.6829  0.1464 -0.8396
 8062SOL    HW135645   4.386   0.853   8.089 -0.9756  0.2632 -0.1698
 8062SOL    HW235646   4.252   0.800   8.028 -1.3563 -2.0166 -0.8642
 8063SOL     OW35647   0.477   2.950  13.445 -0.0221  0.3622 -0.3026
 8063SOL    HW135648   0.520   3.032  13.421  0.2978 -0.2185 -1.7029
 8063SOL    HW235649   0.546   2.887  13.427  0.6906  1.0994 -0.1373
 8064SOL     OW35650   1.984   0.912   9.422 -0.2822 -0.1562 -0.3059
 8064SOL    HW135651   1.942   0.991   9.457 -0.6954  0.2571 -1.7517
 8064SOL    HW235652   2.062   0.910   9.478 -0.2410 -1.7069 -0.4112
 8065SOL     OW35653   1.000   1.189   8.177 -0.3123 -0.1194  0.0228
 8065SOL    HW135654   0.923   1.135   8.193 -0.2165 -0.5971 -1.2191
 8065SOL    HW235655   1.038   1.179   8.265  0.6442  0.9072 -0.2684
 8066SOL     OW35656   1.671   2.971   6.910  0.5008  0.7113 -0.5485
 8066SOL    HW135657   1.605   3.005   6.849 -1.5225 -0.8129  0.8204
 8066SOL    HW235658   1.670   3.044   6.972  1.8531 -0.5669  0.9790
 8067SOL     OW35659   2.097   2.081   6.197  0.4325 -0.5657 -0.0585
 8067SOL    HW135660   2.111   1.992   6.166  2.1108  0.1169 -1.2333
 8067SOL    HW235661   2.084   2.069   6.291 -0.1612  1.2009  0.0814
 8068SOL     OW35662   0.820   1.537  11.741  0.3681  0.2245  1.0860
 8068SOL    HW135663   0.862   1.494  11.815 -4.0590 -2.1677  2.2476
 8068SOL    HW235664   0.747   1.475  11.728  0.6128  0.3620 -0.9780
 8069SOL     OW35665   0.275   4.280   8.185 -0.0916 -0.0221  0.5748
 8069SOL    HW135666   0.321   4.204   8.221 -0.5260  0.3015  1.8298
 8069SOL    HW235667   0.195   4.277   8.237  0.4556  0.1929  1.4452
 8070SOL     OW35668   2.029   0.093   4.794  0.3296  0.0934 -0.2661
 8070SOL    HW135669   2.080   0.173   4.806 -0.6072  0.6907 -0.2295
 8070SOL    HW235670   1.947   0.136   4.769  1.3008  0.9987 -1.9447
 8071SOL     OW35671   1.011   2.762   8.366 -0.2236  0.0276 -0.3570
 8071SOL    HW135672   1.040   2.677   8.333 -2.7429 -1.2148  0.6295
 8071SOL    HW235673   0.947   2.794   8.302  1.0767 -0.1699 -1.7504
 8072SOL     OW35674   3.456   1.670   5.673 -0.1539  0.0053  0.1910
 8072SOL    HW135675   3.451   1.575   5.665 -1.4256  0.1941 -1.1602
 8072SOL    HW235676   3.449   1.708   5.585  0.3865  0.3890  0.3081
 8073SOL     OW35677   2.502   1.061   5.076 -0.8411  0.1842 -0.9414
 8073SOL    HW135678   2.433   1.127   5.074 -1.1946 -0.1756 -0.5682
 8073SOL    HW235679   2.575   1.118   5.098  1.2573 -1.7001 -3.0684
 8074SOL     OW35680   4.278   0.815   3.107 -0.6021  0.2704  0.2521
 8074SOL    HW135681   4.224   0.883   3.147 -1.1906  0.4908 -0.9422
 8074SOL    HW235682   4.301   0.844   3.019 -1.3785  2.2301  0.6907
 8075SOL     OW35683   0.781   3.164   5.526 -0.5692  0.0303 -0.1485
 8075SOL    HW135684   0.692   3.135   5.503 -0.2976  1.4797 -2.9794
 8075SOL    HW235685   0.772   3.236   5.588 -1.0004  0.5716 -0.8467
 8076SOL     OW35686   2.098   2.564   4.974 -0.2084  0.2746  0.4363
 8076SOL    HW135687   2.096   2.502   4.901  0.0077  3.1533 -2.0111
 8076SOL    HW235688   2.036   2.530   5.039 -0.3600 -0.6240 -0.1833
 8077SOL     OW35689   3.621   0.912   2.530 -0.0955 -0.5884 -0.1344
 8077SOL    HW135690   3.609   0.840   2.591 -0.3073 -0.7184 -0.3287
 8077SOL    HW235691   3.687   0.875   2.472 -1.1424 -0.3407 -1.4946
 8078SOL     OW35692   2.744   0.733   2.672 -0.1162 -0.0728 -0.1121
 8078SOL    HW135693   2.660   0.741   2.718  0.4843 -0.7588  1.1114
 8078SOL    HW235694   2.719   0.664   2.610 -0.6885 -0.1810  0.2397
 8079SOL     OW35695   4.519   4.094   0.886  0.2880 -0.0176 -0.3907
 8079SOL    HW135696   4.499   4.090   0.793 -0.2302  0.5750 -0.3055
 8079SOL    HW235697   4.614   4.098   0.887  0.2840  0.2465 -1.2986
 8080SOL     OW35698   0.091   1.927   5.658  0.5422 -0.1653 -0.0020
 8080SOL    HW135699   0.106   1.838   5.689 -1.7185 -0.9100 -1.0797
 8080SOL    HW235700   0.159   1.929   5.591  0.4064 -2.5108 -0.1776
 8081SOL     OW35701   3.150   1.056   5.734 -0.2816 -0.5746 -0.6652
 8081SOL    HW135702   3.136   1.120   5.664  0.9262  1.1030  0.6441
 8081SOL    HW235703   3.115   1.110   5.805  0.0959 -1.4402  0.1634
 8082SOL     OW35704   1.221   0.411   8.632  0.0897  0.1140  0.1987
 8082SOL    HW135705   1.252   0.396   8.543 -3.9148  1.0897 -1.3164
 8082SOL    HW235706   1.233   0.321   8.664  0.2498  0.1848  0.3404
 8083SOL     OW35707   4.170   3.023  13.191 -0.0962 -0.1497  0.0699
 8083SOL    HW135708   4.200   2.938  13.157 -0.7312 -0.4694  0.3082
 8083SOL    HW235709   4.225   3.042  13.267 -0.3732 -1.7118  0.6533
 8084SOL     OW35710   2.070   3.940   2.162 -0.2126 -0.4757  0.1935
 8084SOL    HW135711   1.993   3.967   2.213 -1.8142 -1.6488 -1.5955
 8084SOL    HW235712   2.138   3.941   2.229 -0.5072 -1.0079  0.5034
 8085SOL     OW35713   0.262   2.903  12.894  0.1867  0.1062  0.0285
 8085SOL    HW135714   0.208   2.936  12.822 -1.3199  0.9080  1.5326
 8085SOL    HW235715   0.346   2.900  12.848  1.6812 -0.9806  2.8387
 8086SOL     OW35716   3.270   1.444   0.629  0.1506 -0.2411  0.3338
 8086SOL    HW135717   3.209   1.517   0.625 -0.7533 -1.0045  0.1969
 8086SOL    HW235718   3.227   1.368   0.670  0.4099 -0.0391  0.9865
 8087SOL     OW35719   4.690   4.251   0.559 -0.1342  0.0658  0.0718
 8087SOL    HW135720   4.605   4.216   0.586  0.5616 -1.2536  0.5607
 8087SOL    HW235721   0.011   4.251   0.642  1.5444  2.2985 -0.8799
 8088SOL     OW35722   2.076   4.567  11.001  0.1758  0.2900 -0.3078
 8088SOL    HW135723   2.085   4.663  10.999 -0.0277  0.3258  0.5268
 8088SOL    HW235724   2.119   4.540  10.920  0.2873  2.9054 -1.1191
 8089SOL     OW35725   4.273   4.655   4.961 -0.5434 -0.2617 -0.6375
 8089SOL    HW135726   4.323   4.648   4.880 -2.5116 -0.7216 -1.8120
 8089SOL    HW235727   4.325   4.608   5.026  1.5973 -0.5578 -2.5630
 8090SOL     OW35728   0.295   0.532   5.766  0.1554  0.5393 -0.0535
 8090SOL    HW135729   0.313   0.624   5.783  1.9874  0.8010 -3.3816
 8090SOL    HW235730   0.374   0.501   5.721  1.0661 -0.6872  2.3564
 8091SOL     OW35731   3.660   3.784   9.950 -0.1477 -0.3207 -0.3964
 8091SOL    HW135732   3.717   3.741  10.014 -0.5641 -0.3115 -0.0128
 8091SOL    HW235733   3.709   3.769   9.870 -2.8582 -1.7905 -1.7985
 8092SOL     OW35734   0.679   2.716   8.488  0.0815  0.2202 -0.0211
 8092SOL    HW135735   0.771   2.690   8.486 -1.0512 -3.7724 -1.3437
 8092SOL    HW235736   0.688   2.801   8.530 -0.7153 -0.9089  2.4361
 8093SOL     OW35737   3.037   4.151   5.670  0.5346  0.7546 -0.1619
 8093SOL    HW135738   3.040   4.233   5.620 -0.3524  1.3322  0.7253
 8093SOL    HW235739   2.974   4.169   5.740  0.0876  0.2470 -0.4405
 8094SOL     OW35740   0.544   1.282   3.043  0.2636 -0.6744  0.3315
 8094SOL    HW135741   0.458   1.314   3.072  0.6081  1.4146 -0.9519
 8094SOL    HW235742   0.525   1.200   2.998  0.5019 -0.3644 -0.3418
 8095SOL     OW35743   2.409   0.270  15.347 -0.4109  0.0346 -0.4479
 8095SOL    HW135744   2.410   0.352  15.396 -0.7181 -0.4935  0.4606
 8095SOL    HW235745   2.502   0.255  15.330  0.1153 -0.1102  2.5389
 8096SOL     OW35746   3.324   0.416  11.930  0.0052 -0.3159  0.0466
 8096SOL    HW135747   3.403   0.467  11.914 -0.2972  0.2905  0.4730
 8096SOL    HW235748   3.357   0.356  11.996 -1.2160 -0.4436  0.5330
 8097SOL     OW35749   1.162   1.841   5.986  0.2258  0.1724 -0.1717
 8097SOL    HW135750   1.234   1.901   5.969 -1.3677  1.3272 -2.8080
 8097SOL    HW235751   1.131   1.799   5.905  0.4385  0.2505 -0.2924
 8098SOL     OW35752   3.011   1.838   3.780  0.4843  0.0575 -0.4179
 8098SOL    HW135753   2.958   1.836   3.860 -0.3621 -0.1002 -0.9847
 8098SOL    HW235754   3.085   1.890   3.811  0.2516 -0.2653  0.6919
 8099SOL     OW35755   4.629   3.054  14.730  0.3823  0.4682  0.1421
 8099SOL    HW135756   4.575   3.127  14.701 -0.1271 -0.1695 -0.5027
 8099SOL    HW235757   4.571   3.015  14.796 -0.1565 -0.9809 -1.1711
 8100SOL     OW35758   4.652   3.051   2.156 -0.3828  0.1503  0.5728
 8100SOL    HW135759   4.603   2.969   2.148 -0.5686  0.4872 -1.6923
 8100SOL    HW235760   4.605   3.105   2.092  2.6074  2.0621  0.0212
 8101SOL     OW35761   3.825   0.903   5.864 -0.2365 -0.3263  0.1178
 8101SOL    HW135762   3.871   0.831   5.906 -1.7082 -1.2290  0.1880
 8101SOL    HW235763   3.734   0.873   5.865  0.4563 -2.4302 -1.2499
 8102SOL     OW35764   3.456   2.593   4.423 -0.7140 -0.1025 -0.0258
 8102SOL    HW135765   3.432   2.619   4.512 -2.2660 -0.1653 -0.4230
 8102SOL    HW235766   3.551   2.585   4.431 -0.7492 -0.4627  0.0139
 8103SOL     OW35767   2.431   4.346   4.200 -0.0072 -0.1915  0.6090
 8103SOL    HW135768   2.515   4.381   4.172 -0.1487 -0.4068 -0.0784
 8103SOL    HW235769   2.398   4.423   4.246 -0.6482  0.5569 -1.1043
 8104SOL     OW35770   2.392   3.953  11.921 -0.1349 -0.3321  0.3219
 8104SOL    HW135771   2.416   3.874  11.969 -0.1375 -0.6601 -0.2197
 8104SOL    HW235772   2.329   3.913  11.860  2.1470 -1.0291 -1.5580
 8105SOL     OW35773   2.871   4.429   7.436  0.0752  0.0760  0.0534
 8105SOL    HW135774   2.935   4.364   7.408 -0.1104 -1.3900  3.0267
 8105SOL    HW235775   2.808   4.367   7.471  3.1898 -3.7156 -1.0757
 8106SOL     OW35776   1.112   2.305   2.943 -0.4791  0.2552  0.1327
 8106SOL    HW135777   1.147   2.332   2.859 -1.2121  0.0818 -0.2300
 8106SOL    HW235778   1.137   2.381   2.995  0.8051 -0.0831  0.0215
 8107SOL     OW35779   3.051   2.326   4.319 -0.0788 -0.0656  0.1986
 8107SOL    HW135780   3.115   2.330   4.391 -0.4945 -4.7970  0.8016
 8107SOL    HW235781   2.975   2.313   4.375  0.3131 -1.5818  0.3808
 8108SOL     OW35782   2.140   0.017   3.195  0.3237  0.1296 -0.4311
 8108SOL    HW135783   2.186   4.662   3.218  2.6689  1.5473 -0.2121
 8108SOL    HW235784   2.172   0.039   3.107  0.5415  1.6800  0.0347
 8109SOL     OW35785   4.428   0.857   7.429  0.1677  0.3276 -0.4567
 8109SOL    HW135786   4.444   0.928   7.367 -0.0721  0.0783 -0.8023
 8109SOL    HW235787   4.339   0.876   7.458  0.8882  2.3809  0.4046
 8110SOL     OW35788   1.711   4.699   3.801 -0.2076 -0.2143 -0.0646
 8110SOL    HW135789   1.780   4.644   3.837 -2.9917 -2.5776  1.6702
 8110SOL    HW235790   1.634   4.642   3.796  2.0829 -3.4018  1.1478
 8111SOL     OW35791   0.575   3.571   2.738 -0.3515  0.0800  0.4058
 8111SOL    HW135792   0.512   3.640   2.719 -1.3318 -1.5176 -2.0887
 8111SOL    HW235793   0.528   3.489   2.724  2.0268 -1.8475  3.7771
 8112SOL     OW35794   3.761   3.861   8.858 -0.2249 -0.2256 -0.5527
 8112SOL    HW135795   3.819   3.845   8.933  0.6208 -0.5047 -1.2676
 8112SOL    HW235796   3.801   3.945   8.835  0.5061 -0.1220  1.0672
 8113SOL     OW35797   3.539   4.640  13.027  0.0930  0.2645 -0.2470
 8113SOL    HW135798   3.600   4.699  13.070 -0.3681  1.2963 -1.0076
 8113SOL    HW235799   3.477   4.711  13.010  1.4807  1.2566 -1.1922
 8114SOL     OW35800   1.736   1.750  11.004 -0.0768  0.7552 -0.4018
 8114SOL    HW135801   1.747   1.841  10.977  0.7910  0.9879  0.7590
 8114SOL    HW235802   1.751   1.711  10.917 -1.5836  0.9146 -0.7346
 8115SOL     OW35803   0.154   3.551   1.006  0.7660  0.0138  0.1860
 8115SOL    HW135804   0.194   3.564   1.092  0.5608  1.4446  0.0525
 8115SOL    HW235805   0.229   3.508   0.965 -0.2114 -0.2369 -1.3727
 8116SOL     OW35806   4.186   1.991  12.779 -0.1541 -0.7617 -0.2863
 8116SOL    HW135807   4.141   1.988  12.864  1.3196 -0.6180  0.4851
 8116SOL    HW235808   4.151   1.914  12.735 -0.4962 -2.0007  2.1709
 8117SOL     OW35809   3.197   1.658  15.940  0.2374  0.5467  0.3678
 8117SOL    HW135810   3.204   1.637  15.847 -0.6170 -3.2724  1.1906
 8117SOL    HW235811   3.123   1.601  15.963  1.2716  0.1220  2.6335
 8118SOL     OW35812   0.286   4.010   4.832 -0.5382  0.0235  0.3743
 8118SOL    HW135813   0.361   3.962   4.798  0.2300 -0.6529  3.0341
 8118SOL    HW235814   0.326   4.096   4.846 -3.3193  1.3491  0.0648
 8119SOL     OW35815   0.180   3.755  16.809 -0.2136 -0.3840 -0.3381
 8119SOL    HW135816   0.178   3.695  16.734 -0.8003  1.1366 -1.5443
 8119SOL    HW235817   0.110   3.714  16.859  0.0379 -1.4348 -0.8388
 8120SOL     OW35818   2.007   3.620   9.025  0.4250 -0.0640  0.0740
 8120SOL    HW135819   1.954   3.576   9.091  0.1973 -2.0779 -1.4482
 8120SOL    HW235820   2.084   3.563   9.024  1.2321  1.0395 -1.0050
 8121SOL     OW35821   3.118   0.006   4.084 -0.1845  0.1619  0.0019
 8121SOL    HW135822   3.171   4.685   4.148  0.0316 -0.5538 -0.7118
 8121SOL    HW235823   3.127   4.681   4.004 -0.5828  0.7843 -0.4419
 8122SOL     OW35824   2.064   1.462   4.621  0.3472 -0.2845 -0.0537
 8122SOL    HW135825   2.021   1.412   4.690 -0.0724 -1.5507 -1.2215
 8122SOL    HW235826   2.124   1.517   4.671  0.0704  0.4204 -0.5005
 8123SOL     OW35827   0.201   1.122  11.028  0.3961  0.3807  0.8690
 8123SOL    HW135828   0.267   1.183  10.996  0.5031 -0.1189  0.1429
 8123SOL    HW235829   0.154   1.180  11.088 -1.2866 -0.9446  0.8444
 8124SOL     OW35830   3.205   3.884   6.568  0.0857 -0.3075  0.2449
 8124SOL    HW135831   3.133   3.838   6.611 -1.9919  1.0567 -1.7960
 8124SOL    HW235832   3.253   3.811   6.527  1.1961  1.3637 -1.4346
 8125SOL     OW35833   0.678   2.798  13.323 -0.3452 -0.1219  0.6394
 8125SOL    HW135834   0.773   2.806  13.308 -0.2613 -1.3343  0.5270
 8125SOL    HW235835   0.655   2.767  13.235  1.7334  5.0289 -1.7356
 8126SOL     OW35836   1.827   3.051   2.623  0.0156  0.4128 -0.3308
 8126SOL    HW135837   1.751   3.074   2.569 -1.2849 -2.1009  0.4005
 8126SOL    HW235838   1.888   3.124   2.616  1.2004 -0.5457  0.1688
 8127SOL     OW35839   0.528   1.197   9.371  0.6924  0.3947 -0.3116
 8127SOL    HW135840   0.566   1.112   9.350 -1.8860 -0.7867 -0.2027
 8127SOL    HW235841   0.497   1.188   9.461  0.1522  0.9527 -0.4437
 8128SOL     OW35842   3.071   1.621   0.700  0.6552  0.2424  0.0033
 8128SOL    HW135843   3.147   1.678   0.689  1.8905 -1.2306  0.9351
 8128SOL    HW235844   3.084   1.579   0.785  2.7656  0.0178 -0.4308
 8129SOL     OW35845   4.050   1.001   9.180 -0.1172 -0.1637 -0.2434
 8129SOL    HW135846   4.043   1.077   9.238  2.2806  0.2163 -0.4263
 8129SOL    HW235847   4.035   1.043   9.095 -0.2566 -1.1257 -0.6960
 8130SOL     OW35848   2.167   2.945  16.553 -0.2521  0.1057  0.7106
 8130SOL    HW135849   2.158   2.912  16.464 -2.0176 -1.2780  1.3915
 8130SOL    HW235850   2.248   2.902  16.582  0.2953  0.9670  0.4697
 8131SOL     OW35851   4.524   2.024   8.374 -0.2102 -0.3309  0.2452
 8131SOL    HW135852   4.435   2.001   8.401 -0.3750  0.8654  0.7298
 8131SOL    HW235853   4.515   2.006   8.281  1.8983 -0.2923  0.0337
 8132SOL     OW35854   4.326   1.040  10.905 -0.6844  0.4461 -0.1909
 8132SOL    HW135855   4.286   1.002  10.983 -0.2054  1.8712  0.7530
 8132SOL    HW235856   4.309   1.134  10.913  0.6044  0.6010  0.6987
 8133SOL     OW35857   0.465   0.752   6.113 -0.2841  0.5483  0.0061
 8133SOL    HW135858   0.479   0.846   6.119  0.1960  0.3819  1.7322
 8133SOL    HW235859   0.375   0.766   6.085 -1.3922  0.3045  3.4373
 8134SOL     OW35860   0.784   2.075   1.604 -0.1339 -0.0908 -0.4067
 8134SOL    HW135861   0.816   2.062   1.515  0.3844  1.5406 -0.4606
 8134SOL    HW235862   0.693   2.097   1.584 -0.9030 -2.9395 -0.1465
 8135SOL     OW35863   1.022   2.647   8.023 -0.5054  0.3799  0.3495
 8135SOL    HW135864   1.079   2.571   8.033 -1.8357 -0.7125 -0.4272
 8135SOL    HW235865   1.089   2.715   8.034  2.3912 -2.7943  2.2049
 8136SOL     OW35866   4.039   3.527   1.099 -0.0379  0.4621 -0.5274
 8136SOL    HW135867   4.087   3.565   1.026  0.9465  1.3723  0.6083
 8136SOL    HW235868   4.113   3.508   1.157 -0.3810  0.5568 -0.0571
 8137SOL     OW35869   0.161   1.461   8.418 -0.1714 -0.1275 -0.6316
 8137SOL    HW135870   0.087   1.437   8.363  0.4737  2.0552 -2.4359
 8137SOL    HW235871   0.232   1.434   8.359  0.5264  0.5871 -0.1110
 8138SOL     OW35872   0.552   0.054   5.017  0.1284  0.4708  0.3784
 8138SOL    HW135873   0.548   0.136   5.066  2.3455 -0.7858  2.6680
 8138SOL    HW235874   0.580   0.090   4.933 -1.4026  1.3433  0.2569
 8139SOL     OW35875   2.569   0.438   1.469 -0.0587 -0.0893  0.2359
 8139SOL    HW135876   2.618   0.406   1.393  1.7425  4.3045 -0.4468
 8139SOL    HW235877   2.485   0.461   1.429  0.8837  2.0165 -0.5222
 8140SOL     OW35878   1.854   2.493   0.902  0.3994 -0.3079 -0.4781
 8140SOL    HW135879   1.786   2.538   0.852  1.1778  2.2780  0.8062
 8140SOL    HW235880   1.822   2.502   0.992  1.3254 -1.6650 -0.0118
 8141SOL     OW35881   0.672   1.600  13.398  0.5443 -0.1864  0.2268
 8141SOL    HW135882   0.700   1.657  13.327 -1.3421 -1.5964 -1.6596
 8141SOL    HW235883   0.662   1.514  13.357  1.7722  0.4563 -1.4215
 8142SOL     OW35884   3.038   4.379   5.474 -0.1111  0.6355  0.0905
 8142SOL    HW135885   2.973   4.420   5.418  1.4729  1.5664 -1.0576
 8142SOL    HW235886   3.089   4.335   5.406  2.4030  2.6736  0.6815
 8143SOL     OW35887   1.573   1.447   0.212  0.5736  0.2154  0.0129
 8143SOL    HW135888   1.519   1.415   0.140  1.4462 -0.8357 -0.1879
 8143SOL    HW235889   1.645   1.384   0.214  0.7716  0.4672  0.9322
 8144SOL     OW35890   2.415   0.688   8.779  0.5929 -0.2968  0.3048
 8144SOL    HW135891   2.444   0.739   8.855  1.1647  1.2056 -0.9295
 8144SOL    HW235892   2.485   0.623   8.782 -0.0198 -1.0630 -2.2363
 8145SOL     OW35893   3.798   0.620   5.469  0.0705  0.2912  0.5884
 8145SOL    HW135894   3.823   0.697   5.418 -0.3088 -0.1720 -0.3100
 8145SOL    HW235895   3.884   0.578   5.468  0.2994  0.7596  0.3119
 8146SOL     OW35896   1.638   4.041   6.549 -0.2288 -0.0720  0.3923
 8146SOL    HW135897   1.628   3.953   6.584  2.2673 -0.2212  0.7743
 8146SOL    HW235898   1.673   4.090   6.624 -0.4453  1.9306 -0.8255
 8147SOL     OW35899   2.056   3.618   7.087 -0.3139  0.1598 -0.2966
 8147SOL    HW135900   2.104   3.555   7.032  0.2453 -0.9553  1.4917
 8147SOL    HW235901   2.130   3.659   7.132  0.5460 -0.8292 -0.7893
 8148SOL     OW35902   1.042   4.169  13.428 -0.4722  0.1370  0.9125
 8148SOL    HW135903   0.950   4.176  13.401 -0.5684 -0.0204  1.1911
 8148SOL    HW235904   1.036   4.077  13.455  1.4564  0.0216  0.9389
 8149SOL     OW35905   1.371   3.803   5.778  0.2351  0.0208 -0.0665
 8149SOL    HW135906   1.286   3.818   5.819 -0.5863  0.9216 -2.0773
 8149SOL    HW235907   1.381   3.877   5.718 -0.0523  0.3280  0.2660
 8150SOL     OW35908   3.221   0.617   4.764  0.0002  0.0214 -0.1913
 8150SOL    HW135909   3.151   0.561   4.729 -0.1370  0.3831 -0.5094
 8150SOL    HW235910   3.288   0.605   4.697 -0.8360  0.3766 -1.1088
 8151SOL     OW35911   4.273   2.849   8.845 -0.7963 -0.1990  0.4078
 8151SOL    HW135912   4.278   2.806   8.931 -1.5030 -2.6198 -0.7598
 8151SOL    HW235913   4.348   2.908   8.847 -0.0713 -1.1239  0.6432
 8152SOL     OW35914   1.184   1.803   4.335  0.0030  0.1768 -0.0921
 8152SOL    HW135915   1.261   1.746   4.333  0.3883  0.6603  1.6181
 8152SOL    HW235916   1.143   1.790   4.249  1.9407 -0.9860 -0.8314
 8153SOL     OW35917   0.320   2.616   8.705 -0.1084  0.6921 -0.3698
 8153SOL    HW135918   0.378   2.540   8.704  1.0950  1.6266 -1.3909
 8153SOL    HW235919   0.381   2.684   8.734  1.0643 -0.0408 -1.1201
 8154SOL     OW35920   4.204   3.756   3.829 -0.4972 -0.1661  0.1358
 8154SOL    HW135921   4.287   3.751   3.782 -0.5699  0.9251 -0.1099
 8154SOL    HW235922   4.135   3.748   3.763  1.4702 -0.8819 -1.8501
 8155SOL     OW35923   2.335   1.323  11.139 -0.3046 -0.5315  0.4299
 8155SOL    HW135924   2.375   1.335  11.053 -1.0168  3.1117  0.6329
 8155SOL    HW235925   2.274   1.396  11.132 -1.4371 -1.2657  2.4831
 8156SOL     OW35926   3.668   3.124   7.238 -0.0874  0.1505  0.4351
 8156SOL    HW135927   3.604   3.194   7.247  2.8713  2.7072  1.5778
 8156SOL    HW235928   3.701   3.122   7.328  2.2905  1.4202 -0.3994
 8157SOL     OW35929   3.036   2.809   7.278  0.5162 -0.3490  0.7529
 8157SOL    HW135930   3.105   2.775   7.333  0.8081 -0.0002  0.6034
 8157SOL    HW235931   3.068   2.814   7.188  2.8714 -3.1800  1.4539
 8158SOL     OW35932   1.585   1.474   4.851 -0.1190 -0.1968  0.2656
 8158SOL    HW135933   1.567   1.452   4.759 -1.6661  0.0987  0.4975
 8158SOL    HW235934   1.516   1.426   4.897 -0.7469  0.5363  0.0967
 8159SOL     OW35935   2.136   0.908   4.748 -0.1780  0.1279  0.8513
 8159SOL    HW135936   2.220   0.952   4.734  0.0455 -0.1272  1.4112
 8159SOL    HW235937   2.164   0.833   4.800  1.0977  0.0810  0.0996
 8160SOL     OW35938   1.866   1.381   7.503 -0.0669  0.3272 -0.2721
 8160SOL    HW135939   1.797   1.446   7.518 -1.2699 -1.1767  0.7611
 8160SOL    HW235940   1.921   1.439   7.451  1.1469  0.6847  1.3983
 8161SOL     OW35941   0.677   1.397   7.279  0.1305 -0.4388 -0.0059
 8161SOL    HW135942   0.662   1.312   7.237  0.8297 -1.5862  2.0580
 8161SOL    HW235943   0.590   1.420   7.309  0.2742 -1.7670  1.4176
 8162SOL     OW35944   2.450   1.029   0.499  0.4114  0.1808  0.3453
 8162SOL    HW135945   2.425   0.940   0.476 -1.5415  0.5320  1.0636
 8162SOL    HW235946   2.536   1.033   0.457 -0.3649  0.4370 -1.2251
 8163SOL     OW35947   4.024   1.380   2.585 -0.2014  0.2795  0.1712
 8163SOL    HW135948   4.035   1.304   2.528  0.9518  0.2586  0.4241
 8163SOL    HW235949   3.997   1.441   2.517  1.2790 -1.4616 -1.9595
 8164SOL     OW35950   1.752   4.135   2.775  0.0487 -0.1118 -0.3871
 8164SOL    HW135951   1.660   4.111   2.765  0.6806 -1.9431 -1.8107
 8164SOL    HW235952   1.729   4.202   2.839  1.7011 -2.7713  2.9357
 8165SOL     OW35953   4.658   0.724  10.603  0.0254 -0.1191  0.4913
 8165SOL    HW135954   4.604   0.744  10.679 -1.1042 -1.0136 -0.0820
 8165SOL    HW235955   0.023   0.716  10.634  0.7190  0.4832 -1.3401
 8166SOL     OW35956   0.637   3.928   1.097  0.0598  0.8194 -0.2908
 8166SOL    HW135957   0.592   3.917   1.013 -2.0450  1.2297  0.7751
 8166SOL    HW235958   0.603   3.852   1.145 -0.1742  2.2563  1.8138
 8167SOL     OW35959   1.230   3.183   3.778 -0.9324 -0.1738 -0.0121
 8167SOL    HW135960   1.194   3.102   3.814 -0.4080  0.1793  1.2989
 8167SOL    HW235961   1.272   3.205   3.861 -1.6516 -0.7211  0.4900
 8168SOL     OW35962   3.198   2.679   7.788  0.0666 -0.3525 -0.4623
 8168SOL    HW135963   3.130   2.741   7.761  0.5384  1.0296  1.5331
 8168SOL    HW235964   3.175   2.596   7.747  1.2653 -0.0533 -1.7472
 8169SOL     OW35965   2.278   4.514   6.375 -0.1132 -0.4430 -0.1401
 8169SOL    HW135966   2.240   4.556   6.298 -1.4935  0.2934  0.9327
 8169SOL    HW235967   2.273   4.595   6.426  3.0330  0.2760 -0.9884
 8170SOL     OW35968   3.941   3.540   9.620  0.0657  0.8074  0.3952
 8170SOL    HW135969   3.906   3.614   9.669 -1.7036  1.2245 -1.4761
 8170SOL    HW235970   4.035   3.557   9.633  0.6829 -2.3864  0.0853
 8171SOL     OW35971   3.159   3.808  17.507  0.0936 -0.9334  0.0050
 8171SOL    HW135972   3.064   3.803  17.496 -0.0888  2.4942 -0.1495
 8171SOL    HW235973   3.175   3.890  17.460 -1.9713 -0.5788 -0.0470
 8172SOL     OW35974   1.560   3.340   4.411 -0.1638 -0.1867 -0.1972
 8172SOL    HW135975   1.616   3.263   4.421  1.7219  1.0312 -1.2981
 8172SOL    HW235976   1.476   3.296   4.422 -0.3275  1.1025  3.7213
 8173SOL     OW35977   3.252   2.309   6.844 -0.0886  0.1709  0.3138
 8173SOL    HW135978   3.296   2.244   6.899  0.2612  3.2995  3.6739
 8173SOL    HW235979   3.329   2.343   6.798 -0.1196  1.9785  1.6566
 8174SOL     OW35980   1.783   1.866  10.710 -0.4450  0.9787  0.3239
 8174SOL    HW135981   1.878   1.862  10.720 -0.4703  1.5586  0.7922
 8174SOL    HW235982   1.787   1.900  10.620 -1.5908 -0.0618 -0.1227
 8175SOL     OW35983   2.709   2.269  12.777 -0.6313 -0.3084  0.0036
 8175SOL    HW135984   2.767   2.206  12.819 -1.7999 -0.3632  1.5201
 8175SOL    HW235985   2.756   2.284  12.694 -0.5975 -0.8204 -0.0707
 8176SOL     OW35986   0.157   1.331   4.417  0.0603  0.4757  0.1998
 8176SOL    HW135987   0.210   1.409   4.402  0.6337  0.1928  0.7357
 8176SOL    HW235988   0.219   1.258   4.410  0.4824  0.9521 -0.9679
 8177SOL     OW35989   3.438   1.769   1.421 -0.0471 -0.6699 -0.1367
 8177SOL    HW135990   3.360   1.811   1.385  0.0987 -1.0995 -0.9543
 8177SOL    HW235991   3.468   1.837   1.481 -0.3117 -2.8058  2.4008
 8178SOL     OW35992   2.586   2.632  16.664  0.2613 -0.2685 -0.0626
 8178SOL    HW135993   2.639   2.680  16.728  0.6181  0.5589 -0.9702
 8178SOL    HW235994   2.625   2.644  16.577 -0.7754  2.0260 -0.2103
 8179SOL     OW35995   2.727   3.120  13.120 -0.3084 -0.5597 -0.3536
 8179SOL    HW135996   2.789   3.183  13.154 -1.1706 -0.0135  0.1941
 8179SOL    HW235997   2.666   3.173  13.069  0.9344 -1.0725 -2.3929
 8180SOL     OW35998   2.141   3.453   6.865  0.2240 -0.0668 -0.5160
 8180SOL    HW135999   2.058   3.457   6.816  0.4254 -0.1463 -0.8639
 8180SOL    HW236000   2.189   3.524   6.822 -0.6614  1.1423  0.4767
 8181SOL     OW36001   0.595   3.176   5.229 -0.2581  0.5284 -0.5700
 8181SOL    HW136002   0.688   3.156   5.218 -0.2608  1.2154 -1.8312
 8181SOL    HW236003   0.603   3.259   5.274 -0.2601  0.4662 -0.4541
 8182SOL     OW36004   3.120   0.909  15.832  0.1183 -0.2356  0.3255
 8182SOL    HW136005   3.124   0.815  15.846  2.1071 -0.5270 -2.4032
 8182SOL    HW236006   3.078   0.936  15.914 -1.6898 -2.1405  0.0296
 8183SOL     OW36007   3.789   1.491   3.325  0.2735  0.1442 -0.4152
 8183SOL    HW136008   3.847   1.554   3.282 -0.1069  0.8824  0.1746
 8183SOL    HW236009   3.732   1.562   3.352  2.5755  0.9478  2.3404
 8184SOL     OW36010   3.851   0.221   8.240 -0.4395  0.5956  0.0574
 8184SOL    HW136011   3.778   0.243   8.181  0.0680  0.3031 -0.6684
 8184SOL    HW236012   3.870   0.310   8.269  2.7850 -0.2484  0.5422
 8185SOL     OW36013   4.673   0.212   5.018 -0.6017  0.4527 -0.3300
 8185SOL    HW136014   4.663   0.180   4.928  0.8029 -0.2909 -0.2169
 8185SOL    HW236015   4.656   0.305   5.002 -1.0312  0.1232 -1.7476
 8186SOL     OW36016   1.575   0.937  12.575 -0.7861 -0.1527  1.1759
 8186SOL    HW136017   1.654   0.930  12.521 -0.5446  1.0891  1.3888
 8186SOL    HW236018   1.570   0.848  12.610 -1.6862 -0.2796  0.7343
 8187SOL     OW36019   1.726   3.566   5.295 -0.0724  0.0534 -0.0976
 8187SOL    HW136020   1.805   3.522   5.267  0.3057 -0.2719  1.4955
 8187SOL    HW236021   1.668   3.556   5.219 -0.3646 -0.5042  0.1975
 8188SOL     OW36022   2.468   1.506   4.382 -0.5108 -0.1346 -0.2216
 8188SOL    HW136023   2.451   1.516   4.288 -1.4385 -1.2423 -0.1704
 8188SOL    HW236024   2.452   1.594   4.414  0.1639  0.6186 -1.9189
 8189SOL     OW36025   0.514   3.973   1.891  0.1491 -0.1443 -0.5273
 8189SOL    HW136026   0.418   3.968   1.893  0.0308  1.8303 -1.6054
 8189SOL    HW236027   0.525   3.923   1.972  0.0710  3.4686  1.7080
 8190SOL     OW36028   1.126   0.616  10.991 -0.4065  0.0178  0.5729
 8190SOL    HW136029   1.085   0.691  10.949  0.9365  1.1693  1.3076
 8190SOL    HW236030   1.050   0.558  10.991  0.1500 -0.7091  0.9547
 8191SOL     OW36031   0.779   1.604   6.804  0.2473 -0.8281 -0.0074
 8191SOL    HW136032   0.837   1.528   6.807  1.4083  0.0166 -1.1366
 8191SOL    HW236033   0.702   1.562   6.765  0.9757 -2.0852 -0.0864
 8192SOL     OW36034   0.878   0.068   7.941  1.0757  0.0149  0.4342
 8192SOL    HW136035   0.820   4.721   7.963  0.0390  0.8303  0.4067
 8192SOL    HW236036   0.892   0.115   8.023  1.7570 -0.7108  0.7316
 8193SOL     OW36037   3.814   3.670   0.492  0.1700 -0.1378  0.5939
 8193SOL    HW136038   3.774   3.736   0.548 -0.3035  0.9669 -1.0266
 8193SOL    HW236039   3.736   3.629   0.454 -0.9416  1.4107  1.2077
 8194SOL     OW36040   3.717   2.624   1.255 -0.0732  0.4053  0.0685
 8194SOL    HW136041   3.681   2.671   1.331  1.1252  0.5105  0.5680
 8194SOL    HW236042   3.673   2.540   1.264 -0.0101  0.3999  0.3296
 8195SOL     OW36043   2.459   0.708  13.984  0.0684  0.5472 -0.1898
 8195SOL    HW136044   2.371   0.744  13.987 -0.7951 -1.5327 -0.4083
 8195SOL    HW236045   2.473   0.700  13.889 -0.2803  3.0444 -0.4337
 8196SOL     OW36046   2.044   2.527  17.638  0.1483 -0.3937  0.2254
 8196SOL    HW136047   2.047   2.615  17.600 -1.2263 -0.0442  0.9199
 8196SOL    HW236048   2.104   2.544   0.006  3.6700 -1.5233 -2.4310
 8197SOL     OW36049   3.723   0.995   9.235 -0.3822  0.1415 -0.1616
 8197SOL    HW136050   3.814   1.023   9.234 -0.1730 -0.6812 -2.6503
 8197SOL    HW236051   3.727   0.910   9.279 -1.1443  0.7963  1.1913
 8198SOL     OW36052   0.979   3.431   3.932  0.4503 -0.1124  0.0443
 8198SOL    HW136053   0.993   3.526   3.927 -1.0848  0.0938 -0.4244
 8198SOL    HW236054   1.068   3.399   3.918 -0.3989 -1.4986 -2.2301
 8199SOL     OW36055   2.752   2.906   0.597 -0.6020 -0.2101  0.2028
 8199SOL    HW136056   2.839   2.880   0.629  1.7292  2.3016 -4.1176
 8199SOL    HW236057   2.759   2.861   0.513 -0.5785 -1.8523  1.0756
 8200SOL     OW36058   1.403   0.959   8.123  0.4273 -0.1216  0.1711
 8200SOL    HW136059   1.406   1.042   8.170 -2.0819 -0.8483  1.6598
 8200SOL    HW236060   1.334   0.973   8.059 -0.3929 -1.7717  0.6893
 8201SOL     OW36061   0.807   3.248  10.736  0.5997 -0.2371 -0.1390
 8201SOL    HW136062   0.730   3.222  10.684 -0.2299  0.4490  0.7525
 8201SOL    HW236063   0.873   3.187  10.701 -1.4338 -2.4802 -0.1333
 8202SOL     OW36064   0.123   0.278   2.809 -0.3889  0.5935 -0.1348
 8202SOL    HW136065   0.103   0.190   2.839 -0.5430 -0.4340 -3.1812
 8202SOL    HW236066   0.096   0.340   2.877  0.4664 -0.8027  1.4745
 8203SOL     OW36067   0.737   3.400   5.690  0.3689 -0.6387  0.1788
 8203SOL    HW136068   0.736   3.474   5.629 -0.7510 -0.8899 -0.0995
 8203SOL    HW236069   0.828   3.407   5.719  1.1182  0.9952 -2.5846
 8204SOL     OW36070   4.144   3.041  15.279 -0.0875  0.1592  0.2644
 8204SOL    HW136071   4.205   3.107  15.249 -0.5422  0.3156 -0.3118
 8204SOL    HW236072   4.098   3.090  15.347  2.6348  1.8540  0.8633
 8205SOL     OW36073   1.163   1.428   3.121  0.3717  0.0142 -0.5060
 8205SOL    HW136074   1.156   1.506   3.066 -1.2975 -0.1895 -0.5915
 8205SOL    HW236075   1.086   1.377   3.093  0.2864 -0.5355  0.6947
 8206SOL     OW36076   2.335   2.153   5.638 -0.2157  0.2437  0.0850
 8206SOL    HW136077   2.291   2.100   5.572 -1.1738  1.9237 -0.6436
 8206SOL    HW236078   2.364   2.082   5.696  0.4461  0.7978  0.4274
 8207SOL     OW36079   1.123   2.867   6.080 -0.3034  0.2702 -0.1343
 8207SOL    HW136080   1.164   2.805   6.019  0.1189  1.1237 -0.7111
 8207SOL    HW236081   1.198   2.902   6.128  0.2610 -1.2535  0.1191
 8208SOL     OW36082   3.603   4.324   1.509 -0.4894  0.1616  0.9156
 8208SOL    HW136083   3.640   4.236   1.506 -0.5026  0.1443  1.2015
 8208SOL    HW236084   3.527   4.299   1.562  0.4343 -1.6102  1.4102
 8209SOL     OW36085   2.647   4.273   6.365 -0.1835  0.0264 -0.3913
 8209SOL    HW136086   2.743   4.272   6.364 -0.1172  0.8740  3.0721
 8209SOL    HW236087   2.637   4.179   6.377  0.6229 -0.0520 -0.3190
 8210SOL     OW36088   4.012   2.638   4.369  0.0500  0.3873  0.3693
 8210SOL    HW136089   4.103   2.620   4.345 -0.9173 -0.1517 -2.8175
 8210SOL    HW236090   4.023   2.710   4.431 -1.6518  0.8594  0.1102
 8211SOL     OW36091   4.358   1.136   0.405  0.1196 -0.2171  0.4005
 8211SOL    HW136092   4.328   1.212   0.454  1.7060  0.2624  0.6192
 8211SOL    HW236093   4.294   1.071   0.435  0.3284 -1.3329 -1.5881
 8212SOL     OW36094   0.287   2.817   0.365 -0.2974  0.1996  0.5042
 8212SOL    HW136095   0.194   2.816   0.391 -0.0303  2.6360  1.5279
 8212SOL    HW236096   0.275   2.880   0.295 -0.1635 -0.5009 -0.1503
 8213SOL     OW36097   2.554   3.632   6.682 -0.1824  0.1962  0.4216
 8213SOL    HW136098   2.581   3.569   6.616  0.3119  0.3785  0.4508
 8213SOL    HW236099   2.565   3.714   6.634  0.7461 -0.2033 -0.0329
 8214SOL     OW36100   1.136   0.258   2.476  0.1895 -1.2699  0.0766
 8214SOL    HW136101   1.166   0.207   2.552  1.1169 -0.8372  0.0000
 8214SOL    HW236102   1.189   0.211   2.412 -0.5409 -0.5374 -1.0670
 8215SOL     OW36103   2.487   4.612  13.299 -0.1962  0.2701  0.2332
 8215SOL    HW136104   2.478   4.619  13.394 -2.3119  2.4642 -0.1434
 8215SOL    HW236105   2.554   4.676  13.276 -0.1362  0.5872  1.2722
 8216SOL     OW36106   4.135   0.841   8.326  0.3631  0.3350 -0.3352
 8216SOL    HW136107   4.218   0.796   8.308 -0.9064 -1.6460 -1.2028
 8216SOL    HW236108   4.146   0.905   8.255  0.4486  2.4578  1.6006
 8217SOL     OW36109   3.742   0.320  16.557 -0.6431  0.2405 -0.2794
 8217SOL    HW136110   3.731   0.415  16.566  1.1170  0.4630 -0.4169
 8217SOL    HW236111   3.776   0.325  16.468 -3.2388  0.1164 -1.2703
 8218SOL     OW36112   4.525   3.233   7.156 -0.0403  0.5718  0.5367
 8218SOL    HW136113   4.568   3.207   7.237  2.4619  1.5743 -0.4495
 8218SOL    HW236114   4.435   3.204   7.168  0.6531 -1.7700  0.0884
 8219SOL     OW36115   1.808   2.834  14.183  0.2638 -0.6611 -0.0132
 8219SOL    HW136116   1.826   2.764  14.120 -0.7735 -0.1769 -0.8546
 8219SOL    HW236117   1.732   2.879  14.147  1.7908 -1.9704 -4.9039
 8220SOL     OW36118   3.952   0.265   3.299 -0.2902 -0.5795  0.0809
 8220SOL    HW136119   3.943   0.182   3.346  2.7655 -0.7976  0.2883
 8220SOL    HW236120   3.879   0.256   3.237 -0.3628 -0.3235  0.1285
 8221SOL     OW36121   0.368   0.021   1.599  0.3652 -0.5844 -0.0456
 8221SOL    HW136122   0.286   0.054   1.561  0.6215  1.3240  1.0651
 8221SOL    HW236123   0.432   0.042   1.531  0.9547 -0.6833  0.4818
 8222SOL     OW36124   2.779   3.162   2.617 -0.3801  0.2556  0.1347
 8222SOL    HW136125   2.806   3.139   2.528 -2.5360 -0.9613 -0.2182
 8222SOL    HW236126   2.863   3.198   2.644  0.1360 -0.6522 -0.2725
 8223SOL     OW36127   1.372   3.469   7.153  0.1109  0.0623  0.3499
 8223SOL    HW136128   1.363   3.564   7.166  0.5774 -0.4907  4.9570
 8223SOL    HW236129   1.425   3.454   7.232  0.4464 -1.0384 -0.0864
 8224SOL     OW36130   4.518   3.675   8.821  0.1158  0.2541  0.3913
 8224SOL    HW136131   4.528   3.614   8.749  1.9802  2.9859 -1.6888
 8224SOL    HW236132   4.507   3.753   8.766 -1.2463  1.5093  2.4006
 8225SOL     OW36133   3.861   3.777   5.198  0.3868  0.1216  0.1113
 8225SOL    HW136134   3.793   3.731   5.247 -0.9712  1.0978 -0.8642
 8225SOL    HW236135   3.873   3.851   5.257  1.4930 -0.4983  0.6727
 8226SOL     OW36136   4.006   3.469   0.492  0.1620  0.2625 -0.4059
 8226SOL    HW136137   3.945   3.542   0.480 -0.3516  0.0374  0.8700
 8226SOL    HW236138   3.951   3.397   0.522  2.2691 -1.5683 -1.0147
 8227SOL     OW36139   3.046   0.531   7.028 -0.1107 -0.1928  0.6266
 8227SOL    HW136140   3.088   0.449   7.002  1.3337  0.5519  0.6278
 8227SOL    HW236141   2.988   0.516   7.103 -0.7679  0.7595  0.3112
 8228SOL     OW36142   2.861   0.539  11.692 -0.2479 -0.0589 -0.1507
 8228SOL    HW136143   2.846   0.450  11.660 -1.1491  0.2222 -0.5359
 8228SOL    HW236144   2.939   0.530  11.747 -0.1464 -0.6594 -0.3913
 8229SOL     OW36145   1.876   3.790   7.427 -0.5991  0.2200  0.3850
 8229SOL    HW136146   1.935   3.849   7.474  1.3173 -0.1586 -1.5328
 8229SOL    HW236147   1.852   3.731   7.498  0.8813  0.5558  1.1700
 8230SOL     OW36148   2.846   4.704   4.123 -0.3777  0.3360  0.1690
 8230SOL    HW136149   2.937   4.723   4.144  0.2393 -0.6801 -1.5076
 8230SOL    HW236150   2.846   4.709   4.027  1.6339 -4.3970 -0.0703
 8231SOL     OW36151   1.527   0.052   2.352 -0.0976  0.5528  0.2447
 8231SOL    HW136152   1.535   4.717   2.278 -2.8971  0.4196  0.0384
 8231SOL    HW236153   1.450   0.098   2.318 -1.1328 -0.4656  1.2709
 8232SOL     OW36154   3.418   3.559   1.803  0.6552 -0.2147  0.4787
 8232SOL    HW136155   3.338   3.514   1.777  0.4373 -0.2530  1.2217
 8232SOL    HW236156   3.428   3.631   1.740 -1.1643 -0.6291 -0.2639
 8233SOL     OW36157   1.741   0.935   4.516 -0.2121 -0.5391 -0.3449
 8233SOL    HW136158   1.741   1.025   4.483  1.2944 -0.4070  0.0331
 8233SOL    HW236159   1.792   0.936   4.597  0.5926  0.7428 -0.8638
 8234SOL     OW36160   1.967   4.533  11.240  0.2214 -0.5712  0.3506
 8234SOL    HW136161   2.000   4.552  11.152 -1.0334 -0.2690 -0.0542
 8234SOL    HW236162   2.049   4.545  11.289  0.2273 -1.7887  0.6267
 8235SOL     OW36163   2.859   4.639   4.527 -0.1008  0.5008 -0.3423
 8235SOL    HW136164   2.954   4.635   4.520 -0.0205  0.0231  0.9570
 8235SOL    HW236165   2.851   4.544   4.535 -0.3411  0.8947  3.8337
 8236SOL     OW36166   4.638   2.990   7.887  0.3078  0.4489 -0.2571
 8236SOL    HW136167   4.666   2.952   7.804  1.8859  2.2826 -0.5604
 8236SOL    HW236168   4.715   2.981   7.943  0.2534  2.6628  0.1446
 8237SOL     OW36169   4.127   4.456   2.640  0.6697 -0.1695 -0.3739
 8237SOL    HW136170   4.129   4.489   2.550  1.2256  1.5935  0.2786
 8237SOL    HW236171   4.051   4.398   2.642  1.4295 -1.3201 -3.5406
 8238SOL     OW36172   1.102   3.081  17.604  0.1309 -0.4332 -0.0984
 8238SOL    HW136173   1.182   3.099  17.654  0.3007 -1.1950 -0.0979
 8238SOL    HW236174   1.120   3.124  17.521 -0.4476 -0.6371 -0.3271
 8239SOL     OW36175   2.267   3.771   2.935  0.1573 -0.1317  0.5614
 8239SOL    HW136176   2.339   3.808   2.883  1.2605 -3.4632 -0.2458
 8239SOL    HW236177   2.308   3.737   3.014  2.3073  0.4416 -0.3028
 8240SOL     OW36178   1.721   4.695   5.870 -0.3437 -0.1285 -0.4854
 8240SOL    HW136179   1.640   4.646   5.855 -0.6500  0.4559 -0.7388
 8240SOL    HW236180   1.689   0.042   5.817 -0.2059 -0.9224 -1.6470
 8241SOL     OW36181   2.326   4.601   5.108  0.0378  0.2476 -0.2553
 8241SOL    HW136182   2.392   4.532   5.103  0.6765  0.8462 -0.1378
 8241SOL    HW236183   2.243   4.553   5.112 -1.0365  1.8284 -3.8466
 8242SOL     OW36184   0.081   4.018   7.030  0.6870 -0.5576  0.0165
 8242SOL    HW136185   0.131   4.063   7.098 -1.3554  1.7820 -0.0227
 8242SOL    HW236186   0.034   3.961   7.091 -0.0900 -2.4022 -2.2954
 8243SOL     OW36187   2.358   0.620   5.794 -0.0708 -0.3527 -0.5080
 8243SOL    HW136188   2.320   0.538   5.825  1.2529 -0.5883  0.5149
 8243SOL    HW236189   2.284   0.663   5.752  2.8022  4.4463 -0.6321
 8244SOL     OW36190   1.906   3.094   4.659  0.0996  0.5911  0.0949
 8244SOL    HW136191   1.850   3.089   4.582 -1.5312  0.3172  1.3064
 8244SOL    HW236192   1.985   3.050   4.625  0.0906  1.4394 -1.0218
 8245SOL     OW36193   4.010   3.650   7.824 -0.1153 -0.2555 -0.3791
 8245SOL    HW136194   4.039   3.713   7.758  2.1905 -0.2761  0.5897
 8245SOL    HW236195   3.996   3.574   7.767  1.0323  0.2548 -1.3315
 8246SOL     OW36196   2.136   1.951   1.553  0.1317  0.1146 -0.1178
 8246SOL    HW136197   2.182   1.931   1.472  1.3039  0.1052  0.5524
 8246SOL    HW236198   2.150   1.867   1.598  0.3279 -0.4436 -1.2176
 8247SOL     OW36199   0.095   3.801   6.194  0.6259 -0.2327  0.2440
 8247SOL    HW136200   0.036   3.833   6.125  0.4716 -2.0571 -0.4640
 8247SOL    HW236201   0.139   3.879   6.226  2.5252 -0.9376 -0.7024
 8248SOL     OW36202   2.339   0.096  11.149 -0.0119 -0.4297  0.4147
 8248SOL    HW136203   2.255   0.065  11.114 -0.6684  2.9969 -1.0636
 8248SOL    HW236204   2.395   0.078  11.073  0.4108  1.3548  0.3044
 8249SOL     OW36205   4.663   4.455   7.380 -0.6701 -0.3527  0.3713
 8249SOL    HW136206   4.675   4.489   7.291  1.1101 -1.9460  0.0042
 8249SOL    HW236207   4.623   4.530   7.425  0.5534  0.1065  0.6822
 8250SOL     OW36208   1.881   1.981   3.840  0.1420 -0.1256  0.3754
 8250SOL    HW136209   1.917   2.052   3.787 -2.3141  2.0168  1.5459
 8250SOL    HW236210   1.938   1.974   3.917 -0.2995 -0.5414  0.6694
 8251SOL     OW36211   4.543   2.186   7.084 -0.4107 -0.4970  0.1294
 8251SOL    HW136212   4.525   2.271   7.125 -0.3198 -0.1279 -0.5887
 8251SOL    HW236213   4.592   2.227   7.013  0.4782  1.3905  1.8222
 8252SOL     OW36214   1.487   3.808   4.401 -0.3052  0.0421 -0.2631
 8252SOL    HW136215   1.520   3.722   4.374 -0.4885 -0.3130  0.6266
 8252SOL    HW236216   1.567   3.858   4.417  0.8094 -2.0291  0.5992
 8253SOL     OW36217   3.393   3.527   5.330 -0.0901 -0.0762 -0.1981
 8253SOL    HW136218   3.351   3.559   5.251 -0.9368 -0.0576  0.2579
 8253SOL    HW236219   3.324   3.546   5.393 -0.2476 -0.1399 -0.3528
 8254SOL     OW36220   2.280   2.196   6.641 -0.5745  0.0054  0.4275
 8254SOL    HW136221   2.322   2.217   6.558 -0.4209 -0.3425  0.4178
 8254SOL    HW236222   2.273   2.284   6.677 -0.9182  0.2551 -0.2521
 8255SOL     OW36223   3.173   0.913   8.421  0.0391  0.9600  0.2696
 8255SOL    HW136224   3.150   0.925   8.514 -2.2409 -2.3783  0.1449
 8255SOL    HW236225   3.092   0.944   8.381 -1.0390  0.8816  2.3945
 8256SOL     OW36226   3.577   0.898  16.095  0.2248  0.1208  0.0627
 8256SOL    HW136227   3.627   0.905  16.014 -0.9955  0.6719 -0.6541
 8256SOL    HW236228   3.498   0.852  16.067 -0.4661  2.3291 -1.6333
 8257SOL     OW36229   4.537   0.888  11.103  0.0627  0.0167 -0.1298
 8257SOL    HW136230   4.573   0.958  11.157 -1.6395  0.9651 -0.2421
 8257SOL    HW236231   4.452   0.872  11.143 -0.1145 -0.2370 -0.6049
 8258SOL     OW36232   2.345   0.135   5.097  0.4674 -0.0924  0.1913
 8258SOL    HW136233   2.304   0.048   5.092  1.3700 -0.3780 -2.3656
 8258SOL    HW236234   2.431   0.114   5.059  0.3733  0.0311 -0.0870
 8259SOL     OW36235   2.866   1.828   9.556  0.2853 -0.1270  0.3420
 8259SOL    HW136236   2.920   1.903   9.531  2.3066 -1.1556  1.6424
 8259SOL    HW236237   2.782   1.871   9.543  0.4298 -0.6156 -2.4101
 8260SOL     OW36238   0.312   1.391   3.087 -0.7970 -0.4677 -0.2392
 8260SOL    HW136239   0.225   1.387   3.049 -0.4182  0.2252 -1.1666
 8260SOL    HW236240   0.297   1.478   3.123  1.2558 -0.2085  0.0161
 8261SOL     OW36241   1.890   4.124   4.451 -0.3118 -0.0616 -0.0937
 8261SOL    HW136242   1.886   4.179   4.530  2.0621  0.9156 -0.6618
 8261SOL    HW236243   1.941   4.162   4.380 -0.2854  2.6137  1.3332
 8262SOL     OW36244   3.181   3.688   7.977  0.3224 -0.2102  0.0965
 8262SOL    HW136245   3.091   3.723   7.980  1.0307  1.5929  0.5489
 8262SOL    HW236246   3.226   3.743   7.913 -1.4151  0.6174 -0.4458
 8263SOL     OW36247   2.256   2.721   5.172 -0.4220 -0.1242 -0.0273
 8263SOL    HW136248   2.202   2.665   5.116  1.5768 -2.1547  0.1221
 8263SOL    HW236249   2.216   2.717   5.259  0.0074 -2.3446  0.0464
 8264SOL     OW36250   0.544   1.763   9.515 -0.3780  0.4043  0.2399
 8264SOL    HW136251   0.541   1.840   9.457  0.9947 -1.2054 -1.9864
 8264SOL    HW236252   0.632   1.734   9.489 -1.0442  1.7413 -3.5997
 8265SOL     OW36253   1.518   0.371   3.859  0.1107  0.0074  0.5160
 8265SOL    HW136254   1.497   0.306   3.792  1.7515  1.2824 -1.2394
 8265SOL    HW236255   1.607   0.342   3.878  0.2638  0.5598  0.6517
 8266SOL     OW36256   3.834   4.008   2.885  0.2313 -0.3964  0.1183
 8266SOL    HW136257   3.805   3.971   2.801  0.7615 -0.8995  0.1547
 8266SOL    HW236258   3.756   4.015   2.941  0.5255 -0.6326  0.5553
 8267SOL     OW36259   3.411   2.141   4.975  0.0367  0.6297  0.2804
 8267SOL    HW136260   3.447   2.125   5.062  1.1067  0.7128 -0.1477
 8267SOL    HW236261   3.447   2.068   4.925 -1.0167  0.9975 -1.0011
 8268SOL     OW36262   3.121   1.465  15.744 -0.2961  0.5980 -0.3145
 8268SOL    HW136263   3.134   1.381  15.700 -0.0701  0.2197  0.4759
 8268SOL    HW236264   3.131   1.440  15.835  0.1188  0.3501 -0.4312
 8269SOL     OW36265   1.944   3.912   5.686 -0.0645 -0.2153  0.0117
 8269SOL    HW136266   1.915   3.888   5.774  1.0210 -1.0893  0.1365
 8269SOL    HW236267   2.014   3.976   5.700  1.7691 -2.1628 -0.2439
 8270SOL     OW36268   0.310   2.622   4.858 -0.4127 -0.0857 -0.1244
 8270SOL    HW136269   0.278   2.712   4.864 -0.6649 -0.2179  0.5067
 8270SOL    HW236270   0.296   2.598   4.949  1.8555 -1.8657 -0.2466
 8271SOL     OW36271   0.931   1.061   4.391 -0.0444 -0.2402  0.3605
 8271SOL    HW136272   0.980   1.133   4.431 -2.2738  1.0961  0.6733
 8271SOL    HW236273   0.907   1.084   4.301  1.9837 -0.1894 -0.1801
 8272SOL     OW36274   3.342   4.224   0.317 -0.1695  0.0547 -0.1133
 8272SOL    HW136275   3.404   4.152   0.305  0.2939  0.2605  0.9944
 8272SOL    HW236276   3.337   4.264   0.230 -1.6065  0.1484  0.0120
 8273SOL     OW36277   2.596   1.915   5.421 -0.0467 -0.2009  0.3091
 8273SOL    HW136278   2.619   1.999   5.381 -0.0558 -1.2036 -1.7910
 8273SOL    HW236279   2.677   1.864   5.422 -1.1605 -1.9732 -1.3097
 8274SOL     OW36280   2.117   2.708   4.150 -0.4208  0.0604  0.1280
 8274SOL    HW136281   2.063   2.665   4.084  1.5089  0.1914 -1.5408
 8274SOL    HW236282   2.076   2.794   4.158 -1.3676 -0.5320  1.7117
 8275SOL     OW36283   1.154   0.348   9.664  0.2906  0.3322  0.0188
 8275SOL    HW136284   1.238   0.390   9.680 -0.3574  1.8354 -0.4829
 8275SOL    HW236285   1.178   0.267   9.619 -1.4241  0.3230 -0.8705
 8276SOL     OW36286   0.348   0.204   7.962  0.3956  0.2398 -0.0540
 8276SOL    HW136287   0.348   0.250   8.046  1.2334 -0.7984  0.4980
 8276SOL    HW236288   0.332   0.117   7.998  0.2909  0.0413 -0.5854
 8277SOL     OW36289   0.105   3.828   4.916 -0.1827 -0.1757 -0.0631
 8277SOL    HW136290   0.180   3.887   4.907  0.4247 -0.9189  0.1993
 8277SOL    HW236291   0.114   3.790   4.829  1.8084  2.2133 -0.8751
 8278SOL     OW36292   2.826   2.414   8.436 -0.2380  0.1314 -0.3013
 8278SOL    HW136293   2.825   2.346   8.504  1.8528 -1.2994 -1.6703
 8278SOL    HW236294   2.919   2.409   8.412 -0.1416  1.8403 -0.2366
 8279SOL     OW36295   1.675   1.172   5.585 -0.5727 -0.2149  0.9765
 8279SOL    HW136296   1.613   1.230   5.628 -1.5118  0.4240 -1.2293
 8279SOL    HW236297   1.693   1.106   5.652 -0.2239 -0.0147  1.0799
 8280SOL     OW36298   2.133   0.289  14.888 -0.6597  0.3888  0.9694
 8280SOL    HW136299   2.146   0.302  14.982  0.1529 -0.5347  0.9919
 8280SOL    HW236300   2.137   0.379  14.856 -0.6136 -0.5254 -1.6120
 8281SOL     OW36301   0.139   0.512  11.516  0.0914  0.3856  0.2645
 8281SOL    HW136302   0.160   0.477  11.430  2.8222  1.0520  0.6514
 8281SOL    HW236303   0.056   0.552  11.489 -0.5985 -0.9437  0.4461
 8282SOL     OW36304   4.363   0.718   1.412  0.7243  0.1049 -0.0230
 8282SOL    HW136305   4.404   0.688   1.493 -1.6899 -2.1749  0.3596
 8282SOL    HW236306   4.380   0.812   1.413  1.0255  0.0721 -1.5527
 8283SOL     OW36307   1.888   2.445   0.460 -0.6442  0.6948 -0.5983
 8283SOL    HW136308   1.892   2.394   0.379  0.7789  0.2586 -0.2444
 8283SOL    HW236309   1.839   2.382   0.512 -1.9145  1.4285 -0.9054
 8284SOL     OW36310   0.333   1.428  14.643 -0.9194 -0.5726  0.5255
 8284SOL    HW136311   0.424   1.402  14.629 -1.1625  0.6736 -3.2762
 8284SOL    HW236312   0.298   1.340  14.655 -2.7309  0.0118 -0.5134
 8285SOL     OW36313   4.320   4.153   5.970 -0.1263 -0.1081  0.1275
 8285SOL    HW136314   4.361   4.123   5.888  1.0746  0.7497  0.4064
 8285SOL    HW236315   4.393   4.124   6.026  0.4734  0.4738 -0.3414
 8286SOL     OW36316   0.141   4.232   1.737 -0.1392 -0.2509  0.7529
 8286SOL    HW136317   0.069   4.281   1.776  0.4147  0.3963  0.9540
 8286SOL    HW236318   0.102   4.211   1.652 -0.8802 -0.4115  1.1296
 8287SOL     OW36319   3.417   4.466   8.001  0.5355  0.2848  0.2892
 8287SOL    HW136320   3.389   4.436   8.087  1.5057 -0.3462  0.3866
 8287SOL    HW236321   3.499   4.416   7.992  1.2970  1.6105 -0.1310
 8288SOL     OW36322   3.571   3.374   8.359 -0.4983 -0.1918 -0.1346
 8288SOL    HW136323   3.583   3.380   8.454  0.2356  0.3306 -0.2589
 8288SOL    HW236324   3.659   3.384   8.321  0.1099  1.2674  1.6507
 8289SOL     OW36325   3.074   4.351   6.163 -0.0562 -0.3545 -0.2929
 8289SOL    HW136326   3.081   4.301   6.081 -0.1639  2.6480 -2.1199
 8289SOL    HW236327   2.982   4.377   6.167  0.3282  1.0043 -0.5637
 8290SOL     OW36328   2.906   2.879   2.578 -0.3118  0.4042  0.1779
 8290SOL    HW136329   2.813   2.858   2.589 -0.1019 -1.1385 -0.9543
 8290SOL    HW236330   2.946   2.885   2.665  0.6855  0.2657 -0.2727
 8291SOL     OW36331   0.173   0.670   9.062 -0.3478  0.0043  0.1766
 8291SOL    HW136332   0.134   0.621   8.989  0.1322 -0.2172  0.0695
 8291SOL    HW236333   0.099   0.667   9.122 -0.5585  0.1529 -0.0776
 8292SOL     OW36334   4.633   3.438   8.313  0.1470 -0.2178 -0.3063
 8292SOL    HW136335   4.648   3.445   8.219 -2.2579 -0.3631 -0.7126
 8292SOL    HW236336   4.571   3.507   8.338  0.2579 -0.9704  2.0722
 8293SOL     OW36337   1.057   0.671   2.146  0.1396 -0.5988 -0.2047
 8293SOL    HW136338   1.094   0.757   2.168  0.8558 -0.5222 -1.7078
 8293SOL    HW236339   0.975   0.699   2.105  0.7736  0.7542 -0.5661
 8294SOL     OW36340   0.912   2.342   8.866 -0.4368 -0.3021  0.3744
 8294SOL    HW136341   0.840   2.348   8.929 -0.4098 -0.7739  0.4543
 8294SOL    HW236342   0.870   2.345   8.780  0.9021 -2.1873 -0.3554
 8295SOL     OW36343   3.916   1.646   5.989 -0.1745  0.1400 -0.8470
 8295SOL    HW136344   3.881   1.732   6.010  2.9647  1.2568 -0.1887
 8295SOL    HW236345   3.833   1.601   5.973  0.6073 -0.3009 -3.8346
 8296SOL     OW36346   2.666   1.153   4.350 -0.3629 -0.3948  0.1180
 8296SOL    HW136347   2.640   1.225   4.407  2.7512  2.5587 -2.1950
 8296SOL    HW236348   2.573   1.131   4.344 -0.0090 -1.9925  0.3287
 8297SOL     OW36349   4.365   4.390   2.253  0.4283  0.1508  0.4599
 8297SOL    HW136350   4.388   4.408   2.344  0.0684 -0.8187  0.7470
 8297SOL    HW236351   4.404   4.469   2.216  0.0741 -0.8819 -2.0977
 8298SOL     OW36352   1.153   2.165   6.217  0.2421  0.4265  0.1717
 8298SOL    HW136353   1.239   2.158   6.177 -0.1435  2.6943 -1.0918
 8298SOL    HW236354   1.094   2.148   6.143 -2.0840 -0.3748  2.2366
 8299SOL     OW36355   2.111   0.709   1.210 -0.5252 -0.5379  0.2090
 8299SOL    HW136356   2.127   0.622   1.174 -0.3266 -0.6478  0.5610
 8299SOL    HW236357   2.123   0.763   1.131 -2.3640 -0.3404  0.0641
 8300SOL     OW36358   0.860   3.478   9.896  0.1089  0.7678  0.3364
 8300SOL    HW136359   0.769   3.448   9.899  1.0007 -1.8691  0.2843
 8300SOL    HW236360   0.876   3.497   9.989 -1.0727 -0.9444  0.8969
 8301SOL     OW36361   1.120   1.847   5.405  0.4400  0.2206  0.2698
 8301SOL    HW136362   1.193   1.819   5.351  0.0875 -0.3960  0.1204
 8301SOL    HW236363   1.066   1.886   5.337  1.9508  0.2333 -0.9133
 8302SOL     OW36364   2.940   4.155   4.346  0.0773  0.2953  0.3313
 8302SOL    HW136365   2.910   4.235   4.389  1.7870  0.3244  1.5062
 8302SOL    HW236366   3.028   4.150   4.384  0.4951 -3.4226 -1.1399
 8303SOL     OW36367   1.973   4.305   7.460  0.3389 -0.2395  0.1088
 8303SOL    HW136368   1.992   4.314   7.554  0.6773  0.7988 -0.0597
 8303SOL    HW236369   2.063   4.312   7.428  0.5677 -1.6231  0.4527
 8304SOL     OW36370   2.747   3.247   4.309 -0.0087  0.1214  0.9436
 8304SOL    HW136371   2.804   3.324   4.307 -1.3325  1.0234 -2.0738
 8304SOL    HW236372   2.797   3.178   4.351 -0.0011 -0.4040  0.0653
 8305SOL     OW36373   0.024   1.422  15.482 -0.4616  0.0535  0.0996
 8305SOL    HW136374   0.030   1.329  15.462  0.0392 -0.0746  0.8278
 8305SOL    HW236375   0.073   1.463  15.411  3.3886  0.2734  2.8818
 8306SOL     OW36376   0.892   3.830   8.140 -0.0522 -0.3448 -0.0778
 8306SOL    HW136377   0.810   3.788   8.116  1.0183 -0.7918 -2.8757
 8306SOL    HW236378   0.908   3.787   8.224 -1.6594 -0.1840  0.3174
 8307SOL     OW36379   2.932   2.220   2.405  0.2522  0.1316 -0.2199
 8307SOL    HW136380   2.950   2.187   2.493 -0.5575 -0.2685 -0.2051
 8307SOL    HW236381   2.840   2.244   2.410  0.1422 -0.7091  2.1856
 8308SOL     OW36382   1.147   3.483  12.962  0.3804 -0.2681 -0.1189
 8308SOL    HW136383   1.214   3.542  12.999 -1.7716  1.0145  1.7559
 8308SOL    HW236384   1.072   3.537  12.987  0.1546  0.2212 -1.8828
 8309SOL     OW36385   3.206   0.429   7.670 -0.0223  0.5159  0.3910
 8309SOL    HW136386   3.180   0.345   7.709  0.0270  0.8316  1.1096
 8309SOL    HW236387   3.226   0.483   7.746 -0.6231  1.6287 -0.2495
 8310SOL     OW36388   4.464   4.090   3.541 -0.3450 -0.3541  0.1931
 8310SOL    HW136389   4.448   4.051   3.455  0.8698  0.5360 -0.4328
 8310SOL    HW236390   4.531   4.026   3.566 -0.5279 -0.6462 -0.0596
 8311SOL     OW36391   1.988   2.159   7.039 -0.3114 -0.1974 -0.4504
 8311SOL    HW136392   1.957   2.079   7.082 -2.3570  0.2502 -1.0793
 8311SOL    HW236393   2.042   2.134   6.964 -1.1981  0.5521 -1.3414
 8312SOL     OW36394   2.327   3.772   7.199 -0.3708 -0.3519 -0.1033
 8312SOL    HW136395   2.387   3.799   7.130  0.0351  0.0179  0.3898
 8312SOL    HW236396   2.311   3.857   7.241 -0.7864 -1.7585  2.6066
 8313SOL     OW36397   4.226   4.060   8.585  0.1712  0.2003  0.2348
 8313SOL    HW136398   4.279   4.009   8.646 -1.3178 -0.5938  0.8843
 8313SOL    HW236399   4.140   4.029   8.613 -0.0467  1.7072  1.2683
 8314SOL     OW36400   4.000   2.463   6.117 -0.1675  0.0965  0.0516
 8314SOL    HW136401   4.038   2.536   6.166  0.6033  0.6363 -1.3296
 8314SOL    HW236402   4.015   2.494   6.027  1.3287 -1.6616 -0.3154
 8315SOL     OW36403   3.547   1.206   3.133  0.5007 -0.2513 -0.2890
 8315SOL    HW136404   3.511   1.224   3.046  0.1579  0.0577 -0.0861
 8315SOL    HW236405   3.484   1.153   3.183  3.2220 -2.7789  0.4428
 8316SOL     OW36406   0.479   1.289   1.919  0.2915 -0.1220  0.2360
 8316SOL    HW136407   0.515   1.336   1.843 -1.2199 -0.1631 -0.4973
 8316SOL    HW236408   0.494   1.197   1.900  0.5851 -0.2043  0.8775
 8317SOL     OW36409   3.257   2.787  12.873 -0.5747 -0.2886 -0.3645
 8317SOL    HW136410   3.271   2.694  12.856 -1.7964 -0.1983 -1.8462
 8317SOL    HW236411   3.213   2.815  12.793 -1.3032  0.4939  0.3047
 8318SOL     OW36412   1.646   4.268   5.827 -0.1695  0.1680 -0.3348
 8318SOL    HW136413   1.686   4.204   5.769 -2.6455 -0.4497 -1.3610
 8318SOL    HW236414   1.715   4.300   5.884  0.3257 -3.3701  1.0676
 8319SOL     OW36415   0.578   2.809   1.118 -0.3244 -0.0093 -0.2986
 8319SOL    HW136416   0.670   2.791   1.099 -0.3243 -2.0538  1.6809
 8319SOL    HW236417   0.584   2.859   1.200  0.9265  1.0708 -1.0355
 8320SOL     OW36418   1.159   4.374   8.759 -0.1983 -0.1118 -0.3689
 8320SOL    HW136419   1.204   4.328   8.688  1.7451  2.0052 -0.4880
 8320SOL    HW236420   1.075   4.380   8.714 -0.0675 -1.5960 -0.7932
 8321SOL     OW36421   4.160   3.066   8.716  0.3875  0.3407 -0.3087
 8321SOL    HW136422   4.191   2.999   8.778 -2.0705  0.6506  1.2617
 8321SOL    HW236423   4.223   3.058   8.645 -1.6780  1.0045 -2.1815
 8322SOL     OW36424   4.292   2.333  12.840 -0.3392  0.1973  0.0556
 8322SOL    HW136425   4.308   2.252  12.889  0.5451  0.5582  0.3633
 8322SOL    HW236426   4.372   2.348  12.789  0.1596  0.4790  0.9155
 8323SOL     OW36427   3.252   2.515   0.173  0.2251 -0.0308 -0.1100
 8323SOL    HW136428   3.246   2.448   0.241 -1.1199  2.0948  1.8632
 8323SOL    HW236429   3.343   2.501   0.148  0.2816  0.2691 -0.0738
 8324SOL     OW36430   3.808   2.674   9.786 -0.5654 -0.1862 -0.6698
 8324SOL    HW136431   3.845   2.724   9.859  0.3991 -0.9792 -0.6169
 8324SOL    HW236432   3.879   2.663   9.722 -0.2139 -2.4295  0.1157
 8325SOL     OW36433   0.755   3.334   7.782 -0.2803 -0.1428 -0.4880
 8325SOL    HW136434   0.723   3.419   7.752  0.7082 -0.2099 -1.7062
 8325SOL    HW236435   0.802   3.378   7.853 -0.6372  0.3160 -0.5312
 8326SOL     OW36436   1.640   3.597   4.338  0.5478 -0.0202  0.1374
 8326SOL    HW136437   1.732   3.607   4.362  0.8992  0.8663 -1.6028
 8326SOL    HW236438   1.617   3.505   4.356 -1.1498  0.3932  0.0713
 8327SOL     OW36439   1.941   4.035  11.944 -0.1288  0.4979  0.5116
 8327SOL    HW136440   1.909   4.124  11.925 -1.5392 -0.2471 -0.6544
 8327SOL    HW236441   2.005   4.003  11.880  0.0539 -0.3692  1.1478
 8328SOL     OW36442   2.488   2.531   5.167  0.2300  0.4941  0.2825
 8328SOL    HW136443   2.425   2.599   5.142  0.8981  0.6488 -0.9874
 8328SOL    HW236444   2.468   2.522   5.261  3.0575  0.1221  0.8453
 8329SOL     OW36445   4.367   3.687   9.105  0.0254 -0.4187  0.1949
 8329SOL    HW136446   4.323   3.725   9.182  0.6887  0.9185 -0.0958
 8329SOL    HW236447   4.306   3.708   9.035  2.8323  1.8665 -1.5403
 8330SOL     OW36448   2.537   1.373  15.532  0.0276  0.4393  0.4130
 8330SOL    HW136449   2.508   1.459  15.563  1.8696  0.8325  1.0666
 8330SOL    HW236450   2.560   1.389  15.440  1.1918  0.7873  0.7706
 8331SOL     OW36451   0.808   0.067   6.439 -0.8353 -0.3436 -0.9353
 8331SOL    HW136452   0.733   0.082   6.496  1.0103  0.6236  1.2681
 8331SOL    HW236453   0.778   0.106   6.357 -0.9088  3.8357  1.0391
 8332SOL     OW36454   1.236   4.255   6.132  0.0553  0.9471 -0.5444
 8332SOL    HW136455   1.301   4.286   6.196  0.6032 -0.8643 -0.2145
 8332SOL    HW236456   1.281   4.249   6.048 -1.7883 -2.1977 -1.2905
 8333SOL     OW36457   2.866   3.166   8.622  1.0127 -0.1953 -0.3631
 8333SOL    HW136458   2.891   3.170   8.530 -3.6275 -1.6020 -1.7087
 8333SOL    HW236459   2.857   3.259   8.643 -0.4059  0.3131 -3.2514
 8334SOL     OW36460   3.814   2.586   6.777 -0.2783  0.1014 -0.3778
 8334SOL    HW136461   3.846   2.648   6.712  1.2399 -1.9364 -1.5788
 8334SOL    HW236462   3.870   2.511   6.757 -1.6394 -1.3949  1.3158
 8335SOL     OW36463   4.663   3.799  12.827 -0.2877 -0.0961  0.4035
 8335SOL    HW136464   4.686   3.706  12.822  1.5478  0.4191 -0.8432
 8335SOL    HW236465   4.724   3.828  12.759 -0.1556 -0.8057  0.2142
 8336SOL     OW36466   2.609   3.573   6.006 -0.5202 -0.3711  0.9415
 8336SOL    HW136467   2.650   3.659   6.005 -0.5417 -0.3716 -0.5399
 8336SOL    HW236468   2.635   3.547   6.094  0.4584 -2.6601 -0.0064
 8337SOL     OW36469   4.276   4.439  10.327  0.9711 -0.3293  0.2915
 8337SOL    HW136470   4.229   4.357  10.340  0.7545 -0.0897  1.0297
 8337SOL    HW236471   4.314   4.438  10.239 -0.5409 -0.9252 -0.3575
 8338SOL     OW36472   2.237   1.977   7.191 -0.0166 -0.0787 -0.3517
 8338SOL    HW136473   2.213   1.927   7.113 -2.5863 -0.4448  0.6590
 8338SOL    HW236474   2.324   1.941   7.207 -0.4334 -0.6218  0.7513
 8339SOL     OW36475   3.468   3.016   6.839  0.2554  0.3039  0.3342
 8339SOL    HW136476   3.469   2.959   6.917 -1.4322 -1.6225 -1.0437
 8339SOL    HW236477   3.393   3.071   6.860 -0.7862 -0.6395 -0.9521
 8340SOL     OW36478   4.197   1.812  12.398  0.3068 -0.0448 -0.4365
 8340SOL    HW136479   4.149   1.811  12.480  4.1340  1.2433  1.8192
 8340SOL    HW236480   4.159   1.739  12.349  0.0554 -0.9897  1.1880
 8341SOL     OW36481   1.123   0.706   9.976  0.2690 -0.4355  0.5352
 8341SOL    HW136482   1.209   0.672   9.953  0.5914 -0.0193  1.1111
 8341SOL    HW236483   1.126   0.736  10.067 -0.2666  0.4450  0.2590
 8342SOL     OW36484   4.158   2.762   2.270 -0.0152  0.5582 -0.2226
 8342SOL    HW136485   4.077   2.776   2.318  0.5933 -1.8084  1.4580
 8342SOL    HW236486   4.125   2.771   2.180  0.8396  1.2107 -0.4680
 8343SOL     OW36487   1.876   3.134  11.467  0.2307 -0.0529 -0.8889
 8343SOL    HW136488   1.809   3.165  11.528 -0.0500  1.0543 -1.7602
 8343SOL    HW236489   1.890   3.218  11.424 -1.2348 -0.0682 -1.4014
 8344SOL     OW36490   2.275   3.100   1.858 -0.3186 -0.5835 -0.2043
 8344SOL    HW136491   2.341   3.033   1.874 -0.4712 -0.5762  0.4645
 8344SOL    HW236492   2.238   3.078   1.772 -1.0627  0.0447 -0.0465
 8345SOL     OW36493   2.349   1.309   4.552  0.0585 -0.2296 -0.6967
 8345SOL    HW136494   2.337   1.306   4.647 -0.6393 -1.4317 -0.8258
 8345SOL    HW236495   2.432   1.355   4.546  0.4413 -0.8174 -0.0048
 8346SOL     OW36496   0.611   1.846   3.019 -0.2981 -0.4131 -0.1612
 8346SOL    HW136497   0.557   1.914   3.060  0.1534 -0.2213  0.1126
 8346SOL    HW236498   0.551   1.805   2.957 -0.3735 -2.7908  1.4827
 8347SOL     OW36499   1.028   2.951  13.326  0.7172  0.3265  0.2962
 8347SOL    HW136500   0.959   3.012  13.350 -0.3735 -0.6373 -0.3925
 8347SOL    HW236501   1.023   2.956  13.231 -0.3210 -0.9792  0.2750
 8348SOL     OW36502   3.667   1.964   8.540 -0.0729  0.0687  0.2779
 8348SOL    HW136503   3.656   2.058   8.558 -0.6632 -0.1278  0.9287
 8348SOL    HW236504   3.762   1.959   8.533 -0.4611 -3.7812 -2.3020
 8349SOL     OW36505   3.140   3.884   4.069  0.1903  0.0531  0.2539
 8349SOL    HW136506   3.072   3.931   4.021  1.0531 -0.3005 -1.3102
 8349SOL    HW236507   3.218   3.917   4.024 -0.7426  1.6361 -0.1899
 8350SOL     OW36508   0.946   1.684   8.807  0.6630 -0.2650  1.0028
 8350SOL    HW136509   0.927   1.728   8.724 -0.0412 -0.9837  0.7840
 8350SOL    HW236510   0.867   1.632   8.822 -1.5663  3.0230  0.6768
 8351SOL     OW36511   2.661   1.559  13.879  0.4521  0.0889  0.3127
 8351SOL    HW136512   2.653   1.476  13.832 -1.2429 -0.0716  0.8837
 8351SOL    HW236513   2.744   1.595  13.847 -0.0202 -1.0609 -2.2097
 8352SOL     OW36514   0.614   1.267   4.056  0.1507  0.4138  0.0905
 8352SOL    HW136515   0.531   1.220   4.061 -0.6962  1.6917 -1.7636
 8352SOL    HW236516   0.589   1.300   3.969  1.9445 -0.0823 -0.6292
 8353SOL     OW36517   0.066   4.097   0.804 -0.1282 -0.5779  0.8476
 8353SOL    HW136518   0.047   4.004   0.811  4.6747 -1.3791  3.1868
 8353SOL    HW236519   0.135   4.114   0.867 -0.4115  1.7160  0.5366
 8354SOL     OW36520   3.495   0.740   6.199  0.2098  0.1889  0.5187
 8354SOL    HW136521   3.506   0.802   6.271 -0.6981  0.4130  0.4633
 8354SOL    HW236522   3.459   0.664   6.244 -2.4886  1.4922  0.6012
 8355SOL     OW36523   2.748   1.545   0.193 -0.0330 -0.2226  0.3902
 8355SOL    HW136524   2.715   1.503   0.113  3.2234  0.9436 -1.5327
 8355SOL    HW236525   2.841   1.534   0.174 -0.4547  0.1661 -1.8839
 8356SOL     OW36526   3.977   2.754   6.137 -0.4422 -0.0386  0.3412
 8356SOL    HW136527   4.017   2.841   6.140 -1.4692  0.4355  0.2362
 8356SOL    HW236528   4.020   2.723   6.217 -2.4405 -2.8005  0.3618
 8357SOL     OW36529   0.972   3.229   6.229 -0.1025 -0.2973  0.1295
 8357SOL    HW136530   0.967   3.231   6.134 -1.1657 -1.3094  0.1611
 8357SOL    HW236531   0.879   3.221   6.249 -0.5307 -2.5303 -2.7981
 8358SOL     OW36532   3.261   3.783   1.964  0.5777 -0.2857  0.2950
 8358SOL    HW136533   3.195   3.847   1.939  2.1821 -0.7985 -5.2826
 8358SOL    HW236534   3.205   3.706   1.973 -0.5430  0.4081 -0.8218
 8359SOL     OW36535   0.296   1.035   8.693  0.3804 -0.0189  0.8550
 8359SOL    HW136536   0.308   1.123   8.657 -0.0572  0.0554  0.8852
 8359SOL    HW236537   0.202   1.045   8.709  0.2205  0.3512 -0.3572
 8360SOL     OW36538   1.071   2.381  16.717  0.7632 -0.2991  0.2595
 8360SOL    HW136539   1.132   2.330  16.770  0.1319 -0.9425  0.3607
 8360SOL    HW236540   1.125   2.393  16.639  1.0413  0.2244  0.5360
 8361SOL     OW36541   4.258   1.596   2.699 -0.0291 -0.7139 -0.5910
 8361SOL    HW136542   4.235   1.688   2.686  1.3234  0.1453  3.0475
 8361SOL    HW236543   4.182   1.552   2.662  0.3425 -0.1572 -2.0295
 8362SOL     OW36544   1.112   0.593   4.498 -0.1980  0.1748  0.4615
 8362SOL    HW136545   1.056   0.649   4.443 -0.9739 -1.0606  0.0047
 8362SOL    HW236546   1.113   0.662   4.565  2.2148 -1.0858  1.7056
 8363SOL     OW36547   1.049   4.338  12.165 -0.1165  0.0301  0.2757
 8363SOL    HW136548   0.971   4.365  12.212 -1.5829  0.2675 -2.2969
 8363SOL    HW236549   1.101   4.417  12.175  0.3526 -0.1709 -0.6286
 8364SOL     OW36550   4.385   3.546   8.374 -0.0532 -0.2705  0.1911
 8364SOL    HW136551   4.356   3.461   8.341  1.5409 -1.4344  1.8043
 8364SOL    HW236552   4.367   3.609   8.304  0.8177  0.3973  0.5664
 8365SOL     OW36553   1.749   3.785   5.888  0.4980 -0.8468 -0.1748
 8365SOL    HW136554   1.800   3.848   5.940 -1.7866 -0.8520  2.0963
 8365SOL    HW236555   1.666   3.785   5.936 -0.8626 -1.0223 -2.5743
 8366SOL     OW36556   0.452   0.802   0.109  0.1204 -0.0501 -0.3923
 8366SOL    HW136557   0.385   0.764   0.053  0.6888 -0.6646 -0.6578
 8366SOL    HW236558   0.414   0.828   0.193  1.7235  2.3193 -0.4088
 8367SOL     OW36559   0.850   4.375  12.589  0.1537  0.0600  0.0365
 8367SOL    HW136560   0.778   4.337  12.639  0.7179 -0.0659  0.7452
 8367SOL    HW236561   0.908   4.299  12.589 -1.3893 -1.1301  2.1454
 8368SOL     OW36562   1.712   3.598  10.043 -0.1151 -0.2294 -0.5866
 8368SOL    HW136563   1.713   3.544  10.122  0.8279 -0.0071 -0.4408
 8368SOL    HW236564   1.681   3.681  10.079  0.1374 -0.6808  0.6535
 8369SOL     OW36565   1.541   2.081  14.356 -0.7753  0.0245 -0.4521
 8369SOL    HW136566   1.620   2.064  14.408 -1.2445  1.4544  0.7121
 8369SOL    HW236567   1.507   2.154  14.407  0.4967  0.8545 -0.7883
 8370SOL     OW36568   3.249   1.187   8.781  0.1020  0.0132  0.0314
 8370SOL    HW136569   3.205   1.252   8.835  2.1401  0.8203  0.7224
 8370SOL    HW236570   3.195   1.112   8.805 -1.9257  2.1327  2.0253
 8371SOL     OW36571   1.235   4.005   7.788 -0.7335 -0.1580 -0.0383
 8371SOL    HW136572   1.325   4.008   7.755 -0.4471 -0.6486  0.7072
 8371SOL    HW236573   1.197   4.090   7.765  2.2002  1.2288  0.1672
 8372SOL     OW36574   0.302   3.011   2.516 -0.0393 -0.1310  0.2512
 8372SOL    HW136575   0.257   3.007   2.600 -2.2864 -3.0538 -1.0690
 8372SOL    HW236576   0.351   2.929   2.514  0.1783  0.0447 -2.2825
 8373SOL     OW36577   0.246   4.400   4.265  0.1358  0.3760  0.4526
 8373SOL    HW136578   0.269   4.482   4.221  0.3992  0.9051  1.5840
 8373SOL    HW236579   0.284   4.330   4.211 -1.6759  0.6242 -1.1537
 8374SOL     OW36580   1.336   0.283  11.027 -0.3901 -0.4865 -0.3936
 8374SOL    HW136581   1.397   0.210  11.033  2.5359  1.9626 -0.4375
 8374SOL    HW236582   1.277   0.247  10.960 -0.6233  1.6457 -1.3495
 8375SOL     OW36583   0.810   1.653   5.600 -0.0987 -0.2659  0.3424
 8375SOL    HW136584   0.829   1.706   5.523  3.6418 -0.8270  0.8417
 8375SOL    HW236585   0.770   1.576   5.559  1.4301 -0.6415 -0.4752
 8376SOL     OW36586   1.890   3.794   3.117  0.0219 -0.3531 -0.0751
 8376SOL    HW136587   1.871   3.703   3.093  0.0369 -0.1148 -0.9768
 8376SOL    HW236588   1.903   3.794   3.212  1.1411  0.8257 -0.2254
 8377SOL     OW36589   2.298   0.347   4.119 -0.2346  0.5924 -0.3001
 8377SOL    HW136590   2.297   0.320   4.211  0.2918  0.8754 -0.2099
 8377SOL    HW236591   2.249   0.270   4.089 -0.9384  1.1287 -0.4963
 8378SOL     OW36592   0.625   4.555   8.355  0.4938 -0.5738  0.1580
 8378SOL    HW136593   0.579   4.590   8.430  0.3733 -1.4472  0.4947
 8378SOL    HW236594   0.701   4.519   8.401  0.2516 -4.7191 -2.6980
 8379SOL     OW36595   1.427   3.277  14.107 -0.0001 -0.2569 -0.1268
 8379SOL    HW136596   1.415   3.336  14.182  0.2379  0.3636 -0.5725
 8379SOL    HW236597   1.393   3.197  14.147 -1.3166  0.6568  0.5885
 8380SOL     OW36598   3.802   1.833   3.733  0.0935 -0.7555 -0.1042
 8380SOL    HW136599   3.804   1.763   3.798 -0.4865 -0.0995  0.6111
 8380SOL    HW236600   3.833   1.909   3.781  1.8939 -2.4486  1.4547
 8381SOL     OW36601   0.907   2.569   9.565  0.2811  0.4229 -0.4799
 8381SOL    HW136602   0.973   2.630   9.533  0.9654  0.5062  1.0613
 8381SOL    HW236603   0.970   2.510   9.606 -1.1301 -0.4427  0.4700
 8382SOL     OW36604   1.508   0.618   9.476  0.1696 -0.3016 -0.1575
 8382SOL    HW136605   1.442   0.648   9.414 -0.3260 -2.8347 -0.8712
 8382SOL    HW236606   1.587   0.616   9.423 -0.1643  1.2007 -0.7074
 8383SOL     OW36607   1.297   0.674   7.222 -0.5186  0.0361  0.4738
 8383SOL    HW136608   1.280   0.742   7.286 -0.9957 -0.1332  0.5275
 8383SOL    HW236609   1.214   0.627   7.208  0.7686 -1.7729 -1.1180
 8384SOL     OW36610   3.534   3.854   6.320 -0.3203 -0.4020  0.5111
 8384SOL    HW136611   3.580   3.773   6.301  2.6121  1.2763  0.4775
 8384SOL    HW236612   3.473   3.825   6.388 -0.4446  0.1420  0.6374
 8385SOL     OW36613   0.780   3.381   3.750  0.1217 -0.2080  0.4384
 8385SOL    HW136614   0.813   3.326   3.678  1.6480  2.8295 -1.2075
 8385SOL    HW236615   0.860   3.399   3.799 -1.7615 -0.2544  3.4997
 8386SOL     OW36616   0.687   0.631  12.386 -0.5145  0.4495  0.0186
 8386SOL    HW136617   0.631   0.709  12.385 -1.3777 -0.1764  0.3004
 8386SOL    HW236618   0.633   0.556  12.410  1.0215  0.3152  3.0396
 8387SOL     OW36619   4.506   3.432   6.446 -0.3926 -0.1770  0.3659
 8387SOL    HW136620   4.478   3.363   6.505 -0.5773  0.1549  0.6658
 8387SOL    HW236621   4.594   3.446   6.479  0.1852 -1.5699 -0.5828
 8388SOL     OW36622   1.335   4.188   4.808  0.3466 -0.2824 -0.5777
 8388SOL    HW136623   1.306   4.166   4.896 -0.0604  1.7179 -0.2152
 8388SOL    HW236624   1.403   4.253   4.824 -0.1805  0.5348 -1.6429
 8389SOL     OW36625   2.297   0.868   1.824 -0.0119 -0.4504 -0.3027
 8389SOL    HW136626   2.375   0.900   1.778 -0.0616  2.3382  1.5771
 8389SOL    HW236627   2.305   0.773   1.819 -2.4381 -0.6696  0.0610
 8390SOL     OW36628   4.199   1.701   0.299  0.2137  0.1137 -0.4125
 8390SOL    HW136629   4.183   1.759   0.373 -0.5959 -0.6450 -0.0021
 8390SOL    HW236630   4.174   1.617   0.337 -0.6143 -1.1219 -3.6997
 8391SOL     OW36631   4.033   1.239  11.100 -0.0354  0.5503 -0.3152
 8391SOL    HW136632   4.025   1.308  11.034  4.6728  0.2025 -1.2084
 8391SOL    HW236633   4.076   1.291  11.168  1.5188 -1.9652  0.6036
 8392SOL     OW36634   0.659   2.615   4.025  0.0060  0.0189 -0.2363
 8392SOL    HW136635   0.704   2.530   4.024  1.3096  0.6896  1.5112
 8392SOL    HW236636   0.577   2.590   3.982 -0.4936 -0.5579  1.0422
 8393SOL     OW36637   4.359   0.656  13.228  0.2352  1.0739 -0.2920
 8393SOL    HW136638   4.407   0.734  13.199  0.0439  1.2988 -0.0171
 8393SOL    HW236639   4.309   0.629  13.151 -1.4117  1.4998  0.6227
 8394SOL     OW36640   0.036   1.003   2.706 -0.1463  0.4631  0.9807
 8394SOL    HW136641   0.046   1.034   2.796  0.7835 -0.0203  1.0417
 8394SOL    HW236642   0.044   1.082   2.653 -1.9652 -0.6043 -0.8981
 8395SOL     OW36643   4.281   2.551  14.179  0.3002 -0.1942 -0.3221
 8395SOL    HW136644   4.291   2.645  14.190  2.0140 -0.4626  0.4013
 8395SOL    HW236645   4.370   2.517  14.185 -1.1797 -4.0796  0.0625
 8396SOL     OW36646   0.645   3.006   4.285 -0.5977  0.1558 -0.5143
 8396SOL    HW136647   0.630   2.916   4.313  0.0143 -0.2151 -1.3740
 8396SOL    HW236648   0.614   3.051   4.364 -2.9149  1.5172 -2.2157
 8397SOL     OW36649   1.549   4.151   0.672  0.2316  0.7733 -0.4006
 8397SOL    HW136650   1.540   4.176   0.764  0.6362  0.5851 -0.3076
 8397SOL    HW236651   1.630   4.200   0.657  1.8129 -0.9535  2.3475
 8398SOL     OW36652   0.181   0.380   9.195  0.0660  0.9032  0.0754
 8398SOL    HW136653   0.163   0.460   9.244 -5.2521 -1.0257  1.3308
 8398SOL    HW236654   0.121   0.390   9.120 -1.6804 -0.2797  1.3188
 8399SOL     OW36655   1.126   1.643   7.767  0.2321  0.2287 -0.4296
 8399SOL    HW136656   1.113   1.597   7.684 -0.7813 -0.8287  0.3101
 8399SOL    HW236657   1.041   1.688   7.771  0.1368  0.0559 -0.5174
 8400SOL     OW36658   2.975   1.578   5.920  0.6407  0.5731 -0.1245
 8400SOL    HW136659   2.955   1.519   5.993  1.1685  1.6048  0.8620
 8400SOL    HW236660   2.894   1.629   5.913  0.7262  0.7987  0.5065
 8401SOL     OW36661   1.158   1.336   5.148 -0.3027  0.8304  0.0306
 8401SOL    HW136662   1.148   1.412   5.090  0.1930  0.3531 -0.6744
 8401SOL    HW236663   1.246   1.303   5.131 -0.2257  0.1797  1.6950
 8402SOL     OW36664   1.540   2.990   5.679 -0.3206  0.7335 -0.6211
 8402SOL    HW136665   1.534   3.062   5.617 -2.1966  0.0757 -1.2035
 8402SOL    HW236666   1.489   3.025   5.752 -1.2971  1.6552 -1.7462
 8403SOL     OW36667   2.017   4.132  11.276  0.7107  0.3236  0.3962
 8403SOL    HW136668   1.930   4.104  11.246  1.3951 -1.2393 -0.1141
 8403SOL    HW236669   2.027   4.210  11.220  0.6445  0.8514  1.1206
 8404SOL     OW36670   4.333   4.210  11.325 -0.4677 -0.1483 -0.1092
 8404SOL    HW136671   4.336   4.292  11.276 -2.7328  0.4814  0.8135
 8404SOL    HW236672   4.268   4.155  11.281  0.2375 -0.4733 -0.7430
 8405SOL     OW36673   2.551   4.596  15.471 -0.0930 -0.2055 -0.1279
 8405SOL    HW136674   2.645   4.583  15.464 -0.1000  0.1844 -0.9241
 8405SOL    HW236675   2.537   4.687  15.445 -0.1125 -0.2494 -0.2698
 8406SOL     OW36676   3.737   1.501   6.388  0.1694  1.2336  0.4641
 8406SOL    HW136677   3.817   1.540   6.354  0.9792 -1.2978 -0.5190
 8406SOL    HW236678   3.687   1.507   6.307  0.5186 -3.4912 -0.1006
 8407SOL     OW36679   3.645   2.233  12.904 -0.2051 -0.2252 -0.5598
 8407SOL    HW136680   3.691   2.314  12.928 -1.5006 -0.6457  3.4332
 8407SOL    HW236681   3.566   2.242  12.957 -0.9696  1.0660 -1.9409
 8408SOL     OW36682   3.691   2.060   2.834 -0.9860 -0.2072 -0.2225
 8408SOL    HW136683   3.689   2.024   2.923  1.9408  0.7039  0.1933
 8408SOL    HW236684   3.780   2.033   2.812 -1.9964 -2.7857 -1.1071
 8409SOL     OW36685   0.034   1.277   5.519 -0.2261 -0.1349  0.2019
 8409SOL    HW136686   4.705   1.288   5.597 -1.4290 -1.6241 -0.4282
 8409SOL    HW236687   0.120   1.288   5.559 -0.1790 -1.7314  0.5302
 8410SOL     OW36688   1.310   3.491   4.287  1.0148 -0.2627 -0.0962
 8410SOL    HW136689   1.268   3.422   4.234 -0.0976  1.9485 -2.1213
 8410SOL    HW236690   1.367   3.443   4.347  0.6324  1.1295  1.3657
 8411SOL     OW36691   2.280   2.534   1.753  0.0847  0.3839  0.4346
 8411SOL    HW136692   2.316   2.514   1.666 -0.9885  0.6684 -0.0809
 8411SOL    HW236693   2.209   2.593   1.725 -1.7124 -0.2980  3.5875
 8412SOL     OW36694   2.392   0.693   3.045  0.0617 -0.0636 -0.1593
 8412SOL    HW136695   2.424   0.604   3.037  0.5450  0.0554  0.3860
 8412SOL    HW236696   2.431   0.723   3.127 -0.3886 -0.0813  0.0622
 8413SOL     OW36697   3.248   3.379   7.718 -0.2626  0.1039 -0.2900
 8413SOL    HW136698   3.238   3.312   7.650 -0.8333  1.2481 -1.3212
 8413SOL    HW236699   3.269   3.462   7.676 -0.0282 -0.2746 -0.9167
 8414SOL     OW36700   0.435   3.848   7.966 -0.0090  0.7436  0.2014
 8414SOL    HW136701   0.435   3.890   7.880  0.8376  0.9957  0.3219
 8414SOL    HW236702   0.468   3.915   8.026 -0.7231 -1.3285  2.9084
 8415SOL     OW36703   2.568   1.602  10.904  0.2582 -0.3169  0.4814
 8415SOL    HW136704   2.608   1.658  10.838  0.1730 -0.7688  0.0381
 8415SOL    HW236705   2.639   1.538  10.913  0.6192  0.0490  0.2068
 8416SOL     OW36706   0.089   1.641   4.259  0.0138  0.2581 -0.4389
 8416SOL    HW136707   0.081   1.697   4.336  3.2426 -0.8252  0.7233
 8416SOL    HW236708   0.175   1.601   4.275 -0.7772 -1.8459 -1.3900
 8417SOL     OW36709   0.849   3.552   9.405  0.4400  0.5396  0.2119
 8417SOL    HW136710   0.937   3.546   9.440  0.2379  2.2922  1.0195
 8417SOL    HW236711   0.869   3.555   9.312 -3.5069  1.3355 -0.6165
 8418SOL     OW36712   3.415   3.180   2.020  0.2268 -0.2311 -0.0861
 8418SOL    HW136713   3.498   3.222   1.995  1.3928  0.8356  5.6015
 8418SOL    HW236714   3.448   3.136   2.098 -0.0070  0.2015  0.2585
 8419SOL     OW36715   2.263   0.934   8.705 -1.1931 -0.3839  0.8821
 8419SOL    HW136716   2.285   0.841   8.704  0.3874 -0.0110 -0.4237
 8419SOL    HW236717   2.297   0.966   8.788 -0.5452  1.7180 -0.1856
 8420SOL     OW36718   3.121   4.338   8.232  0.1408  0.3736  0.8108
 8420SOL    HW136719   3.086   4.272   8.173 -0.2811 -0.3446  1.8635
 8420SOL    HW236720   3.213   4.312   8.237  0.2738  0.6544 -0.3288
 8421SOL     OW36721   1.617   0.141   7.741 -0.6881  0.2225 -0.4190
 8421SOL    HW136722   1.557   0.072   7.715 -1.3321 -0.2244  2.3154
 8421SOL    HW236723   1.629   0.192   7.660  0.1432  0.8275  0.0825
 8422SOL     OW36724   2.246   1.867   3.550  0.0827 -0.1191 -0.0287
 8422SOL    HW136725   2.195   1.945   3.572  1.2013  1.1943 -2.0956
 8422SOL    HW236726   2.181   1.799   3.538  0.0025  0.1386 -1.0670
 8423SOL     OW36727   3.425   1.953  17.160  0.2357 -0.0027  0.4944
 8423SOL    HW136728   3.412   2.010  17.084  0.7066  1.0211  1.1847
 8423SOL    HW236729   3.487   1.887  17.129 -0.7764 -0.2104 -1.1314
 8424SOL     OW36730   2.751   1.372   1.836 -0.6452 -0.4475  0.1917
 8424SOL    HW136731   2.836   1.340   1.869 -0.4415 -1.6072 -1.4476
 8424SOL    HW236732   2.770   1.463   1.814  0.6639 -1.2379 -1.9290
 8425SOL     OW36733   2.650   2.735   4.073 -0.3972  0.0830  0.0661
 8425SOL    HW136734   2.732   2.774   4.042 -0.6082 -0.0933 -0.7080
 8425SOL    HW236735   2.598   2.790   4.014  0.7136 -0.2696 -1.2397
 8426SOL     OW36736   2.457   4.325  16.050 -0.1647  1.1221 -0.0401
 8426SOL    HW136737   2.473   4.254  15.988  1.9009  1.2975  0.2719
 8426SOL    HW236738   2.368   4.349  16.027  0.2349  3.3413  0.7124
 8427SOL     OW36739   2.892   1.650   9.343  0.1441  0.5184  0.3065
 8427SOL    HW136740   2.825   1.583   9.357  0.7038 -0.5780 -2.2975
 8427SOL    HW236741   2.880   1.707   9.419  2.2606 -1.0250  1.8008
 8428SOL     OW36742   4.504   2.280   2.783  0.7585  0.4639  0.4596
 8428SOL    HW136743   4.446   2.294   2.858  0.3007  1.2839 -0.0528
 8428SOL    HW236744   4.462   2.208   2.737  0.5160  1.4512 -0.8481
 8429SOL     OW36745   0.793   2.007   8.407 -0.4875 -0.0929 -0.3816
 8429SOL    HW136746   0.742   1.927   8.400  0.1920 -0.5698  0.0790
 8429SOL    HW236747   0.871   1.998   8.351  0.8443 -1.8278  1.7382
 8430SOL     OW36748   4.310   1.395   2.016 -0.2637 -0.3099  0.4103
 8430SOL    HW136749   4.229   1.441   2.036 -0.9911 -0.8069 -1.4146
 8430SOL    HW236750   4.284   1.302   2.013 -1.3218 -0.0019  0.1072
 8431SOL     OW36751   3.941   3.483  16.198 -0.1248 -0.0196 -0.3242
 8431SOL    HW136752   4.025   3.503  16.239 -2.2818  0.2756  3.9934
 8431SOL    HW236753   3.882   3.478  16.274  3.0422 -1.4099  2.0774
 8432SOL     OW36754   2.143   4.317   0.696 -0.1936  0.3708 -0.1333
 8432SOL    HW136755   2.097   4.283   0.773  0.5036  1.1850  0.6576
 8432SOL    HW236756   2.225   4.343   0.739  1.1115 -1.8564 -1.2964
 8433SOL     OW36757   3.752   1.850   6.098  0.7968  0.0646  1.1702
 8433SOL    HW136758   3.760   1.865   6.193  0.2692  0.0777  1.2175
 8433SOL    HW236759   3.658   1.852   6.078  1.2549  1.9457 -0.7133
 8434SOL     OW36760   3.856   0.142  13.986  0.0699 -0.2096  0.0055
 8434SOL    HW136761   3.771   0.098  13.990 -1.0974  1.9940 -0.6476
 8434SOL    HW236762   3.871   0.174  13.897  1.8202  1.6160  0.9545
 8435SOL     OW36763   3.478   1.519   3.193  0.2477  0.1145  0.1551
 8435SOL    HW136764   3.507   1.579   3.124 -1.1595  1.2553  0.5727
 8435SOL    HW236765   3.510   1.435   3.159  0.4496 -0.7181  2.4349
 8436SOL     OW36766   2.742   1.173   5.114  0.3706  0.4425  0.2848
 8436SOL    HW136767   2.736   1.205   5.204 -0.3156  0.8267  0.1041
 8436SOL    HW236768   2.810   1.105   5.116  0.5259  0.5610 -1.6862
 8437SOL     OW36769   0.547   3.240  14.623 -0.1574  0.3518  0.4909
 8437SOL    HW136770   0.525   3.208  14.535  2.1056 -4.5012  1.7028
 8437SOL    HW236771   0.636   3.270  14.607 -0.2430  0.0671 -0.5872
 8438SOL     OW36772   1.034   0.486   7.990  0.5021  0.3970 -0.1971
 8438SOL    HW136773   0.967   0.447   7.934  1.4509  0.2727 -1.2403
 8438SOL    HW236774   0.981   0.464   8.067 -0.1969 -0.8553 -1.0332
 8439SOL     OW36775   2.626   4.017   4.111 -0.4530 -0.3037  0.0139
 8439SOL    HW136776   2.595   4.076   4.180  0.0404  1.1696 -1.0353
 8439SOL    HW236777   2.544   3.998   4.065  0.9811 -0.8264 -2.3383
 8440SOL     OW36778   2.493   3.021   4.449  0.2259  0.2640 -0.7379
 8440SOL    HW136779   2.583   3.017   4.416  1.1797  0.6514  1.7535
 8440SOL    HW236780   2.445   3.026   4.367 -0.0212 -1.7217 -0.7358
 8441SOL     OW36781   2.871   2.110   3.357 -0.0130  0.0619 -0.1739
 8441SOL    HW136782   2.925   2.174   3.311 -1.1981  0.7890 -0.5536
 8441SOL    HW236783   2.816   2.076   3.287  1.1001 -2.4178  0.1606
 8442SOL     OW36784   3.993   2.981   7.201 -0.0688 -0.6991 -0.3202
 8442SOL    HW136785   4.073   2.977   7.253 -0.4648  1.0775  0.3906
 8442SOL    HW236786   3.951   3.058   7.239  0.1327 -0.9956  0.5122
 8443SOL     OW36787   1.168   2.969   9.316  0.2346 -0.3232 -0.0294
 8443SOL    HW136788   1.111   2.938   9.246 -2.3904  1.2625  1.4107
 8443SOL    HW236789   1.121   3.042   9.357 -0.9737 -0.7349 -0.6635
 8444SOL     OW36790   3.006   3.333   3.446 -0.6611 -0.2134  0.7002
 8444SOL    HW136791   3.006   3.413   3.393 -1.8316 -0.5326  0.2086
 8444SOL    HW236792   2.936   3.348   3.510  0.2868  4.1123  0.7238
 8445SOL     OW36793   1.363   3.826   6.334 -0.0271  0.6294  0.1842
 8445SOL    HW136794   1.405   3.912   6.336  0.9279  0.2105 -1.8038
 8445SOL    HW236795   1.438   3.777   6.369  0.9238  1.7295 -0.3177
 8446SOL     OW36796   0.625   0.792   8.348  0.1428  0.2325  0.5176
 8446SOL    HW136797   0.712   0.806   8.383 -0.2623  2.7368  0.4878
 8446SOL    HW236798   0.604   0.709   8.391 -1.4816  0.8119  0.8583
 8447SOL     OW36799   1.386   3.956   4.662  0.2584 -0.2725 -0.0198
 8447SOL    HW136800   1.384   4.044   4.700  0.3917  1.0466 -3.0903
 8447SOL    HW236801   1.465   3.955   4.607  0.3414  1.3345  0.0750
 8448SOL     OW36802   3.229   1.812   2.023 -1.1132 -0.0258 -0.1668
 8448SOL    HW136803   3.163   1.882   2.025 -0.2950  0.7523  0.1947
 8448SOL    HW236804   3.229   1.780   1.933 -1.5647 -1.1029  0.2303
 8449SOL     OW36805   4.317   4.692  13.955  0.1912  0.2783 -0.7263
 8449SOL    HW136806   4.323   0.041  14.016  0.8598 -0.4929  0.1624
 8449SOL    HW236807   4.376   4.633  14.002  2.0771  1.5378 -1.4944
 8450SOL     OW36808   2.575   1.836   3.860 -0.1612 -0.6037 -0.6748
 8450SOL    HW136809   2.579   1.930   3.875 -0.3028 -0.6651 -0.2609
 8450SOL    HW236810   2.666   1.815   3.879 -0.4530 -2.1514 -0.9504
 8451SOL     OW36811   1.177   2.607   6.453  0.3735  0.1123 -0.5772
 8451SOL    HW136812   1.107   2.658   6.412  0.4172  0.7993  0.2130
 8451SOL    HW236813   1.249   2.664   6.426 -0.4945  1.3949 -0.1987
 8452SOL     OW36814   2.441   0.236   8.100 -0.0402 -0.0131  0.3930
 8452SOL    HW136815   2.522   0.284   8.081 -2.6320  4.0692 -0.3229
 8452SOL    HW236816   2.379   0.276   8.039 -1.7807 -1.9463  0.9068
 8453SOL     OW36817   1.574   3.790   9.113  0.4503  0.0367 -0.0658
 8453SOL    HW136818   1.498   3.775   9.170 -0.3208  3.7705 -0.0983
 8453SOL    HW236819   1.638   3.825   9.175 -0.9732  1.1602  0.7995
 8454SOL     OW36820   1.841   4.545  17.119 -0.3491 -0.4235  0.2351
 8454SOL    HW136821   1.749   4.521  17.127 -0.5424  0.1130 -0.3280
 8454SOL    HW236822   1.855   4.530  17.025  0.7259  2.0778 -0.0063
 8455SOL     OW36823   0.020   1.005   8.772  0.0556  0.1180  0.7361
 8455SOL    HW136824   4.656   1.036   8.761  0.1383 -1.0676 -3.0065
 8455SOL    HW236825   0.026   1.016   8.867 -1.9960  0.7971  0.7878
 8456SOL     OW36826   4.229   3.352  11.042 -0.4012 -0.1645 -0.1040
 8456SOL    HW136827   4.286   3.362  11.118 -2.2015 -1.3133  1.4299
 8456SOL    HW236828   4.294   3.349  10.972 -0.5666 -0.1646 -0.2593
 8457SOL     OW36829   4.193   3.403   3.291  0.5171 -0.2969  0.2660
 8457SOL    HW136830   4.112   3.453   3.278  1.4301  1.1848  0.3074
 8457SOL    HW236831   4.242   3.440   3.218  0.6908 -0.2029  0.4320
 8458SOL     OW36832   0.879   4.533  12.858  0.2707 -0.0654  0.3146
 8458SOL    HW136833   0.913   4.494  12.778  1.6889 -1.9022  1.8100
 8458SOL    HW236834   0.864   4.625  12.839  0.4720 -0.0435  0.2689
 8459SOL     OW36835   0.241   3.661   5.358 -0.5810 -0.0336  0.4803
 8459SOL    HW136836   0.230   3.736   5.416 -0.6359  0.0510  0.3599
 8459SOL    HW236837   0.335   3.666   5.337 -0.7865  0.1661 -0.3883
 8460SOL     OW36838   4.471   3.518   0.752  0.0580  0.5352  0.1684
 8460SOL    HW136839   4.505   3.466   0.679 -1.3762 -1.4184  0.8802
 8460SOL    HW236840   4.526   3.493   0.826 -1.2456  0.4483  1.0940
 8461SOL     OW36841   1.807   4.152   6.730  0.2127  0.2387  0.1139
 8461SOL    HW136842   1.885   4.131   6.782 -1.1589 -3.0717  0.8317
 8461SOL    HW236843   1.753   4.193   6.797  1.2586 -3.0623  3.0265
 8462SOL     OW36844   4.115   2.093   7.218  0.8352 -0.4014  0.8838
 8462SOL    HW136845   4.032   2.139   7.232  0.7295 -0.0804 -0.7718
 8462SOL    HW236846   4.122   2.086   7.123 -0.8882 -1.6122  0.8278
 8463SOL     OW36847   0.477   1.166   3.310  0.1500 -0.4003  0.4423
 8463SOL    HW136848   0.461   1.178   3.216 -0.6222 -1.7462  0.4045
 8463SOL    HW236849   0.563   1.206   3.326  0.5016 -0.5826 -0.9916
 8464SOL     OW36850   0.284   2.639   3.656 -0.7159 -0.6998 -0.4152
 8464SOL    HW136851   0.220   2.673   3.718 -0.0659 -0.8231  0.3201
 8464SOL    HW236852   0.304   2.715   3.602 -1.1336 -1.2362 -1.3306
 8465SOL     OW36853   3.661   2.304  16.979  0.0640 -0.0357  0.1940
 8465SOL    HW136854   3.667   2.214  16.948 -1.2317  0.8275 -2.5767
 8465SOL    HW236855   3.596   2.288  17.047  0.7135  0.5028  0.9347
 8466SOL     OW36856   0.309   1.418   3.913  0.4702 -0.8969 -0.1886
 8466SOL    HW136857   0.263   1.417   3.829  0.7000  2.6994 -0.3687
 8466SOL    HW236858   0.328   1.509   3.937 -0.3546 -0.6988 -0.2753
 8467SOL     OW36859   0.328   1.531   2.463 -0.3936  0.0877 -0.9272
 8467SOL    HW136860   0.395   1.542   2.396 -0.9401 -0.5936 -1.5902
 8467SOL    HW236861   0.258   1.585   2.426 -0.5609 -0.5874 -1.6000
 8468SOL     OW36862   3.558   1.242   9.879 -0.6134 -0.4203 -0.1755
 8468SOL    HW136863   3.519   1.206   9.800  0.2960  0.8161 -1.1901
 8468SOL    HW236864   3.637   1.187   9.884 -0.9605 -0.9168 -0.1920
 8469SOL     OW36865   2.116   2.305  10.036  0.0435  0.0890  0.6316
 8469SOL    HW136866   2.149   2.308   9.947 -1.3790  0.7697  0.1234
 8469SOL    HW236867   2.182   2.339  10.095 -0.7593  1.9586  0.4440
 8470SOL     OW36868   3.650   2.433   7.676  0.4279 -0.1062 -0.5880
 8470SOL    HW136869   3.612   2.367   7.734  0.0128  0.9387  0.3402
 8470SOL    HW236870   3.605   2.512   7.706 -1.8761 -1.0692 -1.4968
 8471SOL     OW36871   3.134   1.760  14.966 -0.4354 -0.1931  0.0243
 8471SOL    HW136872   3.131   1.769  14.871 -1.6976  2.8734  0.3714
 8471SOL    HW236873   3.221   1.720  14.978 -0.4053  0.4756  2.0562
 8472SOL     OW36874   3.660   3.066   3.164 -0.2485  0.4349 -0.0872
 8472SOL    HW136875   3.677   3.068   3.259 -1.3851  1.9923  0.0831
 8472SOL    HW236876   3.634   3.157   3.148 -1.1169 -0.0802 -1.5620
 8473SOL     OW36877   1.173   2.744  12.178 -0.2351  0.1134 -0.0724
 8473SOL    HW136878   1.204   2.692  12.103 -1.6415 -2.7848  1.3552
 8473SOL    HW236879   1.216   2.710  12.256  0.4849 -2.8919 -1.7769
 8474SOL     OW36880   3.283   1.839   5.843 -0.2294  0.4192  0.3817
 8474SOL    HW136881   3.305   1.880   5.759 -0.7056  0.1700  0.1344
 8474SOL    HW236882   3.243   1.761   5.804 -0.5470  1.3662 -1.2096
 8475SOL     OW36883   4.409   2.292   4.891 -0.4754  0.7116  0.3802
 8475SOL    HW136884   4.491   2.244   4.908 -0.9106 -0.9386 -2.3170
 8475SOL    HW236885   4.436   2.311   4.801 -0.7312  1.8959  0.5527
 8476SOL     OW36886   0.371   2.874  17.082  0.0028 -0.1314 -0.2751
 8476SOL    HW136887   0.438   2.893  17.148  0.0944  2.0554 -0.9796
 8476SOL    HW236888   0.418   2.852  17.002 -0.6757 -2.1067 -0.1282
 8477SOL     OW36889   4.221   3.322   6.893 -0.3514 -0.0890  0.1589
 8477SOL    HW136890   4.136   3.296   6.929  0.0110 -1.2063  0.2104
 8477SOL    HW236891   4.235   3.254   6.827 -1.8693 -0.6603  0.4253
 8478SOL     OW36892   1.059   2.826   8.869  0.0245 -0.1849  0.5163
 8478SOL    HW136893   1.050   2.848   8.776  1.6092  0.4959  0.5320
 8478SOL    HW236894   1.154   2.838   8.876  0.1043 -0.1734 -0.6273
 8479SOL     OW36895   2.316   0.607   1.775 -0.0785 -0.0602  0.8272
 8479SOL    HW136896   2.357   0.524   1.752  0.4755  0.4506 -0.0835
 8479SOL    HW236897   2.267   0.588   1.854 -0.9732 -3.0108 -0.4626
 8480SOL     OW36898   3.270   2.738   7.391 -0.6925  0.3188  0.0405
 8480SOL    HW136899   3.295   2.826   7.419 -0.6642  0.2582  0.2029
 8480SOL    HW236900   3.357   2.700   7.399 -0.4347  1.0181  0.5271
 8481SOL     OW36901   4.515   3.787   4.327 -0.5011  0.1310  0.0059
 8481SOL    HW136902   4.474   3.704   4.304  0.5245 -0.4861  0.3993
 8481SOL    HW236903   4.575   3.771   4.401 -0.0567 -0.5269 -0.5001
 8482SOL     OW36904   3.823   0.976   7.879 -0.0155  0.2734 -0.3385
 8482SOL    HW136905   3.861   1.049   7.928  0.4913  0.8380 -1.5816
 8482SOL    HW236906   3.748   0.966   7.937  1.6819 -1.5892  1.5411
 8483SOL     OW36907   0.096   2.303   6.344  0.6425 -0.3483  0.2829
 8483SOL    HW136908   0.054   2.217   6.341  1.3091 -0.6070 -2.2093
 8483SOL    HW236909   0.120   2.307   6.437 -0.4334 -2.3795  0.6695
 8484SOL     OW36910   1.158   2.818  11.171  0.2274 -0.0167  0.3946
 8484SOL    HW136911   1.243   2.836  11.209  0.5786  1.8428 -1.2328
 8484SOL    HW236912   1.119   2.764  11.240 -0.3806 -0.1183 -0.0250
 8485SOL     OW36913   2.509   2.690   9.456 -0.0521 -0.4640 -0.3137
 8485SOL    HW136914   2.503   2.697   9.361 -0.3197 -1.5564 -0.3710
 8485SOL    HW236915   2.455   2.762   9.488  0.8251 -0.4214  1.0853
 8486SOL     OW36916   4.578   0.844   2.611  0.4470  0.4588  0.3094
 8486SOL    HW136917   4.593   0.854   2.517 -1.7318  3.2591  0.2451
 8486SOL    HW236918   4.643   0.905   2.647 -1.8412  0.8016  3.9073
 8487SOL     OW36919   2.128   2.562  11.392 -0.0519 -0.7096  0.1748
 8487SOL    HW136920   2.048   2.540  11.438  0.3285  0.4444  1.3738
 8487SOL    HW236921   2.170   2.477  11.377 -1.8718 -1.6981  0.7773
 8488SOL     OW36922   2.997   2.167   2.703 -0.4012 -0.5330  0.8068
 8488SOL    HW136923   2.931   2.191   2.768  1.2733  0.7648  2.0194
 8488SOL    HW236924   3.048   2.248   2.708 -0.8069 -0.3792  2.4549
 8489SOL     OW36925   3.629   4.091   8.411 -0.1903  0.1129  0.0694
 8489SOL    HW136926   3.537   4.083   8.436  0.1684 -3.0166  0.3722
 8489SOL    HW236927   3.640   4.067   8.319 -0.3371  0.0917  0.0577
 8490SOL     OW36928   2.139   3.877  13.115 -0.3553 -0.2525  0.5548
 8490SOL    HW136929   2.195   3.876  13.193 -0.6952  0.7969  0.8178
 8490SOL    HW236930   2.049   3.896  13.144 -0.5815 -1.7712  0.8718
 8491SOL     OW36931   3.906   4.268   5.863  0.3359 -0.3061 -0.7854
 8491SOL    HW136932   3.813   4.264   5.887  0.4239 -0.5902 -0.4935
 8491SOL    HW236933   3.908   4.209   5.788  2.2285 -1.2604  0.0276
 8492SOL     OW36934   3.766   3.141   2.657 -0.3582 -0.0048  0.2864
 8492SOL    HW136935   3.691   3.085   2.680  0.1807  0.0543  2.1618
 8492SOL    HW236936   3.730   3.222   2.693 -2.7319 -1.3411  0.9816
 8493SOL     OW36937   2.692   1.972   6.243  0.2516 -0.4553  0.4516
 8493SOL    HW136938   2.748   1.927   6.180  1.1194  1.5518 -0.2069
 8493SOL    HW236939   2.733   2.058   6.243 -0.0802 -0.3089 -1.8886
 8494SOL     OW36940   2.211   3.714   5.949  0.2191 -0.5781  0.1502
 8494SOL    HW136941   2.146   3.660   5.994  1.5749 -2.6591 -0.4009
 8494SOL    HW236942   2.179   3.719   5.859  1.8580 -1.5097 -0.4889
 8495SOL     OW36943   0.598   1.661   4.541  0.6618 -0.3907 -0.3790
 8495SOL    HW136944   0.551   1.651   4.624 -1.3124  2.5766 -1.1262
 8495SOL    HW236945   0.610   1.756   4.543  0.5747 -0.3821 -0.2291
 8496SOL     OW36946   2.235   4.465   1.543  0.5045  0.1321 -0.2718
 8496SOL    HW136947   2.151   4.433   1.510 -0.8356  1.2544  2.0782
 8496SOL    HW236948   2.200   4.537   1.595  0.3058 -0.3477  0.2531
 8497SOL     OW36949   1.540   2.056  11.834  1.0830 -0.4858  0.2371
 8497SOL    HW136950   1.584   1.984  11.789  0.6786 -0.2520 -0.5285
 8497SOL    HW236951   1.609   2.104  11.879  0.6359 -1.9576  2.4686
 8498SOL     OW36952   3.566   4.304   4.332 -0.2388 -0.5788 -0.6940
 8498SOL    HW136953   3.489   4.285   4.386  0.8507 -1.5762  0.5036
 8498SOL    HW236954   3.608   4.370   4.387 -1.3926 -0.2893 -0.1696
 8499SOL     OW36955   4.241   1.685   5.307 -0.3150 -0.1717 -0.5635
 8499SOL    HW136956   4.195   1.768   5.321  1.1239  0.5390 -0.0529
 8499SOL    HW236957   4.181   1.622   5.346  0.2462  0.0137  0.6126
 8500SOL     OW36958   3.074   0.196   5.396 -0.7027 -0.0783 -0.5696
 8500SOL    HW136959   3.072   0.271   5.336 -3.0025 -0.4237 -0.9273
 8500SOL    HW236960   3.041   0.239   5.474  0.6146 -0.8627  0.4162
 8501SOL     OW36961   2.069   2.752   3.547 -0.3224  0.0775 -0.1201
 8501SOL    HW136962   2.164   2.755   3.549 -0.3766 -0.9588  2.6984
 8501SOL    HW236963   2.056   2.807   3.469  1.0396  0.4598 -0.0732
 8502SOL     OW36964   2.965   3.836  14.492 -0.0963  0.1228 -0.2923
 8502SOL    HW136965   2.933   3.794  14.572  0.3662  2.1336  0.9651
 8502SOL    HW236966   2.899   3.831  14.423 -0.9468  3.7150  0.2506
 8503SOL     OW36967   1.208   0.362   8.955  0.3879  0.5244 -0.0610
 8503SOL    HW136968   1.177   0.447   8.988 -0.1460 -0.2456  1.4233
 8503SOL    HW236969   1.247   0.318   9.031  2.9020  1.4372 -0.8332
 8504SOL     OW36970   1.009   4.130   6.297  0.5527  0.1053 -0.4548
 8504SOL    HW136971   1.083   4.161   6.245  0.6391  0.6356 -0.0188
 8504SOL    HW236972   0.983   4.214   6.336 -0.2132 -0.2679 -0.1528
 8505SOL     OW36973   2.140   4.129   2.784  0.3169  0.7524 -0.4616
 8505SOL    HW136974   2.133   4.058   2.848  2.2620  0.7425 -0.2531
 8505SOL    HW236975   2.230   4.160   2.790  0.3667  0.5002  0.0910
 8506SOL     OW36976   2.139   3.976   0.119  0.7475  0.2684  0.4588
 8506SOL    HW136977   2.138   3.914   0.192  0.0192  0.7272  0.8355
 8506SOL    HW236978   2.126   4.059   0.164  0.8282  0.5909 -0.1091
 8507SOL     OW36979   0.280   3.350   5.526  0.2364  0.0660 -0.2344
 8507SOL    HW136980   0.201   3.358   5.473 -0.5372  2.5642  1.3016
 8507SOL    HW236981   0.247   3.316   5.608  1.7172 -1.2331 -0.1678
 8508SOL     OW36982   3.141   0.334   0.446 -0.4912  0.1393 -0.2643
 8508SOL    HW136983   3.105   0.250   0.417 -0.6614  0.5858 -1.3454
 8508SOL    HW236984   3.229   0.308   0.475 -1.1327 -0.4430  1.1789
 8509SOL     OW36985   2.560   0.976  16.229 -0.1035 -0.1299 -0.0004
 8509SOL    HW136986   2.497   1.039  16.193 -0.7173 -1.2478 -0.8590
 8509SOL    HW236987   2.495   0.909  16.247  0.4457  0.0004  2.5122
 8510SOL     OW36988   1.865   0.155   8.040  0.1656 -0.4197 -0.1192
 8510SOL    HW136989   1.854   0.063   8.061  2.1513 -0.7200 -0.4203
 8510SOL    HW236990   1.875   0.183   8.132  2.1149  1.3535 -0.8654
 8511SOL     OW36991   1.510   3.021   4.329  0.3895  0.2852 -0.6572
 8511SOL    HW136992   1.499   2.990   4.239 -0.5249  3.2518 -1.5653
 8511SOL    HW236993   1.455   2.956   4.372 -1.6111  2.1477 -0.4205
 8512SOL     OW36994   0.946   4.093   9.389  0.0816  0.1084 -0.0208
 8512SOL    HW136995   0.925   4.097   9.482 -3.0227 -1.4357 -0.6381
 8512SOL    HW236996   0.943   3.997   9.380  0.0520  0.1420 -0.3662
 8513SOL     OW36997   1.051   1.004   5.390 -0.1284  0.2909  0.1399
 8513SOL    HW136998   1.145   1.017   5.401 -0.1241  0.7471 -0.4377
 8513SOL    HW236999   1.043   1.046   5.305  0.3073  1.1672  0.5220
 8514SOL     OW37000   3.196   1.314   5.328 -0.6501 -0.3861 -0.2199
 8514SOL    HW137001   3.168   1.269   5.407 -2.3029 -1.6789 -1.5363
 8514SOL    HW237002   3.114   1.333   5.283  0.0326 -0.5329 -1.5376
 8515SOL     OW37003   2.701   0.320   5.652 -0.2199  0.4137  0.6695
 8515SOL    HW137004   2.619   0.295   5.694 -1.2531 -1.7196 -2.6467
 8515SOL    HW237005   2.677   0.283   5.568  2.3006  2.3753 -0.9169
 8516SOL     OW37006   2.889   3.835   7.508 -0.4603  0.4548 -0.1661
 8516SOL    HW137007   2.878   3.749   7.549  1.1112  1.1923  1.7658
 8516SOL    HW237008   2.982   3.829   7.486 -0.4780 -3.0368  0.6952
 8517SOL     OW37009   1.401   3.034   3.643 -0.0032  0.8273  0.0616
 8517SOL    HW137010   1.362   3.092   3.709 -0.2934 -2.6018  2.8897
 8517SOL    HW237011   1.346   2.956   3.643  2.0124 -0.6000  1.2202
 8518SOL     OW37012   0.820   3.835   9.626  0.2235 -0.2355 -0.0347
 8518SOL    HW137013   0.792   3.786   9.549  0.5058  0.7073 -0.7460
 8518SOL    HW237014   0.854   3.762   9.678 -1.2780 -0.0914  1.1280
 8519SOL     OW37015   1.836   4.524   7.096 -0.5189  0.2320  0.1101
 8519SOL    HW137016   1.911   4.466   7.087 -0.9982 -0.7560  2.3220
 8519SOL    HW237017   1.878   4.588   7.154 -0.7692  1.0484 -0.6214
 8520SOL     OW37018   0.015   2.810  16.339 -0.3815 -0.8370  0.5286
 8520SOL    HW137019   0.036   2.888  16.287  1.7005  0.4346  3.2576
 8520SOL    HW237020   0.041   2.828  16.430 -0.6490 -2.0346  0.8356
 8521SOL     OW37021   4.339   2.189   6.097 -0.1391  0.1753  0.2862
 8521SOL    HW137022   4.316   2.097   6.088 -1.1029  0.5835 -1.4779
 8521SOL    HW237023   4.426   2.193   6.057  0.3635 -0.4365  1.3305
 8522SOL     OW37024   3.193   4.175   6.885 -0.5020 -0.0265  0.2214
 8522SOL    HW137025   3.173   4.084   6.907 -3.1251  0.5780  0.2975
 8522SOL    HW237026   3.239   4.187   6.969 -1.1072  0.5240  0.4756
 8523SOL     OW37027   0.820   3.876  11.330 -0.0000 -0.3988  0.0246
 8523SOL    HW137028   0.823   3.972  11.330  1.5154 -0.4408  2.2401
 8523SOL    HW237029   0.802   3.848  11.240  0.8378 -0.0486 -0.2580
 8524SOL     OW37030   0.980   1.699   1.990  0.2249  0.4448 -0.0270
 8524SOL    HW137031   0.943   1.785   2.008 -1.7178 -0.6143  0.9176
 8524SOL    HW237032   0.984   1.652   2.073 -1.3110 -0.7519 -0.6346
 8525SOL     OW37033   0.492   3.422  15.305  0.3281 -0.0814 -0.4602
 8525SOL    HW137034   0.492   3.329  15.328  0.2923  0.0268 -0.0156
 8525SOL    HW237035   0.573   3.452  15.347  1.0396 -1.4967 -0.8312
 8526SOL     OW37036   3.148   1.471  10.001  0.3806 -1.2361 -0.4747
 8526SOL    HW137037   3.078   1.452  10.063  0.3531  2.1332  0.5421
 8526SOL    HW237038   3.148   1.385   9.959  0.9362  0.1645 -3.3524
 8527SOL     OW37039   0.404   2.985   5.241 -0.3339  0.9333  0.1687
 8527SOL    HW137040   0.326   3.031   5.271  0.7269  2.0733  1.1524
 8527SOL    HW237041   0.460   3.063   5.240  0.5481  0.3111  1.5992
 8528SOL     OW37042   1.654   2.998   5.285  0.2476  0.6468 -0.0880
 8528SOL    HW137043   1.666   3.071   5.224 -0.1913  0.7932  0.0033
 8528SOL    HW237044   1.637   3.044   5.367 -1.4546 -1.2579  0.6024
 8529SOL     OW37045   4.502   1.945   9.786 -0.1244  0.1542 -0.2794
 8529SOL    HW137046   4.565   2.006   9.747  1.0856 -1.5434 -0.9795
 8529SOL    HW237047   4.542   1.862   9.760 -2.5431 -0.9504 -0.5406
 8530SOL     OW37048   1.565   3.974   5.189 -0.4013  0.2965 -0.3794
 8530SOL    HW137049   1.619   3.932   5.256  1.3045  2.4835 -0.3731
 8530SOL    HW237050   1.478   3.971   5.229 -0.5096  0.3573 -0.6124
 8531SOL     OW37051   1.069   3.215  12.047  0.9271 -0.9885 -0.1504
 8531SOL    HW137052   1.010   3.216  11.972  2.0900 -0.7914 -1.0533
 8531SOL    HW237053   1.035   3.143  12.100 -1.1124 -0.2805 -0.5277
 8532SOL     OW37054   2.095   2.634   0.962  0.0789  0.1259  0.0773
 8532SOL    HW137055   2.038   2.710   0.953  0.8946  0.5009 -1.8495
 8532SOL    HW237056   2.026   2.570   0.944 -0.6110  0.8600  0.1627
 8533SOL     OW37057   4.519   0.196   5.686 -0.3056 -0.0346 -0.1254
 8533SOL    HW137058   4.499   0.102   5.689 -1.9515  0.3258  0.4938
 8533SOL    HW237059   4.613   0.197   5.703 -0.0474 -0.0598 -1.5777
 8534SOL     OW37060   3.631   0.650   3.033  0.3017  0.3369 -0.2049
 8534SOL    HW137061   3.688   0.726   3.050  1.9036 -0.8763 -0.1476
 8534SOL    HW237062   3.553   0.677   3.081 -2.7701 -1.9548 -3.8895
 8535SOL     OW37063   3.914   2.538   7.012 -0.1429  0.0376 -0.0069
 8535SOL    HW137064   3.962   2.613   7.047 -1.2552  1.0338 -0.6370
 8535SOL    HW237065   3.867   2.584   6.942 -1.9174  0.3111  1.3606
 8536SOL     OW37066   1.674   2.270   7.251 -0.6229 -0.3895 -0.1232
 8536SOL    HW137067   1.665   2.186   7.205 -1.5828 -0.9881  1.1692
 8536SOL    HW237068   1.607   2.311   7.196 -0.9294 -0.0067  0.5393
 8537SOL     OW37069   3.435   1.243   2.877 -0.1348  0.6725 -0.3897
 8537SOL    HW137070   3.364   1.182   2.857 -0.6041  1.6363 -1.6843
 8537SOL    HW237071   3.397   1.328   2.855 -0.3848  1.4278  2.8914
 8538SOL     OW37072   4.456   0.123   1.101  0.1968  0.2316 -0.3768
 8538SOL    HW137073   4.366   0.119   1.132  0.7041 -1.9127  0.9090
 8538SOL    HW237074   4.497   0.130   1.187  0.0531 -0.4005 -0.2540
 8539SOL     OW37075   2.664   0.794   9.895  0.2695  0.1757 -0.1545
 8539SOL    HW137076   2.714   0.827   9.821  1.2065  1.2151  0.9502
 8539SOL    HW237077   2.584   0.763   9.852 -0.9010  4.1846 -0.8674
 8540SOL     OW37078   3.516   3.260   7.818  0.4087  0.1533  0.1183
 8540SOL    HW137079   3.571   3.233   7.744 -0.4581 -3.5726  0.7941
 8540SOL    HW237080   3.432   3.227   7.786  1.5425 -2.3965 -0.2836
 8541SOL     OW37081   4.631   4.011   6.417 -0.5674  0.4982  0.1669
 8541SOL    HW137082   4.701   4.051   6.365  0.6064 -0.1410  1.2321
 8541SOL    HW237083   4.679   3.979   6.494  1.2054  1.0942 -0.6754
 8542SOL     OW37084   2.410   4.627   1.946 -0.8805  1.2851 -0.5765
 8542SOL    HW137085   2.450   4.632   2.032 -0.5671  0.5380 -0.6734
 8542SOL    HW237086   2.473   4.675   1.893  0.0799  1.2721  0.5663
 8543SOL     OW37087   0.610   2.090  10.802  0.1478 -0.1507  0.1093
 8543SOL    HW137088   0.537   2.040  10.840  1.1249 -0.1307  2.0525
 8543SOL    HW237089   0.565   2.172  10.787  0.2780 -0.0779  0.1158
 8544SOL     OW37090   1.313   0.289   7.689 -0.1339 -0.5894  0.5980
 8544SOL    HW137091   1.349   0.323   7.607 -3.4458  0.5585 -0.3757
 8544SOL    HW237092   1.293   0.362   7.748  1.5038 -0.6216  1.1885
 8545SOL     OW37093   1.107   1.943   6.396 -0.1785  0.5027  0.1700
 8545SOL    HW137094   1.081   1.944   6.304 -0.7764 -1.5158  0.3068
 8545SOL    HW237095   1.104   2.038   6.400 -0.3061  0.5482 -1.0448
 8546SOL     OW37096   4.195   2.556   3.309  0.1919  0.2375  0.6382
 8546SOL    HW137097   4.195   2.645   3.274 -1.1833 -0.0618 -0.1382
 8546SOL    HW237098   4.107   2.532   3.281  0.5537 -0.4250  0.0786
 8547SOL     OW37099   0.125   0.604   4.186 -0.2709  0.1608  0.2108
 8547SOL    HW137100   0.216   0.579   4.203 -0.6332 -0.6617  0.9425
 8547SOL    HW237101   0.089   0.518   4.162  1.8856 -0.1096 -2.0337
 8548SOL     OW37102   3.874   3.399   5.086  0.2280  0.0814 -0.2444
 8548SOL    HW137103   3.781   3.412   5.103 -0.0106 -3.7462  1.3395
 8548SOL    HW237104   3.918   3.384   5.169  0.4805  1.8982 -0.0348
 8549SOL     OW37105   2.934   0.820  13.178  0.0836  0.5875 -0.5702
 8549SOL    HW137106   2.974   0.905  13.195  0.1973  0.0089  2.0129
 8549SOL    HW237107   2.998   0.763  13.220  1.0973 -0.8743 -4.0756
 8550SOL     OW37108   0.462   1.036   6.080 -0.5966  0.6098  0.1885
 8550SOL    HW137109   0.448   1.102   6.013 -2.7256  0.3304  0.3550
 8550SOL    HW237110   0.497   1.082   6.156 -0.7515 -0.1726  0.7485
 8551SOL     OW37111   1.584   4.458  17.136  0.3758  0.2758 -0.4034
 8551SOL    HW137112   1.554   4.368  17.126 -0.4682  0.4475  0.6489
 8551SOL    HW237113   1.505   4.511  17.131  1.4021  1.8113 -0.5461
 8552SOL     OW37114   4.254   3.385   9.776  0.3889  0.0201  0.2583
 8552SOL    HW137115   4.207   3.399   9.858  0.1517 -1.3229  0.3398
 8552SOL    HW237116   4.231   3.469   9.735 -0.6012 -0.1545  0.4605
 8553SOL     OW37117   2.006   1.765  15.933  0.0809  0.1226  0.8526
 8553SOL    HW137118   1.932   1.761  15.993  0.0908 -0.0152  0.8570
 8553SOL    HW237119   1.978   1.689  15.882  0.6819  0.8147 -0.5093
 8554SOL     OW37120   4.364   3.934   7.895 -0.1747 -0.2634 -0.2212
 8554SOL    HW137121   4.374   3.877   7.818 -1.3531  1.4890 -1.6815
 8554SOL    HW237122   4.438   3.994   7.886 -0.9942  0.8886  0.6780
 8555SOL     OW37123   2.317   3.021   6.438 -0.0496 -0.1246  0.3065
 8555SOL    HW137124   2.246   3.028   6.374 -2.0763 -2.0568  2.3420
 8555SOL    HW237125   2.277   3.076   6.506 -1.6073 -1.2692  0.2937
 8556SOL     OW37126   3.394   4.614  11.947  0.0588 -0.8246 -0.1236
 8556SOL    HW137127   3.378   4.701  11.911 -1.5954 -0.8811  0.4761
 8556SOL    HW237128   3.422   4.560  11.874 -1.5094  2.6441 -3.3124
 8557SOL     OW37129   4.343   2.360   3.255  0.1097 -0.2143 -0.0453
 8557SOL    HW137130   4.400   2.341   3.330 -1.8398 -0.9667  1.2587
 8557SOL    HW237131   4.311   2.448   3.273  1.4911  0.5147 -1.1407
 8558SOL     OW37132   1.173   2.398   7.693  0.0043  0.5751  0.3860
 8558SOL    HW137133   1.206   2.428   7.778  0.0463  2.5607 -0.3138
 8558SOL    HW237134   1.197   2.306   7.681 -1.4214  0.2023  0.4438
 8559SOL     OW37135   3.025   2.309   2.149 -0.5008 -0.3800  0.4286
 8559SOL    HW137136   2.975   2.280   2.225  3.1223 -0.4613  2.8039
 8559SOL    HW237137   3.076   2.386   2.175 -0.7558  0.6829 -2.2055
 8560SOL     OW37138   3.313   2.470  16.636 -0.1486  0.1031  0.1818
 8560SOL    HW137139   3.392   2.474  16.581 -2.1213  3.8247 -2.4446
 8560SOL    HW237140   3.303   2.563  16.656 -0.9296 -0.3171  1.6826
 8561SOL     OW37141   4.463   3.603   0.011 -0.5068 -0.1392 -0.0918
 8561SOL    HW137142   4.553   3.612   0.042 -0.9000  0.6146  0.8113
 8561SOL    HW237143   4.411   3.598   0.091 -1.5176  0.4751 -0.7120
 8562SOL     OW37144   2.940   0.331   2.293  0.3330 -0.0856 -0.1713
 8562SOL    HW137145   2.927   0.237   2.307 -0.1754 -0.0013 -0.0888
 8562SOL    HW237146   2.872   0.361   2.353 -1.4579  0.9733 -2.7028
 8563SOL     OW37147   2.232   4.029   6.564 -0.2976  0.0638  0.0732
 8563SOL    HW137148   2.155   4.011   6.510  0.4763 -0.1347 -0.9771
 8563SOL    HW237149   2.276   4.103   6.522 -0.9054  1.4183  1.8105
 8564SOL     OW37150   2.254   1.351   8.899 -0.2234  0.2768 -0.1258
 8564SOL    HW137151   2.312   1.318   8.831  0.2822 -3.4128  2.0642
 8564SOL    HW237152   2.316   1.396   8.956 -0.8014 -1.4810  1.8983
 8565SOL     OW37153   3.401   2.568   8.896 -0.4115  0.3391  0.3485
 8565SOL    HW137154   3.385   2.550   8.989  1.3139  2.0337  0.9535
 8565SOL    HW237155   3.486   2.611   8.898  0.2204 -0.9611  1.7267
 8566SOL     OW37156   0.796   3.747   7.523 -0.3579 -0.1134  0.1884
 8566SOL    HW137157   0.764   3.721   7.609 -0.4082  0.6864  0.4175
 8566SOL    HW237158   0.872   3.803   7.537 -1.4651  1.2073  0.9680
 8567SOL     OW37159   2.816   1.945  15.444  0.0508  0.0590  1.0351
 8567SOL    HW137160   2.830   2.035  15.414  0.4881  0.3937  2.2536
 8567SOL    HW237161   2.754   1.915  15.378  0.3458 -2.1574  1.7672
 8568SOL     OW37162   1.206   0.992   0.541  0.0055 -0.2808  0.2530
 8568SOL    HW137163   1.252   0.955   0.617  0.9236 -0.3936 -0.3631
 8568SOL    HW237164   1.246   1.079   0.538 -2.3333  0.8897  2.6239
 8569SOL     OW37165   0.569   3.379   7.251  0.4399  0.7768  0.0709
 8569SOL    HW137166   0.656   3.339   7.248 -0.5324 -0.9850 -4.1520
 8569SOL    HW237167   0.531   3.326   7.321 -0.0002  1.0156  0.0141
 8570SOL     OW37168   3.582   3.232  15.333  0.4880  0.0493  0.5148
 8570SOL    HW137169   3.616   3.143  15.320 -0.4094 -0.0541 -1.1110
 8570SOL    HW237170   3.602   3.246  15.425  2.2539  2.6658 -0.2617
 8571SOL     OW37171   4.578   1.838   3.714  0.0117  0.0515 -0.0803
 8571SOL    HW137172   4.542   1.883   3.791  0.4686 -1.8602  1.2616
 8571SOL    HW237173   4.498   1.825   3.664  1.3343 -0.2151 -2.1072
 8572SOL     OW37174   0.570   0.460   0.390  0.2023 -0.4949 -0.2654
 8572SOL    HW137175   0.596   0.549   0.413 -1.1937 -0.0758 -0.2606
 8572SOL    HW237176   0.488   0.440   0.437 -0.0442 -2.0549 -1.3621
 8573SOL     OW37177   2.682   4.317   4.904  0.3044  0.4557  0.6984
 8573SOL    HW137178   2.763   4.358   4.934  1.2573 -1.2766  0.4630
 8573SOL    HW237179   2.625   4.391   4.881  0.2587 -0.0699 -0.8360
 8574SOL     OW37180   2.827   4.359   4.500  0.2633  0.1152 -0.1360
 8574SOL    HW137181   2.737   4.360   4.533  0.1308 -0.3872 -0.4850
 8574SOL    HW237182   2.868   4.309   4.571  0.8131 -0.8808 -1.1692
 8575SOL     OW37183   2.610   3.797   0.783 -0.4164  0.5210 -0.3654
 8575SOL    HW137184   2.578   3.839   0.863  2.2913 -0.4521  1.2477
 8575SOL    HW237185   2.657   3.874   0.751  1.8935 -0.3683  0.8676
 8576SOL     OW37186   2.936   2.599   3.836  0.1899  0.5181  0.3736
 8576SOL    HW137187   2.939   2.503   3.834 -2.7720  0.4292  0.7210
 8576SOL    HW237188   2.854   2.620   3.792  0.9290  0.7966 -0.8675
 8577SOL     OW37189   0.927   4.029   4.702 -0.0837 -0.1409 -0.1611
 8577SOL    HW137190   0.973   3.945   4.692  0.1856 -0.1271  0.9735
 8577SOL    HW237191   0.991   4.090   4.666  1.4618 -0.5818  1.8183
 8578SOL     OW37192   3.725   2.459  10.602 -0.2330 -0.7873 -0.1831
 8578SOL    HW137193   3.781   2.408  10.660  2.1051 -1.0024 -2.6468
 8578SOL    HW237194   3.760   2.545  10.627 -2.0261 -0.5061  1.3388
 8579SOL     OW37195   2.716   2.118   2.831 -0.4941 -0.4347  0.1213
 8579SOL    HW137196   2.625   2.128   2.804 -0.1654 -0.4089 -0.9724
 8579SOL    HW237197   2.718   2.133   2.926 -0.0785 -0.5255  0.1251
 8580SOL     OW37198   0.874   4.392   4.715 -0.2405 -0.2732  0.1877
 8580SOL    HW137199   0.939   4.323   4.710  1.2683  1.0511  1.6271
 8580SOL    HW237200   0.926   4.467   4.743 -0.3490 -0.2418  0.3062
 8581SOL     OW37201   2.931   0.990   5.115  0.1078  0.1447 -0.3120
 8581SOL    HW137202   2.991   0.934   5.066 -1.3708 -0.0436 -1.8668
 8581SOL    HW237203   2.970   0.990   5.203 -2.0176 -0.7715  0.6487
 8582SOL     OW37204   3.969   1.670   3.221  0.5468 -0.0348 -0.2222
 8582SOL    HW137205   3.985   1.703   3.309 -1.0292  2.4580 -0.8716
 8582SOL    HW237206   4.057   1.652   3.189  0.8937  0.1659  0.6422
 8583SOL     OW37207   3.464   2.367   6.273 -0.0556  0.9227  0.4176
 8583SOL    HW137208   3.527   2.339   6.338 -1.7865  1.2141  2.2214
 8583SOL    HW237209   3.517   2.427   6.220  2.2938 -2.3207 -0.9186
 8584SOL     OW37210   1.886   1.962  12.508 -0.6646 -0.0830  0.0858
 8584SOL    HW137211   1.977   1.993  12.509 -0.4020 -0.8401 -0.3332
 8584SOL    HW237212   1.861   2.016  12.433  2.0204  0.1121 -0.6807
 8585SOL     OW37213   0.197   1.958   6.155  0.3185  0.2922 -0.0139
 8585SOL    HW137214   0.254   1.885   6.131 -2.3106 -1.1804 -1.6699
 8585SOL    HW237215   0.171   1.999   6.073 -2.2911 -1.5749 -0.1180
 8586SOL     OW37216   1.845   1.492   8.906 -0.2227  0.6736 -0.2302
 8586SOL    HW137217   1.835   1.561   8.971 -0.5028  0.2200  0.2045
 8586SOL    HW237218   1.771   1.435   8.929  1.3702 -0.8295  1.1202
 8587SOL     OW37219   3.383   3.376   4.182 -0.1407  0.1851  0.6855
 8587SOL    HW137220   3.312   3.314   4.165  0.7442 -0.9323  1.0515
 8587SOL    HW237221   3.444   3.349   4.113  0.6427  3.4948  0.0915
 8588SOL     OW37222   2.623   2.442   8.786 -0.3418  0.3042 -0.4809
 8588SOL    HW137223   2.661   2.373   8.732  2.1391 -0.0038  1.6553
 8588SOL    HW237224   2.589   2.384   8.855  1.3624 -0.7611 -0.5434
 8589SOL     OW37225   3.940   2.205   2.550  0.0738  0.6965  0.0581
 8589SOL    HW137226   3.965   2.181   2.639 -0.3961  0.8080  0.2187
 8589SOL    HW237227   3.860   2.254   2.568 -0.3934 -0.2852  0.6010
 8590SOL     OW37228   0.987   1.015   7.374  0.2449  0.1938  0.0491
 8590SOL    HW137229   1.015   0.930   7.340 -1.8210 -1.2488  1.9226
 8590SOL    HW237230   0.939   0.988   7.453  0.2488  2.6637  0.8742
 8591SOL     OW37231   1.736   4.385   8.334  0.7483  0.4068  0.0662
 8591SOL    HW137232   1.767   4.475   8.346  1.2070  0.3501 -0.6609
 8591SOL    HW237233   1.676   4.405   8.262  0.1119 -0.4076  0.3748
 8592SOL     OW37234   3.625   4.284  17.690  0.0503  0.5338 -0.5032
 8592SOL    HW137235   3.658   4.219   0.047 -0.1662  0.0924 -0.8524
 8592SOL    HW237236   3.635   4.230  17.612 -1.2019 -2.2355  1.2317
 8593SOL     OW37237   2.592   4.041  16.222  0.0380 -0.0859  0.2742
 8593SOL    HW137238   2.537   3.986  16.278  0.9127 -1.8055 -0.5482
 8593SOL    HW237239   2.540   4.078  16.151 -0.6500 -1.1465  0.2345
 8594SOL     OW37240   0.183   3.647   2.179 -0.2853 -0.2446  0.4064
 8594SOL    HW137241   0.111   3.696   2.218  1.1754 -1.0425  4.1304
 8594SOL    HW237242   0.200   3.573   2.237  1.6573 -1.4242 -1.6842
 8595SOL     OW37243   0.045   2.502   5.542  0.3950 -0.1756  0.4136
 8595SOL    HW137244   0.101   2.429   5.516 -0.8903 -0.5269 -1.3728
 8595SOL    HW237245   0.055   2.495   5.637  0.9394  1.4377  0.4831
 8596SOL     OW37246   0.818   3.177   2.075 -0.0372  0.0504 -0.6801
 8596SOL    HW137247   0.816   3.096   2.126 -0.8081  0.0729 -0.6695
 8596SOL    HW237248   0.812   3.141   1.987 -1.0346 -1.5043  0.0124
 8597SOL     OW37249   3.218   4.658  10.486 -0.1973  0.4184  0.4327
 8597SOL    HW137250   3.312   4.643  10.473 -1.0935 -1.6124 -3.8447
 8597SOL    HW237251   3.199   4.577  10.438 -1.0254  0.8557  0.0177
 8598SOL     OW37252   1.550   2.645   8.517 -0.2248  0.0656 -0.4726
 8598SOL    HW137253   1.497   2.724   8.505  0.0824  0.2950 -0.3234
 8598SOL    HW237254   1.495   2.617   8.589 -1.8349  1.5360 -1.1424
 8599SOL     OW37255   2.642   2.626   8.436  0.2209  0.1335  0.2054
 8599SOL    HW137256   2.709   2.567   8.403  0.0950  1.2999 -2.1455
 8599SOL    HW237257   2.565   2.569   8.432 -0.1105  0.6725 -1.0800
 8600SOL     OW37258   4.057   3.830   8.167 -0.7798  0.3236  0.4455
 8600SOL    HW137259   3.992   3.764   8.145 -2.1753  1.4459  1.2470
 8600SOL    HW237260   4.131   3.769   8.171 -1.7626 -0.9161 -0.4642
 8601SOL     OW37261   3.583   1.610  13.905 -0.5174 -0.2735 -0.6349
 8601SOL    HW137262   3.636   1.671  13.855  1.0702 -0.1847  1.1461
 8601SOL    HW237263   3.653   1.573  13.959  0.0586 -2.3176 -2.8148
 8602SOL     OW37264   3.476   4.525  13.805  0.4728  0.0354  0.0043
 8602SOL    HW137265   3.487   4.451  13.746 -3.0905  0.3859 -1.0896
 8602SOL    HW237266   3.391   4.511  13.846  0.5672 -1.2220 -0.2434
 8603SOL     OW37267   4.562   4.676   6.286  0.2929 -0.3804  0.3090
 8603SOL    HW137268   4.483   4.668   6.233  0.2242  0.4626  0.2923
 8603SOL    HW237269   4.561   0.038   6.325 -2.6978 -0.7589  1.1010
 8604SOL     OW37270   0.758   0.311  16.981 -0.0002 -0.1623 -0.0183
 8604SOL    HW137271   0.770   0.217  16.966 -2.3485 -0.4033 -0.4116
 8604SOL    HW237272   0.665   0.328  16.967  0.0415  0.9003  0.9581
 8605SOL     OW37273   3.434   0.849   7.493 -0.1761  0.7250 -0.5295
 8605SOL    HW137274   3.424   0.759   7.526  1.5358  0.8349  0.3285
 8605SOL    HW237275   3.365   0.846   7.427 -0.7644 -1.7035  0.1820
 8606SOL     OW37276   3.091   0.341  16.820  0.2458  0.5557 -0.4706
 8606SOL    HW137277   3.015   0.346  16.877  1.4616  0.1064  1.1772
 8606SOL    HW237278   3.152   0.399  16.866 -1.2749  0.8667  1.1231
 8607SOL     OW37279   2.435   1.215  17.407 -0.1751  0.2322 -0.3010
 8607SOL    HW137280   2.455   1.134  17.360  1.5508  0.8063 -0.5345
 8607SOL    HW237281   2.340   1.215  17.395 -0.3234 -1.2043  0.9222
 8608SOL     OW37282   0.264   1.669   3.112  0.1535 -0.1209  0.8939
 8608SOL    HW137283   0.174   1.664   3.145 -0.5500  0.4637 -0.9766
 8608SOL    HW237284   0.315   1.733   3.162  2.8124 -0.0730 -1.8990
 8609SOL     OW37285   2.090   2.761  17.526  0.3433 -0.1376 -0.2422
 8609SOL    HW137286   2.139   2.798  17.599  2.3866 -0.6645 -1.3601
 8609SOL    HW237287   2.126   2.825  17.465  1.4558  0.4618  1.0317
 8610SOL     OW37288   3.051   0.060   3.127 -0.0115 -0.3888  0.5356
 8610SOL    HW137289   3.124   0.070   3.189  0.2379 -0.4257  0.2512
 8610SOL    HW237290   3.083   4.712   3.074  1.7705  1.4482 -0.9437
 8611SOL     OW37291   2.414   2.213   8.559  0.2261 -0.0336  0.2078
 8611SOL    HW137292   2.366   2.132   8.541  1.5584 -0.4936 -1.2732
 8611SOL    HW237293   2.352   2.240   8.627  1.3357  1.1150  0.7794
 8612SOL     OW37294   3.131   2.144   6.105 -0.8251 -0.0871 -0.3419
 8612SOL    HW137295   3.225   2.161   6.109 -1.5131  3.0333  2.3877
 8612SOL    HW237296   3.126   2.052   6.079  0.5451 -0.3811  0.4664
 8613SOL     OW37297   1.899   3.316  14.178 -0.5441 -0.1404 -0.2756
 8613SOL    HW137298   1.932   3.235  14.138  0.8520 -1.0612  2.7650
 8613SOL    HW237299   1.983   3.359  14.193  0.5119 -1.7303 -1.6689
 8614SOL     OW37300   4.051   1.867   6.933  0.3616 -0.6249 -0.2299
 8614SOL    HW137301   4.049   1.774   6.911 -1.6883 -1.2728  2.6568
 8614SOL    HW237302   3.959   1.891   6.950  0.0264 -1.4147 -0.9651
 8615SOL     OW37303   2.394   1.593  15.648  0.4687  0.0538  0.1443
 8615SOL    HW137304   2.322   1.610  15.588  1.2566 -1.2131 -1.1416
 8615SOL    HW237305   2.347   1.600  15.732  1.3686  2.2616  0.4515
 8616SOL     OW37306   4.722   2.346   8.899 -0.4857 -0.8136  0.5281
 8616SOL    HW137307   4.671   2.277   8.943 -1.5824 -0.7415 -0.6354
 8616SOL    HW237308   0.061   2.293   8.853 -0.6317  0.0102 -0.6162
 8617SOL     OW37309   3.770   2.944  11.395 -0.2607  0.3156 -0.3040
 8617SOL    HW137310   3.722   2.953  11.313 -0.2889  1.0506 -0.2099
 8617SOL    HW237311   3.791   2.851  11.392 -2.4163 -0.1968  0.5118
 8618SOL     OW37312   4.188   2.051   4.119 -0.6084  0.1253 -0.0738
 8618SOL    HW137313   4.191   2.129   4.175  2.0339 -1.2894  1.7628
 8618SOL    HW237314   4.261   2.002   4.156 -0.6703  0.6026  0.6949
 8619SOL     OW37315   0.077   2.406   4.954  0.3701 -0.2393 -0.7588
 8619SOL    HW137316   0.161   2.360   4.950  0.1175 -0.7710  0.0587
 8619SOL    HW237317   0.020   2.330   4.959  0.8733 -0.4078  2.3784
 8620SOL     OW37318   4.440   2.896   7.265 -0.3413 -0.0730  0.2383
 8620SOL    HW137319   4.534   2.887   7.276  0.1889  2.7445 -1.8985
 8620SOL    HW237320   4.433   2.905   7.170 -0.7349 -1.0303  0.1792
 8621SOL     OW37321   0.835   2.434  17.209  0.2754 -1.1136 -0.1575
 8621SOL    HW137322   0.858   2.518  17.247 -0.4210 -2.2078  2.6727
 8621SOL    HW237323   0.885   2.453  17.130  0.1964  0.2928  0.1277
 8622SOL     OW37324   4.097   2.596   0.125 -0.5481 -0.9449 -0.2771
 8622SOL    HW137325   4.167   2.661   0.133 -1.6103  0.2155 -0.3080
 8622SOL    HW237326   4.076   2.595   0.032  0.2835  0.1789 -0.4662
 8623SOL     OW37327   1.598   2.827   9.798  0.4251 -0.6890 -0.7079
 8623SOL    HW137328   1.631   2.753   9.747 -0.3879 -0.1130 -2.0834
 8623SOL    HW237329   1.542   2.875   9.736 -1.4746  1.3268  2.5807
 8624SOL     OW37330   0.077   3.073   1.570  0.2416 -0.0078 -0.3072
 8624SOL    HW137331   0.034   3.141   1.622  0.8175 -0.4900  0.7995
 8624SOL    HW237332   0.028   2.996   1.602 -0.8373 -0.0800 -2.1490
 8625SOL     OW37333   3.589   3.175  12.660 -0.0227 -0.2223 -0.6451
 8625SOL    HW137334   3.666   3.197  12.607  0.2337 -0.8355 -0.5245
 8625SOL    HW237335   3.593   3.080  12.652 -1.7084 -0.2794 -0.7966
 8626SOL     OW37336   0.190   0.412  10.558  0.2039 -0.3469  0.0787
 8626SOL    HW137337   0.172   0.337  10.614  0.5516 -0.1504  0.4600
 8626SOL    HW237338   0.158   0.377  10.475  0.0462 -1.0355  0.4321
 8627SOL     OW37339   3.027   1.288   6.403 -0.1889 -0.1916 -0.2180
 8627SOL    HW137340   2.997   1.376   6.425 -1.2722 -0.0916 -2.1650
 8627SOL    HW237341   3.036   1.255   6.493  3.3821 -0.5598 -0.7251
 8628SOL     OW37342   4.417   4.429   1.879  0.1660  0.3425  0.1996
 8628SOL    HW137343   4.396   4.520   1.903  0.4502 -0.5063  3.6929
 8628SOL    HW237344   4.341   4.397   1.832 -1.7839  0.4846  3.2613
 8629SOL     OW37345   1.301   4.396   1.926 -0.1008 -0.1950  0.2049
 8629SOL    HW137346   1.209   4.417   1.943 -0.1276 -0.5585  0.5148
 8629SOL    HW237347   1.322   4.327   1.988  0.8957 -0.5484 -0.5245
 8630SOL     OW37348   0.468   2.105   1.514 -0.5517  0.9389 -0.4861
 8630SOL    HW137349   0.504   2.189   1.542 -0.9672  1.4579 -1.4868
 8630SOL    HW237350   0.377   2.111   1.545 -0.4982  0.7900 -0.3016
 8631SOL     OW37351   0.754   2.907   5.154  0.2094 -0.7411 -0.0566
 8631SOL    HW137352   0.719   2.911   5.065  0.4895  0.4692 -0.1168
 8631SOL    HW237353   0.783   2.816   5.163  0.1686 -0.6421  1.0733
 8632SOL     OW37354   2.867   1.244   3.401 -0.2001 -0.1054  0.7729
 8632SOL    HW137355   2.960   1.250   3.379 -0.2641 -1.8605  0.0089
 8632SOL    HW237356   2.854   1.304   3.475  2.2277 -0.9527  1.8642
 8633SOL     OW37357   3.267   2.744   2.963 -0.3024 -0.5586  0.0269
 8633SOL    HW137358   3.317   2.792   3.029  1.9920 -0.8203 -1.4900
 8633SOL    HW237359   3.339   2.682   2.948 -0.0268  0.0733 -1.2873
 8634SOL     OW37360   2.914   0.692   4.277  0.0431  0.1650 -0.5922
 8634SOL    HW137361   2.896   0.772   4.327 -0.1971  0.0357 -0.4748
 8634SOL    HW237362   2.945   0.732   4.196 -0.6851  0.3212 -0.7932
 8635SOL     OW37363   4.659   3.883   3.029 -0.2617  0.0669 -0.1804
 8635SOL    HW137364   4.726   3.923   2.973  1.2562 -2.8080 -0.4609
 8635SOL    HW237365   4.669   3.927   3.113  0.4544 -1.4099  0.5082
 8636SOL     OW37366   2.977   4.375   3.659  0.2955 -0.2136  0.4405
 8636SOL    HW137367   3.003   4.371   3.751 -0.7287  0.4321  0.7508
 8636SOL    HW237368   2.920   4.451   3.654  1.2134  0.4277 -0.2585
 8637SOL     OW37369   3.731   2.310   6.902  0.4693 -0.4622  0.6151
 8637SOL    HW137370   3.803   2.373   6.894  3.1799 -3.9022 -1.8072
 8637SOL    HW237371   3.689   2.308   6.816  1.4660 -1.8344  0.1595
 8638SOL     OW37372   3.602   3.116   8.817 -0.3032 -0.4774 -0.4946
 8638SOL    HW137373   3.511   3.143   8.828  0.4913  1.7592  0.6897
 8638SOL    HW237374   3.654   3.193   8.839  1.1641 -1.2618 -1.2184
 8639SOL     OW37375   2.331   2.803   2.120  0.1226 -0.3067  0.0105
 8639SOL    HW137376   2.389   2.835   2.051  1.4481 -0.3891  1.0732
 8639SOL    HW237377   2.250   2.794   2.070 -0.8813  2.8490  1.0215
 8640SOL     OW37378   0.315   2.862   4.144  0.3937 -0.2988  0.0536
 8640SOL    HW137379   0.234   2.890   4.101  0.5401 -0.3442 -0.2488
 8640SOL    HW237380   0.368   2.838   4.069 -1.8935  0.6817 -1.8944
 8641SOL     OW37381   3.863   3.894  17.683  0.7285 -0.4967  0.1762
 8641SOL    HW137382   3.892   3.807  17.657  1.9726  0.6476 -2.3187
 8641SOL    HW237383   3.867   3.900   0.074  2.5773  0.7831  0.0201
 8642SOL     OW37384   3.335   0.265   3.524 -0.0106  0.2068  0.0812
 8642SOL    HW137385   3.280   0.325   3.473  0.0509  1.4196  1.4538
 8642SOL    HW237386   3.317   0.276   3.617  0.6035  0.3667  0.1764
 8643SOL     OW37387   3.853   0.319  11.441 -0.3162 -0.1239 -0.3389
 8643SOL    HW137388   3.905   0.270  11.505  0.0012  0.8155  0.1327
 8643SOL    HW237389   3.913   0.319  11.366 -0.7716  0.5887 -0.6968
 8644SOL     OW37390   4.480   0.602   3.146 -0.3079 -0.5664 -0.4321
 8644SOL    HW137391   4.493   0.629   3.237 -0.2746 -0.7575 -0.3810
 8644SOL    HW237392   4.422   0.673   3.117  2.1079  0.7757 -1.9660
 8645SOL     OW37393   0.667   2.829   3.128  0.7003 -0.0321 -0.4769
 8645SOL    HW137394   0.645   2.901   3.070  1.0913 -1.6070 -2.5872
 8645SOL    HW237395   0.649   2.755   3.070 -2.2793  0.6288 -0.3823
 8646SOL     OW37396   2.965   1.152   4.506  0.1699  0.4305 -0.0899
 8646SOL    HW137397   2.992   1.185   4.420 -0.8717 -0.6584 -0.8223
 8646SOL    HW237398   2.883   1.200   4.507  0.0091  0.1483  0.1340
 8647SOL     OW37399   1.069   2.247   2.246  0.5016  0.7378 -0.0603
 8647SOL    HW137400   1.131   2.312   2.277 -0.7565  2.4058 -1.0425
 8647SOL    HW237401   1.128   2.181   2.210  0.9827  0.9841  0.2761
 8648SOL     OW37402   0.075   0.734   3.025 -0.0844  0.0636 -0.4590
 8648SOL    HW137403   0.101   0.646   3.000  1.0511  1.0844 -2.8997
 8648SOL    HW237404   0.086   0.730   3.120 -0.6320 -1.2201 -0.4447
 8649SOL     OW37405   4.208   0.120   1.202 -0.3019 -0.1900  0.1322
 8649SOL    HW137406   4.158   0.137   1.122  0.5466  2.1691  0.1007
 8649SOL    HW237407   4.139   0.089   1.261  0.0233  0.8657  1.0704
 8650SOL     OW37408   0.686   4.626   2.178 -0.3396  0.2458 -0.3606
 8650SOL    HW137409   0.748   4.684   2.223  1.0482 -0.4181 -1.4152
 8650SOL    HW237410   0.691   4.545   2.229  2.6784  0.6194 -0.0485
 8651SOL     OW37411   3.810   4.572   5.112  0.0357 -0.0708 -0.3528
 8651SOL    HW137412   3.801   4.551   5.019  3.7519  0.0807 -0.7383
 8651SOL    HW237413   3.888   4.522   5.137 -0.0410 -0.2846 -0.5322
 8652SOL     OW37414   2.723   1.764   8.861 -0.1291 -0.0584  0.3767
 8652SOL    HW137415   2.673   1.690   8.826  3.0725 -1.8309 -0.4639
 8652SOL    HW237416   2.686   1.777   8.949 -0.3129  0.3818  0.2354
 8653SOL     OW37417   2.002   4.395  11.679  0.2023  0.1197  0.7671
 8653SOL    HW137418   2.084   4.444  11.667  0.7754 -0.8360  0.7687
 8653SOL    HW237419   2.019   4.313  11.633 -0.6817  0.9126 -0.9438
 8654SOL     OW37420   0.526   4.413   5.794 -0.4673  0.2211  0.3420
 8654SOL    HW137421   0.556   4.492   5.838  0.5918  0.7465 -1.3170
 8654SOL    HW237422   0.569   4.432   5.711 -0.9666 -0.6506 -0.1170
 8655SOL     OW37423   3.573   1.950   2.554 -0.1651 -0.4933 -0.2034
 8655SOL    HW137424   3.527   2.019   2.505 -0.1288 -1.5269 -1.6973
 8655SOL    HW237425   3.655   1.999   2.563 -0.4441 -0.5219  2.2330
 8656SOL     OW37426   2.306   3.900   1.379 -0.6198  0.1300 -0.1585
 8656SOL    HW137427   2.343   3.942   1.302 -3.9910  1.6765 -0.9228
 8656SOL    HW237428   2.308   3.808   1.354  0.2610  0.6794 -2.0515
 8657SOL     OW37429   2.193   0.494  12.255 -0.6416  0.3981 -0.3527
 8657SOL    HW137430   2.245   0.439  12.196 -0.9852  0.1373 -0.4167
 8657SOL    HW237431   2.144   0.537  12.186  0.4721  0.3936 -1.1409
 8658SOL     OW37432   2.182   0.172   3.421  0.2482  0.0410 -0.1770
 8658SOL    HW137433   2.167   0.119   3.342 -1.5694  0.6741 -0.2524
 8658SOL    HW237434   2.237   0.239   3.382 -1.2364  2.8906  2.6115
 8659SOL     OW37435   1.371   3.160   6.510 -0.0838  0.5751  0.0938
 8659SOL    HW137436   1.287   3.197   6.482 -0.4130  0.0088  0.3407
 8659SOL    HW237437   1.369   3.070   6.478 -2.3305  0.7735 -0.3140
 8660SOL     OW37438   3.516   2.067   5.250 -0.6751 -0.7305 -0.1258
 8660SOL    HW137439   3.552   1.994   5.200  2.3807 -0.4184  1.5891
 8660SOL    HW237440   3.585   2.099   5.309  0.2464  0.4759 -1.8364
 8661SOL     OW37441   3.844   1.703   6.701  0.1633  0.0648  0.0844
 8661SOL    HW137442   3.900   1.649   6.756  0.3744 -0.5901 -0.7860
 8661SOL    HW237443   3.801   1.753   6.771 -2.7437  1.8678 -2.9872
 8662SOL     OW37444   2.936   0.852  17.343 -0.4362  0.5678 -0.1336
 8662SOL    HW137445   2.950   0.923  17.406 -2.4860  0.5281  0.3481
 8662SOL    HW237446   2.850   0.870  17.304 -1.0057 -0.9712  0.4423
 8663SOL     OW37447   1.426   3.185   6.818  0.5522 -0.0907 -0.0713
 8663SOL    HW137448   1.374   3.128   6.874  0.2794 -0.5334 -0.7798
 8663SOL    HW237449   1.368   3.196   6.742  1.8914 -0.5352 -1.1614
 8664SOL     OW37450   1.326   2.267   2.385  0.7612  0.1000  0.1298
 8664SOL    HW137451   1.409   2.310   2.364 -0.1812  1.4388 -0.8130
 8664SOL    HW237452   1.344   2.179   2.350  4.4051  1.6968 -1.9927
 8665SOL     OW37453   3.189   0.345   3.800  0.4902  0.5417 -0.3262
 8665SOL    HW137454   3.220   0.400   3.872  1.8049 -0.1149 -0.4059
 8665SOL    HW237455   3.254   0.275   3.799 -0.5833 -0.4508  2.0468
 8666SOL     OW37456   1.583   1.554  13.433  0.6351  0.1898 -0.2169
 8666SOL    HW137457   1.615   1.491  13.368  0.8033  1.9158 -1.8277
 8666SOL    HW237458   1.522   1.499  13.480  0.6013 -2.0069 -2.8083
 8667SOL     OW37459   1.238   0.432   6.490 -0.8408  0.2531  0.3637
 8667SOL    HW137460   1.213   0.514   6.533  1.1173 -0.9154  3.8024
 8667SOL    HW237461   1.164   0.419   6.431  1.1717  2.6171 -2.6604
 8668SOL     OW37462   3.566   2.228   2.396 -0.1082 -0.1353  0.3677
 8668SOL    HW137463   3.473   2.245   2.382 -0.1456 -1.1625 -0.6161
 8668SOL    HW237464   3.594   2.188   2.314  0.0762  1.5586 -0.3786
 8669SOL     OW37465   4.701   2.876   5.279  0.6844  0.4868 -0.1990
 8669SOL    HW137466   4.640   2.805   5.297  1.2006 -0.1855 -1.1151
 8669SOL    HW237467   0.046   2.856   5.339  2.7254 -1.5660 -3.2735
 8670SOL     OW37468   4.067   2.602   5.533 -0.2591 -0.3812 -0.0036
 8670SOL    HW137469   4.158   2.633   5.534 -0.0497 -0.9895 -0.4369
 8670SOL    HW237470   4.071   2.541   5.607 -1.8016  0.2590  0.5992
 8671SOL     OW37471   0.713   2.265   7.833  0.7348 -0.3805 -0.0766
 8671SOL    HW137472   0.772   2.306   7.897 -1.7664 -0.0277  2.0098
 8671SOL    HW237473   0.751   2.297   7.752  1.4365 -0.0247  0.3906
 8672SOL     OW37474   4.192   1.734  16.117 -0.2418 -0.0080  0.3417
 8672SOL    HW137475   4.266   1.776  16.162  1.5982  0.0872 -2.8118
 8672SOL    HW237476   4.124   1.759  16.181  0.8752  2.3514  0.6003
 8673SOL     OW37477   1.924   3.203   7.206 -0.3052 -0.2738 -0.3871
 8673SOL    HW137478   1.917   3.141   7.133 -0.7791 -0.6141 -0.0567
 8673SOL    HW237479   1.918   3.282   7.152 -0.1749  1.0033  1.4672
 8674SOL     OW37480   3.981   3.847   7.471 -0.1520  0.3424  0.3069
 8674SOL    HW137481   3.959   3.916   7.408  1.2305 -0.2232 -0.8009
 8674SOL    HW237482   4.075   3.834   7.457 -0.6642 -1.3075 -1.6365
 8675SOL     OW37483   1.338   1.737   1.344  0.0342  0.1438  0.6600
 8675SOL    HW137484   1.363   1.655   1.303 -0.3641 -0.4843  1.6588
 8675SOL    HW237485   1.423   1.780   1.347  0.3728 -0.6059  1.6882
 8676SOL     OW37486   0.554   0.884   5.383 -0.5147 -0.0982  0.2208
 8676SOL    HW137487   0.585   0.831   5.457 -0.1313  0.4245  0.4393
 8676SOL    HW237488   0.586   0.832   5.309 -1.4808 -0.3544 -0.0136
 8677SOL     OW37489   4.439   0.176  16.001 -0.0092 -0.3686 -0.1186
 8677SOL    HW137490   4.523   0.221  16.006  0.0493 -0.4418 -0.4632
 8677SOL    HW237491   4.381   0.252  16.006 -0.7672 -0.9762  0.3849
 8678SOL     OW37492   4.316   1.243   7.559  0.6847 -0.1263  0.4654
 8678SOL    HW137493   4.324   1.339   7.562 -0.1926 -0.0774  1.2762
 8678SOL    HW237494   4.375   1.219   7.631 -2.1437 -0.3934  2.6766
 8679SOL     OW37495   1.098   3.164   8.844  0.2071 -0.2075  0.0973
 8679SOL    HW137496   1.153   3.241   8.860  0.9710 -0.6127 -0.5673
 8679SOL    HW237497   1.138   3.102   8.783  0.8759 -2.5171  2.8980
 8680SOL     OW37498   3.095   4.705   6.465  0.5802  0.3431  0.7127
 8680SOL    HW137499   3.057   0.010   6.383  0.1103  0.5976  1.0243
 8680SOL    HW237500   3.036   4.636   6.494  0.7080 -0.5411 -1.1473
 8681SOL     OW37501   1.696   1.525   2.562  0.1805  0.3882  0.1801
 8681SOL    HW137502   1.732   1.467   2.495 -1.4983  0.9637 -1.2170
 8681SOL    HW237503   1.739   1.606   2.534 -0.3192  0.7040  0.3297
 8682SOL     OW37504   3.075   2.116   8.409  0.3665  0.2364  0.7605
 8682SOL    HW137505   3.126   2.196   8.418  0.2657  0.6126 -1.9414
 8682SOL    HW237506   3.055   2.117   8.315 -0.4974  1.0034  0.9536
 8683SOL     OW37507   2.079   0.807  14.589 -0.3672  0.1129  0.0008
 8683SOL    HW137508   2.098   0.717  14.562 -0.8205 -0.7272  2.4513
 8683SOL    HW237509   2.152   0.841  14.640 -0.0780 -0.4816 -0.0180
 8684SOL     OW37510   2.227   2.342  14.652  0.2862  0.4137  0.1023
 8684SOL    HW137511   2.298   2.309  14.598  1.1724 -1.2941  2.3040
 8684SOL    HW237512   2.210   2.419  14.597 -1.5040 -0.6259 -0.8051
 8685SOL     OW37513   1.631   0.850   6.948 -0.2052  0.1673 -0.1668
 8685SOL    HW137514   1.539   0.832   6.928 -0.7397  0.1693  2.2798
 8685SOL    HW237515   1.665   0.849   6.858 -1.3167  0.3003 -0.5871
 8686SOL     OW37516   2.235   3.711  16.683 -0.0052 -0.0999 -0.0686
 8686SOL    HW137517   2.200   3.756  16.606 -1.6552 -0.7864  0.2725
 8686SOL    HW237518   2.318   3.757  16.696 -1.1742  1.9139  0.1769
 8687SOL     OW37519   3.121   0.784   5.857 -0.0606 -0.3234 -0.5654
 8687SOL    HW137520   3.130   0.840   5.780  2.3824  0.1015  0.0444
 8687SOL    HW237521   3.193   0.808   5.915 -0.4770 -0.4629  0.0084
 8688SOL     OW37522   2.300   0.617   2.688  0.0257 -0.6115 -0.0834
 8688SOL    HW137523   2.374   0.657   2.732 -1.5442  1.9841  0.1772
 8688SOL    HW237524   2.338   0.540   2.646  2.1161 -0.7928  2.1964
 8689SOL     OW37525   0.769   3.390  12.626  0.0185 -0.1154 -0.1213
 8689SOL    HW137526   0.726   3.347  12.700  1.6856 -1.7240 -0.0826
 8689SOL    HW237527   0.859   3.357  12.635 -0.6878 -1.5281  1.8091
 8690SOL     OW37528   4.682   3.114  14.092 -0.2286  0.2127  0.0355
 8690SOL    HW137529   4.687   3.030  14.136 -0.4400 -0.5204 -1.3177
 8690SOL    HW237530   0.002   3.177  14.147  0.9978  1.3186 -2.2277
 8691SOL     OW37531   1.514   1.650   6.551  0.5508 -0.6277 -0.0739
 8691SOL    HW137532   1.609   1.651   6.561  0.4099 -0.1511  1.2067
 8691SOL    HW237533   1.488   1.631   6.641  0.1372 -2.0531 -0.4865
 8692SOL     OW37534   4.354   4.611   8.484  0.3626 -0.4388 -0.0919
 8692SOL    HW137535   4.364   4.637   8.393 -3.0646  1.4633  0.0881
 8692SOL    HW237536   4.294   4.668   8.533  0.6720 -0.7778  0.6798
 8693SOL     OW37537   0.535   0.663   1.642  0.3449 -0.0167  0.1660
 8693SOL    HW137538   0.493   0.732   1.693  2.0636  0.7041  0.6063
 8693SOL    HW237539   0.625   0.694   1.631 -0.6099  1.9559 -1.8980
 8694SOL     OW37540   4.094   2.812   5.311  0.5802  0.1028 -0.1428
 8694SOL    HW137541   4.159   2.785   5.376 -0.9984  0.2926  1.4938
 8694SOL    HW237542   4.027   2.855   5.363  0.6229  2.2807 -1.9146
 8695SOL     OW37543   3.734   2.726   1.804  0.0528 -0.2416 -0.6128
 8695SOL    HW137544   3.702   2.655   1.748 -1.5753  0.6136 -0.7745
 8695SOL    HW237545   3.797   2.764   1.743  2.1329 -1.9553  0.5204
 8696SOL     OW37546   2.102   1.396   5.132 -0.1101  0.2951 -0.0450
 8696SOL    HW137547   2.177   1.337   5.127 -0.5308 -0.0330 -2.5080
 8696SOL    HW237548   2.029   1.335   5.121 -0.8870  1.6145 -2.2394
 8697SOL     OW37549   3.965   3.417   5.833 -0.3167 -0.4089  0.0781
 8697SOL    HW137550   3.904   3.382   5.767  1.3075  2.1194 -2.7466
 8697SOL    HW237551   4.039   3.357   5.826  0.5254  0.5969  0.3767
 8698SOL     OW37552   4.577   1.431   1.874  0.1175  0.7960  0.3443
 8698SOL    HW137553   4.525   1.357   1.844 -0.6121  0.3679  2.6755
 8698SOL    HW237554   4.508   1.486   1.910  0.7579  0.9613  1.3536
 8699SOL     OW37555   0.278   2.657   7.932  0.1082  0.6076  0.2981
 8699SOL    HW137556   0.261   2.570   7.967  1.3684  0.8029  1.4171
 8699SOL    HW237557   0.228   2.661   7.850  1.7185  1.2328 -0.6582
 8700SOL     OW37558   1.669   1.950   6.249 -1.3443 -0.1189 -0.0027
 8700SOL    HW137559   1.761   1.941   6.276 -1.4652  0.1348  0.5093
 8700SOL    HW237560   1.638   1.991   6.330 -1.5542  0.1792 -0.2364
 8701SOL     OW37561   4.025   3.633   9.925  0.0918  0.6333  0.5897
 8701SOL    HW137562   4.064   3.551   9.956 -1.9771 -0.5485  0.0574
 8701SOL    HW237563   4.069   3.633   9.840 -1.1298  1.1374 -0.0431
 8702SOL     OW37564   2.337   0.085  13.774 -0.0131 -0.0183  0.1220
 8702SOL    HW137565   2.266   0.138  13.810  0.1284  0.9227 -0.9734
 8702SOL    HW237566   2.300   4.724  13.764 -0.0783 -0.0438  0.6016
 8703SOL     OW37567   1.654   3.163   2.445  0.1693 -0.6033 -0.3661
 8703SOL    HW137568   1.569   3.202   2.464  0.5457  0.5464 -1.0611
 8703SOL    HW237569   1.628   3.129   2.359  0.5211 -0.7041 -0.4338
 8704SOL     OW37570   4.262   0.567   8.450  0.1910 -0.0675  0.0989
 8704SOL    HW137571   4.226   0.563   8.361  1.9414  0.1099 -0.6232
 8704SOL    HW237572   4.352   0.588   8.425  0.7998  0.5911  2.8875
 8705SOL     OW37573   0.510   3.654   5.233  0.3301  0.2409  0.1065
 8705SOL    HW137574   0.517   3.667   5.139  0.9112 -0.4364  0.0638
 8705SOL    HW237575   0.504   3.748   5.250 -2.8207 -0.0258  0.4855
 8706SOL     OW37576   1.889   0.626   1.393  0.3678 -0.0611  0.8832
 8706SOL    HW137577   1.895   0.708   1.443 -0.7062 -0.7656  2.1491
 8706SOL    HW237578   1.967   0.658   1.347  0.8391 -0.5308  1.3687
 8707SOL     OW37579   1.474   4.557   1.771  0.1370  0.1252 -0.6647
 8707SOL    HW137580   1.488   4.638   1.821  1.9396 -0.0502 -0.9061
 8707SOL    HW237581   1.425   4.500   1.830  2.2828 -0.9554  0.0667
 8708SOL     OW37582   2.757   0.168   3.317  0.0322 -0.0654  0.7725
 8708SOL    HW137583   2.688   0.197   3.258  0.6855  1.0850  0.5677
 8708SOL    HW237584   2.787   0.085   3.280 -0.2661  0.0973  0.1669
 8709SOL     OW37585   1.019   3.912  12.998  0.6823  0.1414 -0.0824
 8709SOL    HW137586   1.020   3.947  12.909  5.1114 -3.8160 -1.6090
 8709SOL    HW237587   1.052   3.984  13.052 -1.3065  0.9453  0.0257
 8710SOL     OW37588   0.484   1.994   4.592  0.1130  0.2552 -0.1619
 8710SOL    HW137589   0.441   2.071   4.555  0.9152  0.9250  0.3151
 8710SOL    HW237590   0.412   1.957   4.642 -2.2901  1.0742 -2.9765
 8711SOL     OW37591   1.929   4.025  15.480  0.1912 -0.4447 -0.0709
 8711SOL    HW137592   2.013   4.012  15.437 -0.9169 -2.7641 -1.5101
 8711SOL    HW237593   1.900   3.934  15.481  0.6410 -0.5837 -0.1709
 8712SOL     OW37594   0.967   2.091   6.044  0.3193  0.0526  1.1393
 8712SOL    HW137595   0.968   2.056   5.955 -1.0570  2.2751  0.2643
 8712SOL    HW237596   0.929   2.026   6.102 -1.0535  0.2561  0.4510
 8713SOL     OW37597   2.280   3.106   0.778  0.0988 -0.4201 -0.2104
 8713SOL    HW137598   2.373   3.118   0.795  0.2041  0.3536 -1.3476
 8713SOL    HW237599   2.252   3.196   0.758  1.1309 -0.4351 -1.7005
 8714SOL     OW37600   0.150   4.345   4.899 -0.1794 -0.6845 -0.2283
 8714SOL    HW137601   0.089   4.291   4.849 -0.8254 -0.6995  0.5712
 8714SOL    HW237602   0.232   4.334   4.851  0.3413 -2.8020  1.1407
 8715SOL     OW37603   1.931   1.229  11.662  0.1599 -0.2723 -0.8709
 8715SOL    HW137604   1.897   1.164  11.724 -3.0664  1.3383 -0.9421
 8715SOL    HW237605   1.885   1.208  11.580  0.7895  1.1584 -1.5917
 8716SOL     OW37606   2.688   0.939  14.520  0.2126  0.0324 -0.4038
 8716SOL    HW137607   2.646   0.975  14.599  1.1348 -0.2251  0.2055
 8716SOL    HW237608   2.647   0.986  14.448 -0.2385 -1.7007 -1.2859
 8717SOL     OW37609   3.515   3.643   6.002 -0.2869 -0.3522  0.1428
 8717SOL    HW137610   3.519   3.739   6.009 -2.4877 -0.1878 -0.6959
 8717SOL    HW237611   3.444   3.639   5.938 -0.6053 -3.0641  0.6822
 8718SOL     OW37612   3.596   0.334   5.672 -0.6222 -0.3084 -0.3085
 8718SOL    HW137613   3.627   0.260   5.725 -1.6153 -1.4369 -1.3104
 8718SOL    HW237614   3.561   0.278   5.602 -1.7074 -1.6045  1.2573
 8719SOL     OW37615   1.860   3.590   9.755  0.2030  0.3285 -0.4265
 8719SOL    HW137616   1.884   3.612   9.665  2.6849  2.6455  0.7957
 8719SOL    HW237617   1.801   3.518   9.735 -0.8934  0.7306  1.3622
 8720SOL     OW37618   3.176   1.541   1.185  0.0384 -0.0209 -0.1497
 8720SOL    HW137619   3.271   1.549   1.188  0.3208 -4.0305  0.9887
 8720SOL    HW237620   3.147   1.500   1.266 -0.6094  1.8034  0.5412
 8721SOL     OW37621   1.912   3.259   6.711  0.2510 -0.8822 -0.1102
 8721SOL    HW137622   1.908   3.346   6.672 -0.7969 -1.2502 -0.8169
 8721SOL    HW237623   1.830   3.224   6.676 -0.1965  2.9598 -2.8813
 8722SOL     OW37624   1.508   4.082   2.393 -0.1969  0.0924  0.0450
 8722SOL    HW137625   1.502   3.992   2.361 -1.8976  0.5060 -0.8413
 8722SOL    HW237626   1.519   4.132   2.312 -2.3554  0.8223  0.1772
 8723SOL     OW37627   4.721   2.039   6.298 -0.9343 -0.3119  0.7482
 8723SOL    HW137628   0.013   1.983   6.223 -0.2148 -2.1522  2.2985
 8723SOL    HW237629   0.021   1.973   6.362  0.4164  1.0222  1.5890
 8724SOL     OW37630   4.710   3.415   7.446  0.3088  0.0054 -0.2903
 8724SOL    HW137631   0.051   3.416   7.514  0.3791  3.5187 -0.3847
 8724SOL    HW237632   4.662   3.334   7.464 -1.4064  1.1190  0.1749
 8725SOL     OW37633   0.467   0.636   8.992  0.3149 -0.1286 -0.1719
 8725SOL    HW137634   0.373   0.639   9.011  0.8139  2.2581  1.8981
 8725SOL    HW237635   0.485   0.729   8.977  0.0676 -0.1436 -0.5597
 8726SOL     OW37636   3.604   0.351  17.022 -0.4582  0.2009 -0.2830
 8726SOL    HW137637   3.588   0.320  16.933  1.5010  0.2366 -0.6482
 8726SOL    HW237638   3.617   0.263  17.059 -2.7006  1.1934  2.9535
 8727SOL     OW37639   1.371   3.223  16.067  0.6445 -0.8495 -0.2471
 8727SOL    HW137640   1.389   3.308  16.105  1.6492 -0.7456 -0.9510
 8727SOL    HW237641   1.389   3.170  16.145  1.9796 -0.7507 -0.4882
 8728SOL     OW37642   1.360   4.107   3.751  0.1992  0.4143 -0.2722
 8728SOL    HW137643   1.410   4.182   3.784 -0.9739  1.4747 -0.9312
 8728SOL    HW237644   1.380   4.038   3.814 -1.0143  1.1610  0.9322
 8729SOL     OW37645   1.008   0.316   9.974  0.6257 -0.4264  0.4920
 8729SOL    HW137646   1.044   0.230   9.996 -0.7310 -1.3044 -0.7222
 8729SOL    HW237647   1.077   0.364  10.020 -0.6280  1.4254  0.3934
 8730SOL     OW37648   3.150   1.855   8.419  0.3576 -0.1835 -0.2991
 8730SOL    HW137649   3.128   1.948   8.416 -2.4349 -0.8313 -0.3807
 8730SOL    HW237650   3.209   1.842   8.345  0.2134 -2.4429 -0.0126
 8731SOL     OW37651   4.134   3.909   8.838  0.0229 -0.0050  0.6855
 8731SOL    HW137652   4.072   3.981   8.825  0.3561 -0.1645 -1.8232
 8731SOL    HW237653   4.153   3.926   8.931  1.3728  2.0362  0.0479
 8732SOL     OW37654   0.946   1.496   7.270  0.1877 -0.2661  0.1722
 8732SOL    HW137655   0.995   1.414   7.258  1.7161  0.1241  3.8468
 8732SOL    HW237656   0.856   1.465   7.281  0.1564 -0.3630 -0.3419
 8733SOL     OW37657   0.686   2.692   3.744  0.0323  0.1847 -0.0501
 8733SOL    HW137658   0.720   2.762   3.801 -1.7901  0.7586  0.3090
 8733SOL    HW237659   0.697   2.615   3.799  0.2945 -0.8879 -1.6190
 8734SOL     OW37660   2.498   0.781   2.811  0.4012 -0.3252 -0.1210
 8734SOL    HW137661   2.458   0.768   2.896  0.3504  1.5706  0.1442
 8734SOL    HW237662   2.488   0.876   2.804 -0.7438 -0.2072  3.1858
 8735SOL     OW37663   0.386   0.763   1.869  0.1900  0.1040  0.1025
 8735SOL    HW137664   0.320   0.718   1.817 -0.1352 -0.6514  1.1694
 8735SOL    HW237665   0.373   0.854   1.843  0.4449  0.2060  0.3278
 8736SOL     OW37666   0.512   2.641  14.529 -0.1763 -0.2803  0.4667
 8736SOL    HW137667   0.556   2.585  14.593 -0.6406  1.0129  1.9069
 8736SOL    HW237668   0.450   2.678  14.592  1.1412 -0.3643  1.8273
 8737SOL     OW37669   0.920   1.918   0.615 -0.5220 -0.6291 -0.2791
 8737SOL    HW137670   0.984   1.972   0.661 -0.7289  2.0096 -3.1664
 8737SOL    HW237671   0.834   1.952   0.638 -0.0499  0.7680 -0.6270
 8738SOL     OW37672   0.665   4.381   1.862  0.4969  0.1851 -0.2829
 8738SOL    HW137673   0.577   4.351   1.838  0.4339 -0.9370  1.3521
 8738SOL    HW237674   0.665   4.354   1.954 -1.0301  0.7102 -0.1191
 8739SOL     OW37675   4.217   2.907   6.056 -0.0900 -0.3586 -0.3006
 8739SOL    HW137676   4.271   2.918   5.978  1.9659 -0.2675  1.1413
 8739SOL    HW237677   4.244   2.989   6.097  0.5566 -1.6014  1.7229
 8740SOL     OW37678   1.127   1.767   4.069  0.5687  0.2009 -0.1979
 8740SOL    HW137679   1.149   1.684   4.026 -0.4081  0.6632 -1.5794
 8740SOL    HW237680   1.171   1.828   4.010  2.5056 -0.2184  0.8007
 8741SOL     OW37681   0.858   2.982   2.283 -0.1709 -0.7113 -0.0818
 8741SOL    HW137682   0.951   2.976   2.262 -0.0004 -0.9207  0.7454
 8741SOL    HW237683   0.825   2.892   2.285 -1.5376 -0.2580 -2.3533
 8742SOL     OW37684   1.705   2.708   4.061  0.0723 -0.1383  0.0708
 8742SOL    HW137685   1.656   2.631   4.032  2.3506 -2.3153  2.0400
 8742SOL    HW237686   1.789   2.683   4.022  0.3855  1.0155  0.0116
 8743SOL     OW37687   2.581   0.403   8.403 -0.3051  0.2496  0.1977
 8743SOL    HW137688   2.569   0.405   8.308 -0.6059  0.3895  0.2375
 8743SOL    HW237689   2.492   0.378   8.429 -0.4957  0.1746 -0.5484
 8744SOL     OW37690   4.555   0.587   6.585  0.1073 -0.2824 -0.3324
 8744SOL    HW137691   4.467   0.566   6.555  1.1662 -1.0141 -2.8801
 8744SOL    HW237692   4.582   0.502   6.619  0.3999  0.4996  1.4053
 8745SOL     OW37693   4.468   2.031   9.270 -0.2707 -0.2660 -0.5085
 8745SOL    HW137694   4.491   2.102   9.330  1.2659 -2.7358  1.8682
 8745SOL    HW237695   4.466   1.957   9.332 -2.9345 -0.6434 -1.0768
 8746SOL     OW37696   1.297   4.606   4.048 -0.1521 -0.1276 -0.3563
 8746SOL    HW137697   1.287   4.701   4.037  1.8673  0.0838 -0.2543
 8746SOL    HW237698   1.205   4.580   4.037 -0.7762  0.8044  2.5124
 8747SOL     OW37699   4.479   2.565   3.038 -0.2820  0.1146 -0.3553
 8747SOL    HW137700   4.401   2.620   3.043 -0.0405  0.5182 -1.0046
 8747SOL    HW237701   4.532   2.572   3.118 -0.6621  0.1318 -0.1089
 8748SOL     OW37702   3.493   1.154   5.733 -0.1693  0.0195  0.3503
 8748SOL    HW137703   3.507   1.181   5.642  2.4744 -1.8407  0.2152
 8748SOL    HW237704   3.564   1.091   5.745 -1.6710 -1.9087 -0.7789
 8749SOL     OW37705   4.146   0.694   2.044 -0.0526  0.5796  0.7524
 8749SOL    HW137706   4.121   0.639   1.970  0.3464 -1.7645  2.3854
 8749SOL    HW237707   4.218   0.737   1.998  2.0465 -1.8058  1.8274
 8750SOL     OW37708   2.225   3.293   2.870 -0.5875 -0.3593 -0.0800
 8750SOL    HW137709   2.253   3.322   2.956  2.8056 -0.6902 -1.0732
 8750SOL    HW237710   2.251   3.362   2.809  0.4809  0.5484  1.4053
 8751SOL     OW37711   3.242   0.592   5.667  0.2261 -0.4411 -0.5147
 8751SOL    HW137712   3.190   0.641   5.732  3.7560 -0.9877  2.7293
 8751SOL    HW237713   3.261   0.659   5.602 -0.2884  0.0478 -0.1721
 8752SOL     OW37714   1.336   2.405   8.989  0.2194 -0.1933  0.7702
 8752SOL    HW137715   1.296   2.336   8.936 -1.0534  0.6051  0.7069
 8752SOL    HW237716   1.269   2.472   8.977 -0.3839 -1.0186 -0.4633
 8753SOL     OW37717   2.285   2.068   4.942  0.0382 -0.0358 -0.2514
 8753SOL    HW137718   2.338   2.146   4.955  0.4448 -0.1233 -1.4251
 8753SOL    HW237719   2.203   2.098   4.981 -0.7622 -1.5307 -0.7505
 8754SOL     OW37720   2.789   1.945   1.611 -0.5307 -0.4207 -0.7229
 8754SOL    HW137721   2.759   2.001   1.539 -0.6994  0.0642 -0.2724
 8754SOL    HW237722   2.813   1.868   1.559  0.4541 -0.3574 -0.3758
 8755SOL     OW37723   4.020   0.128   7.943 -0.4251 -0.6514  0.1637
 8755SOL    HW137724   3.981   0.162   7.863 -1.8625 -1.2811  0.5888
 8755SOL    HW237725   4.035   0.209   7.991  2.8938 -0.3192 -1.4863
 8756SOL     OW37726   1.200   2.189  11.494 -0.2420 -0.3353 -0.4956
 8756SOL    HW137727   1.271   2.245  11.463 -0.0992 -1.1761 -1.6791
 8756SOL    HW237728   1.141   2.264  11.502 -0.7669 -0.6187 -1.6209
 8757SOL     OW37729   0.687   3.638   1.882 -0.0311 -0.3892 -0.0155
 8757SOL    HW137730   0.614   3.692   1.912  0.7433  0.0437  1.1146
 8757SOL    HW237731   0.685   3.552   1.923 -0.3441 -2.0639 -3.5550
 8758SOL     OW37732   4.084   2.403   7.866 -0.2643 -0.4190 -0.2576
 8758SOL    HW137733   4.085   2.383   7.959 -2.4718 -2.9026 -0.7670
 8758SOL    HW237734   4.001   2.360   7.844 -1.1390  0.9759  0.2957
 8759SOL     OW37735   1.560   3.819   2.326  0.4662  0.0185 -0.2457
 8759SOL    HW137736   1.644   3.784   2.298  0.0835 -0.1419 -1.2036
 8759SOL    HW237737   1.501   3.771   2.267  1.4505 -1.7039  0.1642
 8760SOL     OW37738   1.698   4.555   6.394 -0.4645  0.0531  0.0151
 8760SOL    HW137739   1.707   4.536   6.487 -0.3201 -0.4457 -0.0981
 8760SOL    HW237740   1.720   4.647   6.379 -0.9278  0.3797  1.3990
 8761SOL     OW37741   1.880   1.240   9.752 -0.2219  0.2564 -0.0638
 8761SOL    HW137742   1.856   1.244   9.844  3.7702  1.0214  0.9626
 8761SOL    HW237743   1.843   1.324   9.725  1.2472  0.7943 -0.4128
 8762SOL     OW37744   0.886   0.386  16.624 -0.6653 -0.1736  0.7534
 8762SOL    HW137745   0.836   0.304  16.618  0.6395 -0.8531 -0.9259
 8762SOL    HW237746   0.972   0.367  16.586 -1.1845 -2.2080  0.5736
 8763SOL     OW37747   0.042   0.740   8.809  0.0896 -0.7263 -0.2962
 8763SOL    HW137748   0.023   0.831   8.790  2.8451  0.0727  0.7694
 8763SOL    HW237749   4.695   0.715   8.866 -0.4387  0.0499 -0.6422
 8764SOL     OW37750   0.729   2.307   8.228 -0.1170 -0.1405  0.3473
 8764SOL    HW137751   0.655   2.249   8.210 -1.0751  1.1653  0.0741
 8764SOL    HW237752   0.688   2.393   8.219  0.8675  0.2040 -0.9015
 8765SOL     OW37753   0.373   2.643   1.100 -0.2509  0.2150  0.0451
 8765SOL    HW137754   0.445   2.704   1.115  0.0713 -0.2859  0.4980
 8765SOL    HW237755   0.392   2.572   1.161  1.9984  1.6592  1.0325
 8766SOL     OW37756   1.978   4.652   3.918  0.3719  0.1124  0.1107
 8766SOL    HW137757   1.944   4.622   4.002 -0.1212  2.6494  0.8266
 8766SOL    HW237758   1.996   4.571   3.870 -2.8550 -0.3339 -0.3393
 8767SOL     OW37759   1.388   0.530  12.156  0.0574  0.8855 -0.2834
 8767SOL    HW137760   1.422   0.618  12.138  0.2831  0.6243 -1.1457
 8767SOL    HW237761   1.341   0.531  12.239  2.6617  1.3884  1.1902
 8768SOL     OW37762   4.039   1.453   2.070  0.1973 -0.1133  0.5903
 8768SOL    HW137763   4.009   1.544   2.066 -0.1373 -0.2122  0.8273
 8768SOL    HW237764   3.960   1.417   2.029 -0.1632  1.4934 -0.1379
 8769SOL     OW37765   0.374   1.454  11.682  0.0286 -0.5381 -0.3067
 8769SOL    HW137766   0.390   1.490  11.594 -0.5151  1.3084  0.3349
 8769SOL    HW237767   0.281   1.476  11.692  0.0899 -0.1762 -0.5186
 8770SOL     OW37768   3.259   3.911   8.622  0.3241  0.2844 -0.1914
 8770SOL    HW137769   3.196   3.859   8.572  1.6593  0.2883 -1.9102
 8770SOL    HW237770   3.333   3.850   8.629 -0.0253 -0.1346 -0.1698
 8771SOL     OW37771   0.959   0.381   1.485  0.1462  0.7099  0.2406
 8771SOL    HW137772   0.907   0.427   1.551  2.0391  1.6848  1.0793
 8771SOL    HW237773   1.033   0.438   1.463 -0.9122  1.4036 -1.5454
 8772SOL     OW37774   2.503   0.078  17.220  0.4195  0.6793  0.1803
 8772SOL    HW137775   2.476   0.107  17.133 -1.0117  0.0940  0.4235
 8772SOL    HW237776   2.417   0.051  17.253  1.4374 -1.3342  1.2046
 8773SOL     OW37777   0.091   3.953   1.439 -0.3161  1.2746 -0.4824
 8773SOL    HW137778   0.163   3.910   1.392 -0.3520 -1.6116  2.0820
 8773SOL    HW237779   0.098   4.046   1.419  1.8212  1.8410  2.8249
 8774SOL     OW37780   0.201   0.772   4.910  0.2701  0.0529  0.1113
 8774SOL    HW137781   0.165   0.858   4.891  4.0606  1.5775 -0.1350
 8774SOL    HW237782   0.243   0.780   4.996  1.5853 -1.3586 -0.3896
 8775SOL     OW37783   3.474   2.849   3.386 -0.1954  0.0569  0.6803
 8775SOL    HW137784   3.520   2.780   3.434 -2.2472 -1.5733  0.3021
 8775SOL    HW237785   3.483   2.918   3.453  1.7368  2.3777 -1.9579
 8776SOL     OW37786   3.320   0.061   8.751 -0.0355 -0.2084 -0.7918
 8776SOL    HW137787   3.409   0.038   8.724  0.0051 -1.2967  0.2985
 8776SOL    HW237788   3.275   4.704   8.767 -0.2559  0.3681  1.6632
 8777SOL     OW37789   3.829   4.591   3.886  0.1014  0.6884  0.3408
 8777SOL    HW137790   3.880   4.510   3.884  0.3156  0.8691 -1.8045
 8777SOL    HW237791   3.877   4.651   3.828  2.2870 -2.3099 -0.9502
 8778SOL     OW37792   2.938   1.017   0.114 -0.2737  0.5139  0.1148
 8778SOL    HW137793   2.969   0.976   0.195  0.4968 -0.5020 -0.6969
 8778SOL    HW237794   2.892   1.097   0.139 -0.8318  0.3631 -0.4291
 8779SOL     OW37795   4.341   2.835  15.217 -0.1557  0.1164  0.1972
 8779SOL    HW137796   4.401   2.815  15.289  0.4674 -1.1600 -0.6886
 8779SOL    HW237797   4.281   2.897  15.260 -0.7778  0.5086 -1.2517
 8780SOL     OW37798   0.640   0.091   2.808  0.1087 -0.8204 -0.3771
 8780SOL    HW137799   0.696   0.168   2.800 -0.3185 -0.6594 -2.0007
 8780SOL    HW237800   0.553   0.124   2.832 -0.8828 -2.0999 -2.1590
 8781SOL     OW37801   1.050   1.430   5.952  0.1330 -0.5216 -0.7426
 8781SOL    HW137802   0.971   1.418   6.004  0.6982 -0.3233  0.1719
 8781SOL    HW237803   1.028   1.507   5.900  0.1492  0.8518  1.2784
 8782SOL     OW37804   4.594   3.500   5.318 -0.1745 -0.0129 -0.0544
 8782SOL    HW137805   4.512   3.484   5.271  1.0590 -1.4470 -1.6976
 8782SOL    HW237806   4.602   3.595   5.309  0.6640 -0.0588  0.2658
 8783SOL     OW37807   1.328   2.434   3.533  0.0314 -0.0136  0.5491
 8783SOL    HW137808   1.344   2.370   3.463  1.8621  0.1281  0.8416
 8783SOL    HW237809   1.268   2.494   3.489 -0.6287  0.0906  1.6046
 8784SOL     OW37810   2.983   4.385   5.177  0.1566  0.0215  0.3085
 8784SOL    HW137811   3.041   4.455   5.146 -0.6862  0.7215  0.3095
 8784SOL    HW237812   3.038   4.310   5.155  0.7929  0.7642 -0.6329
 8785SOL     OW37813   4.363   1.635  12.093  0.2834  0.4124 -0.2069
 8785SOL    HW137814   4.423   1.703  12.063 -1.8181  2.1496 -0.5178
 8785SOL    HW237815   4.281   1.684  12.084 -0.6352 -1.2666 -0.9834
 8786SOL     OW37816   2.386   0.755   7.463  0.0129  0.1856 -0.3067
 8786SOL    HW137817   2.382   0.745   7.368 -0.7508 -0.7218 -0.1866
 8786SOL    HW237818   2.297   0.792   7.467 -0.1196  0.1158 -3.0017
 8787SOL     OW37819   2.599   1.670   4.971  0.0230 -0.2992  0.4159
 8787SOL    HW137820   2.685   1.628   4.976 -0.7792 -2.0352 -0.3549
 8787SOL    HW237821   2.604   1.746   5.029  1.0090  0.2619 -0.4153
 8788SOL     OW37822   0.560   0.891   3.505 -0.1730 -0.1703  0.1811
 8788SOL    HW137823   0.513   0.874   3.424 -1.5579  0.2208  0.9041
 8788SOL    HW237824   0.519   0.974   3.531  0.7886 -0.1700  1.7511
 8789SOL     OW37825   4.361   0.176   3.019 -0.2377 -0.2825  0.8708
 8789SOL    HW137826   4.429   0.243   3.019 -0.6757  0.1632 -0.6113
 8789SOL    HW237827   4.316   0.200   3.101 -2.2423 -0.8709 -0.0497
 8790SOL     OW37828   3.726   0.096   5.815 -0.9155  0.2234  0.0935
 8790SOL    HW137829   3.701   0.142   5.895 -0.4290 -1.9485  1.4878
 8790SOL    HW237830   3.647   0.042   5.806 -0.6202 -0.2899  0.5805
 8791SOL     OW37831   3.675   2.980   1.872  0.0311 -0.6092 -0.4756
 8791SOL    HW137832   3.678   2.885   1.877  0.4678 -0.6041 -0.6025
 8791SOL    HW237833   3.683   3.014   1.962 -0.4688  0.7762 -0.9502
 8792SOL     OW37834   2.354   4.668   5.386 -0.5333  0.2507  0.1381
 8792SOL    HW137835   2.294   4.669   5.311 -1.7439  0.3990  1.0955
 8792SOL    HW237836   2.379   0.032   5.409  1.8089 -0.1050 -1.0487
 8793SOL     OW37837   3.360   1.645  15.030  0.5732 -0.0488 -0.0065
 8793SOL    HW137838   3.447   1.677  15.054 -0.0788  2.4833 -1.0565
 8793SOL    HW237839   3.342   1.585  15.103  1.6990  0.9347  1.0909
 8794SOL     OW37840   2.748   1.666   4.636 -0.3300  0.0163  0.0279
 8794SOL    HW137841   2.695   1.744   4.621 -0.4460  0.3852  2.3581
 8794SOL    HW237842   2.676   1.608   4.664  0.7111 -1.9425 -1.3422
 8795SOL     OW37843   2.353   3.726  17.371 -0.0296 -0.0815 -0.1909
 8795SOL    HW137844   2.320   3.798  17.425  2.1156  1.8950 -1.4730
 8795SOL    HW237845   2.307   3.650  17.407 -0.3469 -0.1334 -0.7018
 8796SOL     OW37846   0.770   4.079   1.549 -0.2158  0.2484 -0.0132
 8796SOL    HW137847   0.766   4.165   1.507 -2.2939  1.5320  2.8089
 8796SOL    HW237848   0.675   4.081   1.563 -0.4249 -2.3796 -1.1430
 8797SOL     OW37849   2.919   4.163   9.348  0.0931  0.3027  0.0945
 8797SOL    HW137850   2.920   4.240   9.291  1.9933 -0.6014 -1.1139
 8797SOL    HW237851   2.994   4.117   9.310 -0.0394  0.3536 -0.2338
 8798SOL     OW37852   0.728   1.740   2.673  0.7763  0.1288  0.2166
 8798SOL    HW137853   0.730   1.650   2.642 -0.4179  1.0678 -2.5634
 8798SOL    HW237854   0.659   1.744   2.740  0.5264  2.2241 -0.1680
 8799SOL     OW37855   2.433   1.748   8.667 -0.2427 -0.4236 -0.3829
 8799SOL    HW137856   2.468   1.736   8.755 -2.6295  1.9718  0.8765
 8799SOL    HW237857   2.376   1.672   8.656 -1.5768  0.7896 -1.9600
 8800SOL     OW37858   1.842   1.726   5.117 -0.1505 -0.3662 -0.4549
 8800SOL    HW137859   1.810   1.713   5.028  0.3438 -0.1533 -0.6626
 8800SOL    HW237860   1.823   1.819   5.132 -0.2336 -0.5546  0.6083
 8801SOL     OW37861   2.146   4.604   1.925 -0.5154  0.0838  0.0126
 8801SOL    HW137862   2.126   4.606   1.832 -1.1287 -2.0384  0.1066
 8801SOL    HW237863   2.238   4.631   1.933 -0.4602 -0.8817  2.9796
 8802SOL     OW37864   1.072   3.515   2.781  0.8750 -0.5813  0.1990
 8802SOL    HW137865   0.980   3.506   2.758  1.1825 -1.5665 -0.6356
 8802SOL    HW237866   1.118   3.475   2.707  1.0838 -2.3947  1.3208
 8803SOL     OW37867   0.759   0.913   2.920  0.8358  0.1912 -0.6970
 8803SOL    HW137868   0.809   0.988   2.887 -0.6823  0.7587 -1.7078
 8803SOL    HW237869   0.832   0.855   2.940 -0.1349 -0.8250 -0.1481
 8804SOL     OW37870   1.145   1.158  13.900  0.6116 -0.6983 -0.3088
 8804SOL    HW137871   1.160   1.180  13.809  0.3652 -3.1375 -0.9453
 8804SOL    HW237872   1.116   1.241  13.939 -1.7547 -2.0296  0.7912
 8805SOL     OW37873   4.432   2.126  12.965  0.1489  0.4199  0.4903
 8805SOL    HW137874   4.424   2.031  12.959  0.1002  0.4073  0.7629
 8805SOL    HW237875   4.466   2.142  13.053  1.9342 -0.6146 -0.0004
 8806SOL     OW37876   0.046   3.359   4.597 -0.0893  0.2529  0.3896
 8806SOL    HW137877   0.050   3.265   4.616 -0.0601  0.5125  1.6657
 8806SOL    HW237878   0.009   3.385   4.682  1.3689  0.9053  0.8247
 8807SOL     OW37879   2.208   4.569   7.272 -0.4421  0.0731 -0.0269
 8807SOL    HW137880   2.220   4.587   7.366  2.5272  1.5528 -0.6865
 8807SOL    HW237881   2.240   4.480   7.261 -1.8856 -0.2264 -1.8292
 8808SOL     OW37882   3.980   0.054  11.302 -0.0556  0.4388  0.4292
 8808SOL    HW137883   3.940   0.109  11.235 -0.0889  0.3114  0.3433
 8808SOL    HW237884   4.048   0.003  11.258 -1.1747 -0.2787 -0.4554
 8809SOL     OW37885   2.753   2.770  12.125  0.4172  0.1839  0.3606
 8809SOL    HW137886   2.694   2.829  12.077  0.1790 -0.2566  0.1164
 8809SOL    HW237887   2.838   2.811  12.109  0.1155  1.1792  1.3116
 8810SOL     OW37888   0.279   2.662  16.235 -0.2202 -0.6832 -0.1763
 8810SOL    HW137889   0.302   2.585  16.287  1.6003 -0.1949 -0.2468
 8810SOL    HW237890   0.214   2.708  16.288  0.3253 -0.2760  0.1480
 8811SOL     OW37891   3.720   1.724   7.010  0.1146  0.2737  0.0329
 8811SOL    HW137892   3.779   1.657   6.975  1.0332  0.6479  0.8541
 8811SOL    HW237893   3.634   1.684   7.016  0.6610 -1.1151 -1.6376
 8812SOL     OW37894   2.596   1.338   0.327 -0.1415 -0.1743 -0.3116
 8812SOL    HW137895   2.577   1.333   0.234  0.1201 -0.5508 -0.3470
 8812SOL    HW237896   2.634   1.426   0.333 -1.6358  0.5356 -1.4091
 8813SOL     OW37897   2.262   2.454  13.161 -0.3944 -0.1075 -0.1496
 8813SOL    HW137898   2.284   2.486  13.073  1.7584 -0.9370  0.0737
 8813SOL    HW237899   2.264   2.359  13.148 -1.7497 -0.0151 -1.1008
 8814SOL     OW37900   2.589   2.119   8.332 -0.3277 -0.0633 -0.1668
 8814SOL    HW137901   2.608   2.029   8.360 -2.6833 -0.3575  0.5517
 8814SOL    HW237902   2.551   2.159   8.411  1.7261  1.2383  0.1641
 8815SOL     OW37903   0.060   4.652   3.237  0.1616  0.2198  0.3349
 8815SOL    HW137904   4.693   4.642   3.216  0.4851  0.1120 -1.0309
 8815SOL    HW237905   0.062   0.013   3.278 -4.0694  1.0751 -1.2499
 8816SOL     OW37906   3.111   1.932  15.482  0.0265 -0.6921 -0.2209
 8816SOL    HW137907   3.122   1.942  15.577 -0.4339 -1.9947 -0.0325
 8816SOL    HW237908   3.019   1.908  15.469 -0.5043  1.7492 -1.0796
 8817SOL     OW37909   4.196   3.825   2.839 -0.1693 -0.2491  0.1557
 8817SOL    HW137910   4.237   3.765   2.777  2.7410  0.8609  1.0364
 8817SOL    HW237911   4.153   3.886   2.780 -0.2706 -1.0267 -0.5758
 8818SOL     OW37912   1.920   3.323   2.883  0.5205  0.2698 -0.2438
 8818SOL    HW137913   1.880   3.238   2.902 -0.8053  0.9738  0.1213
 8818SOL    HW237914   1.861   3.374   2.938 -0.4735  0.5968 -1.6278
 8819SOL     OW37915   1.782   3.491  12.609 -0.0465 -0.3557 -0.0224
 8819SOL    HW137916   1.791   3.568  12.665  1.4180  1.9262 -3.4193
 8819SOL    HW237917   1.761   3.522  12.521 -2.4618 -2.5407 -0.2328
 8820SOL     OW37918   2.267   1.645   6.753 -0.2631 -0.6336  0.3683
 8820SOL    HW137919   2.233   1.576   6.809  1.4273 -2.0747 -0.3909
 8820SOL    HW237920   2.241   1.601   6.672  1.3360 -0.5770 -0.1677
 8821SOL     OW37921   4.358   1.212   4.694 -0.0910 -0.0770 -0.0043
 8821SOL    HW137922   4.411   1.235   4.617 -2.7144  0.0484 -1.7927
 8821SOL    HW237923   4.270   1.232   4.663 -0.0223  1.6734  0.9473
 8822SOL     OW37924   2.348   1.291   0.525  0.6439 -0.1583  0.0695
 8822SOL    HW137925   2.422   1.317   0.469  1.1003 -3.6103 -0.9732
 8822SOL    HW237926   2.354   1.197   0.508  1.8162  0.0898 -0.9199
 8823SOL     OW37927   0.316   2.179   8.302  0.1132 -0.5137 -0.1267
 8823SOL    HW137928   0.386   2.121   8.335 -0.4797 -1.0915  0.1340
 8823SOL    HW237929   0.266   2.203   8.380  2.0085  2.2578  0.2278
 8824SOL     OW37930   0.003   4.556  15.384  0.0481  0.0117  0.3126
 8824SOL    HW137931   0.033   4.467  15.365 -1.7409 -0.7049  0.8122
 8824SOL    HW237932   0.059   4.612  15.330 -0.0362 -1.3197 -1.1572
 8825SOL     OW37933   1.592   4.606  12.541 -0.0630  0.1313 -0.1439
 8825SOL    HW137934   1.652   4.532  12.529 -0.5267 -0.7071  2.7793
 8825SOL    HW237935   1.616   4.657  12.464 -0.0221  1.8498  1.0118
 8826SOL     OW37936   0.467   0.714   7.492 -0.1694 -0.0804  0.2617
 8826SOL    HW137937   0.510   0.798   7.507  1.0459 -1.0000  1.8866
 8826SOL    HW237938   0.407   0.724   7.566  1.0612  1.1355  1.0862
 8827SOL     OW37939   1.408   2.183  15.560 -0.4609  0.0062  0.0265
 8827SOL    HW137940   1.351   2.241  15.509 -3.6584 -4.3797 -1.4302
 8827SOL    HW237941   1.497   2.216  15.547 -0.9756  0.1872 -3.1250
 8828SOL     OW37942   0.237   4.406  12.657 -0.1986 -0.0811  0.0289
 8828SOL    HW137943   0.316   4.448  12.690 -0.0591 -0.0516 -0.3406
 8828SOL    HW237944   0.165   4.445  12.707  0.5274  1.6592 -0.2629
 8829SOL     OW37945   0.682   4.440   2.591 -0.4622 -0.0412 -0.1044
 8829SOL    HW137946   0.769   4.428   2.629 -0.7751  1.0238  0.9508
 8829SOL    HW237947   0.685   4.534   2.569  0.6104  0.4511  2.1485
 8830SOL     OW37948   1.058   2.484   8.352  0.0355 -0.1091  0.5541
 8830SOL    HW137949   1.120   2.474   8.424  0.4119 -0.3288  0.2021
 8830SOL    HW237950   1.024   2.396   8.364  1.3558 -0.7384 -0.2506
 8831SOL     OW37951   4.071   4.452   7.186  0.3750 -0.3408 -0.7281
 8831SOL    HW137952   3.982   4.428   7.161 -0.6535 -0.3807  3.0633
 8831SOL    HW237953   4.058   4.515   7.257  2.4030  1.3144 -1.7917
 8832SOL     OW37954   1.047   4.312  16.668 -0.0181 -0.0398 -0.3604
 8832SOL    HW137955   1.072   4.286  16.757  2.3788 -0.5757 -1.1836
 8832SOL    HW237956   1.003   4.396  16.681  1.0093  0.5300 -0.5673
 8833SOL     OW37957   1.179   2.405   8.062  0.1397  0.0316 -0.2120
 8833SOL    HW137958   1.224   2.428   8.143  0.5441 -1.8507  0.1018
 8833SOL    HW237959   1.241   2.351   8.013  0.2863 -0.7431  0.8187
 8834SOL     OW37960   3.070   3.338  16.543  0.6894 -0.2864  0.2053
 8834SOL    HW137961   3.057   3.372  16.632 -2.2060  1.5632 -0.9402
 8834SOL    HW237962   3.046   3.247  16.556  0.9823 -1.1138 -5.0068
 8835SOL     OW37963   0.554   0.465   2.242  0.3189 -0.5419  0.0642
 8835SOL    HW137964   0.583   0.374   2.241  0.5177 -0.4776 -0.1473
 8835SOL    HW237965   0.609   0.510   2.177 -2.2432  0.1360 -1.6409
 8836SOL     OW37966   4.046   2.459   4.777 -0.0078 -0.3187 -0.7849
 8836SOL    HW137967   4.121   2.499   4.822 -1.5380  1.3421  0.3179
 8836SOL    HW237968   4.011   2.423   4.858 -0.5773  0.9535 -0.4638
 8837SOL     OW37969   3.514   3.003   2.696 -0.4130  0.7962  0.3635
 8837SOL    HW137970   3.422   2.994   2.720 -0.1100 -2.0165  0.4484
 8837SOL    HW237971   3.547   2.918   2.727 -1.3971 -0.5699 -2.3477
 8838SOL     OW37972   3.617   1.560  12.641  0.4709 -0.3494  0.2400
 8838SOL    HW137973   3.616   1.485  12.582  0.3269  0.4969 -0.8173
 8838SOL    HW237974   3.634   1.625  12.574  0.3031  0.1292  0.6630
 8839SOL     OW37975   1.264   0.506   2.906  0.0846  0.6292 -0.2477
 8839SOL    HW137976   1.238   0.425   2.948 -1.3285  0.5922 -1.1863
 8839SOL    HW237977   1.348   0.531   2.944 -0.4166  0.1856  1.1534
 8840SOL     OW37978   2.225   1.535   7.654 -0.6138  0.3280 -0.2546
 8840SOL    HW137979   2.290   1.490   7.707 -1.7708 -2.2457 -1.0336
 8840SOL    HW237980   2.208   1.469   7.587 -2.6541 -0.5620  1.1644
 8841SOL     OW37981   0.814   0.807   6.372 -0.0158  0.0144  0.3551
 8841SOL    HW137982   0.805   0.894   6.332  1.1307  0.1836  0.4549
 8841SOL    HW237983   0.909   0.805   6.387 -0.3061  1.0445  2.3307
 8842SOL     OW37984   0.915   0.114  15.579  0.0859 -0.1352  0.0283
 8842SOL    HW137985   0.896   0.103  15.486  1.0417 -0.0621 -0.1758
 8842SOL    HW237986   0.904   0.025  15.613  3.0877 -0.5035  0.0427
 8843SOL     OW37987   1.571   0.954   6.396 -0.1280 -0.3362 -0.1063
 8843SOL    HW137988   1.570   0.858   6.385 -1.1585 -0.3147 -0.2414
 8843SOL    HW237989   1.487   0.977   6.436 -1.9076 -1.0577 -3.3774
 8844SOL     OW37990   0.431   3.347   2.744  0.3297  0.1161 -0.1837
 8844SOL    HW137991   0.457   3.295   2.669 -1.0132  1.7194 -1.7578
 8844SOL    HW237992   0.338   3.324   2.749  1.0921 -2.4696  1.9552
 8845SOL     OW37993   4.574   2.918   7.011  0.5063  0.2492  0.3059
 8845SOL    HW137994   4.576   2.992   6.951 -0.4877  1.1946  1.4316
 8845SOL    HW237995   4.666   2.922   7.038  0.0946 -0.2467  1.7791
 8846SOL     OW37996   1.075   4.423   5.025 -0.7610 -0.4315 -0.2645
 8846SOL    HW137997   1.019   4.501   5.021 -0.8453 -0.6723 -3.2194
 8846SOL    HW237998   1.019   4.350   4.998 -3.0157  1.6921 -1.3316
 8847SOL     OW37999   2.694   2.088   3.142 -0.0578  0.7937 -0.5481
 8847SOL    HW138000   2.611   2.135   3.154 -0.0472  0.6722 -0.0230
 8847SOL    HW238001   2.665   1.998   3.126  0.8410  0.5725 -0.9557
 8848SOL     OW38002   0.161   1.414   0.796 -0.3791 -0.1339 -0.1981
 8848SOL    HW138003   0.072   1.391   0.824 -0.8721  1.5082 -0.4383
 8848SOL    HW238004   0.139   1.483   0.734 -1.7078  0.1126  0.5483
 8849SOL     OW38005   2.412   2.522   5.453 -0.2467  0.2135 -0.0107
 8849SOL    HW138006   2.489   2.501   5.505 -1.2809  1.1265  1.8940
 8849SOL    HW238007   2.389   2.610   5.482 -1.5051 -0.5967  1.4506
 8850SOL     OW38008   1.835   3.731  12.780 -0.4225  0.7877  0.0931
 8850SOL    HW138009   1.798   3.814  12.811 -0.6595  1.5920 -2.3355
 8850SOL    HW238010   1.928   3.753  12.774  0.0779 -1.6472 -1.1706
 8851SOL     OW38011   1.814   2.792   2.332  0.7332 -0.2670  0.6041
 8851SOL    HW138012   1.896   2.755   2.301  0.1639 -0.4551 -0.6886
 8851SOL    HW238013   1.808   2.870   2.276 -3.6649  0.9168  2.7468
 8852SOL     OW38014   3.015   1.830   2.534  0.5250 -0.3515 -0.2676
 8852SOL    HW138015   2.959   1.878   2.595 -1.2713 -0.6585 -1.6992
 8852SOL    HW238016   2.969   1.746   2.532  0.7040 -0.4324 -0.9260
 8853SOL     OW38017   1.689   3.005  16.536 -0.4801 -0.3531  0.3371
 8853SOL    HW138018   1.762   2.945  16.546 -0.4346  0.0053  2.1594
 8853SOL    HW238019   1.623   2.949  16.577  0.4115  1.3748  4.0969
 8854SOL     OW38020   0.151   1.938   2.419  0.2388  0.7535 -0.2652
 8854SOL    HW138021   0.189   1.996   2.353  0.6980 -0.8295 -1.3806
 8854SOL    HW238022   0.144   1.853   2.375 -2.0659  1.1940 -0.7369
 8855SOL     OW38023   0.566   0.681   6.448 -0.0889 -0.5710  0.4947
 8855SOL    HW138024   0.548   0.757   6.505  0.1919  0.5332 -0.8825
 8855SOL    HW238025   0.630   0.716   6.386 -1.5167 -1.5307 -1.4956
 8856SOL     OW38026   3.609   2.861   7.326 -0.0200  0.3168 -0.2911
 8856SOL    HW138027   3.627   2.953   7.306 -0.3377  0.7243  1.2937
 8856SOL    HW238028   3.690   2.822   7.294 -0.0942  0.4397 -0.6259
 8857SOL     OW38029   2.232   0.965   2.104  0.6271  0.0229 -0.4135
 8857SOL    HW138030   2.314   0.927   2.137 -1.3142 -0.8527  3.3913
 8857SOL    HW238031   2.232   0.941   2.012 -0.2891  0.5357 -0.5476
 8858SOL     OW38032   0.012   2.333   2.641  0.4917 -0.0000  0.7218
 8858SOL    HW138033   4.653   2.302   2.675 -0.2431 -1.6913 -2.5901
 8858SOL    HW238034   0.048   2.374   2.719 -0.2328  1.9790  0.0022
 8859SOL     OW38035   2.267   0.780   8.411  0.7766 -0.1285  0.4380
 8859SOL    HW138036   2.183   0.810   8.445 -0.1095 -1.5708 -0.5097
 8859SOL    HW238037   2.239   0.695   8.377 -0.5472  1.1051 -1.5330
 8860SOL     OW38038   2.998   2.687   4.303  0.1381  0.8072 -0.3768
 8860SOL    HW138039   2.977   2.658   4.392  1.0810  2.7530  0.4646
 8860SOL    HW238040   3.053   2.762   4.327  0.9902  0.6571 -1.8817
 8861SOL     OW38041   0.859   3.468   9.111 -0.4090  0.5124 -0.4066
 8861SOL    HW138042   0.888   3.377   9.111  0.0358  0.6523 -2.3606
 8861SOL    HW238043   0.765   3.462   9.096 -0.4240  0.7194 -0.3994
 8862SOL     OW38044   3.247   1.074   2.811  0.6282 -0.2710  0.9266
 8862SOL    HW138045   3.154   1.089   2.792  0.8393  0.9958  0.8958
 8862SOL    HW238046   3.257   1.002   2.749 -0.7305  0.2361  0.1275
 8863SOL     OW38047   4.102   1.951   3.386  0.3183 -0.0813 -0.1824
 8863SOL    HW138048   4.040   2.020   3.362  2.2769  1.3241 -1.2124
 8863SOL    HW238049   4.045   1.881   3.417  0.9804 -0.2708  0.5854
 8864SOL     OW38050   4.520   2.210   6.352 -0.2026 -0.3825  0.2330
 8864SOL    HW138051   4.601   2.158   6.352  0.7489  1.1026  2.8099
 8864SOL    HW238052   4.463   2.137   6.375 -2.6581  1.7095  0.7800
 8865SOL     OW38053   1.830   3.967   0.753  0.1317  0.2569 -0.3457
 8865SOL    HW138054   1.808   4.039   0.812  2.4528 -0.2296  1.0876
 8865SOL    HW238055   1.922   3.957   0.775  1.0746  1.5429 -3.7554
 8866SOL     OW38056   3.343   1.401   6.153  0.8644 -0.5975  0.0392
 8866SOL    HW138057   3.407   1.465   6.123  0.1459  0.5262  0.9093
 8866SOL    HW238058   3.343   1.331   6.088 -1.6215  0.5826 -1.2169
 8867SOL     OW38059   3.114   1.993   4.772 -0.6652  0.0989 -0.4651
 8867SOL    HW138060   3.111   2.088   4.785  3.7578  0.2226 -0.6233
 8867SOL    HW238061   3.140   1.987   4.681 -0.1488  0.6800 -0.3541
 8868SOL     OW38062   0.296   2.388   4.273  0.4629 -0.6395 -0.3812
 8868SOL    HW138063   0.303   2.480   4.298  1.1088 -1.2991  1.8348
 8868SOL    HW238064   0.379   2.381   4.226 -0.4158  0.8808 -2.1328
 8869SOL     OW38065   3.912   1.560   5.159 -0.6785  0.3394  0.1401
 8869SOL    HW138066   3.850   1.487   5.170  0.1908 -0.0923  2.1077
 8869SOL    HW238067   3.959   1.520   5.086  0.9712 -0.3797  1.5992
 8870SOL     OW38068   1.433   0.543   4.794 -0.1572  0.6824  0.7697
 8870SOL    HW138069   1.481   0.468   4.759  0.8204  1.4828  0.4144
 8870SOL    HW238070   1.434   0.529   4.888  2.4515  1.5694  0.8720
 8871SOL     OW38071   0.908   1.127   6.570  0.5378  0.4826 -0.1230
 8871SOL    HW138072   0.824   1.089   6.547  0.1873  1.0711  0.1748
 8871SOL    HW238073   0.880   1.204   6.619 -0.2057  1.2679 -1.7849
 8872SOL     OW38074   1.888   2.023   4.906  0.1710 -0.1844  0.0837
 8872SOL    HW138075   1.902   2.002   4.999 -2.7674 -1.3999  0.2312
 8872SOL    HW238076   1.943   1.955   4.867 -1.6652 -3.0555  2.4717
 8873SOL     OW38077   3.638   3.517  13.275  0.0679  0.6300 -0.1778
 8873SOL    HW138078   3.624   3.450  13.342 -1.2485 -0.5433 -1.6129
 8873SOL    HW238079   3.705   3.471  13.224  0.1321  1.8874 -1.2043
 8874SOL     OW38080   0.935   1.376   8.662 -0.1564  0.2709  0.0307
 8874SOL    HW138081   0.975   1.294   8.692 -0.5425 -0.2893 -0.9616
 8874SOL    HW238082   0.878   1.393   8.738 -0.3951 -0.5191  0.0293
 8875SOL     OW38083   3.549   4.650   6.907  0.0186 -0.4341 -1.0344
 8875SOL    HW138084   3.625   4.707   6.895  1.6259 -2.0364  1.5242
 8875SOL    HW238085   3.525   4.614   6.822 -0.6504 -0.3147 -0.8985
 8876SOL     OW38086   3.514   0.502   8.237  0.2070 -0.0060  0.0025
 8876SOL    HW138087   3.452   0.437   8.205 -1.3212  1.0366  0.8551
 8876SOL    HW238088   3.476   0.536   8.318 -0.8685 -1.0969 -0.0586
 8877SOL     OW38089   3.985   3.267   8.702 -0.5929 -0.0584  0.4410
 8877SOL    HW138090   4.031   3.293   8.782  0.2158 -0.1569  0.0099
 8877SOL    HW238091   4.015   3.176   8.698  0.8031  0.4100  0.0806
 8878SOL     OW38092   3.674   4.268   3.069  0.5689  0.6942  0.2764
 8878SOL    HW138093   3.617   4.334   3.108  0.6221  0.5392  0.6223
 8878SOL    HW238094   3.747   4.318   3.033  2.5590 -0.6258  2.4545
 8879SOL     OW38095   0.449   0.340   9.212 -0.2296  0.0664  0.6726
 8879SOL    HW138096   0.423   0.252   9.237  0.7589 -0.9573 -1.9020
 8879SOL    HW238097   0.357   0.367   9.217 -0.3065 -0.4000  1.6201
 8880SOL     OW38098   4.418   4.537   5.149  0.4450  0.4692  0.0725
 8880SOL    HW138099   4.373   4.467   5.196  0.9962  1.4498  2.0312
 8880SOL    HW238100   4.495   4.542   5.205 -1.2806  0.3428  2.4449
 8881SOL     OW38101   0.718   2.787  11.109 -0.1725 -0.0819  0.0528
 8881SOL    HW138102   0.775   2.862  11.091 -1.5199  1.7069  3.0987
 8881SOL    HW238103   0.764   2.713  11.070  0.2257 -0.7552  1.8020
 8882SOL     OW38104   1.573   3.200  10.415  0.2760  0.1216 -0.1434
 8882SOL    HW138105   1.504   3.158  10.364  1.8097 -3.1149  0.4239
 8882SOL    HW238106   1.563   3.140  10.489 -1.0137 -0.8303 -1.0915
 8883SOL     OW38107   3.314   3.666   7.054 -0.3224  0.3416  0.2065
 8883SOL    HW138108   3.377   3.693   6.988  0.2334  1.0254  1.0240
 8883SOL    HW238109   3.236   3.685   7.001  1.0392  1.8995 -1.2188
 8884SOL     OW38110   4.455   3.070   8.877  0.1773 -0.0727  0.2378
 8884SOL    HW138111   4.518   3.007   8.914 -0.2849 -0.7397 -0.0986
 8884SOL    HW238112   4.501   3.098   8.798 -2.0625  1.3216 -0.5641
 8885SOL     OW38113   0.084   1.440   8.836 -0.1600 -0.0334  0.3180
 8885SOL    HW138114   0.159   1.499   8.827  0.4944 -1.2977 -2.4417
 8885SOL    HW238115   0.135   1.367   8.871  2.0186  1.4416  0.1796
 8886SOL     OW38116   2.097   1.194   2.008 -0.3775  0.2969 -0.0059
 8886SOL    HW138117   2.088   1.280   2.049 -0.1754  0.4789 -0.3455
 8886SOL    HW238118   2.134   1.149   2.084 -2.7292 -2.6023 -0.5790
 8887SOL     OW38119   0.851   1.361   1.347 -0.5937 -0.2002  0.2970
 8887SOL    HW138120   0.871   1.423   1.277 -0.4550  0.2415  0.7266
 8887SOL    HW238121   0.813   1.418   1.414 -1.8160  0.4634 -0.9582
 8888SOL     OW38122   1.800   4.660   6.871  0.4725  0.5601  0.1315
 8888SOL    HW138123   1.736   4.716   6.917 -1.2327 -1.1341 -0.1929
 8888SOL    HW238124   1.807   4.606   6.950  0.7182  0.1380 -0.1836
 8889SOL     OW38125   1.298   4.612   8.659 -0.7041 -0.1580  0.2158
 8889SOL    HW138126   1.271   4.539   8.714  3.3190 -1.0972  0.9296
 8889SOL    HW238127   1.393   4.611   8.672 -0.7297  1.5485  0.5984
 8890SOL     OW38128   2.283   4.452   2.780  0.0080  0.2726 -0.0935
 8890SOL    HW138129   2.216   4.430   2.845  1.2995 -1.6035  0.5948
 8890SOL    HW238130   2.361   4.407   2.812 -0.0937 -0.0029 -0.2332
 8891SOL     OW38131   3.031   2.747   2.382 -0.2694 -0.1062 -0.0798
 8891SOL    HW138132   3.016   2.658   2.413 -2.1287  0.2168 -0.0728
 8891SOL    HW238133   2.990   2.788   2.458  0.7663  0.0500  0.3918
 8892SOL     OW38134   4.688   1.626  10.184 -0.1191 -0.3984 -0.2630
 8892SOL    HW138135   4.631   1.658  10.253  1.5483 -0.3297  1.0829
 8892SOL    HW238136   4.642   1.551  10.147 -2.0718  1.1573 -0.9766
 8893SOL     OW38137   1.813   3.387   7.032 -0.0672 -0.0083  0.0735
 8893SOL    HW138138   1.723   3.363   7.011  0.9515 -3.3225 -0.6361
 8893SOL    HW238139   1.799   3.480   7.019  0.5432  0.1668  0.6386
 8894SOL     OW38140   3.674   2.523   5.455  0.0138 -0.4815  0.6223
 8894SOL    HW138141   3.608   2.518   5.523 -0.8902 -0.6831 -0.2720
 8894SOL    HW238142   3.716   2.608   5.466  1.1606 -1.3092  2.6706
 8895SOL     OW38143   0.035   1.856  10.056 -0.3171  0.1991  0.1677
 8895SOL    HW138144   4.723   1.778  10.098 -0.1597 -1.1527 -2.1854
 8895SOL    HW238145   0.112   1.862  10.112  0.3965  1.1806 -0.9196
 8896SOL     OW38146   0.056   2.692   2.936  0.4018 -0.2771 -0.4609
 8896SOL    HW138147   4.702   2.660   2.893  0.7761 -1.6415 -0.1441
 8896SOL    HW238148   0.056   2.780   2.899 -1.3112  0.3583  1.0939
 8897SOL     OW38149   0.383   1.824   3.333 -0.1943 -0.5300 -0.1043
 8897SOL    HW138150   0.419   1.744   3.371 -1.3366 -0.7744  0.4533
 8897SOL    HW238151   0.397   1.893   3.398 -0.0717 -3.8466  3.3616
 8898SOL     OW38152   2.675   0.322   0.016  0.4335 -0.1914  0.4666
 8898SOL    HW138153   2.633   0.249   0.062 -1.7836  1.4181  1.0222
 8898SOL    HW238154   2.734   0.271  17.665 -0.3831  0.9737 -1.4699
 8899SOL     OW38155   1.315   2.948   5.376  0.2198  0.1063  0.8115
 8899SOL    HW138156   1.241   2.941   5.317 -0.0181  1.9162  0.9179
 8899SOL    HW238157   1.333   3.040   5.393 -0.1136  0.3814 -0.3701
 8900SOL     OW38158   3.902   2.938   1.380  0.1736 -0.0803  0.4763
 8900SOL    HW138159   3.968   2.967   1.318  0.1719 -0.3008  0.3707
 8900SOL    HW238160   3.856   2.869   1.331 -0.6578  1.3370 -0.7262
 8901SOL     OW38161   0.350   1.149   4.658  0.1914  0.2655  0.0965
 8901SOL    HW138162   0.416   1.139   4.590  1.2986  1.3369  1.0140
 8901SOL    HW238163   0.325   1.241   4.649 -0.5876  0.2807  2.4233
 8902SOL     OW38164   4.237   3.279   7.200  0.0265 -0.4365 -0.2546
 8902SOL    HW138165   4.220   3.243   7.113  0.7931 -0.1186 -0.5404
 8902SOL    HW238166   4.153   3.289   7.245  0.4846  2.0030  0.0715
 8903SOL     OW38167   3.282   3.923  12.631  1.0640  0.0466  0.4235
 8903SOL    HW138168   3.279   3.839  12.676  0.5212  0.6479  1.5224
 8903SOL    HW238169   3.378   3.929  12.630  1.0790  0.6217  3.8459
 8904SOL     OW38170   4.255   3.149   2.965  0.5428  0.3386 -0.3247
 8904SOL    HW138171   4.214   3.086   2.905  2.3263 -3.3559  2.2975
 8904SOL    HW238172   4.346   3.125   2.950 -0.0698 -0.5770 -2.4528
 8905SOL     OW38173   1.065   2.365  13.980  0.1473  0.1022 -0.0878
 8905SOL    HW138174   1.082   2.458  13.997  0.9440  0.3691 -2.3210
 8905SOL    HW238175   0.972   2.368  13.961  0.1754  0.5934 -0.1417
 8906SOL     OW38176   0.285   1.557  14.879 -0.4686 -0.5356  0.0819
 8906SOL    HW138177   0.244   1.481  14.920 -0.0189  0.4161  2.3090
 8906SOL    HW238178   0.298   1.520  14.792  1.0302 -1.8288  0.8619
 8907SOL     OW38179   0.213   2.859   3.353 -0.1036  0.6295  0.3257
 8907SOL    HW138180   0.121   2.883   3.366  0.2548  1.4565  1.3419
 8907SOL    HW238181   0.200   2.764   3.356  2.1905  0.2381 -3.0929
 8908SOL     OW38182   3.235   3.091   3.133  0.0439 -0.2286 -0.1130
 8908SOL    HW138183   3.241   2.995   3.139 -2.5145 -0.2631  2.0651
 8908SOL    HW238184   3.214   3.110   3.224 -2.6308 -0.5641 -0.6312
 8909SOL     OW38185   0.621   0.237   2.481  0.4540 -0.0074  0.3787
 8909SOL    HW138186   0.709   0.263   2.453  0.1508  1.8498  1.1625
 8909SOL    HW238187   0.601   0.309   2.540 -1.2413  0.0352 -0.2452
 8910SOL     OW38188   2.334   0.494   5.515  0.5516  0.0108  0.0725
 8910SOL    HW138189   2.352   0.498   5.609 -1.1658 -1.6321  0.4509
 8910SOL    HW238190   2.420   0.519   5.479 -0.2629 -0.8218 -2.4352
 8911SOL     OW38191   0.009   0.340   1.742  0.4605  0.1321  0.2743
 8911SOL    HW138192   0.076   0.341   1.811  0.1123  0.9934  0.5992
 8911SOL    HW238193   4.717   0.434   1.735 -0.1000  0.0324  0.4113
 8912SOL     OW38194   3.728   2.203   1.929  0.4738 -0.3952  0.1132
 8912SOL    HW138195   3.651   2.226   1.982  1.3212  1.6284  0.4679
 8912SOL    HW238196   3.795   2.199   1.998  1.3747  2.6169 -0.6039
 8913SOL     OW38197   4.645   0.884   7.799 -0.2730 -0.0361 -0.3283
 8913SOL    HW138198   4.619   0.871   7.890  0.6815  1.5409  0.1571
 8913SOL    HW238199   4.713   0.951   7.799 -1.9350  1.6698 -1.0598
 8914SOL     OW38200   3.112   2.970   3.739  0.0143  0.1754  0.0449
 8914SOL    HW138201   3.099   2.900   3.676 -1.7925  0.3030  0.2643
 8914SOL    HW238202   3.026   3.012   3.743  0.8321  1.7647  1.0953
 8915SOL     OW38203   2.186   1.730  15.517 -0.3852  0.5610  0.0061
 8915SOL    HW138204   2.120   1.726  15.449  1.1799  2.8083 -1.6399
 8915SOL    HW238205   2.130   1.725  15.594  1.1252  2.0316  1.2044
 8916SOL     OW38206   1.171   0.146  16.389 -0.3177  0.0817  0.0476
 8916SOL    HW138207   1.136   0.194  16.314  0.7368 -0.2658 -0.6643
 8916SOL    HW238208   1.087   0.120  16.427 -0.6332 -1.4806 -1.6869
 8917SOL     OW38209   3.444   4.486   5.169 -0.4748  0.5786  0.8166
 8917SOL    HW138210   3.373   4.427   5.194 -0.3205 -1.4127 -3.2966
 8917SOL    HW238211   3.452   4.547   5.242  1.5032  0.2329  0.9061
 8918SOL     OW38212   4.006   4.274  10.599  0.4320  0.4305  0.4412
 8918SOL    HW138213   3.958   4.212  10.653  2.1405 -1.7777 -0.5850
 8918SOL    HW238214   4.072   4.212  10.570  0.7535  1.6105 -1.3797
 8919SOL     OW38215   0.365   3.427   7.450 -0.0398  0.1118  0.5199
 8919SOL    HW138216   0.290   3.461   7.499  1.1401  1.5670  1.2921
 8919SOL    HW238217   0.322   3.427   7.364  0.6798 -0.5321  0.1602
 8920SOL     OW38218   4.222   1.309   4.342  0.0171  0.1284 -0.1876
 8920SOL    HW138219   4.182   1.265   4.267  0.1934  0.2252 -0.3379
 8920SOL    HW238220   4.164   1.383   4.360 -1.3789 -1.4045  1.6214
 8921SOL     OW38221   4.177   3.872   0.617 -0.1476 -0.1914  0.0776
 8921SOL    HW138222   4.272   3.875   0.632 -0.0146  0.6265 -0.9365
 8921SOL    HW238223   4.165   3.943   0.555  0.4539  0.7190  1.0065
 8922SOL     OW38224   2.241   2.278   7.180 -0.0843  0.0827  0.5910
 8922SOL    HW138225   2.199   2.192   7.179 -1.6813  0.8643 -0.5552
 8922SOL    HW238226   2.327   2.266   7.140 -0.9339 -0.7978 -0.9511
 8923SOL     OW38227   0.749   3.366  15.906 -0.3821  0.8478 -0.7466
 8923SOL    HW138228   0.729   3.275  15.883  1.1173  0.6168 -1.1342
 8923SOL    HW238229   0.823   3.360  15.965 -0.7316 -0.6617 -0.4562
 8924SOL     OW38230   1.917   3.377  14.552 -0.1021 -0.5887 -0.5287
 8924SOL    HW138231   1.978   3.321  14.505 -0.9759 -2.6379  0.7351
 8924SOL    HW238232   1.926   3.456  14.500 -1.5535 -1.8830 -2.7683
 8925SOL     OW38233   0.480   0.546  10.410  0.2576 -0.6867  0.0344
 8925SOL    HW138234   0.549   0.563  10.345 -1.0723  1.0734 -0.9125
 8925SOL    HW238235   0.447   0.633  10.433 -0.4277 -1.0424  0.4041
 8926SOL     OW38236   3.006   2.257   8.817 -0.5609  0.4627  0.0479
 8926SOL    HW138237   2.967   2.255   8.730  0.6354 -2.0485 -0.4293
 8926SOL    HW238238   3.099   2.249   8.793 -0.9839 -0.6683 -1.2074
 8927SOL     OW38239   2.943   1.909   5.295  0.8800  0.4644  0.2361
 8927SOL    HW138240   3.018   1.863   5.258 -0.0549 -0.9177  0.0299
 8927SOL    HW238241   2.969   1.895   5.386 -0.1172  1.8323  0.7220
 8928SOL     OW38242   2.142   4.677  16.604 -0.2874  0.3305  0.5110
 8928SOL    HW138243   2.154   4.618  16.530  0.2241  1.3475 -0.2111
 8928SOL    HW238244   2.049   4.695  16.600 -0.7391 -1.9447  0.7027
 8929SOL     OW38245   3.946   3.019   5.748 -0.1184  0.5346  0.2667
 8929SOL    HW138246   4.009   2.947   5.754  0.1806  1.0059  2.6893
 8929SOL    HW238247   3.998   3.079   5.694 -0.4407  1.0412  0.5205
 8930SOL     OW38248   1.416   4.601   7.223 -0.0055  0.3603 -0.5498
 8930SOL    HW138249   1.325   4.575   7.215  0.4714 -1.6910  0.5410
 8930SOL    HW238250   1.408   4.678   7.279 -0.6720 -0.3888  0.3788
 8931SOL     OW38251   1.934   3.034   7.441  0.0411  0.2265 -0.7538
 8931SOL    HW138252   1.957   3.074   7.357  0.6378  1.4596  0.0039
 8931SOL    HW238253   1.848   2.997   7.422 -0.0915  0.7577 -1.2046
 8932SOL     OW38254   2.407   0.155   4.644  0.1349 -0.6214  0.5126
 8932SOL    HW138255   2.316   0.126   4.636 -0.4194  1.2193  0.1537
 8932SOL    HW238256   2.444   0.117   4.723 -0.7455  1.0228  1.7047
 8933SOL     OW38257   2.659   4.219   2.689 -0.4839  0.1581 -0.1523
 8933SOL    HW138258   2.733   4.274   2.663 -0.0769 -0.1630  0.3444
 8933SOL    HW238259   2.701   4.150   2.739 -0.3893  0.0614 -0.3624
 8934SOL     OW38260   1.611   3.279  16.585 -0.0303 -0.0470  0.1159
 8934SOL    HW138261   1.678   3.293  16.652 -1.0771 -4.4171  2.0695
 8934SOL    HW238262   1.637   3.192  16.555  0.4840 -0.4237  1.6750
 8935SOL     OW38263   4.331   3.451   7.430  0.0711 -0.1593  0.0301
 8935SOL    HW138264   4.346   3.361   7.460 -1.6971 -0.0778  1.1272
 8935SOL    HW238265   4.243   3.444   7.392 -0.0883 -1.2244  0.5966
 8936SOL     OW38266   0.295   2.860   6.289  0.2980 -0.5701 -0.0040
 8936SOL    HW138267   0.332   2.772   6.289  2.1223  0.2023  0.6056
 8936SOL    HW238268   0.379   2.902   6.307 -0.3261  0.4521  0.5217
 8937SOL     OW38269   4.553   0.681   3.910  0.8150  0.5037 -0.4616
 8937SOL    HW138270   4.570   0.671   4.004  3.2901  2.2440 -0.7082
 8937SOL    HW238271   4.459   0.666   3.913  0.9572 -0.1796  0.4050
 8938SOL     OW38272   2.355   0.107   2.496  0.2799  0.0301  0.4559
 8938SOL    HW138273   2.265   0.074   2.494 -0.2156  1.3894  0.7045
 8938SOL    HW238274   2.378   0.115   2.404  2.8667 -0.3620  1.0583
 8939SOL     OW38275   2.811   1.419  14.792  0.8408  0.6498  0.1024
 8939SOL    HW138276   2.865   1.422  14.871 -0.6789  2.3286  1.0838
 8939SOL    HW238277   2.857   1.356  14.736 -0.4067  1.1503 -1.4978
 8940SOL     OW38278   1.561   2.841   0.034  0.4660  0.4159 -0.1322
 8940SOL    HW138279   1.643   2.792   0.029 -0.1562 -0.5907 -0.2418
 8940SOL    HW238280   1.527   2.832   0.123 -1.0879 -1.2550 -0.9069
 8941SOL     OW38281   1.206   4.496  15.936 -0.1121  0.6111 -0.7258
 8941SOL    HW138282   1.193   4.544  16.018  0.8049 -0.1328 -0.1539
 8941SOL    HW238283   1.272   4.553  15.895  1.2770  0.4797  1.3374
 8942SOL     OW38284   2.031   3.598  10.193  0.8015  0.0623 -0.3792
 8942SOL    HW138285   1.988   3.582  10.277  0.7549 -0.0804 -0.4297
 8942SOL    HW238286   2.010   3.689  10.171  2.1809  0.6727  0.8258
 8943SOL     OW38287   2.080   1.006   0.522 -0.1778  0.1287  0.2380
 8943SOL    HW138288   2.066   0.911   0.529  0.5138  0.1111  1.4235
 8943SOL    HW238289   2.154   1.019   0.582 -1.2917  0.6434  1.5061
 8944SOL     OW38290   2.532   1.930  13.495 -0.1771  0.1539 -0.3369
 8944SOL    HW138291   2.443   1.900  13.515 -0.8452  3.1106  1.2228
 8944SOL    HW238292   2.582   1.903  13.572 -0.1263 -0.2880 -0.5258
 8945SOL     OW38293   3.809   1.093   2.633  0.1150  0.2261  0.2946
 8945SOL    HW138294   3.741   1.041   2.593  0.0763 -1.0130  1.9608
 8945SOL    HW238295   3.889   1.046   2.611  0.3432 -0.4661  2.5213
 8946SOL     OW38296   1.383   4.438  13.338 -0.4138 -0.1058 -0.3554
 8946SOL    HW138297   1.394   4.351  13.301  0.0617  0.2639 -1.0795
 8946SOL    HW238298   1.320   4.417  13.407 -0.9371  2.4493 -0.0533
 8947SOL     OW38299   0.214   1.613   7.188 -0.2573 -0.2825  0.1970
 8947SOL    HW138300   0.195   1.635   7.097  0.9388  1.1641  0.2925
 8947SOL    HW238301   0.309   1.599   7.192 -0.4334 -0.9551  2.2792
 8948SOL     OW38302   1.618   0.722   7.531  0.1781  0.3174  0.1838
 8948SOL    HW138303   1.602   0.790   7.465 -1.5193  0.1764  0.4614
 8948SOL    HW238304   1.707   0.743   7.560  1.1320 -2.3337 -0.7790
 8949SOL     OW38305   0.216   0.116   8.943 -1.0188 -0.3878 -0.0292
 8949SOL    HW138306   0.186   0.205   8.929  1.4593  0.2657 -1.1273
 8949SOL    HW238307   0.175   0.080   8.864 -2.6448 -2.7741  1.8891
 8950SOL     OW38308   2.646   1.211  15.748  0.0766 -0.3241  0.3914
 8950SOL    HW138309   2.596   1.257  15.681  3.2473  0.3618 -1.4802
 8950SOL    HW238310   2.685   1.282  15.800  0.1392  0.1945 -0.3589
 8951SOL     OW38311   1.381   0.088   0.167 -0.4220 -0.1380 -0.0259
 8951SOL    HW138312   1.368   0.002   0.127 -2.0379 -0.3911  1.0490
 8951SOL    HW238313   1.297   0.097   0.212 -1.5659 -0.2042 -2.1482
 8952SOL     OW38314   1.563   0.047  13.605  0.3704 -0.0453  0.4913
 8952SOL    HW138315   1.515   0.025  13.525  1.3127 -1.3891  0.3122
 8952SOL    HW238316   1.640   4.718  13.621 -0.2095 -0.4625  1.8476
 8953SOL     OW38317   0.802   1.701   9.486  0.0794  0.3241 -0.1280
 8953SOL    HW138318   0.834   1.780   9.528  2.6657  0.1236 -1.7363
 8953SOL    HW238319   0.850   1.695   9.403  0.0285  0.5591 -0.1731
 8954SOL     OW38320   2.793   4.070   6.125 -0.6277 -0.8145  0.3997
 8954SOL    HW138321   2.827   4.159   6.128 -1.2909 -0.5890  1.2587
 8954SOL    HW238322   2.877   4.026   6.112 -0.4925 -0.4616  0.0891
 8955SOL     OW38323   4.297   2.696   8.181  0.5533 -0.4861 -0.2337
 8955SOL    HW138324   4.342   2.771   8.141  1.5260 -0.7608  0.3633
 8955SOL    HW238325   4.346   2.625   8.139 -0.3722  0.3778 -2.7955
 8956SOL     OW38326   1.455   0.184   1.375  0.0809 -0.4905 -0.1634
 8956SOL    HW138327   1.399   0.162   1.450  0.8567 -0.2942  0.4768
 8956SOL    HW238328   1.484   0.098   1.344  1.1860  0.5074 -1.8661
 8957SOL     OW38329   0.730   1.940   4.665  0.5936 -0.2558 -0.7588
 8957SOL    HW138330   0.639   1.968   4.651  1.1750  1.2140 -1.5900
 8957SOL    HW238331   0.763   1.947   4.576 -1.8286  0.2609 -1.6106
 8958SOL     OW38332   2.848   3.106  10.935 -0.5091  0.2580 -0.2507
 8958SOL    HW138333   2.857   3.121  11.029 -1.2964  0.4934 -0.2120
 8958SOL    HW238334   2.847   3.195  10.899  2.0636  0.7576  0.9802
 8959SOL     OW38335   2.749   0.160   8.894  0.0827 -0.2332 -1.1639
 8959SOL    HW138336   2.765   0.104   8.818 -0.8825 -3.0091  0.6823
 8959SOL    HW238337   2.839   0.165   8.927 -0.2396 -0.9641 -0.1825
 8960SOL     OW38338   2.211   1.421   6.931  0.0142  0.1219 -0.4301
 8960SOL    HW138339   2.195   1.434   7.024  0.3944 -2.5719  0.0317
 8960SOL    HW238340   2.180   1.330   6.922 -1.0051  0.4289  0.0134
 8961SOL     OW38341   3.413   4.386   1.758  0.5354  0.6018 -0.5227
 8961SOL    HW138342   3.325   4.389   1.722 -0.0157 -3.3298  0.4836
 8961SOL    HW238343   3.397   4.305   1.806  0.8073  1.3920  0.9290
 8962SOL     OW38344   3.982   1.804  16.271  0.1750 -0.1102 -0.1508
 8962SOL    HW138345   3.929   1.883  16.264 -0.5198 -0.7116 -1.6876
 8962SOL    HW238346   3.994   1.803  16.366  2.8328  0.9258 -0.4716
 8963SOL     OW38347   4.058   4.080  17.011 -0.7597 -0.0457  0.0891
 8963SOL    HW138348   4.124   4.022  17.048  0.3670  2.1223  1.4963
 8963SOL    HW238349   4.051   4.148  17.079 -1.3341 -0.2419  0.2232
 8964SOL     OW38350   4.693   4.671   9.060 -0.5276 -0.2163  0.0263
 8964SOL    HW138351   4.685   4.652   8.967  1.6016  1.1684 -0.4392
 8964SOL    HW238352   4.603   4.695   9.081 -0.2467  0.1630  0.8151
 8965SOL     OW38353   1.679   3.972   7.484  0.2293 -0.3526  0.0793
 8965SOL    HW138354   1.759   3.922   7.468  0.6889 -0.0197  1.3357
 8965SOL    HW238355   1.706   4.051   7.437  0.7699  0.7976  2.2909
 8966SOL     OW38356   0.192   1.583  15.707  0.4444  0.0665 -0.2307
 8966SOL    HW138357   0.182   1.669  15.747  0.2927 -1.0040  2.0446
 8966SOL    HW238358   0.122   1.589  15.641  0.9595  0.6621 -0.7171
 8967SOL     OW38359   1.750   4.296  11.141 -0.8739  0.2146  0.4643
 8967SOL    HW138360   1.747   4.379  11.188 -3.0002 -0.1702  1.0006
 8967SOL    HW238361   1.843   4.277  11.124 -1.2673  0.9998 -2.6818
 8968SOL     OW38362   0.530   3.622   8.285 -0.0921  1.0481 -0.0524
 8968SOL    HW138363   0.445   3.581   8.298  0.0259 -0.1383 -2.8222
 8968SOL    HW238364   0.539   3.668   8.368  0.6104  0.7254  0.0528
 8969SOL     OW38365   1.139   4.139  13.067 -0.1593 -0.1110 -0.1962
 8969SOL    HW138366   1.099   4.223  13.047 -0.7413 -0.2603  0.3241
 8969SOL    HW238367   1.132   4.135  13.163  0.6135 -0.2636 -0.1424
 8970SOL     OW38368   2.941   4.088  16.984  0.3496  0.3157  0.6650
 8970SOL    HW138369   3.017   4.111  17.039  0.2212  2.9521 -0.2751
 8970SOL    HW238370   2.908   4.177  16.971 -0.6405 -0.3504 -1.3128
 8971SOL     OW38371   3.656   3.396   2.651  0.3078 -0.0455  0.4573
 8971SOL    HW138372   3.665   3.466   2.587 -0.4978 -0.8010 -0.4807
 8971SOL    HW238373   3.561   3.392   2.639  0.1157  3.0822  0.8013
 8972SOL     OW38374   2.576   4.372   4.575  0.7057  0.0938 -0.2802
 8972SOL    HW138375   2.515   4.300   4.591  0.0214  0.8661  0.5900
 8972SOL    HW238376   2.544   4.447   4.624  0.3443 -0.2139 -0.0488
 8973SOL     OW38377   4.487   4.288   7.849 -0.0224  0.0235  0.3591
 8973SOL    HW138378   4.517   4.211   7.801 -0.1186  0.6874 -0.7539
 8973SOL    HW238379   4.426   4.333   7.791  0.3857  0.1616  0.0381
 8974SOL     OW38380   3.333   2.061   4.125 -0.2321 -0.4818 -0.2294
 8974SOL    HW138381   3.370   2.144   4.093  1.0814 -2.6009 -4.1409
 8974SOL    HW238382   3.348   2.066   4.219 -0.8313  0.4028 -0.1723
 8975SOL     OW38383   3.780   3.939   2.359  0.0972 -0.4983  0.0420
 8975SOL    HW138384   3.728   3.900   2.289 -0.8641 -1.0100  1.0547
 8975SOL    HW238385   3.771   4.033   2.343 -0.7082 -0.8671 -1.7601
 8976SOL     OW38386   2.921   3.295   6.090 -0.2131  0.4872  0.4908
 8976SOL    HW138387   2.985   3.257   6.150 -0.6057 -0.3386  0.3894
 8976SOL    HW238388   2.978   3.307   6.014 -1.1660 -2.4057 -0.6683
 8977SOL     OW38389   2.117   3.049   2.868  0.0327  0.6946  0.2593
 8977SOL    HW138390   2.087   3.095   2.789 -0.8146  1.9068  1.2883
 8977SOL    HW238391   2.164   3.121   2.910  2.0008 -0.1622 -0.5046
 8978SOL     OW38392   0.638   3.684   9.473 -0.4908 -0.2833  0.2014
 8978SOL    HW138393   0.718   3.635   9.456  0.6378  1.3878  0.7480
 8978SOL    HW238394   0.588   3.682   9.391  0.1911  0.3291 -0.2201
 8979SOL     OW38395   1.458   2.854   5.156  0.0825 -0.4098 -0.0854
 8979SOL    HW138396   1.387   2.884   5.213 -1.5963 -0.7608 -1.9821
 8979SOL    HW238397   1.532   2.874   5.212 -1.0355 -0.2661  1.3298
 8980SOL     OW38398   0.034   2.892   5.851  0.2317  0.4674  0.0759
 8980SOL    HW138399   0.038   2.954   5.925  1.9279  0.8583 -0.3486
 8980SOL    HW238400   0.096   2.831   5.891 -0.3015 -0.6924 -0.8997
 8981SOL     OW38401   1.197   4.227   4.375  0.3740  0.4656 -0.4977
 8981SOL    HW138402   1.257   4.154   4.358 -0.4495 -0.2103 -0.4722
 8981SOL    HW238403   1.163   4.247   4.288 -1.2897 -1.6279 -0.3169
 8982SOL     OW38404   1.123   2.935   5.199 -0.3716 -0.1189  0.0725
 8982SOL    HW138405   1.081   2.857   5.164 -1.0144 -0.6394  1.9851
 8982SOL    HW238406   1.099   2.995   5.128  1.2017 -0.0379 -0.4055
 8983SOL     OW38407   2.425   0.648  14.678 -0.1959  0.2269 -0.2969
 8983SOL    HW138408   2.409   0.614  14.590  0.3882 -0.1787 -0.2430
 8983SOL    HW238409   2.375   0.729  14.670 -0.0070  0.1894 -1.7225
 8984SOL     OW38410   2.752   0.910   3.081  0.2821 -0.2603  0.1284
 8984SOL    HW138411   2.700   0.887   3.157  1.8233  0.2754  1.3431
 8984SOL    HW238412   2.840   0.916   3.119  0.5712  0.8897 -0.7087
 8985SOL     OW38413   2.790   1.207   5.669 -0.3906  0.1717 -0.4979
 8985SOL    HW138414   2.827   1.174   5.751 -0.4218 -0.4805 -0.7388
 8985SOL    HW238415   2.765   1.294   5.699  2.1688  0.3386  1.1207
 8986SOL     OW38416   2.479   1.938  10.969 -0.1234 -0.0042  0.1060
 8986SOL    HW138417   2.535   1.908  10.897 -1.1709  0.0623 -0.7386
 8986SOL    HW238418   2.477   1.859  11.022  0.8980 -0.8057 -1.0458
 8987SOL     OW38419   4.647   0.730  16.375  0.1227  0.2136  0.2046
 8987SOL    HW138420   4.663   0.636  16.368  1.2308  0.2336  2.2714
 8987SOL    HW238421   4.669   0.754  16.285  0.1147 -2.0967 -0.4062
 8988SOL     OW38422   1.038   2.800   3.436  0.5380 -0.0564 -0.3832
 8988SOL    HW138423   0.985   2.725   3.463 -2.0292  1.4928 -1.0755
 8988SOL    HW238424   0.976   2.860   3.395  0.1527  0.6679  1.2645
 8989SOL     OW38425   3.784   3.877   7.769  0.4524 -0.5025  0.0754
 8989SOL    HW138426   3.857   3.938   7.761  0.6926 -0.4633  2.6521
 8989SOL    HW238427   3.816   3.826   7.694 -1.6355  0.1484 -1.2912
 8990SOL     OW38428   4.277   1.536   8.302  0.0861 -1.0360  0.2703
 8990SOL    HW138429   4.251   1.569   8.388  3.3221  0.0418  0.8380
 8990SOL    HW238430   4.190   1.519   8.267 -0.9443 -0.6184  2.6020
 8991SOL     OW38431   0.024   3.295   8.511  0.1951  0.5015 -0.4814
 8991SOL    HW138432   4.724   3.340   8.430  0.0630 -0.2087 -0.8268
 8991SOL    HW238433   0.007   3.357   8.582 -1.1002 -1.3266  0.8038
 8992SOL     OW38434   1.637   2.093   7.627 -1.0099  0.1066  0.1074
 8992SOL    HW138435   1.663   2.018   7.573  0.3247  3.4281 -3.8768
 8992SOL    HW238436   1.682   2.163   7.580  0.7271 -0.0002  1.5945
 8993SOL     OW38437   2.322   3.007   3.517 -0.0636  0.0711 -0.1153
 8993SOL    HW138438   2.286   3.030   3.603  2.8481  1.4807  0.7184
 8993SOL    HW238439   2.345   2.915   3.529  1.6593  0.4627 -0.4081
 8994SOL     OW38440   3.180   4.588   3.846  0.5135 -0.3443  0.4374
 8994SOL    HW138441   3.140   4.599   3.759 -0.4384 -0.8329  0.8207
 8994SOL    HW238442   3.258   4.538   3.821  0.5518 -1.2361  2.3797
 8995SOL     OW38443   0.059   2.793   6.413  0.0862 -0.4667  0.2159
 8995SOL    HW138444   0.128   2.817   6.350 -0.6514  1.1982  0.0619
 8995SOL    HW238445   0.079   2.699   6.405 -2.5360 -0.9501 -0.4056
 8996SOL     OW38446   2.668   0.145  15.426 -0.1073 -0.2715  0.3101
 8996SOL    HW138447   2.729   0.163  15.498 -1.5704 -1.1977  1.7788
 8996SOL    HW238448   2.726   0.147  15.349 -0.2263 -0.1759  0.2236
 8997SOL     OW38449   3.292   2.224   2.378 -1.1239  0.0723  0.4794
 8997SOL    HW138450   3.244   2.142   2.370 -1.3185  0.2619 -0.2287
 8997SOL    HW238451   3.243   2.277   2.441  2.7643  2.1403  1.7667
 8998SOL     OW38452   4.559   3.953  15.564 -0.2059  0.3355  0.4922
 8998SOL    HW138453   4.547   4.036  15.518  2.2067  0.7379  0.6366
 8998SOL    HW238454   4.473   3.955  15.607 -1.4346  2.8044 -2.1476
 8999SOL     OW38455   0.113   3.611   8.736  0.0095  0.2459  0.4165
 8999SOL    HW138456   0.073   3.640   8.818  0.5238  1.2632  0.3044
 8999SOL    HW238457   0.073   3.524   8.732 -4.7299  2.4859 -1.1827
 9000SOL     OW38458   2.839   1.082   4.033  0.4074  0.2765 -0.2050
 9000SOL    HW138459   2.908   1.016   4.044 -1.8225 -2.0096  0.0668
 9000SOL    HW238460   2.829   1.103   4.125  0.4340  1.0451 -0.3828
 9001SOL     OW38461   2.217   4.053  15.798 -0.1631 -0.2019 -0.5068
 9001SOL    HW138462   2.311   4.049  15.815 -0.2269  1.8759  0.3025
 9001SOL    HW238463   2.207   4.148  15.794 -1.9991 -0.4752 -2.1052
 9002SOL     OW38464   0.503   1.567   2.271 -0.7748  0.0339 -0.2961
 9002SOL    HW138465   0.446   1.631   2.228 -0.4112 -0.2160 -1.1503
 9002SOL    HW238466   0.561   1.632   2.309 -1.6015 -1.0238  2.8302
 9003SOL     OW38467   0.344   0.591   2.985 -0.7949 -0.4331 -0.9789
 9003SOL    HW138468   0.391   0.596   3.068  0.0854  1.0848 -1.5696
 9003SOL    HW238469   0.383   0.511   2.949 -0.3303 -1.1006  1.0073
 9004SOL     OW38470   4.122   1.284   8.493 -0.0744 -0.2130 -0.2130
 9004SOL    HW138471   4.084   1.204   8.459 -2.0930  0.1374  1.2318
 9004SOL    HW238472   4.190   1.297   8.427  1.2595  2.1945  1.6073
 9005SOL     OW38473   4.647   2.480   2.001 -0.4626 -0.6507  0.1851
 9005SOL    HW138474   4.597   2.486   1.920 -0.8378 -1.1627  0.3798
 9005SOL    HW238475   4.692   2.563   1.987 -1.0419 -0.2243  0.8799
 9006SOL     OW38476   0.232   1.117   6.566  0.4801 -0.4689 -0.0038
 9006SOL    HW138477   0.234   1.062   6.488 -1.5556  1.2769 -1.2971
 9006SOL    HW238478   0.303   1.082   6.620  0.8606  0.3923  0.0595
 9007SOL     OW38479   3.844   1.349   1.896 -0.7662 -0.2249  0.4009
 9007SOL    HW138480   3.785   1.334   1.969 -0.0186  0.7130  1.1959
 9007SOL    HW238481   3.796   1.320   1.818  0.4756 -0.7600 -0.1672
 9008SOL     OW38482   0.362   0.676   4.707 -0.0053 -0.3869 -0.1723
 9008SOL    HW138483   0.295   0.723   4.757 -0.7143 -1.7986  0.1949
 9008SOL    HW238484   0.366   0.743   4.639 -1.3200 -0.2813 -0.1450
 9009SOL     OW38485   1.347   2.017   1.158 -0.0471  0.5237  0.3109
 9009SOL    HW138486   1.409   1.973   1.100 -0.1204 -1.0076  1.3846
 9009SOL    HW238487   1.373   1.982   1.244 -2.6748  1.1936  1.3653
 9010SOL     OW38488   4.362   2.130  16.532 -0.2697 -0.1120  0.1639
 9010SOL    HW138489   4.297   2.113  16.600  1.8725  1.4159  2.6224
 9010SOL    HW238490   4.440   2.157  16.581 -1.3079  0.2724  1.5891
 9011SOL     OW38491   3.019   0.831   9.328  0.1891  0.6456  0.1378
 9011SOL    HW138492   3.059   0.756   9.371 -1.3480 -0.0335  0.4065
 9011SOL    HW238493   3.101   0.873   9.305  0.8822 -0.4519  0.6213
 9012SOL     OW38494   3.884   1.183   8.038 -0.0199 -0.2489 -0.3774
 9012SOL    HW138495   3.838   1.213   8.116  0.6744 -2.5525  0.8981
 9012SOL    HW238496   3.890   1.266   7.990 -0.2634 -0.4156 -0.6971
 9013SOL     OW38497   1.611   4.257   5.198  0.7902  0.4376  0.6369
 9013SOL    HW138498   1.683   4.271   5.259  1.6989  2.1623 -0.8327
 9013SOL    HW238499   1.591   4.165   5.214 -0.2624  0.3131 -1.3026
 9014SOL     OW38500   4.180   3.627   2.528  0.2485 -0.1242  0.1108
 9014SOL    HW138501   4.143   3.540   2.517 -0.2433  0.3860 -2.2371
 9014SOL    HW238502   4.116   3.677   2.478  0.8646 -0.1358 -0.6872
 9015SOL     OW38503   4.382   3.334  13.480  0.3072  0.2520  0.0825
 9015SOL    HW138504   4.468   3.361  13.446 -0.3683  3.1894  0.7161
 9015SOL    HW238505   4.372   3.394  13.554 -3.6705 -0.4258  0.0743
 9016SOL     OW38506   1.374   1.523   9.052 -0.4712  0.1084  0.1265
 9016SOL    HW138507   1.302   1.585   9.064  0.2145  0.8189  0.5365
 9016SOL    HW238508   1.393   1.544   8.960  1.0799 -2.9051 -0.2443
 9017SOL     OW38509   3.944   0.261   7.173 -0.2358 -0.0670  0.0182
 9017SOL    HW138510   3.985   0.347   7.164  0.5353 -0.1728  2.5160
 9017SOL    HW238511   4.013   0.195   7.175  0.6123  0.7372 -2.6534
 9018SOL     OW38512   3.742   1.158   4.733 -0.0530 -0.2068  0.3481
 9018SOL    HW138513   3.698   1.075   4.755 -0.4363 -0.2717 -0.6383
 9018SOL    HW238514   3.664   1.196   4.693 -0.1169  1.1598  1.7948
 9019SOL     OW38515   2.212   2.086   2.060 -0.1286 -0.1935  0.1681
 9019SOL    HW138516   2.191   2.163   2.007 -0.1820  0.2410  0.8202
 9019SOL    HW238517   2.157   2.107   2.135  1.2595 -1.2913  1.4819
 9020SOL     OW38518   2.760   0.910   8.192  0.3183 -0.2933  0.3168
 9020SOL    HW138519   2.774   0.970   8.119 -0.8758 -1.6298 -1.0042
 9020SOL    HW238520   2.746   0.979   8.257 -1.0701  0.2461 -0.5489
 9021SOL     OW38521   0.783   1.271   5.987  0.3733 -0.2732 -0.2637
 9021SOL    HW138522   0.781   1.188   5.940  0.2667 -1.3206  1.5642
 9021SOL    HW238523   0.692   1.300   5.978 -0.0756 -0.5205  3.1058
 9022SOL     OW38524   4.535   1.410   2.175  0.1337  0.1852  0.0206
 9022SOL    HW138525   4.555   1.316   2.174 -2.0400 -0.2783 -0.0951
 9022SOL    HW238526   4.472   1.418   2.104  0.1797 -2.0980 -0.2904
 9023SOL     OW38527   3.196   2.794   6.057  0.6805 -0.9134 -0.2446
 9023SOL    HW138528   3.133   2.863   6.079  2.3219  0.3922  0.3650
 9023SOL    HW238529   3.262   2.846   6.011  1.7374 -1.7015  0.3851
 9024SOL     OW38530   0.663   0.721   0.407 -0.4829 -0.0902 -0.4014
 9024SOL    HW138531   0.682   0.737   0.315  1.2996  1.1247  0.1837
 9024SOL    HW238532   0.755   0.713   0.432 -0.6878 -0.1173  0.3437
 9025SOL     OW38533   3.181   0.552   8.311 -0.7329 -0.1957 -0.2385
 9025SOL    HW138534   3.146   0.473   8.351 -2.3218  0.7552  0.2374
 9025SOL    HW238535   3.118   0.548   8.239 -0.3647 -1.0599 -0.5096
 9026SOL     OW38536   1.471   2.296   7.710  0.0267  0.4028 -0.2718
 9026SOL    HW138537   1.549   2.242   7.697  0.0792  0.8242 -1.6825
 9026SOL    HW238538   1.481   2.366   7.646  3.1272 -0.2304 -0.4840
 9027SOL     OW38539   4.238   1.906   2.694  0.2401  0.1299 -0.4957
 9027SOL    HW138540   4.275   1.984   2.652 -3.1194  1.6448 -0.6319
 9027SOL    HW238541   4.287   1.912   2.776  1.7914  0.7734 -1.4849
 9028SOL     OW38542   2.271   4.113   8.075  0.5570 -0.2215 -0.7253
 9028SOL    HW138543   2.175   4.113   8.083  0.6958  0.2869  0.8329
 9028SOL    HW238544   2.293   4.025   8.106  1.6381  0.9561  1.7547
 9029SOL     OW38545   0.394   3.182   9.208 -0.5234 -0.4417 -0.4578
 9029SOL    HW138546   0.361   3.117   9.270 -3.2352  1.2578 -0.1009
 9029SOL    HW238547   0.365   3.259   9.257  3.1988  0.5041  0.2198
 9030SOL     OW38548   3.917   0.482   2.543  0.1346 -0.0622 -0.0975
 9030SOL    HW138549   3.921   0.500   2.449  2.9557  0.2950  0.0819
 9030SOL    HW238550   4.009   0.471   2.570  0.3144 -0.8144 -1.0144
 9031SOL     OW38551   3.301   0.246   9.055  0.0634 -0.0192  0.1466
 9031SOL    HW138552   3.303   0.267   8.962 -1.4534 -1.4640 -0.2125
 9031SOL    HW238553   3.351   0.317   9.096 -1.2674  1.2764 -0.4592
 9032SOL     OW38554   1.818   2.245  10.128  0.4541  0.0093 -0.2852
 9032SOL    HW138555   1.889   2.241  10.192 -0.2073  0.2635  0.4654
 9032SOL    HW238556   1.740   2.253  10.182  2.2760  1.2423  2.1307
 9033SOL     OW38557   4.082   0.706   3.562 -0.0118  0.7548 -0.3209
 9033SOL    HW138558   4.035   0.644   3.506  0.5159  1.0214 -1.0549
 9033SOL    HW238559   4.107   0.646   3.632  1.4298  3.4822  1.4775
 9034SOL     OW38560   2.775   2.464   5.173 -0.7627  1.0164  0.0382
 9034SOL    HW138561   2.824   2.528   5.224 -0.5670  0.0990  1.0042
 9034SOL    HW238562   2.684   2.491   5.178 -0.6457  1.6661 -1.3351
 9035SOL     OW38563   1.272   2.190  13.956 -0.4478  0.2258  0.4337
 9035SOL    HW138564   1.239   2.149  13.876  1.9679 -0.8145 -0.0318
 9035SOL    HW238565   1.194   2.243  13.975 -0.7691 -0.3323  0.6623
 9036SOL     OW38566   0.127   2.767   8.786  0.1377 -0.9180  0.0684
 9036SOL    HW138567   0.066   2.711   8.835 -1.2751  0.3203 -0.2511
 9036SOL    HW238568   0.198   2.705   8.772  0.6788 -0.1922 -0.4359
 9037SOL     OW38569   1.451   4.036   5.680 -0.6327 -0.4055 -1.0105
 9037SOL    HW138570   1.412   4.054   5.594  0.4579  0.2980 -1.3755
 9037SOL    HW238571   1.538   4.075   5.672 -2.0846  2.9483 -0.4839
 9038SOL     OW38572   0.153   1.286   2.328 -0.1454  0.6889  0.4502
 9038SOL    HW138573   0.187   1.335   2.253 -0.8981  1.2701  0.4816
 9038SOL    HW238574   0.234   1.254   2.368 -1.0083 -1.4050  0.4904
 9039SOL     OW38575   0.544   1.833   4.901 -0.2161 -0.3202 -0.2112
 9039SOL    HW138576   0.639   1.833   4.885 -0.0253 -0.5388  0.9240
 9039SOL    HW238577   0.522   1.746   4.868  0.0985  0.7481 -3.2284
 9040SOL     OW38578   0.228   0.858  13.603 -0.2830 -0.0719 -0.1161
 9040SOL    HW138579   0.287   0.866  13.528  1.7231 -0.2107  1.4596
 9040SOL    HW238580   0.288   0.883  13.673 -1.3006  0.9469  0.3901
 9041SOL     OW38581   1.329   2.238   7.918  0.1382  0.1748 -0.7992
 9041SOL    HW138582   1.387   2.273   7.850  0.3295  0.6193 -0.4094
 9041SOL    HW238583   1.387   2.168   7.946  0.6534  0.2813 -1.6019
 9042SOL     OW38584   2.792   2.942   2.848  0.5767 -0.4108  0.4704
 9042SOL    HW138585   2.727   2.874   2.832 -0.0129  0.3097 -0.1610
 9042SOL    HW238586   2.732   3.016   2.836 -0.0849 -1.0931 -0.4083
 9043SOL     OW38587   1.589   2.108  10.021 -0.2070  0.7163 -0.2008
 9043SOL    HW138588   1.615   2.068  10.104 -0.4127  0.0927 -0.4364
 9043SOL    HW238589   1.673   2.152  10.014  0.2775  0.1579  2.1799
 9044SOL     OW38590   3.805   2.587   4.687  0.0541  0.1723  0.0617
 9044SOL    HW138591   3.792   2.671   4.732 -1.9510  1.0595 -2.1418
 9044SOL    HW238592   3.895   2.566   4.714  0.3386 -0.2919 -1.2457
 9045SOL     OW38593   4.128   3.188   5.640 -0.0838 -0.0877  0.3652
 9045SOL    HW138594   4.194   3.130   5.601  0.3893  0.6549  0.0644
 9045SOL    HW238595   4.148   3.189   5.734 -1.3913  2.3098  0.6182
 9046SOL     OW38596   2.101   0.608   2.191  0.1888 -0.4044 -0.3763
 9046SOL    HW138597   2.014   0.602   2.153  0.4761  0.4625 -1.1399
 9046SOL    HW238598   2.078   0.647   2.276 -0.5888  0.2845 -0.9098
 9047SOL     OW38599   1.617   3.157   8.336 -0.0710  0.2031 -0.0875
 9047SOL    HW138600   1.644   3.163   8.428  2.0586  0.6958 -0.7376
 9047SOL    HW238601   1.607   3.251   8.318 -1.2659 -0.2927 -1.9156
 9048SOL     OW38602   2.844   1.043   2.294  0.0742 -0.2986 -0.0131
 9048SOL    HW138603   2.863   1.129   2.331  0.0689 -0.0873 -0.5150
 9048SOL    HW238604   2.916   1.052   2.233  0.7015 -2.2426  0.4347
 9049SOL     OW38605   2.652   1.945   3.467  0.3031  0.0313  0.0661
 9049SOL    HW138606   2.744   1.921   3.472 -0.0693 -1.2650  0.5463
 9049SOL    HW238607   2.610   1.871   3.511 -4.7230  3.5598  1.1432
 9050SOL     OW38608   3.474   2.867   3.802  0.2467 -0.2787  0.1271
 9050SOL    HW138609   3.412   2.905   3.865  2.2179  1.8530  0.7815
 9050SOL    HW238610   3.525   2.806   3.853  1.4054  0.0329 -0.6676
 9051SOL     OW38611   4.398   1.979  17.670  0.1150 -0.1336  0.0768
 9051SOL    HW138612   4.437   1.940   0.044 -0.0836 -2.0034 -0.7422
 9051SOL    HW238613   4.384   2.065   0.004 -0.7980 -0.9030  1.4772
 9052SOL     OW38614   3.761   2.311   2.773  0.5123  0.2921 -0.2525
 9052SOL    HW138615   3.733   2.229   2.814  0.3951 -0.5191 -1.9626
 9052SOL    HW238616   3.803   2.360   2.843 -0.1568  0.0497  0.3199
 9053SOL     OW38617   1.527   0.466   7.384 -0.0354  0.6566 -0.1859
 9053SOL    HW138618   1.435   0.474   7.359  0.5373 -1.4181 -3.0265
 9053SOL    HW238619   1.554   0.552   7.417  0.9962  0.1345  0.3126
 9054SOL     OW38620   1.091   1.923   6.910 -0.1678 -0.3871 -0.4149
 9054SOL    HW138621   1.007   1.884   6.935  0.1494 -1.0511 -0.3794
 9054SOL    HW238622   1.112   1.895   6.821  1.2415 -2.0700  0.4480
 9055SOL     OW38623   1.315   0.741   9.274 -0.2931  0.2252 -0.2070
 9055SOL    HW138624   1.400   0.785   9.267 -0.8774  1.4706  0.5549
 9055SOL    HW238625   1.290   0.728   9.182  1.0054 -2.3885 -0.1961
 9056SOL     OW38626   3.570   3.695   7.955 -0.2047 -0.2342 -0.1042
 9056SOL    HW138627   3.592   3.737   7.871  2.1909  1.9410  1.5998
 9056SOL    HW238628   3.603   3.609   7.930 -0.6946 -1.3341  3.0593
 9057SOL     OW38629   3.861   1.537  16.131  0.0292 -0.2579 -0.3834
 9057SOL    HW138630   3.768   1.558  16.134  0.1203  0.1962 -0.6457
 9057SOL    HW238631   3.903   1.596  16.194  1.2157 -0.1428 -1.2742
 9058SOL     OW38632   4.711   3.465   2.608 -0.4967 -0.3250  0.2178
 9058SOL    HW138633   4.715   3.449   2.514  1.1518  2.1163 -0.1178
 9058SOL    HW238634   4.618   3.489   2.611 -0.1734  0.2552  5.3117
 9059SOL     OW38635   1.087   3.355  12.434 -0.1425 -0.0128  0.2026
 9059SOL    HW138636   1.082   3.406  12.515  2.2785  1.0127 -0.2903
 9059SOL    HW238637   0.999   3.372  12.400 -0.5147 -1.5759  0.4072
 9060SOL     OW38638   4.136   3.535  13.238  0.1111 -0.6867 -0.2487
 9060SOL    HW138639   4.165   3.605  13.298  0.9381 -0.2786 -1.1216
 9060SOL    HW238640   4.215   3.488  13.214  2.6445  1.3844  3.8988
 9061SOL     OW38641   0.877   1.338  10.958 -0.1100  0.1084  0.5396
 9061SOL    HW138642   0.805   1.398  10.978  1.2638  2.3053 -1.0146
 9061SOL    HW238643   0.859   1.322  10.866  1.6496 -0.8333  0.3588
 9062SOL     OW38644   2.556   3.919   8.081  0.0620 -0.5642  0.4722
 9062SOL    HW138645   2.584   4.005   8.049 -1.1880  0.7127  2.7747
 9062SOL    HW238646   2.630   3.871   8.118  1.4913  1.1922 -0.0486
 9063SOL     OW38647   4.352   1.693   2.264 -0.5992  0.3951  0.2362
 9063SOL    HW138648   4.289   1.621   2.262 -0.2799  0.1097  0.3102
 9063SOL    HW238649   4.380   1.715   2.176 -2.9216  1.7603 -0.1330
 9064SOL     OW38650   0.715   2.600   3.292 -0.1230 -0.1305  0.3131
 9064SOL    HW138651   0.715   2.688   3.255 -0.4156 -0.6648 -0.9555
 9064SOL    HW238652   0.639   2.596   3.349 -0.1352 -1.2910  0.2192
 9065SOL     OW38653   3.740   4.703   4.293 -0.3056  0.6804  0.8372
 9065SOL    HW138654   3.678   0.001   4.224 -0.1489 -1.8651 -0.1865
 9065SOL    HW238655   3.687   4.719   4.371 -0.0119  1.7984  0.8039
 9066SOL     OW38656   3.429   3.662   2.994  0.1686  0.3709 -0.5689
 9066SOL    HW138657   3.519   3.630   2.991 -0.5948 -1.6937 -1.4148
 9066SOL    HW238658   3.439   3.730   3.061  0.0990 -0.6226  0.4537
 9067SOL     OW38659   3.139   3.955   2.449 -0.1964 -0.1821  0.2513
 9067SOL    HW138660   3.188   3.898   2.390  0.1537 -2.0526  2.3326
 9067SOL    HW238661   3.056   3.908   2.456 -0.1924 -0.1320  0.6457
 9068SOL     OW38662   3.240   4.140  16.408  0.5077  0.4903  0.4824
 9068SOL    HW138663   3.322   4.189  16.396  2.0669 -2.4762 -0.9163
 9068SOL    HW238664   3.279   4.063  16.449 -0.8608 -0.3636  0.1894
 9069SOL     OW38665   1.116   4.678   2.389 -0.2074 -0.7662  0.2748
 9069SOL    HW138666   1.189   4.687   2.327 -1.4872 -1.3383 -1.3256
 9069SOL    HW238667   1.087   4.587   2.378 -3.6746  0.2880  0.9126
 9070SOL     OW38668   1.338   3.348   8.986 -0.5457 -0.0678 -0.4778
 9070SOL    HW138669   1.412   3.408   8.986  0.1143 -0.8830 -1.6471
 9070SOL    HW238670   1.281   3.400   9.043  0.7045 -0.1173  0.8153
 9071SOL     OW38671   3.276   3.006   9.914 -0.1510 -0.5155 -0.1337
 9071SOL    HW138672   3.363   3.031   9.885  0.3120 -2.3776 -0.3425
 9071SOL    HW238673   3.244   2.963   9.835 -0.1513  0.7199 -0.8144
 9072SOL     OW38674   3.975   1.349  14.123 -0.7022  0.4855  0.0295
 9072SOL    HW138675   4.048   1.322  14.068 -1.6644 -2.7634  0.3282
 9072SOL    HW238676   4.005   1.383  14.207  1.0821 -1.9031  0.3368
 9073SOL     OW38677   1.259   1.595   3.914  0.0428 -0.9778 -0.0618
 9073SOL    HW138678   1.304   1.527   3.965 -0.2967  0.4542  2.1397
 9073SOL    HW238679   1.316   1.612   3.840  0.3074  1.3951  0.7007
 9074SOL     OW38680   1.109   3.306   3.300  0.1117 -0.0287 -1.2639
 9074SOL    HW138681   1.118   3.302   3.395 -1.1508  0.6883 -1.1106
 9074SOL    HW238682   1.017   3.291   3.278 -0.6492  0.4223  1.6705
 9075SOL     OW38683   0.907   0.417  17.599 -0.1500  0.2969 -0.2682
 9075SOL    HW138684   0.906   0.469  17.519 -0.6545  0.8205  0.0721
 9075SOL    HW238685   0.985   0.455  17.639 -0.3929  0.2846  0.2235
 9076SOL     OW38686   2.613   4.333   9.693  0.6645  0.1500 -0.1516
 9076SOL    HW138687   2.657   4.248   9.692  1.3446  0.5006 -0.8821
 9076SOL    HW238688   2.672   4.394   9.648 -1.1639  1.9251 -0.1381
 9077SOL     OW38689   0.167   2.069   2.889  0.5929 -0.7619  0.2825
 9077SOL    HW138690   0.204   2.025   2.812 -1.0450 -0.0648 -0.8949
 9077SOL    HW238691   0.097   2.011   2.919 -1.4233  1.3338 -0.4127
 9078SOL     OW38692   3.699   4.531  14.221 -0.2713 -0.7576 -0.5493
 9078SOL    HW138693   3.706   4.538  14.316  0.6624  1.9627 -0.8193
 9078SOL    HW238694   3.788   4.532  14.187  0.9841  1.6494  2.8598
 9079SOL     OW38695   3.392   0.476   0.229  0.3236 -0.1677  0.2798
 9079SOL    HW138696   3.323   0.527   0.273  1.8873  3.0151 -0.9240
 9079SOL    HW238697   3.415   0.530   0.153 -1.6887 -0.1160 -0.3013
 9080SOL     OW38698   0.577   1.366   6.387  0.0986 -0.0147  0.1313
 9080SOL    HW138699   0.541   1.354   6.475 -1.3395  1.9582 -0.1999
 9080SOL    HW238700   0.583   1.277   6.353  2.1863  0.4247 -0.6754
 9081SOL     OW38701   4.508   1.879   2.475  0.2193 -0.3706 -0.2444
 9081SOL    HW138702   4.519   1.791   2.438 -0.8975  0.0697 -1.6179
 9081SOL    HW238703   4.583   1.896   2.533 -0.8733 -3.4345  2.0549
 9082SOL     OW38704   1.451   2.612   6.637 -0.4161  0.1926 -0.2792
 9082SOL    HW138705   1.430   2.643   6.725  0.0845  2.2523 -0.8813
 9082SOL    HW238706   1.510   2.678   6.600  2.1551 -1.0522  1.5952
 9083SOL     OW38707   0.950   1.629  10.799 -0.4249  0.5186  0.4049
 9083SOL    HW138708   0.925   1.664  10.885 -1.3563  0.3329  0.2124
 9083SOL    HW238709   1.023   1.570  10.815 -0.0188  0.9690  0.2296
 9084SOL     OW38710   2.958   1.854   3.503  0.3727  0.1771  0.0782
 9084SOL    HW138711   2.989   1.938   3.467  0.9610  0.8788  2.2097
 9084SOL    HW238712   2.960   1.872   3.597  1.1594 -0.8155  0.2514
 9085SOL     OW38713   4.012   3.691  17.633 -0.0837 -0.6023  0.0793
 9085SOL    HW138714   4.007   3.597  17.619  1.2301 -0.5174 -0.9074
 9085SOL    HW238715   4.103   3.709  17.612  0.6820 -0.1663  3.8063
 9086SOL     OW38716   4.303   1.304  16.715 -0.1995 -0.1168 -0.1758
 9086SOL    HW138717   4.255   1.333  16.638 -0.6987 -1.2104 -0.2853
 9086SOL    HW238718   4.376   1.365  16.722  0.8529 -1.2448 -1.4182
 9087SOL     OW38719   4.370   2.917   4.305 -0.5981  0.6680 -0.6213
 9087SOL    HW138720   4.326   2.883   4.383  1.1645  0.4071  0.2786
 9087SOL    HW238721   4.306   2.915   4.234 -0.9247  3.4319 -0.3821
 9088SOL     OW38722   1.967   0.620   0.181  0.1671  0.0514 -0.1064
 9088SOL    HW138723   1.971   0.526   0.196 -1.2355  0.0870  0.5429
 9088SOL    HW238724   2.044   0.648   0.230 -0.4979  1.5231  0.1038
 9089SOL     OW38725   3.283   1.277   4.441 -0.5909 -0.2365 -0.7856
 9089SOL    HW138726   3.335   1.325   4.377 -0.3867 -1.0174 -1.2056
 9089SOL    HW238727   3.235   1.350   4.481  2.3640  1.0297  0.4129
 9090SOL     OW38728   4.658   0.949   4.244 -0.0696  0.3138 -0.5120
 9090SOL    HW138729   4.568   0.923   4.264 -1.0289  2.3059 -2.2817
 9090SOL    HW238730   4.665   0.946   4.149  2.0133  1.3453 -0.4022
 9091SOL     OW38731   0.415   3.802   3.780 -0.4790 -0.5121  0.0706
 9091SOL    HW138732   0.476   3.858   3.731 -0.8346  0.4999  0.7896
 9091SOL    HW238733   0.396   3.733   3.717 -0.6234  1.0213 -1.5498
 9092SOL     OW38734   2.822   2.859   4.532  0.3305 -0.5488 -0.0554
 9092SOL    HW138735   2.850   2.770   4.554  0.0186 -0.6126  0.0779
 9092SOL    HW238736   2.750   2.881   4.592  0.8268 -0.1598  0.3938
 9093SOL     OW38737   3.904   3.139   1.793 -0.2259  0.2875 -0.0754
 9093SOL    HW138738   3.937   3.142   1.883  1.7236 -1.6813 -0.7029
 9093SOL    HW238739   3.810   3.120   1.799 -0.3497  1.4569  1.5574
 9094SOL     OW38740   4.655   2.170   4.935 -0.0663  0.9134 -0.5511
 9094SOL    HW138741   4.693   2.128   5.012 -1.4917  1.8162  0.6530
 9094SOL    HW238742   4.718   2.150   4.865 -0.0557 -1.9782  0.3046
 9095SOL     OW38743   0.566   3.456   9.884  0.7299  0.7484 -0.0851
 9095SOL    HW138744   0.477   3.442   9.916  1.2667 -0.9302  0.6571
 9095SOL    HW238745   0.551   3.498   9.799  1.0225  0.8889 -0.0662
 9096SOL     OW38746   1.224   2.105  16.010 -0.1264 -0.3918 -0.2573
 9096SOL    HW138747   1.280   2.073  15.939  0.5603  0.1818  0.0329
 9096SOL    HW238748   1.252   2.196  16.015  1.2678 -0.7548 -1.5874
 9097SOL     OW38749   0.790   0.360   3.141  0.2040 -0.1587  0.7538
 9097SOL    HW138750   0.753   0.387   3.225  2.0011 -0.3648  1.6192
 9097SOL    HW238751   0.728   0.293   3.114  0.4690  0.5629 -1.6483
 9098SOL     OW38752   2.357   0.179  16.988  0.6276 -0.6036  0.0322
 9098SOL    HW138753   2.274   0.189  17.035 -0.2846  0.7798 -1.8728
 9098SOL    HW238754   2.332   0.171  16.896  3.8554  0.4685 -0.9113
 9099SOL     OW38755   4.594   1.879   0.155 -0.1557 -0.3627 -0.0595
 9099SOL    HW138756   4.674   1.929   0.138 -0.4085  0.2088  0.4425
 9099SOL    HW238757   4.636   1.798   0.123 -0.3631 -0.7259  0.5881
 9100SOL     OW38758   3.482   0.294   2.049  0.0074 -0.3925  0.2824
 9100SOL    HW138759   3.559   0.327   2.003  0.9462  0.1250  2.1949
 9100SOL    HW238760   3.423   0.278   1.976 -0.7075 -1.5359  1.1038
 9101SOL     OW38761   3.631   1.733   7.380  0.5400  0.1260 -0.2572
 9101SOL    HW138762   3.587   1.763   7.301 -0.7701 -1.8155 -0.2694
 9101SOL    HW238763   3.703   1.687   7.338  0.8960  1.3750 -1.0178
 9102SOL     OW38764   3.630   2.747   6.413  0.1177 -0.0059 -0.4630
 9102SOL    HW138765   3.587   2.767   6.496  1.0030 -1.5276  0.3532
 9102SOL    HW238766   3.555   2.745   6.353 -0.4930  1.7714  0.2249
 9103SOL     OW38767   1.575   1.106   7.174  0.5324 -1.0259  0.3645
 9103SOL    HW138768   1.483   1.084   7.188  0.0680  1.1076  0.7572
 9103SOL    HW238769   1.586   1.197   7.202 -0.6049 -1.1516  1.2374
 9104SOL     OW38770   3.525   0.318   9.500  0.2927  0.4454 -0.3122
 9104SOL    HW138771   3.433   0.312   9.524  0.2337 -1.5871 -1.0638
 9104SOL    HW238772   3.560   0.359   9.579  2.2803 -0.2673 -0.8224
 9105SOL     OW38773   4.028   2.811   8.386 -0.3549  0.0021 -0.2637
 9105SOL    HW138774   4.000   2.838   8.474  0.1006 -1.0956  0.2265
 9105SOL    HW238775   4.102   2.757   8.415 -0.7576  0.5277  1.7992
 9106SOL     OW38776   3.572   1.492   8.047  0.8733  0.3187  0.4791
 9106SOL    HW138777   3.579   1.450   7.961  0.1189  1.0165  0.0709
 9106SOL    HW238778   3.487   1.452   8.065 -0.1043  1.1113 -2.2521
 9107SOL     OW38779   0.097   0.611  10.892 -0.1320  0.1891 -0.5563
 9107SOL    HW138780   0.139   0.525  10.892 -0.2909  0.1129  0.2226
 9107SOL    HW238781   0.138   0.643  10.811 -0.0625 -0.2295 -0.6841
 9108SOL     OW38782   0.880   2.167   2.956 -0.5553 -0.0722  0.4399
 9108SOL    HW138783   0.813   2.212   2.905 -0.7349  0.4789  1.1587
 9108SOL    HW238784   0.953   2.229   2.961 -0.8688  0.1505  2.5269
 9109SOL     OW38785   4.620   2.540   3.334 -0.3237  0.4332 -0.8318
 9109SOL    HW138786   4.672   2.497   3.266 -0.1917 -0.9075  0.1255
 9109SOL    HW238787   4.675   2.519   3.409  1.1688  0.1753 -1.9899
 9110SOL     OW38788   4.170   0.953   6.403  0.1454 -0.5764 -0.8870
 9110SOL    HW138789   4.256   0.919   6.427 -0.0551 -0.5351 -0.1121
 9110SOL    HW238790   4.195   1.034   6.358 -1.2880  0.9299  1.0183
 9111SOL     OW38791   1.025   4.695   8.566 -0.3301 -0.3073 -0.4583
 9111SOL    HW138792   0.980   0.013   8.638  0.5572 -1.0824  0.5680
 9111SOL    HW238793   1.112   4.690   8.606 -0.8306  0.9567  0.8237
 9112SOL     OW38794   4.285   3.756  17.573  0.3689  0.2136  0.1187
 9112SOL    HW138795   4.366   3.719  17.608  0.0451  0.4592  1.1184
 9112SOL    HW238796   4.288   3.848  17.599 -1.0214  0.3287 -0.1015
 9113SOL     OW38797   1.494   0.694   6.343 -0.0333  0.6291  0.2727
 9113SOL    HW138798   1.445   0.740   6.274  0.1460 -0.1239 -0.3477
 9113SOL    HW238799   1.478   0.602   6.322  0.6557  0.3608  0.9412
 9114SOL     OW38800   0.818   2.524   1.228 -0.0770  0.4009  0.7896
 9114SOL    HW138801   0.809   2.559   1.140 -2.5786 -1.2366  0.3953
 9114SOL    HW238802   0.912   2.516   1.241 -0.1895  1.9232  2.6178
 9115SOL     OW38803   1.423   2.166  14.977  0.3825 -0.2858 -0.7711
 9115SOL    HW138804   1.500   2.111  14.986  0.5400 -0.1791 -1.4147
 9115SOL    HW238805   1.462   2.240  14.930 -1.6340  0.5716 -1.0770
 9116SOL     OW38806   0.060   3.795   8.928 -0.2061 -0.2576 -0.5250
 9116SOL    HW138807   0.153   3.809   8.946 -0.9230  1.9434  1.4379
 9116SOL    HW238808   0.029   3.877   8.889  1.8410  1.1387  0.7701
 9117SOL     OW38809   2.638   1.239   8.117  0.0398  0.3581  0.3007
 9117SOL    HW138810   2.564   1.276   8.163  0.5017  1.3732  0.2201
 9117SOL    HW238811   2.675   1.317   8.075 -1.3471 -0.2879 -2.0840
 9118SOL     OW38812   3.391   2.131   6.976  0.0291  0.1333  0.1308
 9118SOL    HW138813   3.471   2.079   6.988 -0.9022 -2.0471 -3.1279
 9118SOL    HW238814   3.323   2.091   7.030 -0.5410  1.1890  0.1998
 9119SOL     OW38815   0.526   1.092   6.342 -0.0200  0.3120 -0.4833
 9119SOL    HW138816   0.597   1.051   6.390  0.8209  0.0337 -1.9428
 9119SOL    HW238817   0.449   1.051   6.381 -0.0133 -0.4800 -1.2918
 9120SOL     OW38818   4.475   4.010   5.297 -0.0065 -0.0282 -0.3077
 9120SOL    HW138819   4.391   3.987   5.258  0.7951 -1.5523 -1.1400
 9120SOL    HW238820   4.527   4.022   5.218  0.2038  0.0784 -0.1512
 9121SOL     OW38821   3.296   3.180  12.404 -0.1841 -0.1152  0.0335
 9121SOL    HW138822   3.266   3.192  12.495 -3.1084  2.3324 -1.2409
 9121SOL    HW238823   3.380   3.224  12.413 -1.3564  1.9801  0.5571
 9122SOL     OW38824   0.300   2.142   9.110 -0.8385  0.1563  0.2843
 9122SOL    HW138825   0.231   2.194   9.150 -2.2661 -0.6148 -1.2095
 9122SOL    HW238826   0.265   2.054   9.122 -0.5018 -0.1289 -0.7895
 9123SOL     OW38827   4.508   0.300  10.013 -0.0629 -0.0371  0.3196
 9123SOL    HW138828   4.443   0.281  10.081 -2.0428  0.2538 -1.4929
 9123SOL    HW238829   4.522   0.212   9.978  1.8983  0.9193 -1.2975
 9124SOL     OW38830   4.070   3.941  14.260  0.2314 -0.7469  0.5031
 9124SOL    HW138831   4.071   3.854  14.220  0.2940 -0.0887 -0.9350
 9124SOL    HW238832   4.049   3.923  14.351 -0.3017  0.1353  0.5589
 9125SOL     OW38833   0.968   1.804   8.090 -0.5363 -0.1278  0.0891
 9125SOL    HW138834   0.920   1.758   8.159  0.7388 -0.5638  0.6945
 9125SOL    HW238835   0.925   1.757   8.019 -0.6650  1.6929 -1.0442
 9126SOL     OW38836   1.034   3.146   8.200  0.2553  0.0275 -0.7855
 9126SOL    HW138837   1.038   3.105   8.286  0.6261  1.1038 -0.2964
 9126SOL    HW238838   1.055   3.072   8.143 -1.2610 -0.5768 -0.5746
 9127SOL     OW38839   4.101   2.817   5.754 -0.7045  0.1228  0.5895
 9127SOL    HW138840   4.082   2.737   5.804  0.4651 -1.1796 -1.0332
 9127SOL    HW238841   4.196   2.833   5.754 -0.0051 -4.0806  1.3348
 9128SOL     OW38842   3.881   0.090   2.277  0.0848  0.1235 -0.0745
 9128SOL    HW138843   3.853   0.002   2.303  0.4630  0.6765  2.1645
 9128SOL    HW238844   3.825   0.108   2.201 -0.8680  1.0617  0.8649
 9129SOL     OW38845   2.134   2.759   8.865 -0.2014 -0.3139  0.4098
 9129SOL    HW138846   2.220   2.776   8.905 -0.0597 -2.6754  1.0725
 9129SOL    HW238847   2.160   2.738   8.775  0.7058 -2.5827  1.2108
 9130SOL     OW38848   0.987   3.530   6.694  0.5155  0.3551 -0.1263
 9130SOL    HW138849   0.989   3.436   6.713 -1.5442 -0.0945 -2.1201
 9130SOL    HW238850   0.983   3.527   6.598 -2.5483 -0.3482  0.0273
 9131SOL     OW38851   1.039   2.067   7.120  0.3041  0.2237  0.0360
 9131SOL    HW138852   1.080   2.003   7.062  0.0599 -1.2276  1.4682
 9131SOL    HW238853   0.959   2.072   7.067  1.0569  0.7643 -1.0586
 9132SOL     OW38854   3.237   2.836   4.667  0.7069 -0.3886 -0.2716
 9132SOL    HW138855   3.314   2.782   4.685  0.7951  0.3453  1.5727
 9132SOL    HW238856   3.173   2.796   4.725 -0.1882  1.4075 -0.0340
 9133SOL     OW38857   1.768   0.749   9.427  0.3518 -0.8136  0.6609
 9133SOL    HW138858   1.804   0.665   9.400 -1.6793 -1.5544  0.2677
 9133SOL    HW238859   1.848   0.800   9.439  0.0258 -0.3432  0.8596
 9134SOL     OW38860   3.754   1.857   9.023 -0.0202  0.1648  0.1642
 9134SOL    HW138861   3.727   1.848   9.115  2.1595 -0.5494  0.7430
 9134SOL    HW238862   3.670   1.851   8.977  0.9035 -0.1851 -1.4618
 9135SOL     OW38863   0.956   3.920  13.440 -0.0852 -0.6919  0.4754
 9135SOL    HW138864   0.943   3.854  13.371 -2.4548 -0.0399  0.2810
 9135SOL    HW238865   0.957   3.862  13.516  1.0091 -0.0741  0.9224
 9136SOL     OW38866   2.045   1.066   7.933 -0.2258  0.2984 -0.0720
 9136SOL    HW138867   2.133   1.071   7.895 -0.0380 -1.1512  0.1845
 9136SOL    HW238868   1.998   1.118   7.867 -0.6762  0.0446  0.0470
 9137SOL     OW38869   3.748   0.312   9.303 -0.4710 -0.4472  0.0597
 9137SOL    HW138870   3.665   0.296   9.348 -1.3570  0.5435 -1.2411
 9137SOL    HW238871   3.774   0.399   9.333  1.7618 -0.6351 -1.3486
 9138SOL     OW38872   4.136   3.918   6.384 -0.1665  0.0864  0.7048
 9138SOL    HW138873   4.215   3.958   6.420  0.1600  0.5505 -0.5663
 9138SOL    HW238874   4.143   3.831   6.423 -1.0745 -0.9661 -1.5116
 9139SOL     OW38875   1.252   1.492   7.412 -0.0151 -0.0678 -0.1232
 9139SOL    HW138876   1.169   1.450   7.434 -0.1452  0.6684  0.7748
 9139SOL    HW238877   1.223   1.564   7.355  2.7567  0.5684 -0.7418
 9140SOL     OW38878   1.384   2.554  12.091  0.1481 -0.5787 -0.3216
 9140SOL    HW138879   1.416   2.605  12.166 -1.5414 -2.3278  1.5812
 9140SOL    HW238880   1.439   2.476  12.095 -0.4112 -0.9315  0.5430
 9141SOL     OW38881   3.876   2.226  12.127 -0.1662  0.1513 -0.4769
 9141SOL    HW138882   3.850   2.317  12.109  0.2171 -0.0053 -1.7905
 9141SOL    HW238883   3.905   2.232  12.219  0.6852 -0.1902 -0.7289
 9142SOL     OW38884   4.505   1.858  11.961  0.4103 -0.6114  0.1592
 9142SOL    HW138885   4.426   1.854  11.907 -1.0613  1.1129  2.1732
 9142SOL    HW238886   4.557   1.927  11.920 -0.4997  0.2638  0.4855
 9143SOL     OW38887   2.204   4.536   7.562  0.2742 -0.2590  0.8356
 9143SOL    HW138888   2.211   4.443   7.582  1.6495 -1.1551 -3.8040
 9143SOL    HW238889   2.175   4.570   7.647  0.8854 -2.3008  1.8586
 9144SOL     OW38890   1.024   1.992   8.248 -0.4913  0.4115 -0.1801
 9144SOL    HW138891   1.116   2.020   8.242 -0.1234 -0.7938 -0.1478
 9144SOL    HW238892   1.017   1.934   8.173 -2.6877  1.9277 -1.1492
 9145SOL     OW38893   0.614   1.452   9.309  0.0911  0.2516 -0.6519
 9145SOL    HW138894   0.685   1.472   9.370 -0.2878 -1.8194  0.4502
 9145SOL    HW238895   0.598   1.361   9.333  0.5908  0.4623  0.4564
 9146SOL     OW38896   2.676   0.683  11.883  0.0760 -0.2177 -0.5763
 9146SOL    HW138897   2.649   0.762  11.836  0.3910  1.1473  1.5530
 9146SOL    HW238898   2.738   0.647  11.820 -0.8016  0.5673 -1.8752
 9147SOL     OW38899   3.845   0.963   0.005  0.2238  0.1995  0.6329
 9147SOL    HW138900   3.841   0.973   0.100  0.0779  0.1224  0.6363
 9147SOL    HW238901   3.885   1.046  17.686  0.1329  0.4339  1.2933
 9148SOL     OW38902   0.811   4.425   4.070 -0.3852 -0.3036  0.0858
 9148SOL    HW138903   0.726   4.466   4.053  0.4024  0.7557 -1.3259
 9148SOL    HW238904   0.853   4.411   3.986 -3.1957 -0.0459 -1.3754
 9149SOL     OW38905   2.337   3.036   6.836  0.0488 -0.0448  0.0629
 9149SOL    HW138906   2.269   3.028   6.769  1.0760  0.6308 -1.0275
 9149SOL    HW238907   2.296   2.983   6.906 -0.8336  1.5228  0.7450
 9150SOL     OW38908   0.365   2.551   2.047  0.0448 -0.2946 -0.3536
 9150SOL    HW138909   0.428   2.619   2.073 -1.4868  1.0060 -0.0354
 9150SOL    HW238910   0.377   2.490   2.120  2.1162 -1.6231 -1.8166
 9151SOL     OW38911   2.531   0.975  10.518  0.2395  0.4678 -0.1932
 9151SOL    HW138912   2.513   0.995  10.426 -1.1135 -1.3682 -0.3276
 9151SOL    HW238913   2.442   0.969  10.553  0.7132  0.9549  1.1247
 9152SOL     OW38914   0.496   1.656   7.173 -0.6304  0.2310 -0.1277
 9152SOL    HW138915   0.581   1.660   7.218 -0.0104 -0.1032 -1.2662
 9152SOL    HW238916   0.508   1.596   7.099  0.3997  1.2195 -0.7552
 9153SOL     OW38917   3.091   1.390   7.271 -0.2641 -0.2786  0.1554
 9153SOL    HW138918   3.084   1.310   7.322 -1.1874  0.1334  0.6713
 9153SOL    HW238919   3.026   1.387   7.201  1.1263  0.2210 -1.1557
 9154SOL     OW38920   3.544   1.339   3.940 -0.7288 -0.2381 -0.1170
 9154SOL    HW138921   3.589   1.337   3.856  0.7152  1.5651  0.6221
 9154SOL    HW238922   3.603   1.274   3.978  0.5861  0.3303 -1.1805
 9155SOL     OW38923   0.540   3.492  12.192 -0.2549  0.1243  0.5724
 9155SOL    HW138924   0.571   3.556  12.256  0.9938 -0.1907  0.2909
 9155SOL    HW238925   0.562   3.410  12.235 -1.3660  0.9537  2.7452
 9156SOL     OW38926   2.072   0.733  13.663  0.2057  0.0246  0.1029
 9156SOL    HW138927   2.049   0.746  13.571 -0.5175 -2.9787 -0.1356
 9156SOL    HW238928   2.168   0.733  13.656  0.1690 -0.6973 -0.4027
 9157SOL     OW38929   0.992   3.624   9.722 -0.0892  0.3874  0.1326
 9157SOL    HW138930   1.035   3.580   9.649  1.3174  1.1481  0.4979
 9157SOL    HW238931   0.964   3.557   9.784  0.1078 -0.7658 -1.0140
 9158SOL     OW38932   1.648   3.097   7.157  0.3825  0.3053 -0.0442
 9158SOL    HW138933   1.702   3.167   7.194  0.5627 -0.0769  0.4082
 9158SOL    HW238934   1.653   3.035   7.230 -1.0667 -1.4320 -1.4253
 9159SOL     OW38935   2.437   3.001   5.002  0.1553 -0.9278  0.1420
 9159SOL    HW138936   2.464   2.923   4.952  1.8130  0.2180 -0.7459
 9159SOL    HW238937   2.445   3.055   4.923 -1.7691 -0.5846  0.1686
 9160SOL     OW38938   1.837   0.874   6.026 -1.2213  0.0080 -0.9826
 9160SOL    HW138939   1.865   0.858   6.116 -0.1942  1.6059 -1.0248
 9160SOL    HW238940   1.742   0.886   6.030 -1.3371 -1.0300 -0.5364
 9161SOL     OW38941   4.069   3.291  12.084 -0.1963  0.0438  0.4386
 9161SOL    HW138942   4.025   3.321  12.163  0.3630 -1.2091  1.2246
 9161SOL    HW238943   4.154   3.335  12.093 -0.8037  1.3155 -0.0800
 9162SOL     OW38944   2.652   1.540  14.587 -0.0132 -0.5694 -0.8145
 9162SOL    HW138945   2.665   1.462  14.534  1.0491  0.2880 -1.8177
 9162SOL    HW238946   2.720   1.524  14.652  0.1598 -0.5538 -0.9948
 9163SOL     OW38947   0.989   3.137   7.482 -0.3252  0.4732  0.7609
 9163SOL    HW138948   0.903   3.122   7.522 -0.1415 -0.4519  0.8143
 9163SOL    HW238949   1.042   3.184   7.546  2.3972 -1.8809  0.2691
 9164SOL     OW38950   3.388   0.670   4.184  0.3658  0.2434 -0.2039
 9164SOL    HW138951   3.381   0.752   4.135 -0.3437  0.3332  0.0479
 9164SOL    HW238952   3.357   0.609   4.116 -2.8338 -0.4348  1.8704
 9165SOL     OW38953   0.282   2.024   7.498 -0.0238 -0.1159  0.1774
 9165SOL    HW138954   0.313   1.976   7.421  0.5726  3.0743 -1.5628
 9165SOL    HW238955   0.259   2.101   7.446  0.7241  1.5143  2.2952
 9166SOL     OW38956   4.288   4.606  14.230  0.0870 -0.4237 -0.1244
 9166SOL    HW138957   4.225   4.655  14.176  1.0310  1.7375  0.7515
 9166SOL    HW238958   4.290   4.650  14.315  0.5265  0.6329 -0.6724
 9167SOL     OW38959   3.128   1.008   4.204  0.2752  0.3402 -0.5633
 9167SOL    HW138960   3.202   1.017   4.144  0.9458  0.5410  0.3039
 9167SOL    HW238961   3.088   0.923   4.184 -0.5765  0.1676  1.8611
 9168SOL     OW38962   1.093   3.035   3.975  0.5716 -0.3154 -0.8363
 9168SOL    HW138963   1.156   3.076   4.035 -1.8349 -0.8199  2.0369
 9168SOL    HW238964   1.025   3.004   4.035  1.6361  1.1464  1.1015
 9169SOL     OW38965   2.161   2.813   0.307  1.3922  0.7927 -0.2942
 9169SOL    HW138966   2.251   2.841   0.293  0.5673  3.5528  0.0424
 9169SOL    HW238967   2.121   2.895   0.336 -0.4726 -0.0731 -0.4137
 9170SOL     OW38968   0.409   4.493   2.281  0.2556  0.1297 -0.1777
 9170SOL    HW138969   0.422   4.436   2.357 -0.6387  1.5774  1.0543
 9170SOL    HW238970   0.358   4.560   2.326  0.1736  1.1007 -1.7219
 9171SOL     OW38971   3.364   4.370   0.075 -0.4128 -0.9352 -0.2882
 9171SOL    HW138972   3.446   4.338   0.037 -0.5720 -1.1425 -0.4564
 9171SOL    HW238973   3.308   4.312   0.024 -0.7433 -1.9827  1.2772
 9172SOL     OW38974   2.180   3.004   9.708  0.1476 -0.5614 -0.0281
 9172SOL    HW138975   2.183   3.089   9.752  0.2839 -0.4575 -0.2360
 9172SOL    HW238976   2.094   3.009   9.666  0.9187 -1.3341 -1.7067
 9173SOL     OW38977   0.655   4.394   6.288  0.2505 -0.7922  0.0621
 9173SOL    HW138978   0.707   4.451   6.232 -0.2431  0.1440  0.5504
 9173SOL    HW238979   0.640   4.325   6.224 -0.5499 -0.1113 -0.4805
 9174SOL     OW38980   0.949   2.431   3.318  0.0511  0.0061  0.1264
 9174SOL    HW138981   0.934   2.401   3.228  2.4438  1.6366 -0.8340
 9174SOL    HW238982   0.862   2.470   3.325  0.4060  0.7648  0.2242
 9175SOL     OW38983   1.127   1.625   6.219  0.5555 -0.1469  0.0067
 9175SOL    HW138984   1.122   1.669   6.134  1.0272 -0.4233 -0.1626
 9175SOL    HW238985   1.192   1.688   6.253 -3.1228  1.7927  3.4869
 9176SOL     OW38986   3.228   1.266   4.851  0.0934  0.3436 -0.3548
 9176SOL    HW138987   3.215   1.194   4.789 -1.6295 -0.4460  0.9405
 9176SOL    HW238988   3.205   1.344   4.800 -1.8981  0.7491  1.1540
 9177SOL     OW38989   2.780   0.962   1.299 -0.5070  0.6331  0.4849
 9177SOL    HW138990   2.815   0.894   1.357 -0.8067 -1.8037 -2.1741
 9177SOL    HW238991   2.692   0.976   1.336 -0.2091  2.8774  0.3129
 9178SOL     OW38992   1.144   0.218   5.502  0.4134  0.3415 -0.2926
 9178SOL    HW138993   1.123   0.202   5.410  1.1126  0.8518 -0.5453
 9178SOL    HW238994   1.230   0.261   5.500  1.0063 -0.8859 -0.6101
 9179SOL     OW38995   4.203   0.555   1.255  0.1074  0.6874 -0.4645
 9179SOL    HW138996   4.265   0.608   1.305  0.5714 -1.3345  1.1565
 9179SOL    HW238997   4.199   0.484   1.320 -1.7999 -1.0099 -2.4429
 9180SOL     OW38998   3.543   0.232  13.484 -0.6941 -0.1035 -0.1000
 9180SOL    HW138999   3.611   0.176  13.521 -2.8484 -0.5630  3.2258
 9180SOL    HW239000   3.591   0.288  13.424 -0.7368 -1.4582 -1.3800
 9181SOL     OW39001   0.429   1.204   1.024  0.5468 -0.6844 -0.1064
 9181SOL    HW139002   0.509   1.173   0.981 -0.7041 -1.4638 -1.8666
 9181SOL    HW239003   0.442   1.293   0.992 -1.2299 -1.5392 -3.2650
 9182SOL     OW39004   1.909   4.637  12.029  0.1893  0.1803 -0.5343
 9182SOL    HW139005   1.874   4.722  12.002 -0.9170 -0.1202 -0.0647
 9182SOL    HW239006   1.970   4.606  11.963 -0.1286 -0.7169 -0.4066
 9183SOL     OW39007   3.781   3.174  17.135  0.5057  0.2383  0.2893
 9183SOL    HW139008   3.851   3.127  17.089 -0.2013 -1.0169  0.4912
 9183SOL    HW239009   3.827   3.256  17.150 -2.2348  1.7460  0.4088
 9184SOL     OW39010   0.452   0.546   3.256  0.0817  0.2120 -0.1114
 9184SOL    HW139011   0.520   0.483   3.280 -1.4422 -1.5723 -0.4521
 9184SOL    HW239012   0.501   0.628   3.257  0.3192  0.0447  1.1601
 9185SOL     OW39013   4.639   1.538   8.554 -0.2153 -0.3837  0.3282
 9185SOL    HW139014   0.005   1.513   8.539  0.0383  0.1033  1.0635
 9185SOL    HW239015   4.613   1.581   8.473 -2.2375 -2.7667 -0.2696
 9186SOL     OW39016   0.279   0.884   7.983  0.1573 -0.1117  0.1379
 9186SOL    HW139017   0.237   0.926   8.058 -0.9678 -0.8470 -0.0793
 9186SOL    HW239018   0.353   0.841   8.026 -1.0122 -3.2520 -1.0029
 9187SOL     OW39019   2.750   4.172   6.984 -0.5312 -0.2914  0.7479
 9187SOL    HW139020   2.773   4.088   6.945  0.0669  0.9518 -1.5945
 9187SOL    HW239021   2.688   4.215   6.925  0.7156  1.1884  0.5278
 9188SOL     OW39022   4.077   2.170   6.133 -0.3616  0.3029  0.1538
 9188SOL    HW139023   4.031   2.251   6.156  0.7672  1.5150 -1.7894
 9188SOL    HW239024   4.171   2.187   6.145 -0.1380 -1.7740  1.2647
 9189SOL     OW39025   1.543   0.961   6.081 -0.2133 -0.0430  0.0328
 9189SOL    HW139026   1.537   0.970   6.176  1.7205  1.3468  0.0230
 9189SOL    HW239027   1.472   1.017   6.050 -0.8772 -2.1823 -2.3341
 9190SOL     OW39028   1.366   0.831   0.728 -0.4178  0.0597 -0.2021
 9190SOL    HW139029   1.434   0.865   0.786 -0.3778 -0.5022  0.0795
 9190SOL    HW239030   1.416   0.759   0.689  1.4364  0.7869  0.8670
 9191SOL     OW39031   2.935   4.720   5.313 -0.3142 -0.0705 -0.0293
 9191SOL    HW139032   2.952   4.704   5.221  0.7555  0.0175  0.1472
 9191SOL    HW239033   2.996   0.066   5.330  0.2876 -0.3776 -0.9520
 9192SOL     OW39034   3.293   2.453   9.659  0.2285  0.0701  0.1571
 9192SOL    HW139035   3.316   2.464   9.751  1.4406 -0.0014 -0.1318
 9192SOL    HW239036   3.380   2.468   9.621  0.0759  3.8039  1.2797
 9193SOL     OW39037   4.178   2.671  11.444  0.7211 -0.2949 -0.6982
 9193SOL    HW139038   4.124   2.592  11.436 -0.1750  0.0013  2.2857
 9193SOL    HW239039   4.136   2.729  11.508 -0.3104 -1.9180  0.0977
 9194SOL     OW39040   3.353   0.597   2.384 -0.2592 -0.4568  0.0757
 9194SOL    HW139041   3.364   0.579   2.477 -3.8178  0.9025  0.7554
 9194SOL    HW239042   3.278   0.656   2.391  0.7621  0.9566 -0.8934
 9195SOL     OW39043   3.903   4.098  10.784 -0.5912 -0.3125 -0.3528
 9195SOL    HW139044   3.835   4.041  10.748 -0.3376 -0.9603  0.1946
 9195SOL    HW239045   3.850   4.146  10.848  1.1952 -0.9761  1.6323
 9196SOL     OW39046   4.112   1.035   8.115 -0.1682 -0.1774 -0.7247
 9196SOL    HW139047   4.129   0.974   8.043  0.1815  0.7169 -1.3959
 9196SOL    HW239048   4.047   1.090   8.072  1.9494  2.1668 -0.9183
 9197SOL     OW39049   3.555   2.226   7.837  0.0945  0.1106 -0.0844
 9197SOL    HW139050   3.563   2.132   7.855 -1.5424 -0.0810 -0.3558
 9197SOL    HW239051   3.459   2.229   7.834  0.0705  0.1436  0.6727
 9198SOL     OW39052   1.865   2.039   9.227  0.2792  0.4946 -0.3058
 9198SOL    HW139053   1.937   2.091   9.262  1.1247 -1.0071  0.1881
 9198SOL    HW239054   1.806   2.112   9.208 -2.3926 -1.0464  2.0312
 9199SOL     OW39055   2.020   1.275   6.792  0.4329  0.4437 -0.3451
 9199SOL    HW139056   1.986   1.196   6.750 -0.9277  0.6252  0.4311
 9199SOL    HW239057   2.114   1.260   6.783  0.1224 -0.6769 -1.7435
 9200SOL     OW39058   3.141   4.571   0.357  0.2371 -0.2634  0.3522
 9200SOL    HW139059   3.214   4.523   0.397  0.9086  1.1013  0.8057
 9200SOL    HW239060   3.201   4.618   0.299 -1.3168  2.1330  0.6980
 9201SOL     OW39061   2.872   1.465  15.426  0.2343 -0.5058 -0.4108
 9201SOL    HW139062   2.868   1.376  15.391 -1.1693  0.2881 -2.3022
 9201SOL    HW239063   2.827   1.507  15.352 -0.5145 -0.6431 -0.0305
 9202SOL     OW39064   1.931   4.334   6.530 -0.2163 -0.2723  0.0376
 9202SOL    HW139065   1.853   4.352   6.581 -0.7169  1.3363 -1.2717
 9202SOL    HW239066   1.938   4.239   6.541 -0.5883 -0.1935  0.9528
 9203SOL     OW39067   4.697   3.864   7.579  0.0086  0.1052 -0.0025
 9203SOL    HW139068   4.648   3.789   7.544  1.8908 -0.7614 -0.7926
 9203SOL    HW239069   0.049   3.854   7.523 -1.7895 -1.5804 -2.2116
 9204SOL     OW39070   2.755   2.635  10.772  0.2011 -0.4747 -0.1826
 9204SOL    HW139071   2.662   2.615  10.783  0.1143  1.1995  1.9157
 9204SOL    HW239072   2.771   2.713  10.825 -0.2389 -0.4462 -0.0869
 9205SOL     OW39073   2.839   0.126   2.973 -0.3919  0.2542  0.0352
 9205SOL    HW139074   2.901   0.092   3.037  1.5094 -1.1369 -2.5555
 9205SOL    HW239075   2.892   0.191   2.926 -0.3421 -0.4503 -0.8746
 9206SOL     OW39076   1.167   2.005  15.470 -0.7986  0.1623  0.0993
 9206SOL    HW139077   1.157   1.920  15.511  2.4575  0.9927  2.6113
 9206SOL    HW239078   1.257   2.033  15.486  0.2593 -1.8867 -2.3446
 9207SOL     OW39079   4.589   0.170   7.839 -0.7065 -0.1002  0.4479
 9207SOL    HW139080   4.651   0.099   7.820  3.0508  3.1598  0.5790
 9207SOL    HW239081   4.545   0.148   7.921 -0.5417  1.7556  1.0304
 9208SOL     OW39082   1.751   4.654   4.596 -0.0524 -0.0354  0.0018
 9208SOL    HW139083   1.711   4.708   4.528 -1.0674  1.8592  2.0929
 9208SOL    HW239084   1.685   4.593   4.628  0.3858 -0.4569  0.1073
 9209SOL     OW39085   2.967   1.806   7.545 -0.1090 -0.2898  0.0138
 9209SOL    HW139086   2.886   1.854   7.559  0.4210  1.0973 -1.5888
 9209SOL    HW239087   2.937   1.767   7.463  0.9536 -0.3226 -0.3608
 9210SOL     OW39088   2.931   3.761  17.332  0.1269 -0.4831 -0.1955
 9210SOL    HW139089   3.009   3.708  17.318  0.8869  0.3745  0.7467
 9210SOL    HW239090   2.859   3.698  17.340 -1.3113  0.7983 -3.1306
 9211SOL     OW39091   1.851   0.155  13.941  0.2329 -0.4344  0.0914
 9211SOL    HW139092   1.764   0.130  13.910  0.0039 -0.8917  1.1202
 9211SOL    HW239093   1.907   0.083  13.913 -0.9061 -1.7954  1.3531
 9212SOL     OW39094   3.277   3.250  10.226 -0.3511  0.1985  0.5479
 9212SOL    HW139095   3.296   3.277  10.316 -0.3998  0.0232  0.6105
 9212SOL    HW239096   3.341   3.180  10.216 -2.1146 -1.4242  0.7978
 9213SOL     OW39097   1.891   4.013   6.002 -0.0157  0.1072 -0.0837
 9213SOL    HW139098   1.886   4.108   6.017 -1.2381 -0.1023  0.8472
 9213SOL    HW239099   1.976   3.999   6.043  0.6552  1.5757 -0.9726
 9214SOL     OW39100   2.892   4.492  17.491 -0.6726 -0.7907 -0.0531
 9214SOL    HW139101   2.916   4.406  17.457  1.4096  1.1780 -3.5789
 9214SOL    HW239102   2.828   4.525  17.428 -1.0482  0.0738  0.7800
 9215SOL     OW39103   4.082   1.364   6.681 -0.0213  0.1096 -0.2535
 9215SOL    HW139104   4.125   1.290   6.638 -2.5713  0.9091 -4.1765
 9215SOL    HW239105   4.095   1.423   6.607 -0.9223  1.0558  0.3470
 9216SOL     OW39106   3.779   0.785   7.462 -0.0210 -0.0655  0.0883
 9216SOL    HW139107   3.822   0.711   7.420  0.5081 -0.2543  0.9510
 9216SOL    HW239108   3.817   0.774   7.550 -0.8442 -0.2437  0.4162
 9217SOL     OW39109   2.583   4.279  14.275 -0.1387 -0.0742  0.0947
 9217SOL    HW139110   2.512   4.322  14.322  2.1859  3.2687  0.5067
 9217SOL    HW239111   2.536   4.263  14.193 -2.0081  0.5770  1.0732
 9218SOL     OW39112   3.345   0.093   3.796 -0.0545  0.3989 -0.2874
 9218SOL    HW139113   3.419   0.059   3.746 -0.1364  1.7734 -1.3321
 9218SOL    HW239114   3.268   0.041   3.774  0.3358 -0.5925  0.6612
 9219SOL     OW39115   0.504   4.289   2.790 -0.2347 -0.6754 -0.1325
 9219SOL    HW139116   0.534   4.287   2.881 -0.9096 -0.7730  0.0883
 9219SOL    HW239117   0.536   4.376   2.766 -3.1722  0.6546  0.7447
 9220SOL     OW39118   0.280   0.480   8.577  0.2215 -0.3963 -0.6165
 9220SOL    HW139119   0.192   0.517   8.577  0.6748  0.7560  2.5568
 9220SOL    HW239120   0.337   0.549   8.542  0.3255  0.9105  2.1298
 9221SOL     OW39121   1.667   2.361   5.333  0.2028  0.1662  0.1863
 9221SOL    HW139122   1.684   2.454   5.350  0.9724  0.7253 -3.5594
 9221SOL    HW239123   1.758   2.330   5.339  0.8389  1.6920 -1.5658
 9222SOL     OW39124   3.173   3.459   1.768 -0.2080 -0.0525 -0.1822
 9222SOL    HW139125   3.173   3.405   1.689  2.4883  2.1591 -1.6781
 9222SOL    HW239126   3.081   3.483   1.758 -0.1870  0.7849  1.6298
 9223SOL     OW39127   2.937   0.752   4.679 -0.1072  0.7937  0.2041
 9223SOL    HW139128   2.860   0.795   4.715 -0.0673  0.1072  1.1366
 9223SOL    HW239129   2.995   0.828   4.677 -0.8705  1.3014 -1.7391
 9224SOL     OW39130   1.774   1.756   7.883 -0.7653  0.4839 -0.1892
 9224SOL    HW139131   1.830   1.693   7.838 -1.9838 -1.4903  1.0649
 9224SOL    HW239132   1.808   1.840   7.852 -0.1726 -0.4695 -2.1077
 9225SOL     OW39133   1.375   4.184   2.130 -0.0817  0.0989  0.0064
 9225SOL    HW139134   1.469   4.165   2.137 -0.1608 -0.7489 -1.1605
 9225SOL    HW239135   1.358   4.253   2.194 -3.2318 -0.5548 -0.1573
 9226SOL     OW39136   1.431   2.066  13.741 -0.2579  0.3324 -0.4261
 9226SOL    HW139137   1.510   2.081  13.690  0.3311  1.0799  0.7031
 9226SOL    HW239138   1.423   1.972  13.730  0.0192  0.0480  1.6807
 9227SOL     OW39139   3.274   0.445   1.881 -0.2840 -0.3814 -0.1403
 9227SOL    HW139140   3.364   0.475   1.897 -0.7308  0.3268  1.1165
 9227SOL    HW239141   3.243   0.475   1.967 -1.0189 -0.9956 -0.1974
 9228SOL     OW39142   3.098   4.652  12.975 -0.4862  0.5409  0.0723
 9228SOL    HW139143   3.177   4.703  12.957  0.3921 -1.3723 -1.4870
 9228SOL    HW239144   3.087   4.685  13.064 -0.7539 -1.1001  0.6551
 9229SOL     OW39145   0.897   0.739  12.042 -0.2729  0.0652 -0.7230
 9229SOL    HW139146   0.806   0.761  12.062  0.6702  1.3096  2.1072
 9229SOL    HW239147   0.935   0.816  12.083 -0.4428 -0.6771  0.8250
 9230SOL     OW39148   1.386   2.402   7.232 -0.5606 -0.0391  0.0310
 9230SOL    HW139149   1.405   2.326   7.287  0.2944  0.8572  0.9545
 9230SOL    HW239150   1.294   2.385   7.210 -0.5242  1.5528 -1.3217
 9231SOL     OW39151   4.316   1.471   3.361  0.3300 -0.1531 -0.0906
 9231SOL    HW139152   4.355   1.397   3.315 -2.2190  0.1773 -2.7762
 9231SOL    HW239153   4.389   1.489   3.421 -0.2536 -2.5300  1.3518
 9232SOL     OW39154   0.560   2.152   8.491 -0.1709  0.1879  0.5503
 9232SOL    HW139155   0.640   2.101   8.485  0.9343  1.7062  2.4405
 9232SOL    HW239156   0.568   2.222   8.427  2.5437 -1.8157 -1.2760
 9233SOL     OW39157   3.615   3.377   6.033  0.0013 -0.1316 -0.1782
 9233SOL    HW139158   3.574   3.340   5.955  0.6369 -0.4509 -0.3594
 9233SOL    HW239159   3.571   3.461   6.048  0.4655  0.3557 -1.5509
 9234SOL     OW39160   1.654   3.768   1.911  0.0030  0.1625 -0.4106
 9234SOL    HW139161   1.591   3.812   1.854  0.6264  1.2161 -0.2773
 9234SOL    HW239162   1.596   3.728   1.976  1.7768 -2.1577 -0.2591
 9235SOL     OW39163   1.182   1.024   7.644 -0.3008 -0.1147 -0.0214
 9235SOL    HW139164   1.180   1.074   7.726 -2.0116  1.5825 -1.0948
 9235SOL    HW239165   1.184   0.935   7.680 -1.7595  0.3187  1.1141
 9236SOL     OW39166   3.654   4.245   5.975 -0.2257  0.0083 -0.3107
 9236SOL    HW139167   3.664   4.195   6.056  2.2485 -0.6709 -1.0567
 9236SOL    HW239168   3.578   4.207   5.929  0.3760 -2.2675  0.5981
 9237SOL     OW39169   1.644   1.146   1.377  0.0304 -0.6475  0.1506
 9237SOL    HW139170   1.647   1.053   1.398  0.0997 -0.6988 -0.0927
 9237SOL    HW239171   1.660   1.182   1.465  0.2968 -2.0163  0.6581
 9238SOL     OW39172   3.189   1.538   6.541  0.8159 -0.6066  0.1966
 9238SOL    HW139173   3.270   1.490   6.557  1.2287 -0.1662 -0.5872
 9238SOL    HW239174   3.113   1.495   6.582 -0.6210  0.5866 -1.2359
 9239SOL     OW39175   2.318   1.966   2.536 -0.6486 -0.0088  0.0812
 9239SOL    HW139176   2.267   2.047   2.527 -0.7334 -0.0152  0.5103
 9239SOL    HW239177   2.353   1.954   2.447 -0.3990  2.7670 -0.2181
 9240SOL     OW39178   1.338   2.674   1.648 -0.0836  0.0578  0.3642
 9240SOL    HW139179   1.266   2.639   1.700  0.5139 -0.9186  0.5504
 9240SOL    HW239180   1.392   2.721   1.711  0.7908  0.7548 -0.8830
 9241SOL     OW39181   3.364   3.382   2.601 -0.9668  0.4375 -0.0622
 9241SOL    HW139182   3.350   3.376   2.696  1.4130  1.7129  0.3701
 9241SOL    HW239183   3.336   3.296   2.568  3.8080 -2.1080  2.5494
 9242SOL     OW39184   2.653   1.765   2.511 -0.3302 -0.4881  0.1308
 9242SOL    HW139185   2.644   1.801   2.599  0.0062  0.3209 -0.1677
 9242SOL    HW239186   2.712   1.691   2.525  1.6976  0.6764 -2.2499
 9243SOL     OW39187   3.998   0.393  12.928  0.5099  0.4159 -0.4604
 9243SOL    HW139188   3.996   0.299  12.912  1.6984  0.2757  0.2425
 9243SOL    HW239189   3.908   0.426  12.934 -0.6027 -2.6990  0.3677
 9244SOL     OW39190   3.262   2.163  13.705 -0.3917 -0.2306 -0.4177
 9244SOL    HW139191   3.197   2.217  13.750  1.2433  0.4278  1.1641
 9244SOL    HW239192   3.207   2.092  13.670 -3.0020  1.3058  0.6289
 9245SOL     OW39193   2.964   3.377   7.444  0.3992  0.3994 -0.2410
 9245SOL    HW139194   2.958   3.446   7.378 -0.2790  2.6435  2.1413
 9245SOL    HW239195   2.903   3.317   7.401  0.4266  1.2757 -1.5089
 9246SOL     OW39196   1.511   3.613  12.839  0.4275 -0.1254 -0.7491
 9246SOL    HW139197   1.426   3.622  12.882  0.2552  0.3106 -1.1726
 9246SOL    HW239198   1.541   3.704  12.847  0.2536 -0.0750 -0.6552
 9247SOL     OW39199   1.557   3.593   7.725 -0.0690  0.5131 -0.2264
 9247SOL    HW139200   1.530   3.612   7.635 -0.6273  2.1003  0.2810
 9247SOL    HW239201   1.604   3.512   7.704  1.7132  1.7427 -0.9906
 9248SOL     OW39202   0.522   1.749   8.109  0.0861  0.3899 -0.4952
 9248SOL    HW139203   0.572   1.674   8.078 -0.9035 -0.9468  1.1584
 9248SOL    HW239204   0.552   1.815   8.047 -0.7455 -1.6753 -3.0535
 9249SOL     OW39205   3.845   0.190   3.061 -0.1710  0.4713  0.1325
 9249SOL    HW139206   3.926   0.155   3.023  0.0175  0.8756  0.1596
 9249SOL    HW239207   3.864   0.282   3.043  1.0909  0.4588  1.3147
 9250SOL     OW39208   4.000   2.700   7.879  0.2358  0.6849  0.3086
 9250SOL    HW139209   3.998   2.608   7.905 -2.3385 -0.0779 -2.6891
 9250SOL    HW239210   4.032   2.729   7.965 -0.5205 -0.9132  1.1216
 9251SOL     OW39211   3.166   1.390  10.387 -0.6407 -0.5336  0.0907
 9251SOL    HW139212   3.092   1.421  10.335 -0.7441  0.8983  1.0819
 9251SOL    HW239213   3.232   1.450  10.352 -1.4785  0.9399  1.0459
 9252SOL     OW39214   0.891   3.639  10.709 -0.1884 -0.1951  0.6071
 9252SOL    HW139215   0.804   3.603  10.690 -0.5370  1.4866 -1.0500
 9252SOL    HW239216   0.868   3.732  10.713 -0.5790 -0.2439 -0.4361
 9253SOL     OW39217   0.497   3.784   3.367  0.1425  0.5030  0.3553
 9253SOL    HW139218   0.576   3.837   3.353  0.6512 -0.3018  0.1579
 9253SOL    HW239219   0.532   3.732   3.440  2.9316  2.0293  0.0901
 9254SOL     OW39220   2.497   2.872   0.494  0.4556 -0.4869 -0.5107
 9254SOL    HW139221   2.555   2.818   0.440  1.3171 -0.4071  0.3178
 9254SOL    HW239222   2.559   2.895   0.564  0.3832  1.3724 -1.0828
 9255SOL     OW39223   4.448   1.859   3.141  0.1416  0.4404 -0.2223
 9255SOL    HW139224   4.401   1.939   3.164 -2.0414 -0.6885 -0.7152
 9255SOL    HW239225   4.378   1.797   3.121  0.7112 -0.4123  0.4204
 9256SOL     OW39226   2.686   1.512   6.695  0.7597  0.4233 -0.4863
 9256SOL    HW139227   2.646   1.588   6.737  1.9014  0.4166  0.6427
 9256SOL    HW239228   2.627   1.439   6.714  0.6823  0.5404 -0.2800
 9257SOL     OW39229   4.546   3.373   9.036  0.0639  0.8595  0.4800
 9257SOL    HW139230   4.632   3.335   9.020 -0.8154 -1.1912  0.5950
 9257SOL    HW239231   4.546   3.355   9.131 -2.3202  0.3427  0.3860
 9258SOL     OW39232   1.392   4.043  11.247 -0.1476 -0.1934  0.5082
 9258SOL    HW139233   1.447   4.052  11.169 -1.0926  2.4946  0.1198
 9258SOL    HW239234   1.329   3.983  11.209 -0.6867 -0.8533  2.4373
 9259SOL     OW39235   4.456   1.652   3.968 -0.1840  0.0617  0.3546
 9259SOL    HW139236   4.392   1.623   3.903 -0.0384 -2.7582  1.4867
 9259SOL    HW239237   4.402   1.675   4.044  0.5792 -0.6849  1.1130
 9260SOL     OW39238   4.505   2.119   4.405 -0.0322 -0.4355 -0.3884
 9260SOL    HW139239   4.549   2.074   4.333  1.9674 -1.2332  1.3011
 9260SOL    HW239240   4.464   2.194   4.362  0.7931  1.2656  1.8007
 9261SOL     OW39241   2.317   0.369  15.975 -0.4324 -0.0815  0.2393
 9261SOL    HW139242   2.292   0.384  15.883 -0.3406  0.3215  0.2809
 9261SOL    HW239243   2.289   0.281  15.997  1.6663 -1.2382 -1.6793
 9262SOL     OW39244   3.336   2.528  13.259  0.0797 -0.2887  0.1637
 9262SOL    HW139245   3.297   2.495  13.177 -1.4730 -0.2146  0.8650
 9262SOL    HW239246   3.289   2.469  13.318 -4.2743  2.3191 -0.6330
 9263SOL     OW39247   0.822   0.357   7.885 -0.4157  0.3422  0.2726
 9263SOL    HW139248   0.827   0.267   7.916 -0.3699  1.3026  3.0729
 9263SOL    HW239249   0.730   0.382   7.891 -0.5370 -0.1707  0.4622
 9264SOL     OW39250   4.054   3.754   4.747 -0.2735  0.0176  0.2107
 9264SOL    HW139251   4.065   3.687   4.815 -1.1465  0.7357  1.0489
 9264SOL    HW239252   4.029   3.827   4.805  1.1194  1.0651 -0.4917
 9265SOL     OW39253   4.272   0.174   8.284 -0.3835 -0.0049  0.3274
 9265SOL    HW139254   4.184   0.167   8.321  0.2194 -0.6982  1.6429
 9265SOL    HW239255   4.325   0.189   8.363 -0.5051  0.6864  0.2852
 9266SOL     OW39256   1.716   4.676  16.267  0.0828  0.3161  0.1127
 9266SOL    HW139257   1.626   4.705  16.281  0.8773  1.0845  3.6117
 9266SOL    HW239258   1.736   4.709  16.179 -0.1258 -4.2216 -1.6281
 9267SOL     OW39259   2.157   1.659   2.794 -0.0635  0.1202  0.2840
 9267SOL    HW139260   2.149   1.566   2.771 -0.9307  0.0327  0.9414
 9267SOL    HW239261   2.082   1.678   2.850 -0.7770  1.6848 -1.2377
 9268SOL     OW39262   2.859   0.375   0.500 -0.1480 -0.3441  0.6437
 9268SOL    HW139263   2.947   0.405   0.520 -0.0930 -0.4926  0.6202
 9268SOL    HW239264   2.858   0.382   0.404  0.3429  0.1508  0.6778
 9269SOL     OW39265   1.267   0.024  10.332 -0.3979  0.0677 -0.7450
 9269SOL    HW139266   1.353   0.017  10.291  0.1002 -0.0481  0.3079
 9269SOL    HW239267   1.274   0.085  10.405 -0.4848 -0.6496 -0.1326
 9270SOL     OW39268   1.053   0.130   4.524 -0.7229 -0.2374  0.1566
 9270SOL    HW139269   1.007   0.161   4.602  2.0238  0.9761  1.2746
 9270SOL    HW239270   1.083   0.212   4.483 -1.1966  0.2354  0.7481
 9271SOL     OW39271   1.708   3.016   7.790 -0.3028 -0.5328  0.7174
 9271SOL    HW139272   1.678   2.926   7.778  1.2866 -0.7808 -1.3008
 9271SOL    HW239273   1.796   3.006   7.825  0.3741  2.7368 -0.0646
 9272SOL     OW39274   2.779   2.627   6.575  0.7811  0.3865  0.2718
 9272SOL    HW139275   2.745   2.680   6.504  0.0358  1.2918  1.3107
 9272SOL    HW239276   2.797   2.549   6.523  0.5297  0.7833 -0.4122
 9273SOL     OW39277   0.473   4.084   8.997  0.1156  0.1528  0.3100
 9273SOL    HW139278   0.555   4.095   9.045 -1.1061 -1.4748  2.8162
 9273SOL    HW239279   0.408   4.115   9.061 -1.3480 -2.5068  0.1305
 9274SOL     OW39280   0.400   4.342  16.145  0.3481  0.1249  0.0085
 9274SOL    HW139281   0.448   4.373  16.222 -1.1698  1.5580  0.3644
 9274SOL    HW239282   0.469   4.292  16.101  0.5197 -0.1864  0.6290
 9275SOL     OW39283   2.834   2.012  13.159 -0.3734 -0.3972  0.1393
 9275SOL    HW139284   2.823   2.063  13.078 -0.5781 -0.0774  0.3698
 9275SOL    HW239285   2.928   2.016  13.172 -0.4024 -1.0593  0.5121
 9276SOL     OW39286   0.390   1.245   2.443  0.1356  0.0662 -0.4910
 9276SOL    HW139287   0.358   1.328   2.479 -0.2497  0.3904 -1.5890
 9276SOL    HW239288   0.482   1.269   2.434  0.2552 -0.5333 -0.8916
 9277SOL     OW39289   3.086   4.147   2.642 -0.0251 -0.1109 -0.1470
 9277SOL    HW139290   3.104   4.119   2.553  1.0289 -0.0232  0.0369
 9277SOL    HW239291   3.071   4.057   2.671  1.0215 -1.2456 -3.1455
 9278SOL     OW39292   2.967   0.407   4.411 -0.4201  0.5283  0.2961
 9278SOL    HW139293   2.943   0.499   4.398  2.6137  1.2271 -0.2877
 9278SOL    HW239294   3.005   0.385   4.326  0.8687 -2.5158  1.7063
 9279SOL     OW39295   4.033   1.496   4.692  0.5971 -0.0660 -0.4706
 9279SOL    HW139296   4.086   1.574   4.679  0.7762  0.0440  0.9212
 9279SOL    HW239297   3.950   1.521   4.650 -0.2238 -2.1563 -0.1119
 9280SOL     OW39298   2.904   0.610   6.721  0.3619 -0.2512 -0.6725
 9280SOL    HW139299   2.943   0.693   6.749  0.9685 -0.2642 -1.4829
 9280SOL    HW239300   2.828   0.651   6.681 -0.0346 -0.5150 -0.2005
 9281SOL     OW39301   3.388   2.868   7.051  0.1487  0.3237  0.8185
 9281SOL    HW139302   3.400   2.776   7.071  0.1897  0.8341  3.1338
 9281SOL    HW239303   3.370   2.908   7.136 -1.9060 -2.1424  1.5242
 9282SOL     OW39304   3.450   0.275   3.202 -0.4240  0.9125 -0.3376
 9282SOL    HW139305   3.500   0.260   3.121 -1.3293  0.7714 -0.8688
 9282SOL    HW239306   3.370   0.304   3.158  0.3626  0.8888 -1.7924
 9283SOL     OW39307   0.255   0.930   3.062 -0.5062  0.2581 -0.1691
 9283SOL    HW139308   0.190   0.866   3.032 -0.6224 -0.2469  1.1782
 9283SOL    HW239309   0.223   1.001   3.006  0.2196 -0.5973 -1.6862
 9284SOL     OW39310   1.517   1.750   7.727 -0.5218  0.1368 -0.0945
 9284SOL    HW139311   1.538   1.684   7.660 -0.7095 -0.3331  0.3122
 9284SOL    HW239312   1.602   1.767   7.766 -0.2586 -2.2482  0.3637
 9285SOL     OW39313   0.907   3.102  15.356 -0.6630  0.5002  0.3699
 9285SOL    HW139314   0.914   3.193  15.383  0.0099  0.4221  0.4566
 9285SOL    HW239315   0.818   3.092  15.321 -0.7515 -0.6351  0.9024
 9286SOL     OW39316   4.309   3.279   4.918 -0.6407 -0.5388 -0.8138
 9286SOL    HW139317   4.328   3.187   4.901 -1.0745 -1.3936  3.3376
 9286SOL    HW239318   4.259   3.288   4.837 -1.1741  3.2205 -0.0683
 9287SOL     OW39319   4.124   1.314   6.114  0.5588 -0.5572 -0.1741
 9287SOL    HW139320   4.212   1.331   6.081  0.6731  1.1909  0.9805
 9287SOL    HW239321   4.114   1.226   6.081  2.8221 -0.9631  0.2009
 9288SOL     OW39322   0.647   1.677   0.908 -0.4743  0.1655 -0.0747
 9288SOL    HW139323   0.615   1.714   0.826 -1.0126 -2.7415 -1.2069
 9288SOL    HW239324   0.726   1.729   0.917 -1.1611  1.0682  0.7187
 9289SOL     OW39325   1.027   0.783   7.984  0.0219 -0.2350  0.0231
 9289SOL    HW139326   1.081   0.801   7.907  0.7248 -3.1237 -0.1527
 9289SOL    HW239327   1.055   0.703   8.028  1.2646 -1.4130 -2.9298
 9290SOL     OW39328   1.291   3.995  13.256  0.1919 -0.1863  0.6502
 9290SOL    HW139329   1.219   4.027  13.309  0.3043  1.1610 -0.0143
 9290SOL    HW239330   1.366   4.053  13.267 -0.2867  0.8605 -1.5459
 9291SOL     OW39331   3.092   3.207  10.019 -0.0704 -0.6476 -0.1405
 9291SOL    HW139332   3.158   3.257  10.068 -0.6037 -0.2543  0.1816
 9291SOL    HW239333   3.154   3.139   9.992 -0.6937 -1.7113  1.1643
 9292SOL     OW39334   1.894   4.368   1.707 -0.5170 -0.0011  0.3667
 9292SOL    HW139335   1.913   4.292   1.651 -0.4379 -1.1763  2.0004
 9292SOL    HW239336   1.823   4.332   1.760 -0.3043 -0.2492  0.4867
 9293SOL     OW39337   2.375   2.167   7.621  0.3065  0.2007 -0.3475
 9293SOL    HW139338   2.353   2.099   7.557 -1.6477  0.5696 -0.0689
 9293SOL    HW239339   2.302   2.153   7.681  1.7411  0.4296  1.4731
 9294SOL     OW39340   2.571   2.504   7.065  0.2313  0.2123 -0.0976
 9294SOL    HW139341   2.615   2.541   6.988 -1.0564 -1.1960 -1.5215
 9294SOL    HW239342   2.572   2.584   7.117 -0.2268  0.0880  0.1083
 9295SOL     OW39343   0.503   1.471   7.001 -0.3835 -0.2015 -0.2554
 9295SOL    HW139344   0.458   1.498   6.921 -1.5979  0.4017  0.6331
 9295SOL    HW239345   0.555   1.395   6.975  0.1082 -1.1555  3.4720
 9296SOL     OW39346   2.974   0.023   1.286 -0.0466  0.2105 -0.1920
 9296SOL    HW139347   2.940   0.108   1.256  1.9260  0.6370 -1.2269
 9296SOL    HW239348   2.970   4.698   1.205  0.7623  0.2038 -0.2260
 9297SOL     OW39349   2.818   1.700   1.771  0.4342  0.1908 -0.0001
 9297SOL    HW139350   2.802   1.789   1.739  1.6653  1.0083  1.6229
 9297SOL    HW239351   2.817   1.709   1.867  0.3504  2.4124 -0.2065
 9298SOL     OW39352   0.445   4.552   2.025  0.3625  0.6242  0.0609
 9298SOL    HW139353   0.452   4.462   1.993 -3.9943  0.5958 -0.8829
 9298SOL    HW239354   0.480   4.542   2.114 -1.5396  1.8376  0.9433
 9299SOL     OW39355   3.922   4.310   4.270 -0.5997  0.3596 -0.3631
 9299SOL    HW139356   3.928   4.404   4.253 -0.3704  0.2444 -0.9385
 9299SOL    HW239357   3.830   4.282   4.273 -0.6523  0.6678  0.7150
 9300SOL     OW39358   3.110   2.338  17.327 -0.3444 -0.5493  0.0301
 9300SOL    HW139359   3.195   2.357  17.287 -0.9874  0.7411 -0.7308
 9300SOL    HW239360   3.129   2.270  17.392  2.0267 -0.2529 -0.3398
 9301SOL     OW39361   1.384   1.672   2.959  0.2287  0.0359 -0.2407
 9301SOL    HW139362   1.289   1.671   2.944  0.5322  0.8639 -2.1751
 9301SOL    HW239363   1.395   1.602   3.024  2.5460 -1.0614 -1.8275
 9302SOL     OW39364   2.254   1.831  13.833  0.1634  0.4734  0.3125
 9302SOL    HW139365   2.241   1.753  13.780 -0.9874 -0.2354  1.6487
 9302SOL    HW239366   2.169   1.845  13.874 -1.8212 -1.4454 -3.1242
 9303SOL     OW39367   1.341   1.902   3.244  0.6355  0.3441  0.3120
 9303SOL    HW139368   1.331   1.933   3.154  1.9394 -0.0427  0.0371
 9303SOL    HW239369   1.279   1.830   3.257 -1.4342  2.0263 -0.3249
 9304SOL     OW39370   4.435   3.197  14.183  0.2304  0.3697  0.4655
 9304SOL    HW139371   4.516   3.160  14.148  0.4267  1.0466  0.2055
 9304SOL    HW239372   4.463   3.223  14.271  1.6266  0.5407 -0.0340
 9305SOL     OW39373   4.649   1.076  12.943  0.5437  0.2038  0.0390
 9305SOL    HW139374   4.563   1.053  12.978  0.6030  1.3308  0.9195
 9305SOL    HW239375   4.696   1.035  13.016  0.2536 -0.6253 -0.2393
 9306SOL     OW39376   4.414   3.140   4.613 -0.2061  0.3067  0.0556
 9306SOL    HW139377   4.368   3.057   4.600  0.6231 -0.0543 -0.5621
 9306SOL    HW239378   4.341   3.198   4.636 -0.6162 -0.6626  1.1993
 9307SOL     OW39379   1.010   3.494  13.735 -0.2753 -0.2355  0.1940
 9307SOL    HW139380   0.948   3.501  13.806  1.4325  1.9836  1.4568
 9307SOL    HW239381   1.092   3.468  13.778 -0.4955 -1.9132 -0.4045
 9308SOL     OW39382   2.153   0.073   4.550  0.3348 -0.4769 -0.2543
 9308SOL    HW139383   2.087   0.090   4.483  1.5228  1.9391 -0.7981
 9308SOL    HW239384   2.102   0.056   4.630 -0.8516 -1.4839 -1.2242
 9309SOL     OW39385   4.131   0.409   8.626  0.3603  0.1317 -0.0987
 9309SOL    HW139386   4.184   0.459   8.564  0.8536  1.4501  1.4118
 9309SOL    HW239387   4.106   0.330   8.576  1.1159 -0.2484  0.1321
 9310SOL     OW39388   0.108   1.497   6.674  0.4686 -0.4356  0.0147
 9310SOL    HW139389   0.151   1.463   6.596 -0.4848 -0.0715 -0.6733
 9310SOL    HW239390   0.135   1.431   6.738 -1.1019 -1.1324 -0.0346
 9311SOL     OW39391   1.044   4.188   7.961  0.2051  0.1036 -0.3607
 9311SOL    HW139392   0.988   4.156   8.031 -1.2633  2.1506 -0.6172
 9311SOL    HW239393   1.088   4.105   7.942 -0.3273 -0.0358 -0.9806
 9312SOL     OW39394   1.846   1.847  17.597  0.0274 -0.4203 -0.3992
 9312SOL    HW139395   1.905   1.772  17.595  2.2023  1.3067 -0.0035
 9312SOL    HW239396   1.802   1.840  17.512 -0.1085 -0.4672 -0.3260
 9313SOL     OW39397   1.656   3.412   6.086 -0.1028 -0.2349 -0.7880
 9313SOL    HW139398   1.731   3.390   6.141 -1.1575 -1.8784  0.0192
 9313SOL    HW239399   1.676   3.503   6.066 -0.1849 -0.1449 -0.4485
 9314SOL     OW39400   0.634   1.318  15.345  0.5208  0.0346  0.0133
 9314SOL    HW139401   0.681   1.393  15.307  1.5610 -0.4773  0.2758
 9314SOL    HW239402   0.603   1.271  15.268 -0.7645 -0.5485  0.9031
 9315SOL     OW39403   2.183   1.654   8.716 -0.6603 -0.2268 -0.1562
 9315SOL    HW139404   2.227   1.714   8.777  2.1082  0.5878 -2.9639
 9315SOL    HW239405   2.118   1.710   8.674  1.1033  3.6106  2.1567
 9316SOL     OW39406   3.165   4.071   9.252  0.0163  0.2214 -0.0251
 9316SOL    HW139407   3.232   4.104   9.311  1.4998 -0.4502 -1.3472
 9316SOL    HW239408   3.137   3.995   9.304  3.4234 -0.9011  0.1724
 9317SOL     OW39409   3.906   3.164   0.479  0.3892  0.1076 -0.3756
 9317SOL    HW139410   3.869   3.077   0.463 -0.8732  0.5339  0.2940
 9317SOL    HW239411   3.991   3.140   0.517  0.1643  1.2244  0.8485
 9318SOL     OW39412   0.888   4.384   7.188  0.0281  0.1751 -0.0327
 9318SOL    HW139413   0.795   4.399   7.173  0.1821  2.2793  0.9636
 9318SOL    HW239414   0.892   4.332   7.268 -0.8494 -0.9820 -0.7501
 9319SOL     OW39415   0.699   1.981   7.618  0.0279 -0.4062 -0.1519
 9319SOL    HW139416   0.709   2.077   7.623  0.4868 -0.4420 -0.4154
 9319SOL    HW239417   0.787   1.959   7.646 -0.6682 -1.2229  1.4036
 9320SOL     OW39418   1.142   3.819   5.525 -0.5464  0.4515  0.1902
 9320SOL    HW139419   1.061   3.813   5.475 -0.7167  0.1565  0.4958
 9320SOL    HW239420   1.102   3.843   5.609 -0.0717 -0.3399  0.6412
 9321SOL     OW39421   0.264   4.155   9.181  0.1412  0.2445  0.8612
 9321SOL    HW139422   0.207   4.086   9.213  1.4220  0.7187  4.1633
 9321SOL    HW239423   0.257   4.209   9.260 -0.1515  0.2096  0.8594
 9322SOL     OW39424   0.433   2.084   4.141  0.0955  0.1953 -0.6280
 9322SOL    HW139425   0.509   2.081   4.200 -0.4131 -1.9540 -0.0672
 9322SOL    HW239426   0.460   2.167   4.103 -2.0666  1.1181 -0.1171
 9323SOL     OW39427   0.739   4.089   6.405 -0.1179  0.2762  0.1836
 9323SOL    HW139428   0.833   4.106   6.411 -0.1041  0.1063  0.4205
 9323SOL    HW239429   0.716   4.145   6.331  0.2268 -2.3984 -1.9518
 9324SOL     OW39430   1.142   1.670   9.283 -0.2012 -0.7166 -0.4704
 9324SOL    HW139431   1.151   1.683   9.188 -2.5010 -2.4903 -0.9030
 9324SOL    HW239432   1.050   1.686   9.301 -0.4702 -0.7159 -1.8345
 9325SOL     OW39433   2.332   0.655  16.792  0.4467  0.4194  0.3454
 9325SOL    HW139434   2.246   0.633  16.827  0.1109  0.7223 -0.2913
 9325SOL    HW239435   2.389   0.597  16.842  2.1372  2.1724  0.4361
 9326SOL     OW39436   4.679   3.649  13.117 -0.3683  0.1606 -0.1547
 9326SOL    HW139437   4.698   3.742  13.103 -0.4146  0.7951  3.9286
 9326SOL    HW239438   4.709   3.642  13.207 -1.2253 -0.4169  0.0861
 9327SOL     OW39439   3.618   2.708  14.497  0.4459 -1.3477 -0.3725
 9327SOL    HW139440   3.689   2.692  14.560  0.0315 -1.1246  0.1521
 9327SOL    HW239441   3.542   2.710  14.555  0.9045  1.2964  0.1530
 9328SOL     OW39442   2.887   1.008   6.560  0.1023  0.7044 -0.4301
 9328SOL    HW139443   2.924   0.952   6.628 -0.7745 -2.1227 -2.2845
 9328SOL    HW239444   2.945   1.003   6.485  2.3056 -2.9226  1.5244
 9329SOL     OW39445   2.981   2.153   9.058 -0.6682  0.4148  0.5147
 9329SOL    HW139446   2.985   2.193   8.971  0.7405 -2.2940 -0.6466
 9329SOL    HW239447   3.072   2.173   9.080 -0.1600 -1.3133 -0.0587
 9330SOL     OW39448   0.334   4.265   6.161 -0.3489 -0.8029  0.1048
 9330SOL    HW139449   0.319   4.357   6.140  0.3243 -1.1166 -1.7854
 9330SOL    HW239450   0.402   4.251   6.095  1.1900 -1.8648  1.9165
 9331SOL     OW39451   0.893   1.073   7.096 -0.2108  0.4742 -0.2303
 9331SOL    HW139452   0.827   1.098   7.031 -0.7229  0.1197  0.1506
 9331SOL    HW239453   0.840   1.031   7.164  0.0746 -0.4831 -0.5980
 9332SOL     OW39454   3.679   4.487   4.504  0.0412  0.0758  0.1227
 9332SOL    HW139455   3.740   4.426   4.545 -0.0606 -0.2441 -0.2024
 9332SOL    HW239456   3.719   4.571   4.526  2.2675 -1.0237  0.3055
 9333SOL     OW39457   2.187   0.544  14.810 -0.5039 -0.5321  0.2178
 9333SOL    HW139458   2.185   0.541  14.715  2.6429  1.7528  0.1097
 9333SOL    HW239459   2.266   0.596  14.826 -0.5776 -0.2097 -0.4738
 9334SOL     OW39460   4.255   0.020   5.492  0.0085 -0.5593  0.0263
 9334SOL    HW139461   4.325   0.067   5.448 -1.2346  0.2624 -1.0456
 9334SOL    HW239462   4.204   4.716   5.417  0.2305 -0.7001 -0.0670
 9335SOL     OW39463   2.614   3.583   6.966 -0.3781 -0.4147 -0.3754
 9335SOL    HW139464   2.555   3.583   6.890 -0.1340 -1.0910 -0.5635
 9335SOL    HW239465   2.680   3.519   6.940 -0.8192 -0.5531 -1.1819
 9336SOL     OW39466   3.729   4.559   8.848 -0.1185  0.3699 -0.0463
 9336SOL    HW139467   3.790   4.614   8.898  0.4765 -0.0093 -0.3492
 9336SOL    HW239468   3.662   4.626   8.839  0.9760  1.3133 -1.1159
 9337SOL     OW39469   0.663   4.535  14.560  0.4214 -0.1891  0.1606
 9337SOL    HW139470   0.584   4.531  14.614  0.4465  0.7085  0.2541
 9337SOL    HW239471   0.680   4.444  14.535 -1.3872 -0.2776 -0.7431
 9338SOL     OW39472   2.174   2.769   5.791  0.3736  0.3720 -0.0097
 9338SOL    HW139473   2.087   2.786   5.829 -0.2302 -1.0577 -0.7269
 9338SOL    HW239474   2.206   2.859   5.793  1.0575  0.1169  0.4562
 9339SOL     OW39475   0.456   1.794   8.531 -0.3290  0.3062 -0.3006
 9339SOL    HW139476   0.465   1.807   8.626  0.6089 -0.9932 -0.2174
 9339SOL    HW239477   0.362   1.816   8.527 -0.8444 -1.3045  2.9958
 9340SOL     OW39478   2.215   2.915  12.706  0.3694  0.0709  0.6337
 9340SOL    HW139479   2.140   2.965  12.672  0.5623  0.6976  1.1143
 9340SOL    HW239480   2.167   2.877  12.780 -1.4925  1.7163  0.3021
 9341SOL     OW39481   3.844   2.448   8.467 -0.1031  0.2991  0.1498
 9341SOL    HW139482   3.832   2.494   8.550 -0.6158  1.3798 -0.5166
 9341SOL    HW239483   3.934   2.477   8.449 -0.4681  0.8889 -0.7088
 9342SOL     OW39484   1.149   2.772  13.084 -0.2297  0.1123 -0.1447
 9342SOL    HW139485   1.151   2.864  13.110 -0.5096  0.0121  0.2270
 9342SOL    HW239486   1.219   2.771  13.018 -0.1527 -1.3819 -0.0416
 9343SOL     OW39487   1.680   0.545  14.455  0.2304  0.0551  0.3597
 9343SOL    HW139488   1.760   0.514  14.498  0.5539  1.0612  0.4922
 9343SOL    HW239489   1.717   0.572  14.370 -0.7711 -1.9361 -0.7240
 9344SOL     OW39490   1.308   3.306  13.441 -0.0551  0.2899 -0.1808
 9344SOL    HW139491   1.262   3.307  13.357 -2.0312  2.0102  0.9227
 9344SOL    HW239492   1.314   3.211  13.451  0.9603  0.1793 -1.8379
 9345SOL     OW39493   4.410   0.287   2.359 -0.3964 -0.1939 -0.1782
 9345SOL    HW139494   4.353   0.270   2.285  0.1028 -1.0243 -0.3680
 9345SOL    HW239495   4.378   0.213   2.410 -1.1450  1.6119  1.9844
 9346SOL     OW39496   1.746   0.513   1.943 -0.0541  0.3309 -0.1465
 9346SOL    HW139497   1.815   0.541   2.003  0.1393 -2.8195  1.1258
 9346SOL    HW239498   1.698   0.595   1.934  1.2969  1.1282 -0.1351
 9347SOL     OW39499   4.702   4.283   6.962  0.3243  0.0684  0.1696
 9347SOL    HW139500   0.014   4.195   6.967 -2.8456 -1.3105 -0.0981
 9347SOL    HW239501   0.029   4.314   6.888  0.9234  0.2853  0.6827
 9348SOL     OW39502   3.156   4.492   1.183 -0.1541 -0.4070 -0.0190
 9348SOL    HW139503   3.137   4.540   1.103 -0.1043  0.9756  0.7952
 9348SOL    HW239504   3.125   4.555   1.248 -1.7181 -0.6270 -0.5688
 9349SOL     OW39505   2.066   0.567   8.718 -0.1921  0.2192 -0.2029
 9349SOL    HW139506   2.132   0.580   8.786 -0.4794  1.7959 -0.2041
 9349SOL    HW239507   2.011   0.646   8.722 -1.2635 -0.6373  1.8494
 9350SOL     OW39508   1.246   0.415   3.553 -0.2621 -0.6163  0.3842
 9350SOL    HW139509   1.276   0.337   3.599 -3.9190 -0.8082  2.4102
 9350SOL    HW239510   1.326   0.435   3.503 -1.4476  2.4774 -0.3152
 9351SOL     OW39511   3.897   3.006   5.424  0.4490 -0.5251 -0.1252
 9351SOL    HW139512   3.907   3.052   5.507 -0.3783 -0.1927 -0.2077
 9351SOL    HW239513   3.885   3.075   5.359  3.0862  1.0691  1.0906
 9352SOL     OW39514   2.652   1.637   7.939  0.0877  0.0961 -0.2577
 9352SOL    HW139515   2.725   1.575   7.946  0.5872  0.8029  0.6537
 9352SOL    HW239516   2.623   1.644   8.030 -0.8370  0.7380 -0.5941
 9353SOL     OW39517   3.080   3.742   8.485  0.2808  0.3317  0.2646
 9353SOL    HW139518   3.009   3.680   8.467 -0.0739  0.6924  0.4214
 9353SOL    HW239519   3.105   3.707   8.570  0.6664  0.6708  0.2920
 9354SOL     OW39520   3.780   1.105   5.000 -0.1047 -0.0902  0.1197
 9354SOL    HW139521   3.786   1.130   4.908  2.6744  1.4161  0.7105
 9354SOL    HW239522   3.736   1.019   4.998 -0.8255  0.2519  1.3641
 9355SOL     OW39523   1.746   1.866   0.207 -0.2706 -0.7307 -0.5849
 9355SOL    HW139524   1.744   1.910   0.121  0.0301  0.1636 -0.1377
 9355SOL    HW239525   1.667   1.814   0.194 -1.2887  0.7918 -0.5857
 9356SOL     OW39526   2.344   2.907   2.766 -0.1998 -0.1882  0.0155
 9356SOL    HW139527   2.375   2.966   2.697 -0.1990  0.7755  0.8432
 9356SOL    HW239528   2.281   2.962   2.813  0.3383  1.2769 -0.9651
 9357SOL     OW39529   3.180   1.694  14.273  0.0374  0.9594 -0.1517
 9357SOL    HW139530   3.227   1.673  14.192  0.1199  2.0264 -0.3799
 9357SOL    HW239531   3.106   1.746  14.243 -0.2860  1.3741  1.3335
 9358SOL     OW39532   2.329   3.705   2.237 -0.1604  0.6907  0.0411
 9358SOL    HW139533   2.338   3.667   2.150  0.3656  0.1685  0.3211
 9358SOL    HW239534   2.264   3.773   2.225 -0.0885  0.7420 -0.0594
 9359SOL     OW39535   4.439   0.904   6.076  0.0429 -0.1289  0.0300
 9359SOL    HW139536   4.380   0.838   6.113 -0.5978 -0.2046 -1.1429
 9359SOL    HW239537   4.425   0.901   5.982  0.0808 -0.5092  0.0346
 9360SOL     OW39538   3.876   0.833   4.547 -0.1903 -0.4526 -0.5636
 9360SOL    HW139539   3.940   0.904   4.545 -1.3227  0.6057  0.9506
 9360SOL    HW239540   3.801   0.892   4.558 -1.7698 -2.8617  1.5436
 9361SOL     OW39541   4.292   3.254   2.382 -0.4306 -0.0464  0.0811
 9361SOL    HW139542   4.308   3.185   2.447 -1.4339  1.1002  1.5083
 9361SOL    HW239543   4.244   3.314   2.438 -0.1617  0.0440  0.2148
 9362SOL     OW39544   3.875   1.237   9.638  0.1622  0.2767 -0.1426
 9362SOL    HW139545   3.862   1.165   9.700 -2.7297  1.7236  0.9091
 9362SOL    HW239546   3.968   1.258   9.647  0.6435 -1.5793 -0.7072
 9363SOL     OW39547   0.370   1.463   0.968 -0.7048  0.6703 -0.4539
 9363SOL    HW139548   0.304   1.430   0.907  1.4936  1.7794 -3.4257
 9363SOL    HW239549   0.339   1.552   0.985  0.5978  1.1212 -0.4473
 9364SOL     OW39550   0.951   1.961  13.919  0.0233 -0.0215 -0.7657
 9364SOL    HW139551   0.862   1.925  13.928  0.6274 -0.9736  1.3315
 9364SOL    HW239552   0.978   1.974  14.010 -0.8458  1.4860 -0.7147
 9365SOL     OW39553   1.102   3.530   7.752  0.0812 -0.2010  0.3257
 9365SOL    HW139554   1.194   3.543   7.775 -0.2935  2.2362  0.4294
 9365SOL    HW239555   1.068   3.611   7.789  2.0576  0.8050 -0.0396
 9366SOL     OW39556   3.208   0.647  11.033 -0.6314 -0.3060 -0.6705
 9366SOL    HW139557   3.276   0.660  10.967 -0.4824 -0.7116 -0.5968
 9366SOL    HW239558   3.263   0.640  11.110 -2.3882  3.1719  0.8954
 9367SOL     OW39559   3.639   4.526  12.278  0.0383 -0.0125 -0.6958
 9367SOL    HW139560   3.550   4.560  12.270  0.5691  1.7610  1.0310
 9367SOL    HW239561   3.702   4.596  12.258  1.6698 -1.5471 -1.0114
 9368SOL     OW39562   2.769   2.327   6.803 -0.0372  0.6139 -0.0013
 9368SOL    HW139563   2.844   2.289   6.849 -0.0392 -1.8698 -2.0410
 9368SOL    HW239564   2.805   2.332   6.715 -1.2329  2.0094 -0.3987
 9369SOL     OW39565   1.758   4.423   3.871  0.0192 -0.2183  0.2449
 9369SOL    HW139566   1.735   4.413   3.964  1.4427 -1.8880  0.4315
 9369SOL    HW239567   1.843   4.378   3.875  1.5162  2.5065 -0.6280
 9370SOL     OW39568   2.808   3.099  17.142 -0.0753 -0.3370 -0.2863
 9370SOL    HW139569   2.741   3.164  17.160 -0.3296 -0.3430 -1.1986
 9370SOL    HW239570   2.887   3.133  17.184 -0.3882 -2.5180  2.0693
 9371SOL     OW39571   1.741   4.440   3.607  0.0643 -0.2797 -0.4222
 9371SOL    HW139572   1.735   4.413   3.699  0.6080 -1.1359 -0.6434
 9371SOL    HW239573   1.648   4.461   3.593 -0.2446 -0.3187  1.5333
 9372SOL     OW39574   4.701   0.055   8.494  0.5477  0.0570 -0.2254
 9372SOL    HW139575   4.698   0.096   8.408 -1.1277 -0.6691 -0.5083
 9372SOL    HW239576   4.665   4.695   8.471  0.3848  0.1042 -0.1451
 9373SOL     OW39577   3.165   0.938  12.851 -0.7741 -0.1843  0.1086
 9373SOL    HW139578   3.080   0.966  12.885 -0.9774  1.3118 -1.5973
 9373SOL    HW239579   3.218   1.014  12.875  0.4117 -1.4286  1.3938
 9374SOL     OW39580   1.495   0.554   7.734  0.7090 -0.3780  0.2154
 9374SOL    HW139581   1.522   0.627   7.677 -2.2328  0.6190  0.1294
 9374SOL    HW239582   1.404   0.576   7.753  0.7506 -0.3812  0.4176
 9375SOL     OW39583   2.549   2.123   6.920  0.7981  0.1077  0.6949
 9375SOL    HW139584   2.603   2.199   6.897 -2.4933  3.2541  3.3892
 9375SOL    HW239585   2.480   2.148   6.982  0.0571 -0.7962  0.2353
 9376SOL     OW39586   3.128   4.025   1.109  0.1457  0.3723  0.0657
 9376SOL    HW139587   3.100   3.934   1.116 -2.4817  1.2855  1.0836
 9376SOL    HW239588   3.223   4.019   1.098  0.2128 -0.1841  0.9624
 9377SOL     OW39589   4.600   0.420  13.152 -0.4226  0.1030  0.5097
 9377SOL    HW139590   4.529   0.413  13.215 -0.1394 -0.5588  0.7641
 9377SOL    HW239591   4.615   0.514  13.141  1.8256 -0.1974  0.8871
 9378SOL     OW39592   1.176   1.236   3.414 -0.1724 -0.6166 -0.3539
 9378SOL    HW139593   1.129   1.286   3.347 -0.2490 -1.2410 -0.7627
 9378SOL    HW239594   1.115   1.252   3.486 -0.0064  1.3431 -0.6406
 9379SOL     OW39595   4.033   1.071   7.716 -0.2450  0.0937  0.3771
 9379SOL    HW139596   4.040   1.103   7.626 -0.0329  0.5133  0.5448
 9379SOL    HW239597   3.941   1.085   7.737 -0.3198  1.1797 -0.6091
 9380SOL     OW39598   3.239   3.446   5.682 -0.2640 -0.4134 -0.5282
 9380SOL    HW139599   3.268   3.370   5.631  2.9501 -0.7844  1.8854
 9380SOL    HW239600   3.218   3.504   5.609 -0.4395 -0.7812 -0.7720
 9381SOL     OW39601   2.782   2.702   7.188 -0.4403 -0.6545  0.1260
 9381SOL    HW139602   2.726   2.680   7.262 -0.4757  0.8628  0.5600
 9381SOL    HW239603   2.860   2.734   7.233  0.1934 -0.6820 -0.9427
 9382SOL     OW39604   0.459   2.686  13.165 -0.6103  0.1724 -0.1036
 9382SOL    HW139605   0.392   2.618  13.157 -0.7019  0.1094  1.2332
 9382SOL    HW239606   0.409   2.758  13.203  0.3495  0.1155  1.2872
 9383SOL     OW39607   3.950   3.383  15.939  0.8096  0.4731 -0.1069
 9383SOL    HW139608   3.927   3.396  16.031  1.2628 -0.1090  0.0892
 9383SOL    HW239609   3.882   3.435  15.896  1.5741  2.1711  0.7232
 9384SOL     OW39610   2.027   4.054   7.151 -0.6886  0.5215  0.2098
 9384SOL    HW139611   2.019   4.052   7.055 -0.7617  1.1558  0.2026
 9384SOL    HW239612   1.942   4.082   7.182 -0.8294 -0.3546  0.6205
 9385SOL     OW39613   0.292   2.425   8.107  0.7985  0.0218 -0.0257
 9385SOL    HW139614   0.199   2.408   8.121  0.2664  2.4475 -0.5850
 9385SOL    HW239615   0.328   2.401   8.193  2.7486  0.2157 -0.8025
 9386SOL     OW39616   1.132   2.530   0.869 -0.0469  0.1689 -0.2471
 9386SOL    HW139617   1.218   2.572   0.881 -0.3137  0.3877  0.8767
 9386SOL    HW239618   1.162   2.440   0.859  1.2929  0.5052  0.7918
 9387SOL     OW39619   1.217   3.881   8.827  0.1036  0.6159  0.0818
 9387SOL    HW139620   1.155   3.952   8.812 -0.8258 -0.6328 -1.9300
 9387SOL    HW239621   1.175   3.802   8.791  0.3280 -0.2287  1.6721
 9388SOL     OW39622   3.932   3.375   4.749  0.0930  0.1943  0.2176
 9388SOL    HW139623   3.907   3.451   4.696  2.5845  0.2043 -0.9510
 9388SOL    HW239624   3.846   3.365   4.789  0.6641 -1.6422  0.9767
 9389SOL     OW39625   4.303   3.271   8.297 -0.2600 -0.1541  0.2958
 9389SOL    HW139626   4.291   3.272   8.202 -1.0645 -2.1662  0.3811
 9389SOL    HW239627   4.361   3.196   8.310  0.9617  1.0699  1.9963
 9390SOL     OW39628   2.048   0.075  12.272 -0.5155 -0.1228 -0.3651
 9390SOL    HW139629   2.002   4.718  12.285  1.1067 -1.1246 -0.9983
 9390SOL    HW239630   1.981   0.133  12.309  0.7796  0.4669  1.0141
 9391SOL     OW39631   1.299   1.562   1.885  0.2332 -0.3778  0.2814
 9391SOL    HW139632   1.291   1.540   1.792  1.4477  1.5749 -0.2701
 9391SOL    HW239633   1.232   1.628   1.899  0.4426  0.1959 -1.3448
 9392SOL     OW39634   0.942   1.279  16.407  0.3539 -0.4185  0.2951
 9392SOL    HW139635   1.018   1.222  16.394  0.1438 -0.6551  0.0896
 9392SOL    HW239636   0.951   1.352  16.346 -1.5743 -0.0043  0.4955
 9393SOL     OW39637   3.475   4.171   4.126  0.1429  0.2941  0.3095
 9393SOL    HW139638   3.382   4.182   4.104  1.4369  2.2030 -4.4171
 9393SOL    HW239639   3.499   4.242   4.186 -1.1840  1.7039 -0.8225
 9394SOL     OW39640   2.503   0.670   4.056 -0.6555  0.7245 -0.3708
 9394SOL    HW139641   2.571   0.630   4.110 -2.6710 -1.4163  0.5848
 9394SOL    HW239642   2.445   0.707   4.122 -1.4757 -0.4690 -0.4304
 9395SOL     OW39643   1.957   2.533  10.255  0.4819 -0.0886  0.1441
 9395SOL    HW139644   1.924   2.496  10.172  1.5128  0.4161 -0.4909
 9395SOL    HW239645   1.977   2.457  10.309  0.7231  0.5028  0.8755
 9396SOL     OW39646   3.614   1.211   0.821 -0.3862  0.1271 -0.7087
 9396SOL    HW139647   3.687   1.231   0.880 -1.3274 -3.0886  1.5796
 9396SOL    HW239648   3.659   1.224   0.737  2.9469  0.5930  1.1519
 9397SOL     OW39649   0.051   2.272   4.103 -0.0603 -0.0344  0.1166
 9397SOL    HW139650   0.064   2.310   4.016 -3.1827  0.4449 -0.1631
 9397SOL    HW239651   0.097   2.335   4.158  2.3489 -1.3821 -0.3729
 9398SOL     OW39652   3.343   0.572   6.717  0.3505 -0.2133  0.0312
 9398SOL    HW139653   3.373   0.490   6.756  0.3896  0.4358  1.3520
 9398SOL    HW239654   3.284   0.593   6.789  1.5089 -0.7439  1.1365
 9399SOL     OW39655   0.374   2.593   6.455 -0.1592 -0.0983  0.3465
 9399SOL    HW139656   0.435   2.526   6.486 -1.0607 -1.2373 -0.3479
 9399SOL    HW239657   0.342   2.567   6.369 -3.7304  0.8588  1.3811
 9400SOL     OW39658   2.020   1.378   2.729  0.3967 -0.1189  0.0317
 9400SOL    HW139659   1.987   1.291   2.750 -2.4759  1.0854  0.4666
 9400SOL    HW239660   2.089   1.359   2.665 -0.6237  1.6109 -1.6200
 9401SOL     OW39661   4.707   3.915   3.579  0.3516 -0.0879  0.2861
 9401SOL    HW139662   0.014   3.852   3.515  1.0930  0.1161  0.4656
 9401SOL    HW239663   0.025   3.996   3.553  0.3933  0.2494  1.4323
 9402SOL     OW39664   3.655   0.383   4.135  0.0741  0.4824 -0.6312
 9402SOL    HW139665   3.588   0.335   4.088 -0.1881  1.4670 -1.2517
 9402SOL    HW239666   3.601   0.428   4.199  0.0800 -1.0843  0.4707
 9403SOL     OW39667   3.421   2.134   9.247  0.2714  0.6015 -0.1659
 9403SOL    HW139668   3.369   2.183   9.311 -2.3943 -0.9678 -1.1002
 9403SOL    HW239669   3.397   2.046   9.275  0.6576  0.2635 -0.9273
 9404SOL     OW39670   2.069   0.233  16.400  0.1524  0.1714  0.1333
 9404SOL    HW139671   2.068   0.279  16.484 -0.8624 -3.0443  1.8785
 9404SOL    HW239672   2.149   0.181  16.410  0.4393  0.7879  1.0287
 9405SOL     OW39673   3.340   3.965   3.881 -0.0773 -0.2162  0.2238
 9405SOL    HW139674   3.352   4.058   3.900  0.9023 -0.2675 -0.1546
 9405SOL    HW239675   3.427   3.932   3.904 -0.3912 -1.3189 -0.2154
 9406SOL     OW39676   3.620   1.829   8.291 -0.3151  0.0774  0.6908
 9406SOL    HW139677   3.538   1.807   8.247  0.3523 -1.6307  0.3072
 9406SOL    HW239678   3.585   1.853   8.377 -0.9241 -3.3139  1.3722
 9407SOL     OW39679   4.463   3.574  11.532  0.2859 -0.0570  0.0297
 9407SOL    HW139680   4.551   3.539  11.545 -0.3269 -0.9825  1.6507
 9407SOL    HW239681   4.461   3.636  11.604 -0.6067 -0.8046  0.6543
 9408SOL     OW39682   4.697   1.402   1.399 -0.6412  0.9090 -0.2095
 9408SOL    HW139683   4.694   1.430   1.491  0.5374 -1.5317  0.5874
 9408SOL    HW239684   0.051   1.451   1.381 -0.7944  0.7264 -1.3481
 9409SOL     OW39685   3.844   4.217   8.557 -0.7855  0.5617 -0.2828
 9409SOL    HW139686   3.786   4.292   8.549 -0.6417  0.8007  1.0928
 9409SOL    HW239687   3.807   4.152   8.496 -2.1412  1.5507 -0.5042
 9410SOL     OW39688   2.102   0.262   6.055 -0.2675 -0.4301 -0.2834
 9410SOL    HW139689   2.067   0.173   6.057  0.7556 -0.8412 -0.7022
 9410SOL    HW239690   2.110   0.275   6.149  1.5485  0.0030 -0.4969
 9411SOL     OW39691   2.880   1.001   6.188  0.6290  0.0848 -0.4307
 9411SOL    HW139692   2.851   0.956   6.108 -0.5974 -0.0302  0.0804
 9411SOL    HW239693   2.966   1.028   6.156  2.0261  0.0940  3.3126
 9412SOL     OW39694   1.202   3.645   0.433  0.6446 -0.4397 -0.1474
 9412SOL    HW139695   1.260   3.648   0.509 -0.0300  0.1595  0.3518
 9412SOL    HW239696   1.121   3.613   0.472 -0.9411 -0.0939 -3.1889
 9413SOL     OW39697   1.199   0.847   8.532  0.0080 -0.1165  0.4206
 9413SOL    HW139698   1.258   0.775   8.510 -0.7461 -0.5586 -0.1617
 9413SOL    HW239699   1.261   0.909   8.571 -0.9195  0.6109  0.7402
 9414SOL     OW39700   1.943   3.608   8.190 -0.0335 -0.2672 -0.3123
 9414SOL    HW139701   2.038   3.599   8.181  0.2226  1.6873  0.4545
 9414SOL    HW239702   1.927   3.591   8.283  1.0946 -2.0536 -0.4252
 9415SOL     OW39703   1.077   3.942   5.102 -0.0984 -0.1209 -0.2266
 9415SOL    HW139704   0.982   3.928   5.108 -0.4843  1.9105 -1.6972
 9415SOL    HW239705   1.062   4.034   5.080 -0.7065 -0.1952 -0.1248
 9416SOL     OW39706   0.122   0.298   5.513  0.1561  0.8680 -0.1707
 9416SOL    HW139707   0.138   0.206   5.491  0.4472  1.1299 -1.0438
 9416SOL    HW239708   0.076   0.325   5.434 -0.1424 -1.8153 -0.9212
 9417SOL     OW39709   2.218   2.388   6.270  0.2185  0.1405  0.1524
 9417SOL    HW139710   2.283   2.351   6.329 -1.4618  0.4326  2.1927
 9417SOL    HW239711   2.198   2.477   6.300  0.0714  0.5126 -1.0748
 9418SOL     OW39712   1.193   1.173  12.003 -0.2222  0.7200  0.0552
 9418SOL    HW139713   1.105   1.186  11.968 -0.5810  0.3763  0.8372
 9418SOL    HW239714   1.246   1.238  11.957  1.0252 -0.4442 -0.1241
 9419SOL     OW39715   0.054   0.258   0.687  0.0554 -0.1838  0.3154
 9419SOL    HW139716   0.114   0.193   0.724 -1.0022  0.9216  4.0255
 9419SOL    HW239717   0.106   0.339   0.693  0.5410 -0.4338 -0.5790
 9420SOL     OW39718   0.851   0.314  15.744 -0.1507  0.1200 -0.1003
 9420SOL    HW139719   0.764   0.276  15.752 -1.5593  3.2173 -0.6267
 9420SOL    HW239720   0.883   0.244  15.686 -1.6886  0.6780 -1.6299
 9421SOL     OW39721   3.530   2.544   9.573  0.1523  0.4664 -0.2993
 9421SOL    HW139722   3.517   2.628   9.528  1.4348  1.6588  1.5070
 9421SOL    HW239723   3.618   2.523   9.542 -0.2163  1.2668 -1.8967
 9422SOL     OW39724   3.677   2.501  13.717 -0.2891 -0.1455 -0.0861
 9422SOL    HW139725   3.751   2.461  13.762  0.6686 -0.5113 -1.9860
 9422SOL    HW239726   3.608   2.486  13.782 -3.4236 -1.5047 -3.7313
 9423SOL     OW39727   4.646   4.725   6.672  0.0882 -0.1043 -0.6515
 9423SOL    HW139728   4.655   4.679   6.755 -1.0008 -0.4923 -0.7544
 9423SOL    HW239729   4.569   0.053   6.693  1.2634  0.6609  1.7159
 9424SOL     OW39730   1.534   1.578  16.663  0.0412 -0.4387  0.5529
 9424SOL    HW139731   1.445   1.547  16.682 -1.3242  1.7432 -2.2663
 9424SOL    HW239732   1.592   1.521  16.714  0.5609 -0.2510  0.1738
 9425SOL     OW39733   1.937   3.829   6.754 -0.0593 -0.2562  0.0832
 9425SOL    HW139734   1.881   3.885   6.807  0.0806  0.4287 -0.4922
 9425SOL    HW239735   2.022   3.852   6.792  0.2043 -1.1751  0.0493
 9426SOL     OW39736   4.668   1.756   6.006  0.3680 -0.1818  0.2113
 9426SOL    HW139737   4.581   1.728   6.032  0.6933  0.7034  2.2400
 9426SOL    HW239738   4.644   1.820   5.938  1.2041  1.5049  1.4945
 9427SOL     OW39739   1.040   2.035  10.963 -0.0415 -0.0937  0.1912
 9427SOL    HW139740   1.060   2.004  11.051 -0.5941 -0.7454  0.0874
 9427SOL    HW239741   0.982   1.965  10.932 -0.9089  1.1796 -1.0478
 9428SOL     OW39742   4.660   0.874   5.721 -0.0921  0.2739  0.2323
 9428SOL    HW139743   4.687   0.884   5.630  3.2929  0.0281  1.2271
 9428SOL    HW239744   4.625   0.957   5.752 -1.9084 -0.1738 -0.5612
 9429SOL     OW39745   2.786   3.188   5.338 -0.4562  0.1609  0.6513
 9429SOL    HW139746   2.742   3.253   5.392  2.0511  0.3466  2.4678
 9429SOL    HW239747   2.836   3.126   5.392 -0.2851 -2.3405 -2.3931
 9430SOL     OW39748   0.762   3.908   7.813 -0.0951 -0.0220  0.2276
 9430SOL    HW139749   0.700   3.835   7.819 -1.0887  0.9484  1.7534
 9430SOL    HW239750   0.842   3.862   7.787 -0.0615 -0.2638  0.7580
 9431SOL     OW39751   2.057   3.142  16.746 -0.0984  0.1093 -0.3546
 9431SOL    HW139752   2.127   3.110  16.803 -0.3932  0.0758 -0.0091
 9431SOL    HW239753   2.067   3.079  16.675  0.1105  2.0678 -2.0512
 9432SOL     OW39754   0.876   1.583   7.931 -0.1735  0.3570 -0.3176
 9432SOL    HW139755   0.886   1.514   7.865  0.9581  2.5869 -2.4488
 9432SOL    HW239756   0.942   1.564   7.997 -1.7054  0.9967  1.3716
 9433SOL     OW39757   3.161   1.497   2.895 -0.1591  0.1689 -0.1936
 9433SOL    HW139758   3.146   1.479   2.802  0.1300 -0.2549 -0.1559
 9433SOL    HW239759   3.148   1.592   2.888 -0.5331  0.2365  1.4612
 9434SOL     OW39760   3.305   0.235   2.962 -0.1330 -0.0275  1.0933
 9434SOL    HW139761   3.319   0.321   2.923 -0.7495 -0.1747  0.5418
 9434SOL    HW239762   3.263   0.196   2.886  1.0570  0.7843  0.0183
 9435SOL     OW39763   3.904   3.816   0.255  0.0305 -0.1014  0.3075
 9435SOL    HW139764   3.868   3.796   0.341  0.1380  3.0852  1.0664
 9435SOL    HW239765   3.995   3.808   0.284 -0.3658  0.8742  1.8069
 9436SOL     OW39766   3.688   4.412   8.299 -0.1395 -0.0061 -0.1884
 9436SOL    HW139767   3.723   4.437   8.384  0.9819 -0.5662 -0.4877
 9436SOL    HW239768   3.695   4.492   8.246  1.5354  0.1970  0.3291
 9437SOL     OW39769   2.532   2.967   1.870  0.8957  0.3109  0.1711
 9437SOL    HW139770   2.598   3.031   1.895  0.8462  0.0958  0.8443
 9437SOL    HW239771   2.549   2.968   1.776 -0.3273 -2.2717 -0.0886
 9438SOL     OW39772   2.010   0.433   3.064  0.5263  0.1263  0.0828
 9438SOL    HW139773   1.936   0.429   3.124  1.0429  1.8973  0.8319
 9438SOL    HW239774   1.978   0.405   2.978  2.4917  2.2351 -1.3482
 9439SOL     OW39775   3.976   3.078  11.143  0.4017  0.4958 -0.2095
 9439SOL    HW139776   3.963   3.002  11.199 -1.1792 -1.1704 -2.8317
 9439SOL    HW239777   3.896   3.126  11.167  1.6540  1.9551  1.0734
 9440SOL     OW39778   1.546   2.178  12.399  0.7402 -0.1562 -0.2205
 9440SOL    HW139779   1.513   2.099  12.442  0.0678 -0.4243 -1.2194
 9440SOL    HW239780   1.639   2.177  12.421  0.9821 -0.2384 -1.2590
 9441SOL     OW39781   2.857   0.129   3.604  0.0634 -0.5931  0.5491
 9441SOL    HW139782   2.808   0.063   3.654  2.1062 -0.8494  2.1814
 9441SOL    HW239783   2.798   0.155   3.533  1.5484  1.7025  0.1687
 9442SOL     OW39784   1.688   0.072  12.720  0.0066  0.0918 -0.7428
 9442SOL    HW139785   1.648   0.008  12.661 -3.6032  0.4419  1.3186
 9442SOL    HW239786   1.613   0.123  12.751  0.0145 -1.2586  1.4679
 9443SOL     OW39787   4.262   0.611  13.495  0.4461  0.0110 -0.2316
 9443SOL    HW139788   4.300   0.635  13.410  1.6360 -1.8709 -0.2003
 9443SOL    HW239789   4.324   0.659  13.549 -1.6597  2.3641  0.1275
 9444SOL     OW39790   2.716   2.823   5.439 -0.1212  0.0956 -0.0173
 9444SOL    HW139791   2.765   2.792   5.515  1.0742  2.7094  0.2832
 9444SOL    HW239792   2.768   2.788   5.366  0.7280  0.1881  0.5547
 9445SOL     OW39793   1.965   2.312   3.742  0.7499  0.2614  0.0134
 9445SOL    HW139794   1.911   2.318   3.820 -0.1317 -1.6689 -0.4242
 9445SOL    HW239795   1.940   2.394   3.700 -0.4688 -0.6762 -1.1286
 9446SOL     OW39796   2.589   2.586   7.428 -0.7737 -0.7640 -0.4375
 9446SOL    HW139797   2.504   2.628   7.434  1.1427  3.3770 -2.0635
 9446SOL    HW239798   2.575   2.507   7.481  0.6682 -0.4588  0.4020
 9447SOL     OW39799   2.735   2.231  14.232  0.0694 -0.4295 -0.0024
 9447SOL    HW139800   2.644   2.260  14.234  0.4015  0.5471  1.3873
 9447SOL    HW239801   2.732   2.156  14.291  1.4932 -0.1469  0.4379
 9448SOL     OW39802   1.203   3.564   6.330  0.3285 -0.0493 -0.3340
 9448SOL    HW139803   1.221   3.563   6.424  1.0374 -0.3006 -0.4666
 9448SOL    HW239804   1.222   3.656   6.314  1.1569 -0.2208 -0.3717
 9449SOL     OW39805   4.163   0.535   7.217 -0.1941  0.6357 -0.2076
 9449SOL    HW139806   4.225   0.565   7.283 -0.2044  3.2180 -1.3707
 9449SOL    HW239807   4.173   0.609   7.157 -0.1207  1.2431  0.5673
 9450SOL     OW39808   1.041   2.671   9.161 -0.4262 -0.0174 -0.1416
 9450SOL    HW139809   1.106   2.607   9.191  1.1071  1.3065 -0.6533
 9450SOL    HW239810   1.058   2.663   9.067 -0.1230 -2.1442  0.0956
 9451SOL     OW39811   2.887   1.693  14.579 -0.6002  0.5384  0.0738
 9451SOL    HW139812   2.960   1.639  14.610 -0.3354  1.0279  0.3126
 9451SOL    HW239813   2.879   1.658  14.490 -1.7181  0.6946  0.1187
 9452SOL     OW39814   3.124   1.719   7.252 -0.5514  0.1333  0.2119
 9452SOL    HW139815   3.142   1.643   7.197  0.3304  0.2364  0.3673
 9452SOL    HW239816   3.039   1.687   7.283 -0.3286 -0.5137  0.1509
 9453SOL     OW39817   0.521   0.564   6.780  0.3318  0.2974 -0.0974
 9453SOL    HW139818   0.549   0.526   6.863 -0.9446 -1.9663 -0.6822
 9453SOL    HW239819   0.534   0.485   6.728 -0.0453 -1.4463  2.4218
 9454SOL     OW39820   3.914   3.729   6.637 -0.2575 -0.1596  0.5605
 9454SOL    HW139821   3.893   3.664   6.571 -1.2899 -0.2278  0.9623
 9454SOL    HW239822   4.008   3.710   6.632 -0.2940  0.2238 -1.6448
 9455SOL     OW39823   4.190   3.207   5.899  0.6033  0.8549 -0.4741
 9455SOL    HW139824   4.193   3.226   5.993 -2.2993 -1.2744  0.0688
 9455SOL    HW239825   4.282   3.192   5.878  0.6745  1.6372 -0.7265
 9456SOL     OW39826   3.680   1.829  17.611 -0.6158 -0.0839  0.6539
 9456SOL    HW139827   3.679   1.872  17.696  0.7971  0.5120  0.3669
 9456SOL    HW239828   3.764   1.849  17.570 -1.1847  0.9359 -0.0150
 9457SOL     OW39829   0.041   3.890  15.359 -0.8477 -0.0005  0.7206
 9457SOL    HW139830   0.009   3.833  15.429 -2.7167 -1.1793 -1.0951
 9457SOL    HW239831   0.015   3.979  15.380 -1.3507  0.1449 -0.5146
 9458SOL     OW39832   1.700   3.099   8.603  0.4693  0.6952 -0.4692
 9458SOL    HW139833   1.746   3.183   8.601  0.6048  0.5631 -2.5756
 9458SOL    HW239834   1.774   3.044   8.629  0.0249  0.1081 -0.4622
 9459SOL     OW39835   1.679   2.526   2.443 -0.2309  0.2229  0.1869
 9459SOL    HW139836   1.765   2.568   2.452 -0.4006  0.1754  1.9840
 9459SOL    HW239837   1.688   2.492   2.354 -3.5970  3.1719 -1.2909
 9460SOL     OW39838   0.128   0.084   0.500 -0.2477 -0.6218 -0.0079
 9460SOL    HW139839   0.085   0.147   0.557 -0.3150 -2.5751  2.0842
 9460SOL    HW239840   0.091   0.093   0.412 -0.5213 -1.0299  0.0635
 9461SOL     OW39841   0.630   0.658   7.817  0.9386  0.0490  0.1814
 9461SOL    HW139842   0.606   0.570   7.846 -1.2551  1.4235  2.5325
 9461SOL    HW239843   0.546   0.703   7.826  1.2305  0.4487  0.8706
 9462SOL     OW39844   2.882   3.715   2.931  0.1643 -0.0769 -0.0194
 9462SOL    HW139845   2.824   3.660   2.878 -1.3488  2.6994 -1.2846
 9462SOL    HW239846   2.860   3.801   2.895 -0.1238  0.9005  2.5072
 9463SOL     OW39847   3.177   0.525   8.986  0.0859 -0.5231  0.5859
 9463SOL    HW139848   3.221   0.476   8.916 -0.0123  1.1899 -0.6801
 9463SOL    HW239849   3.236   0.501   9.058  0.7313  0.3766  0.3655
 9464SOL     OW39850   1.184   3.914   6.556 -0.1343  0.0323  0.2269
 9464SOL    HW139851   1.236   3.896   6.477 -0.7884 -1.3968  0.1319
 9464SOL    HW239852   1.097   3.913   6.516 -0.4402  1.7448  0.8498
 9465SOL     OW39853   1.817   1.529   2.838 -0.4948 -0.0028  0.0183
 9465SOL    HW139854   1.891   1.495   2.788 -1.1689 -2.2154  0.5642
 9465SOL    HW239855   1.745   1.520   2.776 -0.6785 -1.6397  0.4735
 9466SOL     OW39856   0.033   4.702   2.293 -0.2518 -0.5824  0.0976
 9466SOL    HW139857   0.095   4.681   2.224 -3.2748  0.6209 -2.9491
 9466SOL    HW239858   0.089   4.684   2.369  1.8721  0.0860 -1.3078
 9467SOL     OW39859   2.047   0.252   1.983 -0.4425  0.5279  0.3088
 9467SOL    HW139860   1.966   0.224   2.024 -0.6112  0.6835  0.0826
 9467SOL    HW239861   2.039   0.207   1.899 -0.6833  0.8382  0.1642
 9468SOL     OW39862   3.743   3.893   2.636 -0.1796 -0.8091 -0.4233
 9468SOL    HW139863   3.751   3.910   2.542 -1.2661 -0.8770 -0.5213
 9468SOL    HW239864   3.718   3.801   2.638 -2.0571 -0.3058 -1.6784
 9469SOL     OW39865   1.784   4.212  14.021 -0.6131 -0.2218 -0.2926
 9469SOL    HW139866   1.747   4.250  14.101 -1.7526  0.0740 -0.9614
 9469SOL    HW239867   1.784   4.289  13.964  1.3128  1.7914  2.4344
 9470SOL     OW39868   1.839   3.489   7.941 -0.7357 -0.2425 -0.0508
 9470SOL    HW139869   1.885   3.405   7.940  2.1246  1.3537 -1.0015
 9470SOL    HW239870   1.868   3.525   8.025 -1.8626  0.6404 -0.0445
 9471SOL     OW39871   3.615   3.522   0.370 -0.2508 -0.9573  0.2626
 9471SOL    HW139872   3.686   3.511   0.306  2.3225  0.8601  2.7836
 9471SOL    HW239873   3.584   3.432   0.379  1.0090 -1.5539 -1.2770
 9472SOL     OW39874   0.690   3.669   4.246 -0.3849  0.7361  0.0625
 9472SOL    HW139875   0.733   3.752   4.227  1.0806 -0.4206 -1.7264
 9472SOL    HW239876   0.618   3.672   4.182  0.7567 -0.7245 -1.3088
 9473SOL     OW39877   2.033   1.042   7.310 -0.1321  0.7864  0.0335
 9473SOL    HW139878   1.938   1.051   7.308 -0.4070 -2.3390 -1.1615
 9473SOL    HW239879   2.038   0.999   7.395 -1.8008 -2.0203 -1.2716
 9474SOL     OW39880   0.561   0.091  14.863 -0.7526 -0.4018 -0.2963
 9474SOL    HW139881   0.473   0.107  14.829 -0.8876 -0.1746  0.1636
 9474SOL    HW239882   0.577   4.726  14.837  3.7436  0.1098  0.6793
 9475SOL     OW39883   3.415   0.570   8.487  0.1872 -0.6196 -0.4443
 9475SOL    HW139884   3.327   0.567   8.526 -0.2535  0.8159 -1.3214
 9475SOL    HW239885   3.457   0.489   8.516  0.6578  0.9721  3.3682
 9476SOL     OW39886   0.438   0.591   5.372 -0.8411 -0.4428 -0.3646
 9476SOL    HW139887   0.426   0.671   5.425 -1.4725 -0.6799 -0.1472
 9476SOL    HW239888   0.453   0.530   5.445 -0.3307 -0.0023 -0.0965
 9477SOL     OW39889   0.267   4.676  13.284 -0.5137  0.1480 -0.0615
 9477SOL    HW139890   0.242   4.677  13.192  1.5781 -1.0695 -0.6309
 9477SOL    HW239891   0.363   4.677  13.279 -0.4740 -2.4863  0.1082
 9478SOL     OW39892   1.790   3.098  15.391 -0.5480  0.0655 -0.1785
 9478SOL    HW139893   1.724   3.103  15.460  1.6179 -0.0766  1.9167
 9478SOL    HW239894   1.816   3.191  15.391 -1.6122  0.3610 -1.3408
 9479SOL     OW39895   4.524   2.436   7.183  0.0162 -0.0636 -0.4718
 9479SOL    HW139896   4.560   2.492   7.114 -0.8404  0.8303 -0.1829
 9479SOL    HW239897   4.447   2.491   7.193  0.1765 -0.8746  4.8598
 9480SOL     OW39898   0.229   0.901   6.031  0.1608 -0.3063  0.0801
 9480SOL    HW139899   0.301   0.952   6.069  0.4054 -1.0104  0.5672
 9480SOL    HW239900   0.160   0.958   5.999  1.7700  0.8019 -1.4576
 9481SOL     OW39901   2.817   1.934   8.645  0.6098 -0.6603  0.6035
 9481SOL    HW139902   2.758   1.932   8.570  1.1345  0.3614  0.1741
 9481SOL    HW239903   2.787   1.857   8.694  0.4324 -0.6655  0.4858
 9482SOL     OW39904   1.526   4.530  10.834 -0.0500 -0.1348 -0.2164
 9482SOL    HW139905   1.466   4.486  10.895 -0.5844  0.5985 -0.2125
 9482SOL    HW239906   1.494   4.499  10.750  0.1306  0.2022 -0.4109
 9483SOL     OW39907   0.880   4.381   2.286  0.0193  0.3501 -0.1889
 9483SOL    HW139908   0.943   4.411   2.221 -0.3822  1.0483 -0.2537
 9483SOL    HW239909   0.931   4.402   2.364  2.6511  2.3687 -2.4674
 9484SOL     OW39910   2.875   0.945  14.240  0.1632  0.3317 -0.5504
 9484SOL    HW139911   2.862   0.877  14.306 -2.9171 -0.7374 -2.2378
 9484SOL    HW239912   2.785   0.973  14.223 -0.6527 -0.1501  2.9579
 9485SOL     OW39913   1.702   0.601   6.713 -0.3804  0.3869  0.1356
 9485SOL    HW139914   1.720   0.689   6.678 -0.8489  1.0629  1.6102
 9485SOL    HW239915   1.761   0.542   6.666  0.1792  0.8211  0.2827
 9486SOL     OW39916   2.688   0.900  17.248  0.0856 -0.6930 -0.4904
 9486SOL    HW139917   2.693   0.828  17.185  1.0226 -0.3005 -0.8560
 9486SOL    HW239918   2.595   0.925  17.245  0.0835 -0.5298  0.7623
 9487SOL     OW39919   4.138   4.363   6.585 -0.1178  0.1821  0.5189
 9487SOL    HW139920   4.233   4.358   6.573 -0.1113 -2.3755  1.5317
 9487SOL    HW239921   4.120   4.448   6.545  1.8362  0.6924  0.7140
 9488SOL     OW39922   0.082   4.317  15.262 -0.0358 -0.1224 -0.2046
 9488SOL    HW139923   0.012   4.342  15.201 -1.0303 -2.2718  0.0321
 9488SOL    HW239924   0.155   4.286  15.208 -0.1094  1.0287 -0.9699
 9489SOL     OW39925   3.712   2.214   8.612 -0.0841  0.7118 -0.0786
 9489SOL    HW139926   3.698   2.229   8.705  2.1424 -2.0705  0.6874
 9489SOL    HW239927   3.776   2.283   8.594  0.4964  0.4004  0.8059
 9490SOL     OW39928   0.395   4.700   8.442 -0.3990 -0.5154 -0.3996
 9490SOL    HW139929   0.359   4.719   8.529 -1.3175 -2.5451 -0.3363
 9490SOL    HW239930   0.319   4.683   8.387  0.1961 -1.5762 -0.8883
 9491SOL     OW39931   0.453   1.335  10.995  0.7287 -0.0794  0.0180
 9491SOL    HW139932   0.482   1.328  11.086 -0.4233 -0.4361  0.3628
 9491SOL    HW239933   0.512   1.407  10.973  1.5452  0.1048  2.7631
 9492SOL     OW39934   0.297   4.000   3.916 -0.0415 -0.2520 -0.1313
 9492SOL    HW139935   0.236   3.972   3.984 -0.1571 -3.3804 -1.5200
 9492SOL    HW239936   0.330   3.916   3.884 -2.4757 -0.6003 -1.7376
 9493SOL     OW39937   4.557   1.715   8.929  0.1862  0.3326  0.1164
 9493SOL    HW139938   4.515   1.710   8.843 -0.1041 -0.1205  0.2911
 9493SOL    HW239939   4.492   1.756   8.986  0.4805  4.2795 -2.3655
 9494SOL     OW39940   3.682   0.674   8.116  0.1861 -0.0475  0.2257
 9494SOL    HW139941   3.602   0.629   8.144  0.1223 -0.3834 -0.4910
 9494SOL    HW239942   3.734   0.677   8.196  0.1512  1.0542  0.1986
 9495SOL     OW39943   0.306   1.304   8.614  0.2656  0.2439 -0.3032
 9495SOL    HW139944   0.338   1.367   8.679  0.1926 -1.7121  1.6392
 9495SOL    HW239945   0.229   1.350   8.583 -0.9505 -0.2432  2.0469
 9496SOL     OW39946   2.720   2.713   3.702  0.6080  0.0444 -0.8390
 9496SOL    HW139947   2.628   2.693   3.690 -0.0983  0.9092  2.9272
 9496SOL    HW239948   2.737   2.777   3.632  1.8613 -1.7674 -2.1692
 9497SOL     OW39949   3.470   4.022   2.394  0.4518  0.2961  0.5141
 9497SOL    HW139950   3.423   3.952   2.440  0.8266  0.7288  1.5487
 9497SOL    HW239951   3.512   3.976   2.320 -0.9248  0.7924 -0.5671
 9498SOL     OW39952   4.486   0.208  11.192  0.0042 -0.1039 -0.6599
 9498SOL    HW139953   4.495   0.182  11.284 -0.6142  0.0603 -0.5522
 9498SOL    HW239954   4.420   0.277  11.193 -0.2384 -0.3497  1.2549
 9499SOL     OW39955   1.540   4.378   2.351 -0.5937  0.5388 -0.5894
 9499SOL    HW139956   1.560   4.429   2.430  1.4499 -1.4238  0.1483
 9499SOL    HW239957   1.615   4.403   2.296 -1.4290  2.3238 -0.9242
 9500SOL     OW39958   1.092   1.409   1.149 -0.0033  0.3037  0.2672
 9500SOL    HW139959   1.004   1.409   1.109 -0.3621  1.7823  1.0336
 9500SOL    HW239960   1.144   1.460   1.087 -0.4034 -0.9572 -1.1110
 9501SOL     OW39961   2.963   1.828  14.180  0.4350 -0.1860 -0.2406
 9501SOL    HW139962   3.001   1.851  14.095  1.2461  2.1911  0.7420
 9501SOL    HW239963   2.892   1.893  14.180  2.4125  1.9997 -1.0978
 9502SOL     OW39964   1.772   1.966   2.935  0.0801 -1.0974 -0.1134
 9502SOL    HW139965   1.702   2.029   2.948  0.2508 -1.5012  2.6264
 9502SOL    HW239966   1.774   1.987   2.841 -1.2930  1.4712  0.4556
 9503SOL     OW39967   4.686   2.118   9.980 -0.1959 -0.1524 -0.1476
 9503SOL    HW139968   0.056   2.111   9.976 -0.1734  0.0313  0.0144
 9503SOL    HW239969   4.664   2.036  10.024  0.8749  0.1624  1.0068
 9504SOL     OW39970   1.086   1.324  11.112  0.0444 -0.0300  0.5099
 9504SOL    HW139971   1.030   1.325  11.035  0.8092  3.7890 -0.0101
 9504SOL    HW239972   1.034   1.274  11.174 -2.4072  0.1536 -1.4047
 9505SOL     OW39973   0.262   3.362  11.798  0.0666 -0.4208  0.2839
 9505SOL    HW139974   0.266   3.355  11.893  0.9115 -0.0567  0.2784
 9505SOL    HW239975   0.333   3.425  11.783 -0.5031 -0.2534 -1.7946
 9506SOL     OW39976   4.073   4.044   4.125 -0.0984 -0.5184  0.3724
 9506SOL    HW139977   4.116   4.035   4.039 -0.5065 -2.2378  0.3294
 9506SOL    HW239978   4.118   3.975   4.175  2.6468  2.8537  2.5426
 9507SOL     OW39979   1.079   1.774  12.782  0.2419  0.0047  0.2246
 9507SOL    HW139980   1.156   1.831  12.780 -2.3198  3.4629  0.2135
 9507SOL    HW239981   1.110   1.698  12.831 -0.0219 -0.6895 -0.6962
 9508SOL     OW39982   2.950   3.283  13.182  0.1851  0.1513  0.7118
 9508SOL    HW139983   2.935   3.378  13.181 -3.5108 -0.4208 -0.7670
 9508SOL    HW239984   3.021   3.266  13.244 -0.6915  1.0940  1.9890
 9509SOL     OW39985   2.210   4.242  11.495  0.0769  0.1283 -0.2184
 9509SOL    HW139986   2.154   4.194  11.433 -0.5341  0.8350 -0.2120
 9509SOL    HW239987   2.291   4.191  11.486  0.6641  0.6859  1.9684
 9510SOL     OW39988   3.713   0.789   3.393 -0.4975  0.5961  0.0914
 9510SOL    HW139989   3.729   0.876   3.357 -0.3035 -0.3506 -2.0760
 9510SOL    HW239990   3.782   0.789   3.459  1.2973  2.1370 -1.7993
 9511SOL     OW39991   4.314   3.720   8.149  0.0380 -0.0684  0.2243
 9511SOL    HW139992   4.355   3.806   8.161  0.7129 -0.3815  0.2057
 9511SOL    HW239993   4.345   3.693   8.063 -0.5013  1.4977 -0.4637
 9512SOL     OW39994   3.200   2.366   3.486 -0.3564 -0.2361  0.4655
 9512SOL    HW139995   3.152   2.398   3.563 -1.5116 -1.7353  0.3783
 9512SOL    HW239996   3.284   2.398   3.519 -0.5230  0.3325  0.3403
 9513SOL     OW39997   2.274   2.487   2.689 -0.3802  0.0927  0.1139
 9513SOL    HW139998   2.236   2.561   2.642 -1.7027 -0.9971 -0.5259
 9513SOL    HW239999   2.257   2.410   2.635  0.3281 -0.3130  0.4682
 9514SOL     OW40000   4.689   3.322   0.315  0.4363 -0.3433 -0.0805
 9514SOL    HW140001   4.685   3.243   0.262  2.0180 -0.5261  0.0779
 9514SOL    HW240002   4.699   3.383   0.242 -0.6730 -2.0889 -1.6881
 9515SOL     OW40003   1.893   4.355   3.355 -0.4447  0.2341 -0.7015
 9515SOL    HW140004   1.844   4.353   3.437  2.2374 -0.0312  0.8675
 9515SOL    HW240005   1.838   4.300   3.299  2.4778  0.0625 -3.4100
 9516SOL     OW40006   2.244   2.807   0.599 -0.3475  0.0617  0.7305
 9516SOL    HW140007   2.326   2.835   0.559 -1.4846  1.7539 -0.4212
 9516SOL    HW240008   2.203   2.750   0.535  1.7345  1.5981 -1.9736
 9517SOL     OW40009   0.100   3.198   4.928 -0.0468 -0.1444 -0.2100
 9517SOL    HW140010   0.058   3.199   4.842  0.7187 -1.6686 -0.5921
 9517SOL    HW240011   0.019   3.204   4.978 -1.3422  3.0743 -2.7164
 9518SOL     OW40012   2.434   0.956   6.734  0.0597 -0.7642  0.3031
 9518SOL    HW140013   2.452   0.862   6.736 -0.4023 -0.9302 -3.7016
 9518SOL    HW240014   2.380   0.958   6.655 -1.7061  0.1639  1.5340
 9519SOL     OW40015   4.605   3.497   9.591  0.1499  0.1908  0.1713
 9519SOL    HW140016   4.691   3.524   9.559  0.8568 -1.2335  0.8586
 9519SOL    HW240017   4.553   3.537   9.522 -0.5648 -1.1545 -0.0664
 9520SOL     OW40018   2.961   4.019  14.209  0.4966  0.1622 -0.2368
 9520SOL    HW140019   2.889   4.059  14.257 -0.4263 -2.3688  0.4842
 9520SOL    HW240020   2.930   3.930  14.192 -0.1666  0.2392  0.5792
 9521SOL     OW40021   2.972   4.178   7.325 -0.5816 -0.0756 -0.0390
 9521SOL    HW140022   3.056   4.172   7.370 -1.0131 -1.2921  0.6081
 9521SOL    HW240023   2.934   4.090   7.334  1.0058 -0.6245  1.1853
 9522SOL     OW40024   0.723   1.698   7.668  0.0128  0.7113 -0.2229
 9522SOL    HW140025   0.789   1.679   7.601 -0.1236 -5.2404  1.2894
 9522SOL    HW240026   0.787   1.734   7.730  1.1556 -1.0593 -0.3726
 9523SOL     OW40027   3.965   4.256  17.292 -0.2371  0.0414  0.6784
 9523SOL    HW140028   3.920   4.179  17.325  2.4467 -2.4007 -1.3176
 9523SOL    HW240029   3.901   4.326  17.299 -0.2162  0.0379  0.9133
 9524SOL     OW40030   2.319   4.592   5.647 -0.0986 -0.1276 -0.3393
 9524SOL    HW140031   2.408   4.557   5.639 -0.4486 -1.1185  0.1028
 9524SOL    HW240032   2.304   4.619   5.556 -0.3458 -2.4514 -0.9995
 9525SOL     OW40033   2.645   1.878  15.252 -0.2913  0.1901  0.1276
 9525SOL    HW140034   2.599   1.916  15.178  0.5239 -0.5352 -0.7488
 9525SOL    HW240035   2.570   1.864  15.310  0.1476 -1.4154  0.2981
 9526SOL     OW40036   2.518   1.674   8.298 -0.1847  0.0834  0.4855
 9526SOL    HW140037   2.458   1.742   8.271 -0.2893 -0.0425  0.4028
 9526SOL    HW240038   2.479   1.600   8.252  0.6793 -0.7254  1.0226
 9527SOL     OW40039   0.578   2.929  17.283  0.3392  0.3122  0.2568
 9527SOL    HW140040   0.634   2.936  17.205  0.5794 -0.1000  0.3931
 9527SOL    HW240041   0.588   3.015  17.323 -0.3857  0.8004 -0.6031
 9528SOL     OW40042   2.121   2.142   8.505 -0.0901 -0.1428 -0.3907
 9528SOL    HW140043   2.033   2.121   8.476  0.5253 -1.7684 -1.0848
 9528SOL    HW240044   2.147   2.060   8.548  0.7818  1.2372  1.7049
 9529SOL     OW40045   2.993   3.374   2.342 -0.0360 -0.4954  0.4397
 9529SOL    HW140046   3.030   3.308   2.283  2.4418 -1.3533  2.9395
 9529SOL    HW240047   3.080   3.414   2.355  0.5561 -0.6050 -3.0636
 9530SOL     OW40048   4.635   0.028   1.875  0.0796 -0.0302 -0.0332
 9530SOL    HW140049   4.645   0.098   1.940  0.8105 -0.4882  0.3430
 9530SOL    HW240050   4.539   0.021   1.873  0.0136  0.7381  0.4986
 9531SOL     OW40051   0.565   2.113   9.105 -0.1458  0.3055  0.3372
 9531SOL    HW140052   0.536   2.028   9.071 -0.8496  0.4175  0.6519
 9531SOL    HW240053   0.477   2.152   9.101 -0.4308 -0.2216  1.2533
 9532SOL     OW40054   4.062   2.837   4.568  0.1906 -0.3774  0.4325
 9532SOL    HW140055   4.151   2.820   4.599 -0.0423 -0.9289  0.8211
 9532SOL    HW240056   4.021   2.796   4.645  2.1572 -0.2811  1.5540
 9533SOL     OW40057   1.852   2.482  15.999 -0.4212  0.1354  0.2264
 9533SOL    HW140058   1.936   2.437  15.985 -0.3648  0.7257 -1.3147
 9533SOL    HW240059   1.835   2.550  15.935 -0.5660  0.2192  0.3551
 9534SOL     OW40060   2.066   2.977   6.029 -0.3524  0.5446 -0.1379
 9534SOL    HW140061   2.038   2.906   5.972 -0.6013 -0.5252  1.3253
 9534SOL    HW240062   1.981   3.021   6.039  0.1964  2.1967 -2.7675
 9535SOL     OW40063   0.420   4.560  15.159 -0.6586 -0.0104  0.1864
 9535SOL    HW140064   0.488   4.615  15.197  0.4642 -1.2857  0.0365
 9535SOL    HW240065   0.378   4.627  15.106 -0.9317  0.3694  0.8915
 9536SOL     OW40066   0.341   3.674   6.172 -0.5870 -0.0909  0.3936
 9536SOL    HW140067   0.376   3.707   6.089  0.7031 -2.8100 -0.1323
 9536SOL    HW240068   0.264   3.730   6.184  0.7585  2.0291 -0.9514
 9537SOL     OW40069   3.105   2.461  15.066  0.5326  0.5489 -0.0344
 9537SOL    HW140070   3.032   2.479  15.125 -1.3568  1.1503 -2.5493
 9537SOL    HW240071   3.071   2.380  15.028  1.2545 -0.2629  1.0526
 9538SOL     OW40072   0.813   2.036   1.329 -0.2051 -0.0869  0.1378
 9538SOL    HW140073   0.799   2.131   1.331  0.9014  0.0131  2.7496
 9538SOL    HW240074   0.885   2.025   1.266 -0.6314  0.2084 -0.4045
 9539SOL     OW40075   3.474   2.364   4.634 -0.0170  0.4739 -0.2244
 9539SOL    HW140076   3.560   2.337   4.601 -0.0750 -0.5090  0.4121
 9539SOL    HW240077   3.492   2.449   4.672  0.6757  0.0485  0.4076
 9540SOL     OW40078   4.033   2.246   3.362  0.1326 -0.2880 -0.1607
 9540SOL    HW140079   4.020   2.339   3.378 -2.2406 -0.3234 -1.7691
 9540SOL    HW240080   4.058   2.216   3.449 -1.4240 -1.5309 -0.1247
 9541SOL     OW40081   0.258   0.341   7.727 -0.8605  0.0019 -0.0685
 9541SOL    HW140082   0.171   0.314   7.698 -0.4779 -2.5253  1.0816
 9541SOL    HW240083   0.261   0.285   7.805  0.3895 -0.4878 -0.4646
 9542SOL     OW40084   4.251   0.075   6.902  0.2922  0.2523 -0.0659
 9542SOL    HW140085   4.236   4.710   6.875 -1.5808  0.7390 -0.6201
 9542SOL    HW240086   4.218   0.067   6.991 -1.7526  1.3253 -0.7384
 9543SOL     OW40087   1.177   4.026   2.453  0.4070 -0.0766 -0.2657
 9543SOL    HW140088   1.266   4.062   2.453  1.8395 -3.6505 -1.4414
 9543SOL    HW240089   1.148   4.101   2.506  0.0707  0.2966 -0.9878
 9544SOL     OW40090   2.118   1.204   4.101  0.0141 -0.7143  0.0789
 9544SOL    HW140091   2.137   1.254   4.180 -0.5558 -0.6438  0.1681
 9544SOL    HW240092   2.061   1.134   4.135 -0.0786 -1.1467 -0.9636
 9545SOL     OW40093   3.604   0.352  10.093  0.2206 -0.4914  0.3224
 9545SOL    HW140094   3.659   0.273  10.090  1.6983  0.5759 -0.3707
 9545SOL    HW240095   3.519   0.314  10.068 -0.0392 -0.9209  1.8108
 9546SOL     OW40096   3.653   0.234  17.427 -0.2350 -0.0469  0.2641
 9546SOL    HW140097   3.744   0.255  17.405 -0.4922 -0.9006 -1.6314
 9546SOL    HW240098   3.638   0.177  17.352  0.9318 -0.4749  0.3581
 9547SOL     OW40099   1.295   2.009   4.460 -0.8593  0.1347 -0.0000
 9547SOL    HW140100   1.370   1.957   4.433  0.1850  0.7131  1.8292
 9547SOL    HW240101   1.223   1.957   4.423 -0.9738  0.7733 -0.6923
 9548SOL     OW40102   0.665   1.076   5.122 -0.0923  0.2974  0.0087
 9548SOL    HW140103   0.656   0.989   5.160  1.1154 -1.1954 -3.2399
 9548SOL    HW240104   0.643   1.052   5.033 -0.5662 -0.2320  0.2725
 9549SOL     OW40105   2.703   1.614  15.223 -0.0473  0.1489  0.3720
 9549SOL    HW140106   2.775   1.635  15.163 -0.2009 -1.2015 -0.2926
 9549SOL    HW240107   2.651   1.694  15.216 -2.1443 -1.0701  2.3286
 9550SOL     OW40108   2.242   4.717   2.929  0.1127 -0.0911 -0.0456
 9550SOL    HW140109   2.254   4.646   2.867 -1.0131 -0.8241  0.5770
 9550SOL    HW240110   2.335   0.008   2.938  0.1827 -1.1237  1.1412
 9551SOL     OW40111   4.380   0.545   1.614 -0.0502  0.0324 -0.4733
 9551SOL    HW140112   4.367   0.484   1.542 -1.8373  1.1405 -1.0991
 9551SOL    HW240113   4.424   0.488   1.676  0.3779  0.1410 -0.6771
 9552SOL     OW40114   2.881   3.151  14.465  0.1310  0.0872  0.2554
 9552SOL    HW140115   2.865   3.222  14.403  1.4713  0.5562  0.4527
 9552SOL    HW240116   2.805   3.144  14.523 -2.3830 -0.5635 -3.1200
 9553SOL     OW40117   3.963   3.327   1.596  1.0642  0.0157 -0.4133
 9553SOL    HW140118   3.969   3.406   1.650  0.0624 -1.4566  1.8707
 9553SOL    HW240119   3.956   3.261   1.665 -1.4409 -0.1701 -0.8594
 9554SOL     OW40120   4.511   4.211   2.991  0.0298 -0.1633  0.0580
 9554SOL    HW140121   4.437   4.172   2.945  1.1108 -0.6058 -1.3053
 9554SOL    HW240122   4.578   4.193   2.925 -1.2680 -1.4464 -0.9334
 9555SOL     OW40123   0.289   1.477   5.046 -1.1660 -0.1907 -0.0023
 9555SOL    HW140124   0.381   1.480   5.021 -1.2017 -0.5886 -0.1808
 9555SOL    HW240125   0.282   1.383   5.063 -0.8396 -0.1781  0.1843
 9556SOL     OW40126   3.374   4.595   7.138 -0.7677 -0.0846  0.2191
 9556SOL    HW140127   3.284   4.597   7.105 -0.6195 -0.0660 -0.1904
 9556SOL    HW240128   3.419   4.647   7.071 -0.7011  0.5793  0.7725
 9557SOL     OW40129   0.700   2.641  17.374 -0.1996 -0.3025  0.0353
 9557SOL    HW140130   0.680   2.726  17.336 -2.1009 -0.8260 -0.1184
 9557SOL    HW240131   0.726   2.669  17.461  2.2196  0.5055 -0.9389
 9558SOL     OW40132   1.931   1.981   7.801  0.3880  0.1961  0.3206
 9558SOL    HW140133   1.910   2.061   7.752  0.8652  0.5096  0.6222
 9558SOL    HW240134   1.958   2.010   7.888  1.7603 -1.0135  0.2937
 9559SOL     OW40135   0.195   0.501   0.707 -0.8510 -0.0479 -0.5191
 9559SOL    HW140136   0.213   0.587   0.745  2.6259 -1.6069  1.3582
 9559SOL    HW240137   0.144   0.473   0.783 -1.1468  0.1361 -0.6505
 9560SOL     OW40138   3.482   3.601  15.776 -0.1911  0.3780 -1.2410
 9560SOL    HW140139   3.484   3.676  15.716  0.5894  0.4363 -1.1498
 9560SOL    HW240140   3.575   3.576  15.781 -0.3982 -0.0032  0.7410
 9561SOL     OW40141   4.280   3.146   3.252 -0.1294  0.3246  0.2378
 9561SOL    HW140142   4.225   3.224   3.263 -0.8621 -0.4184  1.8683
 9561SOL    HW240143   4.276   3.133   3.157  1.0249 -0.4795  0.3131
 9562SOL     OW40144   3.078   1.698   7.774  0.0427 -0.2241  0.0445
 9562SOL    HW140145   3.070   1.614   7.728  2.2002  0.5436 -1.7025
 9562SOL    HW240146   3.029   1.755   7.715  2.2531  0.2920 -1.2900
 9563SOL     OW40147   2.203   0.467  13.473 -0.3192  0.1220  0.4585
 9563SOL    HW140148   2.179   0.403  13.541 -0.7942  0.0972  0.2651
 9563SOL    HW240149   2.174   0.419  13.396  1.3885  0.8964 -0.6578
 9564SOL     OW40150   2.369   1.899   2.798 -0.2890 -0.3124 -0.0231
 9564SOL    HW140151   2.374   1.921   2.705 -1.0433  2.3196  0.5563
 9564SOL    HW240152   2.286   1.851   2.802  0.4297 -1.8180 -3.2645
 9565SOL     OW40153   3.766   0.644  10.729  0.2549  0.2527  0.0347
 9565SOL    HW140154   3.759   0.566  10.783 -2.3955  2.0338  2.2668
 9565SOL    HW240155   3.677   0.652  10.694  0.3614 -2.1820 -0.8132
   4.72577   4.72577  17.70430
